Generated by trjconv : CNT in water t=  61.00000
33518
    1C        C    1   2.844   2.770   4.744
    1C        C    2   2.897   2.721   4.866
    1C        C    3   2.837   2.766   4.984
    1C        C    4   2.850   2.774   4.258
    1C        C    5   2.907   2.731   4.380
    1C        C    6   2.848   2.773   4.501
    1C        C    7   3.013   2.640   4.625
    1C        C    8   2.898   2.722   4.623
    1C        C    9   3.076   2.603   4.746
    1C        C   10   3.010   2.636   4.866
    1C        C   11   3.186   2.490   4.975
    1C        C   12   3.063   2.556   4.968
    1C        C   13   2.851   2.773   3.771
    1C        C   14   2.898   2.721   3.894
    1C        C   15   2.851   2.774   4.016
    1C        C   16   3.024   2.650   4.137
    1C        C   17   2.904   2.724   4.137
    1C        C   18   3.085   2.615   4.260
    1C        C   19   3.023   2.651   4.382
    1C        C   20   3.208   2.549   4.499
    1C        C   21   3.080   2.609   4.505
    1C        C   22   3.276   2.526   4.621
    1C        C   23   3.206   2.546   4.742
    1C        C   24   3.412   2.480   4.862
    1C        C   25   3.269   2.494   4.859
    1C        C   26   3.486   2.465   4.979
    1C        C   27   2.852   2.773   3.278
    1C        C   28   2.906   2.732   3.401
    1C        C   29   2.855   2.776   3.525
    1C        C   30   3.018   2.644   3.648
    1C        C   31   2.904   2.727   3.648
    1C        C   32   3.080   2.611   3.770
    1C        C   33   3.018   2.646   3.892
    1C        C   34   3.208   2.550   4.012
    1C        C   35   3.081   2.612   4.014
    1C        C   36   3.275   2.527   4.135
    1C        C   37   3.214   2.558   4.258
    1C        C   38   3.419   2.502   4.377
    1C        C   39   3.279   2.527   4.379
    1C        C   40   3.489   2.493   4.499
    1C        C   41   3.414   2.497   4.619
    1C        C   42   3.627   2.480   4.740
    1C        C   43   3.485   2.479   4.740
    1C        C   44   3.703   2.480   4.859
    1C        C   45   3.625   2.475   4.975
    1C        C   46   2.840   2.757   2.792
    1C        C   47   2.899   2.715   2.914
    1C        C   48   2.843   2.763   3.034
    1C        C   49   3.015   2.637   3.161
    1C        C   50   2.905   2.726   3.155
    1C        C   51   3.077   2.606   3.284
    1C        C   52   3.017   2.645   3.406
    1C        C   53   3.209   2.548   3.524
    1C        C   54   3.081   2.607   3.527
    1C        C   55   3.277   2.527   3.646
    1C        C   56   3.212   2.560   3.767
    1C        C   57   3.416   2.508   3.889
    1C        C   58   3.277   2.534   3.890
    1C        C   59   3.486   2.502   4.011
    1C        C   60   3.413   2.498   4.133
    1C        C   61   3.627   2.494   4.254
    1C        C   62   3.486   2.492   4.253
    1C        C   63   3.699   2.506   4.375
    1C        C   64   3.630   2.500   4.498
    1C        C   65   3.835   2.540   4.621
    1C        C   66   3.700   2.499   4.621
    1C        C   67   3.908   2.551   4.741
    1C        C   68   3.840   2.516   4.860
    1C        C   69   4.053   2.579   4.976
    1C        C   70   3.922   2.529   4.973
    1C        C   71   2.825   2.732   2.305
    1C        C   72   2.881   2.691   2.428
    1C        C   73   2.836   2.748   2.549
    1C        C   74   3.012   2.630   2.674
    1C        C   75   2.892   2.706   2.672
    1C        C   76   3.072   2.591   2.796
    1C        C   77   3.011   2.629   2.917
    1C        C   78   3.206   2.545   3.035
    1C        C   79   3.074   2.596   3.039
    1C        C   80   3.272   2.525   3.158
    1C        C   81   3.206   2.549   3.281
    1C        C   82   3.412   2.490   3.397
    1C        C   83   3.274   2.523   3.402
    1C        C   84   3.482   2.487   3.519
    1C        C   85   3.415   2.497   3.643
    1C        C   86   3.626   2.495   3.766
    1C        C   87   3.485   2.496   3.766
    1C        C   88   3.696   2.507   3.888
    1C        C   89   3.627   2.501   4.011
    1C        C   90   3.834   2.545   4.132
    1C        C   91   3.699   2.505   4.132
    1C        C   92   3.899   2.569   4.255
    1C        C   93   3.836   2.541   4.378
    1C        C   94   4.029   2.629   4.497
    1C        C   95   3.903   2.566   4.500
    1C        C   96   4.094   2.664   4.618
    1C        C   97   4.033   2.619   4.737
    1C        C   98   4.192   2.758   4.862
    1C        C   99   4.096   2.652   4.860
    1C        C  100   4.218   2.835   4.976
    1C        C  101   2.820   2.728   2.067
    1C        C  102   2.988   2.587   2.190
    1C        C  103   2.876   2.676   2.185
    1C        C  104   3.063   2.572   2.310
    1C        C  105   3.003   2.619   2.429
    1C        C  106   3.199   2.535   2.548
    1C        C  107   3.071   2.596   2.550
    1C        C  108   3.268   2.512   2.669
    1C        C  109   3.201   2.533   2.791
    1C        C  110   3.409   2.491   2.912
    1C        C  111   3.270   2.516   2.913
    1C        C  112   3.483   2.486   3.033
    1C        C  113   3.410   2.496   3.153
    1C        C  114   3.623   2.496   3.276
    1C        C  115   3.482   2.486   3.275
    1C        C  116   3.692   2.508   3.399
    1C        C  117   3.623   2.498   3.522
    1C        C  118   3.833   2.539   3.641
    1C        C  119   3.696   2.503   3.643
    1C        C  120   3.896   2.566   3.764
    1C        C  121   3.833   2.543   3.888
    1C        C  122   4.028   2.628   4.008
    1C        C  123   3.902   2.565   4.010
    1C        C  124   4.087   2.666   4.131
    1C        C  125   4.026   2.632   4.254
    1C        C  126   4.201   2.755   4.374
    1C        C  127   4.087   2.671   4.375
    1C        C  128   4.246   2.810   4.496
    1C        C  129   4.199   2.759   4.619
    1C        C  130   4.330   2.926   4.737
    1C        C  131   4.245   2.812   4.741
    1C        C  132   4.359   2.997   4.855
    1C        C  133   4.290   2.953   4.969
    1C        C  134   3.172   2.469   2.080
    1C        C  135   3.039   2.513   2.079
    1C        C  136   3.259   2.480   2.189
    1C        C  137   3.192   2.513   2.309
    1C        C  138   3.404   2.472   2.427
    1C        C  139   3.265   2.496   2.429
    1C        C  140   3.478   2.477   2.547
    1C        C  141   3.406   2.484   2.669
    1C        C  142   3.620   2.488   2.789
    1C        C  143   3.479   2.482   2.790
    1C        C  144   3.694   2.500   2.908
    1C        C  145   3.624   2.494   3.031
    1C        C  146   3.830   2.537   3.151
    1C        C  147   3.693   2.501   3.154
    1C        C  148   3.899   2.557   3.273
    1C        C  149   3.830   2.536   3.395
    1C        C  150   4.024   2.624   3.520
    1C        C  151   3.898   2.560   3.517
    1C        C  152   4.081   2.666   3.642
    1C        C  153   4.022   2.630   3.765
    1C        C  154   4.195   2.757   3.884
    1C        C  155   4.086   2.667   3.886
    1C        C  156   4.244   2.807   4.007
    1C        C  157   4.194   2.758   4.130
    1C        C  158   4.331   2.920   4.250
    1C        C  159   4.250   2.804   4.251
    1C        C  160   4.366   2.985   4.370
    1C        C  161   4.329   2.924   4.492
    1C        C  162   4.433   3.109   4.612
    1C        C  163   4.366   2.985   4.614
    1C        C  164   4.469   3.177   4.731
    1C        C  165   4.436   3.116   4.854
    1C        C  166   4.505   3.318   4.972
    1C        C  167   4.474   3.182   4.971
    1C        C  168   3.473   2.440   2.074
    1C        C  169   3.399   2.461   2.190
    1C        C  170   3.620   2.458   2.306
    1C        C  171   3.477   2.457   2.307
    1C        C  172   3.692   2.484   2.424
    1C        C  173   3.619   2.482   2.545
    1C        C  174   3.826   2.534   2.665
    1C        C  175   3.690   2.498   2.666
    1C        C  176   3.897   2.556   2.786
    1C        C  177   3.832   2.532   2.909
    1C        C  178   4.026   2.622   3.028
    1C        C  179   3.899   2.560   3.030
    1C        C  180   4.085   2.657   3.151
    1C        C  181   4.025   2.620   3.274
    1C        C  182   4.192   2.748   3.396
    1C        C  183   4.084   2.658   3.397
    1C        C  184   4.242   2.802   3.517
    1C        C  185   4.190   2.756   3.640
    1C        C  186   4.334   2.915   3.764
    1C        C  187   4.243   2.807   3.761
    1C        C  188   4.371   2.977   3.885
    1C        C  189   4.333   2.916   4.007
    1C        C  190   4.443   3.100   4.128
    1C        C  191   4.376   2.976   4.128
    1C        C  192   4.465   3.172   4.247
    1C        C  193   4.430   3.111   4.370
    1C        C  194   4.505   3.311   4.490
    1C        C  195   4.460   3.177   4.491
    1C        C  196   4.522   3.382   4.611
    1C        C  197   4.513   3.312   4.733
    1C        C  198   4.548   3.529   4.850
    1C        C  199   4.527   3.388   4.852
    1C        C  200   4.585   3.615   4.959
    1C        C  201   3.611   2.416   2.073
    1C        C  202   3.824   2.512   2.180
    1C        C  203   3.694   2.453   2.184
    1C        C  204   3.901   2.536   2.297
    1C        C  205   3.829   2.516   2.418
    1C        C  206   4.011   2.626   2.538
    1C        C  207   3.888   2.555   2.540
    1C        C  208   4.078   2.658   2.658
    1C        C  209   4.021   2.623   2.782
    1C        C  210   4.196   2.741   2.903
    1C        C  211   4.084   2.656   2.904
    1C        C  212   4.240   2.795   3.026
    1C        C  213   4.192   2.750   3.151
    1C        C  214   4.330   2.908   3.272
    1C        C  215   4.245   2.796   3.274
    1C        C  216   4.367   2.970   3.393
    1C        C  217   4.328   2.914   3.517
    1C        C  218   4.432   3.097   3.636
    1C        C  219   4.375   2.968   3.639
    1C        C  220   4.460   3.166   3.756
    1C        C  221   4.437   3.102   3.880
    1C        C  222   4.495   3.303   4.003
    1C        C  223   4.463   3.165   4.004
    1C        C  224   4.512   3.377   4.122
    1C        C  225   4.498   3.309   4.245
    1C        C  226   4.517   3.521   4.365
    1C        C  227   4.511   3.380   4.367
    1C        C  228   4.519   3.594   4.486
    1C        C  229   4.526   3.523   4.608
    1C        C  230   4.497   3.738   4.726
    1C        C  231   4.530   3.599   4.727
    1C        C  232   4.490   3.814   4.845
    1C        C  233   4.536   3.746   4.958
    1C        C  234   4.013   2.613   2.058
    1C        C  235   3.892   2.544   2.062
    1C        C  236   4.083   2.646   2.174
    1C        C  237   4.025   2.605   2.296
    1C        C  238   4.197   2.733   2.416
    1C        C  239   4.080   2.652   2.418
    1C        C  240   4.249   2.784   2.537
    1C        C  241   4.192   2.742   2.660
    1C        C  242   4.334   2.902   2.781
    1C        C  243   4.246   2.791   2.781
    1C        C  244   4.374   2.959   2.904
    1C        C  245   4.332   2.902   3.026
    1C        C  246   4.431   3.091   3.147
    1C        C  247   4.370   2.963   3.148
    1C        C  248   4.456   3.159   3.268
    1C        C  249   4.434   3.095   3.392
    1C        C  250   4.494   3.299   3.513
    1C        C  251   4.458   3.162   3.514
    1C        C  252   4.503   3.371   3.635
    1C        C  253   4.499   3.302   3.758
    1C        C  254   4.516   3.513   3.878
    1C        C  255   4.510   3.372   3.880
    1C        C  256   4.510   3.587   3.998
    1C        C  257   4.513   3.518   4.121
    1C        C  258   4.490   3.730   4.239
    1C        C  259   4.512   3.591   4.243
    1C        C  260   4.467   3.798   4.361
    1C        C  261   4.485   3.731   4.484
    1C        C  262   4.420   3.935   4.601
    1C        C  263   4.469   3.803   4.604
    1C        C  264   4.391   4.002   4.722
    1C        C  265   4.428   3.941   4.843
    1C        C  266   4.326   4.135   4.955
    1C        C  267   4.394   4.014   4.958
    1C        C  268   4.261   2.775   2.058
    1C        C  269   4.193   2.734   2.173
    1C        C  270   4.349   2.881   2.297
    1C        C  271   4.253   2.776   2.294
    1C        C  272   4.381   2.949   2.417
    1C        C  273   4.337   2.894   2.539
    1C        C  274   4.441   3.085   2.659
    1C        C  275   4.371   2.961   2.658
    1C        C  276   4.468   3.149   2.782
    1C        C  277   4.441   3.083   2.904
    1C        C  278   4.498   3.291   3.024
    1C        C  279   4.463   3.154   3.024
    1C        C  280   4.502   3.364   3.144
    1C        C  281   4.489   3.296   3.267
    1C        C  282   4.512   3.507   3.389
    1C        C  283   4.506   3.366   3.389
    1C        C  284   4.513   3.580   3.510
    1C        C  285   4.508   3.512   3.634
    1C        C  286   4.489   3.723   3.750
    1C        C  287   4.507   3.583   3.756
    1C        C  288   4.471   3.794   3.871
    1C        C  289   4.487   3.726   3.994
    1C        C  290   4.423   3.929   4.114
    1C        C  291   4.474   3.797   4.115
    1C        C  292   4.395   3.994   4.236
    1C        C  293   4.420   3.931   4.360
    1C        C  294   4.322   4.124   4.476
    1C        C  295   4.389   4.000   4.479
    1C        C  296   4.282   4.185   4.597
    1C        C  297   4.317   4.124   4.719
    1C        C  298   4.197   4.312   4.833
    1C        C  299   4.278   4.194   4.837
    1C        C  300   4.166   4.396   4.945
    1C        C  301   4.356   2.876   2.060
    1C        C  302   4.469   3.064   2.178
    1C        C  303   4.401   2.937   2.178
    1C        C  304   4.480   3.141   2.296
    1C        C  305   4.442   3.076   2.416
    1C        C  306   4.508   3.282   2.535
    1C        C  307   4.468   3.147   2.536
    1C        C  308   4.517   3.355   2.656
    1C        C  309   4.499   3.287   2.779
    1C        C  310   4.515   3.498   2.899
    1C        C  311   4.516   3.357   2.900
    1C        C  312   4.508   3.571   3.020
    1C        C  313   4.509   3.505   3.145
    1C        C  314   4.486   3.717   3.263
    1C        C  315   4.508   3.577   3.266
    1C        C  316   4.467   3.785   3.385
    1C        C  317   4.488   3.719   3.509
    1C        C  318   4.423   3.924   3.627
    1C        C  319   4.477   3.794   3.628
    1C        C  320   4.389   3.988   3.748
    1C        C  321   4.421   3.926   3.872
    1C        C  322   4.317   4.113   3.989
    1C        C  323   4.393   3.994   3.992
    1C        C  324   4.274   4.169   4.111
    1C        C  325   4.319   4.113   4.233
    1C        C  326   4.183   4.281   4.350
    1C        C  327   4.278   4.177   4.352
    1C        C  328   4.131   4.332   4.471
    1C        C  329   4.186   4.289   4.593
    1C        C  330   4.021   4.433   4.711
    1C        C  331   4.135   4.348   4.711
    1C        C  332   3.967   4.492   4.827
    1C        C  333   4.051   4.476   4.939
    1C        C  334   4.551   3.263   2.061
    1C        C  335   4.529   3.124   2.063
    1C        C  336   4.533   3.346   2.172
    1C        C  337   4.510   3.280   2.294
    1C        C  338   4.530   3.495   2.410
    1C        C  339   4.523   3.354   2.414
    1C        C  340   4.524   3.566   2.532
    1C        C  341   4.523   3.496   2.655
    1C        C  342   4.486   3.707   2.770
    1C        C  343   4.513   3.568   2.776
    1C        C  344   4.474   3.777   2.891
    1C        C  345   4.492   3.712   3.015
    1C        C  346   4.421   3.911   3.137
    1C        C  347   4.474   3.780   3.138
    1C        C  348   4.392   3.981   3.256
    1C        C  349   4.423   3.919   3.379
    1C        C  350   4.319   4.103   3.499
    1C        C  351   4.395   3.984   3.502
    1C        C  352   4.274   4.161   3.620
    1C        C  353   4.317   4.109   3.745
    1C        C  354   4.177   4.271   3.864
    1C        C  355   4.275   4.169   3.866
    1C        C  356   4.121   4.314   3.985
    1C        C  357   4.175   4.270   4.108
    1C        C  358   4.006   4.401   4.228
    1C        C  359   4.125   4.324   4.229
    1C        C  360   3.951   4.449   4.349
    1C        C  361   4.013   4.411   4.470
    1C        C  362   3.825   4.516   4.589
    1C        C  363   3.953   4.457   4.589
    1C        C  364   3.758   4.546   4.710
    1C        C  365   3.835   4.541   4.828
    1C        C  366   3.627   4.591   4.949
    1C        C  367   3.766   4.577   4.945
    1C        C  368   4.507   3.560   2.052
    1C        C  369   4.525   3.487   2.170
    1C        C  370   4.500   3.704   2.284
    1C        C  371   4.521   3.565   2.288
    1C        C  372   4.480   3.774   2.405
    1C        C  373   4.498   3.704   2.527
    1C        C  374   4.422   3.906   2.647
    1C        C  375   4.477   3.776   2.647
    1C        C  376   4.394   3.972   2.769
    1C        C  377   4.433   3.912   2.891
    1C        C  378   4.314   4.089   3.008
    1C        C  379   4.395   3.973   3.013
    1C        C  380   4.266   4.144   3.129
    1C        C  381   4.313   4.099   3.254
    1C        C  382   4.173   4.256   3.375
    1C        C  383   4.275   4.158   3.377
    1C        C  384   4.119   4.304   3.496
    1C        C  385   4.175   4.261   3.619
    1C        C  386   4.004   4.388   3.739
    1C        C  387   4.125   4.315   3.740
    1C        C  388   3.939   4.421   3.860
    1C        C  389   4.000   4.388   3.983
    1C        C  390   3.813   4.485   4.106
    1C        C  391   3.941   4.426   4.105
    1C        C  392   3.745   4.515   4.226
    1C        C  393   3.820   4.502   4.345
    1C        C  394   3.615   4.555   4.471
    1C        C  395   3.754   4.527   4.467
    1C        C  396   3.545   4.566   4.593
    1C        C  397   3.620   4.573   4.712
    1C        C  398   3.409   4.553   4.834
    1C        C  399   3.548   4.577   4.834
    1C        C  400   3.343   4.511   4.950
    1C        C  401   4.503   3.699   2.047
    1C        C  402   4.451   3.911   2.164
    1C        C  403   4.497   3.778   2.163
    1C        C  404   4.410   3.973   2.284
    1C        C  405   4.440   3.909   2.406
    1C        C  406   4.327   4.094   2.522
    1C        C  407   4.403   3.975   2.525
    1C        C  408   4.278   4.151   2.642
    1C        C  409   4.314   4.089   2.764
    1C        C  410   4.172   4.246   2.886
    1C        C  411   4.272   4.146   2.886
    1C        C  412   4.118   4.295   3.007
    1C        C  413   4.168   4.245   3.130
    1C        C  414   3.996   4.369   3.252
    1C        C  415   4.115   4.293   3.252
    1C        C  416   3.940   4.412   3.374
    1C        C  417   4.002   4.384   3.498
    1C        C  418   3.809   4.476   3.619
    1C        C  419   3.937   4.417   3.618
    1C        C  420   3.742   4.502   3.740
    1C        C  421   3.810   4.478   3.862
    1C        C  422   3.607   4.540   3.986
    1C        C  423   3.744   4.505   3.984
    1C        C  424   3.534   4.547   4.107
    1C        C  425   3.606   4.542   4.228
    1C        C  426   3.398   4.555   4.352
    1C        C  427   3.539   4.555   4.352
    1C        C  428   3.329   4.549   4.476
    1C        C  429   3.404   4.557   4.595
    1C        C  430   3.193   4.522   4.723
    1C        C  431   3.331   4.553   4.717
    1C        C  432   3.123   4.493   4.843
    1C        C  433   3.206   4.484   4.955
    1C        C  434   4.376   4.117   2.047
    1C        C  435   4.445   3.995   2.052
    1C        C  436   4.304   4.162   2.162
    1C        C  437   4.336   4.095   2.283
    1C        C  438   4.183   4.250   2.401
    1C        C  439   4.286   4.153   2.401
    1C        C  440   4.122   4.291   2.522
    1C        C  441   4.174   4.247   2.645
    1C        C  442   3.999   4.371   2.763
    1C        C  443   4.119   4.296   2.765
    1C        C  444   3.939   4.411   2.885
    1C        C  445   4.001   4.373   3.007
    1C        C  446   3.811   4.468   3.131
    1C        C  447   3.938   4.406   3.129
    1C        C  448   3.744   4.497   3.252
    1C        C  449   3.811   4.470   3.374
    1C        C  450   3.603   4.521   3.495
    1C        C  451   3.742   4.495   3.495
    1C        C  452   3.535   4.538   3.618
    1C        C  453   3.605   4.536   3.741
    1C        C  454   3.396   4.544   3.862
    1C        C  455   3.537   4.549   3.864
    1C        C  456   3.326   4.533   3.984
    1C        C  457   3.393   4.540   4.109
    1C        C  458   3.188   4.502   4.235
    1C        C  459   3.325   4.536   4.232
    1C        C  460   3.124   4.483   4.360
    1C        C  461   3.192   4.514   4.480
    1C        C  462   2.998   4.432   4.604
    1C        C  463   3.124   4.496   4.602
    1C        C  464   2.931   4.396   4.723
    1C        C  465   2.989   4.442   4.844
    1C        C  466   2.799   4.338   4.959
    1C        C  467   2.905   4.429   4.959
    1C        C  468   4.125   4.288   2.042
    1C        C  469   4.185   4.242   2.160
    1C        C  470   4.002   4.364   2.276
    1C        C  471   4.124   4.290   2.279
    1C        C  472   3.937   4.395   2.398
    1C        C  473   4.003   4.367   2.519
    1C        C  474   3.807   4.455   2.642
    1C        C  475   3.937   4.400   2.640
    1C        C  476   3.741   4.482   2.764
    1C        C  477   3.810   4.468   2.886
    1C        C  478   3.605   4.519   3.008
    1C        C  479   3.743   4.490   3.009
    1C        C  480   3.534   4.537   3.129
    1C        C  481   3.607   4.530   3.249
    1C        C  482   3.394   4.535   3.376
    1C        C  483   3.536   4.532   3.371
    1C        C  484   3.321   4.530   3.497
    1C        C  485   3.394   4.541   3.618
    1C        C  486   3.188   4.499   3.742
    1C        C  487   3.324   4.535   3.740
    1C        C  488   3.122   4.477   3.865
    1C        C  489   3.189   4.499   3.988
    1C        C  490   3.001   4.409   4.115
    1C        C  491   3.124   4.479   4.112
    1C        C  492   2.937   4.384   4.238
    1C        C  493   2.995   4.425   4.360
    1C        C  494   2.827   4.300   4.484
    1C        C  495   2.938   4.389   4.484
    1C        C  496   2.772   4.252   4.605
    1C        C  497   2.822   4.304   4.726
    1C        C  498   2.664   4.161   4.846
    1C        C  499   2.756   4.268   4.845
    1C        C  500   2.594   4.113   4.957
    1C        C  501   4.000   4.348   2.036
    1C        C  502   3.811   4.455   2.155
    1C        C  503   3.935   4.388   2.154
    1C        C  504   3.741   4.477   2.276
    1C        C  505   3.807   4.450   2.398
    1C        C  506   3.601   4.502   2.519
    1C        C  507   3.739   4.473   2.519
    1C        C  508   3.532   4.516   2.642
    1C        C  509   3.602   4.505   2.764
    1C        C  510   3.392   4.525   2.886
    1C        C  511   3.533   4.522   2.886
    1C        C  512   3.323   4.521   3.009
    1C        C  513   3.393   4.533   3.131
    1C        C  514   3.186   4.496   3.255
    1C        C  515   3.323   4.528   3.254
    1C        C  516   3.118   4.471   3.376
    1C        C  517   3.183   4.499   3.498
    1C        C  518   2.994   4.411   3.625
    1C        C  519   3.117   4.480   3.621
    1C        C  520   2.939   4.368   3.748
    1C        C  521   3.000   4.406   3.870
    1C        C  522   2.832   4.281   3.995
    1C        C  523   2.944   4.367   3.993
    1C        C  524   2.786   4.233   4.120
    1C        C  525   2.832   4.288   4.241
    1C        C  526   2.695   4.129   4.361
    1C        C  527   2.779   4.243   4.364
    1C        C  528   2.652   4.075   4.484
    1C        C  529   2.685   4.141   4.604
    1C        C  530   2.579   3.960   4.729
    1C        C  531   2.636   4.091   4.726
    1C        C  532   2.539   3.900   4.851
    1C        C  533   2.524   3.992   4.959
    1C        C  534   3.615   4.554   2.038
    1C        C  535   3.747   4.508   2.043
    1C        C  536   3.533   4.535   2.154
    1C        C  537   3.604   4.515   2.276
    1C        C  538   3.391   4.519   2.397
    1C        C  539   3.532   4.519   2.397
    1C        C  540   3.321   4.508   2.520
    1C        C  541   3.391   4.518   2.642
    1C        C  542   3.182   4.490   2.766
    1C        C  543   3.320   4.518   2.765
    1C        C  544   3.116   4.470   2.889
    1C        C  545   3.185   4.490   3.010
    1C        C  546   2.996   4.399   3.133
    1C        C  547   3.120   4.467   3.133
    1C        C  548   2.937   4.363   3.257
    1C        C  549   2.992   4.407   3.379
    1C        C  550   2.827   4.280   3.503
    1C        C  551   2.933   4.372   3.503
    1C        C  552   2.776   4.228   3.625
    1C        C  553   2.830   4.278   3.746
    1C        C  554   2.702   4.116   3.872
    1C        C  555   2.788   4.228   3.871
    1C        C  556   2.662   4.060   3.995
    1C        C  557   2.695   4.125   4.116
    1C        C  558   2.597   3.940   4.245
    1C        C  559   2.662   4.065   4.240
    1C        C  560   2.563   3.876   4.367
    1C        C  561   2.591   3.947   4.486
    1C        C  562   2.528   3.749   4.613
    1C        C  563   2.562   3.886   4.610
    1C        C  564   2.520   3.679   4.735
    1C        C  565   2.516   3.758   4.854
    1C        C  566   2.529   3.548   4.973
    1C        C  567   2.520   3.687   4.974
    1C        C  568   3.325   4.474   2.038
    1C        C  569   3.393   4.509   2.155
    1C        C  570   3.182   4.473   2.280
    1C        C  571   3.318   4.512   2.276
    1C        C  572   3.115   4.451   2.402
    1C        C  573   3.183   4.479   2.523
    1C        C  574   2.989   4.399   2.646
    1C        C  575   3.112   4.469   2.645
    1C        C  576   2.933   4.357   2.769
    1C        C  577   2.993   4.399   2.890
    1C        C  578   2.822   4.274   3.014
    1C        C  579   2.935   4.359   3.012
    1C        C  580   2.776   4.220   3.136
    1C        C  581   2.829   4.271   3.257
    1C        C  582   2.697   4.111   3.384
    1C        C  583   2.781   4.225   3.381
    1C        C  584   2.658   4.051   3.506
    1C        C  585   2.698   4.111   3.627
    1C        C  586   2.591   3.932   3.750
    1C        C  587   2.661   4.054   3.752
    1C        C  588   2.570   3.870   3.876
    1C        C  589   2.598   3.934   3.999
    1C        C  590   2.531   3.737   4.127
    1C        C  591   2.571   3.872   4.123
    1C        C  592   2.517   3.669   4.249
    1C        C  593   2.527   3.740   4.371
    1C        C  594   2.513   3.531   4.496
    1C        C  595   2.521   3.672   4.495
    1C        C  596   2.522   3.461   4.618
    1C        C  597   2.518   3.537   4.737
    1C        C  598   2.531   3.326   4.862
    1C        C  599   2.527   3.467   4.859
    1C        C  600   2.533   3.248   4.979
    1C        C  601   3.192   4.436   2.041
    1C        C  602   2.981   4.389   2.156
    1C        C  603   3.116   4.437   2.159
    1C        C  604   2.922   4.359   2.282
    1C        C  605   2.985   4.396   2.403
    1C        C  606   2.816   4.270   2.529
    1C        C  607   2.924   4.361   2.526
    1C        C  608   2.768   4.219   2.651
    1C        C  609   2.821   4.271   2.771
    1C        C  610   2.687   4.107   2.893
    1C        C  611   2.775   4.217   2.894
    1C        C  612   2.650   4.047   3.016
    1C        C  613   2.696   4.103   3.138
    1C        C  614   2.588   3.927   3.262
    1C        C  615   2.658   4.049   3.263
    1C        C  616   2.558   3.864   3.385
    1C        C  617   2.595   3.925   3.507
    1C        C  618   2.527   3.726   3.635
    1C        C  619   2.565   3.863   3.630
    1C        C  620   2.523   3.661   3.760
    1C        C  621   2.539   3.733   3.880
    1C        C  622   2.516   3.526   4.006
    1C        C  623   2.522   3.667   4.004
    1C        C  624   2.516   3.455   4.128
    1C        C  625   2.507   3.528   4.249
    1C        C  626   2.534   3.321   4.379
    1C        C  627   2.516   3.461   4.373
    1C        C  628   2.556   3.250   4.499
    1C        C  629   2.543   3.321   4.620
    1C        C  630   2.594   3.118   4.744
    1C        C  631   2.547   3.252   4.743
    1C        C  632   2.612   3.044   4.865
    1C        C  633   2.562   3.111   4.982
    1C        C  634   2.784   4.298   2.053
    1C        C  635   2.889   4.391   2.047
    1C        C  636   2.753   4.221   2.166
    1C        C  637   2.810   4.272   2.285
    1C        C  638   2.679   4.108   2.407
    1C        C  639   2.762   4.222   2.408
    1C        C  640   2.642   4.045   2.529
    1C        C  641   2.681   4.108   2.649
    1C        C  642   2.584   3.920   2.777
    1C        C  643   2.646   4.047   2.772
    1C        C  644   2.556   3.853   2.898
    1C        C  645   2.585   3.922   3.018
    1C        C  646   2.529   3.720   3.145
    1C        C  647   2.561   3.858   3.142
    1C        C  648   2.511   3.655   3.269
    1C        C  649   2.521   3.727   3.390
    1C        C  650   2.499   3.517   3.517
    1C        C  651   2.511   3.658   3.512
    1C        C  652   2.503   3.449   3.641
    1C        C  653   2.508   3.520   3.763
    1C        C  654   2.531   3.311   3.890
    1C        C  655   2.513   3.452   3.886
    1C        C  656   2.547   3.245   4.013
    1C        C  657   2.537   3.315   4.136
    1C        C  658   2.598   3.115   4.257
    1C        C  659   2.551   3.249   4.259
    1C        C  660   2.630   3.052   4.379
    1C        C  661   2.608   3.118   4.502
    1C        C  662   2.712   2.936   4.623
    1C        C  663   2.632   3.053   4.625
    1C        C  664   2.747   2.873   4.745
    1C        C  665   2.692   2.926   4.865
    1C        C  666   2.737   2.863   4.982
    1C        C  667   2.674   4.019   2.051
    1C        C  668   2.683   4.098   2.166
    1C        C  669   2.590   3.908   2.293
    1C        C  670   2.646   4.039   2.288
    1C        C  671   2.559   3.844   2.415
    1C        C  672   2.579   3.919   2.533
    1C        C  673   2.511   3.718   2.656
    1C        C  674   2.555   3.853   2.656
    1C        C  675   2.503   3.647   2.778
    1C        C  676   2.521   3.717   2.900
    1C        C  677   2.498   3.509   3.027
    1C        C  678   2.511   3.650   3.024
    1C        C  679   2.501   3.444   3.152
    1C        C  680   2.496   3.515   3.274
    1C        C  681   2.524   3.305   3.400
    1C        C  682   2.500   3.444   3.396
    1C        C  683   2.548   3.240   3.523
    1C        C  684   2.530   3.310   3.645
    1C        C  685   2.600   3.111   3.769
    1C        C  686   2.546   3.242   3.767
    1C        C  687   2.632   3.051   3.892
    1C        C  688   2.599   3.114   4.015
    1C        C  689   2.709   2.932   4.137
    1C        C  690   2.631   3.050   4.136
    1C        C  691   2.750   2.874   4.259
    1C        C  692   2.707   2.934   4.380
    1C        C  693   2.754   2.879   4.501
    1C        C  694   2.630   3.886   2.057
    1C        C  695   2.524   3.701   2.173
    1C        C  696   2.574   3.833   2.175
    1C        C  697   2.506   3.632   2.295
    1C        C  698   2.521   3.708   2.413
    1C        C  699   2.487   3.503   2.541
    1C        C  700   2.498   3.644   2.537
    1C        C  701   2.497   3.433   2.663
    1C        C  702   2.501   3.506   2.784
    1C        C  703   2.520   3.295   2.910
    1C        C  704   2.498   3.435   2.907
    1C        C  705   2.540   3.232   3.035
    1C        C  706   2.525   3.304   3.155
    1C        C  707   2.597   3.106   3.278
    1C        C  708   2.547   3.238   3.278
    1C        C  709   2.627   3.043   3.401
    1C        C  710   2.604   3.110   3.523
    1C        C  711   2.712   2.931   3.648
    1C        C  712   2.635   3.049   3.647
    1C        C  713   2.757   2.878   3.772
    1C        C  714   2.712   2.935   3.893
    1C        C  715   2.755   2.877   4.015
    1C        C  716   2.444   3.492   2.057
    1C        C  717   2.494   3.623   2.061
    1C        C  718   2.460   3.418   2.179
    1C        C  719   2.479   3.492   2.298
    1C        C  720   2.505   3.286   2.424
    1C        C  721   2.485   3.426   2.422
    1C        C  722   2.531   3.220   2.546
    1C        C  723   2.518   3.294   2.666
    1C        C  724   2.589   3.094   2.789
    1C        C  725   2.535   3.225   2.788
    1C        C  726   2.623   3.036   2.913
    1C        C  727   2.592   3.101   3.034
    1C        C  728   2.704   2.922   3.156
    1C        C  729   2.624   3.038   3.157
    1C        C  730   2.752   2.873   3.280
    1C        C  731   2.710   2.929   3.403
    1C        C  732   2.752   2.873   3.526
    1C        C  733   2.496   3.197   2.068
    1C        C  734   2.481   3.276   2.183
    1C        C  735   2.578   3.084   2.304
    1C        C  736   2.515   3.212   2.304
    1C        C  737   2.609   3.017   2.424
    1C        C  738   2.587   3.090   2.542
    1C        C  739   2.704   2.917   2.666
    1C        C  740   2.622   3.032   2.666
    1C        C  741   2.744   2.860   2.789
    1C        C  742   2.696   2.914   2.910
    1C        C  743   2.744   2.865   3.033
    1C        C  744   2.542   3.065   2.071
    1C        C  745   2.681   2.894   2.185
    1C        C  746   2.603   3.011   2.185
    1C        C  747   2.728   2.837   2.305
    1C        C  748   2.687   2.899   2.425
    1C        C  749   2.744   2.855   2.546
    1C        C  750   2.730   2.835   2.068
    1C        C  751   3.645   2.306   1.980
    1C        O  752   3.592   2.192   1.979
    1C        O  753   3.691   2.340   1.852
    1C        C  754   4.644   3.052   2.003
    1C        O  755   4.663   3.042   1.879
    1C        O  756   4.740   2.992   2.084
    1C        C  757   4.414   4.204   1.934
    1C        O  758   4.524   4.265   1.942
    1C        O  759   4.370   4.190   1.801
    1C        C  760   3.579   4.660   1.942
    1C        O  761   3.608   4.778   1.976
    1C        O  762   3.608   4.635   1.807
    1C        C  763   2.857   4.504   1.957
    1C        O  764   2.844   4.494   1.832
    1C        O  765   2.788   4.606   2.022
    1C        C  766   2.324   3.485   1.970
    1C        O  767   2.324   3.409   1.870
    1C        O  768   2.197   3.504   2.026
    1C        C  769   4.710   3.599   5.036
    1C        O  770   4.733   3.501   5.112
    1C        O  771   4.824   3.672   4.999
    1C        C  772   4.269   4.445   5.038
    1C        O  773   4.261   4.417   5.161
    1C        O  774   4.378   4.525   4.999
    1C        C  775   4.154   2.515   5.062
    1C        O  776   4.225   2.419   5.023
    1C        O  777   4.150   2.530   5.201
    1C        C  778   2.874   4.552   5.035
    1C        O  779   2.807   4.647   4.985
    1C        O  780   2.945   4.594   5.149
    1C        C  781   2.465   3.048   5.074
    1C        O  782   2.345   3.027   5.040
    1C        O  783   2.484   3.013   5.207
    1C        C  784   2.407   3.991   5.050
    1C        O  785   2.291   4.020   5.008
    1C        O  786   2.413   3.954   5.185
    1C        C  787   2.964   2.431   1.980
    1C        O  788   3.005   2.371   1.878
    1C        O  789   2.841   2.380   2.021
    1C        C  790   3.162   2.360   5.041
    1C        O  791   3.112   2.262   4.979
    1C        O  792   3.153   2.349   5.181
    1C        H  793   4.260   3.016   5.051
    1C        H  794   4.165   2.811   5.066
    1C        H  795   4.530   3.130   5.046
    1C        H  796   4.548   3.357   5.062
    1C        H  797   4.524   3.794   5.053
    1C        H  798   4.409   3.965   5.052
    1C        H  799   4.327   4.198   5.042
    1C        H  800   4.044   4.541   5.023
    1C        H  801   3.821   4.604   5.033
    1C        H  802   3.581   4.606   5.044
    1C        H  803   3.400   4.489   5.038
    1C        H  804   3.157   4.527   5.040
    1C        H  805   3.873   2.530   5.068
    1C        H  806   3.671   2.469   5.072
    1C        H  807   3.018   2.569   5.064
    1C        H  808   3.445   2.453   5.077
    1C        H  809   2.858   2.714   5.075
    1C        H  810   2.683   2.880   5.073
    1C        H  811   2.538   3.299   5.072
    1C        H  812   2.543   3.503   5.069
    1C        H  813   2.464   3.723   5.058
    1C        H  814   2.606   4.159   5.053
    1C        H  815   2.734   4.344   5.045
    1C        H  816   2.673   2.844   1.978
    1C        H  817   2.829   2.676   1.974
    1C        H  818   3.211   2.433   1.987
    1C        H  819   3.422   2.416   1.983
    1C        H  820   3.864   2.486   1.976
    1C        H  821   4.067   2.605   1.965
    1C        H  822   4.262   2.713   1.971
    1C        H  823   4.418   2.885   1.973
    1C        H  824   4.601   3.299   1.973
    1C        H  825   4.448   3.519   1.972
    1C        H  826   4.535   3.749   1.957
    1C        H  827   3.809   4.562   1.974
    1C        H  828   3.952   4.352   1.940
    1C        H  829   4.165   4.255   1.949
    1C        H  830   4.513   3.973   1.972
    1C        H  831   2.678   3.824   1.985
    1C        H  832   2.676   4.062   1.953
    1C        H  833   2.703   4.310   1.984
    1C        H  834   3.365   4.483   1.939
    1C        H  835   3.145   4.427   1.945
    1C        H  836   2.487   2.999   2.007
    1C        H  837   2.469   3.243   1.976
    1C        H  838   2.488   3.679   1.970
    2V3OU   H29  839   2.805   3.546   1.087
    2V3OU   C27  840   2.783   3.497   1.185
    2V3OU   H27  841   2.722   3.565   1.250
    2V3OU   H28  842   2.725   3.406   1.155
    2V3OU   O11  843   2.905   3.481   1.258
    2V3OU   C15  844   2.914   3.402   1.371
    2V3OU   C13  845   3.044   3.381   1.420
    2V3OU   C14  846   3.073   3.271   1.502
    2V3OU   C16  847   2.969   3.190   1.547
    2V3OU    H6  848   2.992   3.093   1.593
    2V3OU   C12  849   3.214   3.235   1.528
    2V3OU    O2  850   3.237   3.122   1.577
    2V3OU   C10  851   3.326   3.305   1.465
    2V3OU    C8  852   3.459   3.268   1.483
    2V3OU   O10  853   3.491   3.153   1.547
    2V3OU   H26  854   3.402   3.117   1.560
    2V3OU    C6  855   3.567   3.352   1.440
    2V3OU    C5  856   3.535   3.468   1.371
    2V3OU    C4  857   3.704   3.296   1.426
    2V3OU    H4  858   3.723   3.221   1.508
    2V3OU    H5  859   3.706   3.235   1.331
    2V3OU    C2  860   3.815   3.401   1.432
    2V3OU    O6  861   3.801   3.473   1.555
    2V3OU   H21  862   3.771   3.561   1.528
    2V3OU    C3  863   3.778   3.491   1.314
    2V3OU    H2  864   3.857   3.568   1.297
    2V3OU    H3  865   3.776   3.434   1.218
    2V3OU   C25  866   3.950   3.332   1.413
    2V3OU    O7  867   4.003   3.303   1.305
    2V3OU   C26  868   4.028   3.288   1.536
    2V3OU   H22  869   4.058   3.381   1.591
    2V3OU   H23  870   4.118   3.229   1.505
    2V3OU    O8  871   3.959   3.204   1.624
    2V3OU   H24  872   3.924   3.261   1.694
    2V3OU    C1  873   3.645   3.563   1.332
    2V3OU    H1  874   3.620   3.615   1.235
    2V3OU    O3  875   3.658   3.661   1.435
    2V3OU   C19  876   3.614   3.797   1.435
    2V3OU    H9  877   3.518   3.800   1.375
    2V3OU    O4  878   3.709   3.851   1.347
    2V3OU   C20  879   3.838   3.869   1.406
    2V3OU   H10  880   3.888   3.767   1.407
    2V3OU   C24  881   3.607   3.855   1.576
    2V3OU   H16  882   3.542   3.792   1.643
    2V3OU   H17  883   3.561   3.956   1.561
    2V3OU   C23  884   3.744   3.875   1.641
    2V3OU   H15  885   3.786   3.771   1.663
    2V3OU    N1  886   3.734   3.958   1.760
    2V3OU   H19  887   3.805   3.921   1.819
    2V3OU   H20  888   3.648   3.933   1.804
    2V3OU   C21  889   3.846   3.939   1.542
    2V3OU   H11  890   3.951   3.925   1.581
    2V3OU    O5  891   3.824   4.079   1.535
    2V3OU   H18  892   3.781   4.100   1.620
    2V3OU   C22  893   3.914   3.949   1.302
    2V3OU   H12  894   3.868   4.051   1.292
    2V3OU   H13  895   3.909   3.894   1.205
    2V3OU   H14  896   4.023   3.957   1.327
    2V3OU   C11  897   3.155   3.469   1.380
    2V3OU    O1  898   3.131   3.587   1.346
    2V3OU    C9  899   3.296   3.427   1.397
    2V3OU    C7  900   3.399   3.504   1.345
    2V3OU    O9  901   3.382   3.621   1.275
    2V3OU   H25  902   3.286   3.632   1.267
    2V3OU   C17  903   2.814   3.314   1.417
    2V3OU    H7  904   2.713   3.331   1.381
    2V3OU   C18  905   2.838   3.210   1.506
    2V3OU    H8  906   2.747   3.157   1.537
    3SOL     OW  907   0.787   3.280   0.794
    3SOL    HW1  908   0.692   3.300   0.817
    3SOL    HW2  909   0.791   3.219   0.715
    4SOL     OW  910   5.759   0.488   1.948
    4SOL    HW1  911   5.850   0.529   1.939
    4SOL    HW2  912   5.702   0.516   1.870
    5SOL     OW  913   3.724   3.083   0.780
    5SOL    HW1  914   3.783   3.099   0.859
    5SOL    HW2  915   3.733   3.160   0.716
    6SOL     OW  916   2.781   1.951   1.341
    6SOL    HW1  917   2.715   1.892   1.294
    6SOL    HW2  918   2.871   1.905   1.343
    7SOL     OW  919   6.135   0.736   1.697
    7SOL    HW1  920   6.062   0.744   1.765
    7SOL    HW2  921   6.220   0.710   1.743
    8SOL     OW  922   2.521   1.737   4.056
    8SOL    HW1  923   2.530   1.815   3.994
    8SOL    HW2  924   2.539   1.767   4.149
    9SOL     OW  925   0.972   3.819   5.762
    9SOL    HW1  926   0.994   3.850   5.854
    9SOL    HW2  927   0.940   3.897   5.707
   10SOL     OW  928   0.242   4.409   0.290
   10SOL    HW1  929   0.153   4.391   0.250
   10SOL    HW2  930   0.312   4.408   0.218
   11SOL     OW  931   4.213   6.454   6.747
   11SOL    HW1  932   4.113   6.458   6.751
   11SOL    HW2  933   4.251   6.478   6.836
   12SOL     OW  934   5.860   6.042   2.412
   12SOL    HW1  935   5.851   6.137   2.382
   12SOL    HW2  936   5.823   6.032   2.504
   13SOL     OW  937   2.153   6.996   3.310
   13SOL    HW1  938   2.211   0.000   3.388
   13SOL    HW2  939   2.091   0.052   3.291
   14SOL     OW  940   2.923   6.581   1.671
   14SOL    HW1  941   2.859   6.546   1.739
   14SOL    HW2  942   2.940   6.512   1.601
   15SOL     OW  943   1.409   6.412   6.226
   15SOL    HW1  944   1.348   6.336   6.204
   15SOL    HW2  945   1.478   6.380   6.292
   16SOL     OW  946   6.342   1.492   6.228
   16SOL    HW1  947   6.391   1.485   6.141
   16SOL    HW2  948   6.272   1.421   6.232
   17SOL     OW  949   4.937   6.022   3.604
   17SOL    HW1  950   4.924   6.078   3.686
   17SOL    HW2  951   5.007   6.064   3.546
   18SOL     OW  952   1.700   1.589   6.596
   18SOL    HW1  953   1.779   1.650   6.605
   18SOL    HW2  954   1.632   1.611   6.666
   19SOL     OW  955   0.621   6.980   1.755
   19SOL    HW1  956   0.600   0.051   1.718
   19SOL    HW2  957   0.709   6.983   1.803
   20SOL     OW  958   3.109   1.619   4.464
   20SOL    HW1  959   3.044   1.610   4.388
   20SOL    HW2  960   3.066   1.672   4.537
   21SOL     OW  961   2.858   2.485   0.917
   21SOL    HW1  962   2.952   2.479   0.952
   21SOL    HW2  963   2.858   2.527   0.827
   22SOL     OW  964   1.081   0.389   6.090
   22SOL    HW1  965   1.143   0.466   6.076
   22SOL    HW2  966   1.092   0.323   6.016
   23SOL     OW  967   4.011   6.124   4.468
   23SOL    HW1  968   3.995   6.038   4.419
   23SOL    HW2  969   3.938   6.189   4.446
   24SOL     OW  970   4.052   1.538   4.485
   24SOL    HW1  971   4.133   1.485   4.508
   24SOL    HW2  972   4.076   1.635   4.476
   25SOL     OW  973   3.001   4.977   0.946
   25SOL    HW1  974   3.046   5.066   0.955
   25SOL    HW2  975   3.071   4.905   0.941
   26SOL     OW  976   6.238   1.580   2.474
   26SOL    HW1  977   6.177   1.618   2.404
   26SOL    HW2  978   6.328   1.623   2.466
   27SOL     OW  979   6.169   6.115   2.058
   27SOL    HW1  980   6.120   6.161   2.131
   27SOL    HW2  981   6.107   6.053   2.009
   28SOL     OW  982   3.114   0.478   0.408
   28SOL    HW1  983   3.114   0.379   0.400
   28SOL    HW2  984   3.150   0.519   0.324
   29SOL     OW  985   4.063   2.249   1.720
   29SOL    HW1  986   4.074   2.348   1.728
   29SOL    HW2  987   4.138   2.211   1.667
   30SOL     OW  988   3.762   1.100   4.577
   30SOL    HW1  989   3.677   1.145   4.549
   30SOL    HW2  990   3.828   1.170   4.605
   31SOL     OW  991   0.659   0.737   5.327
   31SOL    HW1  992   0.752   0.773   5.318
   31SOL    HW2  993   0.663   0.638   5.343
   32SOL     OW  994   0.024   2.304   1.815
   32SOL    HW1  995   7.008   2.358   1.738
   32SOL    HW2  996   0.024   2.207   1.790
   33SOL     OW  997   1.333   1.870   5.420
   33SOL    HW1  998   1.400   1.872   5.346
   33SOL    HW2  999   1.263   1.802   5.401
   34SOL     OW 1000   1.044   0.447   4.829
   34SOL    HW1 1001   1.142   0.437   4.815
   34SOL    HW2 1002   0.997   0.363   4.802
   35SOL     OW 1003   4.363   1.581   6.375
   35SOL    HW1 1004   4.351   1.508   6.442
   35SOL    HW2 1005   4.460   1.605   6.369
   36SOL     OW 1006   1.657   1.282   5.772
   36SOL    HW1 1007   1.635   1.349   5.701
   36SOL    HW2 1008   1.747   1.243   5.755
   37SOL     OW 1009   2.483   6.658   1.299
   37SOL    HW1 1010   2.520   6.628   1.212
   37SOL    HW2 1011   2.524   6.746   1.325
   38SOL     OW 1012   0.281   5.919   2.872
   38SOL    HW1 1013   0.311   5.879   2.959
   38SOL    HW2 1014   0.362   5.944   2.818
   39SOL     OW 1015   6.865   3.370   5.916
   39SOL    HW1 1016   6.920   3.434   5.861
   39SOL    HW2 1017   6.894   3.277   5.897
   40SOL     OW 1018   6.740   0.743   1.606
   40SOL    HW1 1019   6.689   0.795   1.674
   40SOL    HW2 1020   6.763   0.802   1.529
   41SOL     OW 1021   1.085   0.056   5.571
   41SOL    HW1 1022   1.152   7.005   5.596
   41SOL    HW2 1023   1.071   0.056   5.472
   42SOL     OW 1024   3.450   0.966   0.397
   42SOL    HW1 1025   3.546   0.972   0.422
   42SOL    HW2 1026   3.409   0.886   0.440
   43SOL     OW 1027   5.423   5.510   5.270
   43SOL    HW1 1028   5.357   5.454   5.219
   43SOL    HW2 1029   5.379   5.596   5.297
   44SOL     OW 1030   0.706   3.425   6.480
   44SOL    HW1 1031   0.626   3.392   6.429
   44SOL    HW2 1032   0.762   3.482   6.419
   45SOL     OW 1033   3.217   0.335   1.950
   45SOL    HW1 1034   3.306   0.352   1.992
   45SOL    HW2 1035   3.148   0.322   2.022
   46SOL     OW 1036   1.717   4.509   3.817
   46SOL    HW1 1037   1.653   4.556   3.757
   46SOL    HW2 1038   1.784   4.575   3.853
   47SOL     OW 1039   6.409   4.502   3.393
   47SOL    HW1 1040   6.392   4.431   3.325
   47SOL    HW2 1041   6.424   4.590   3.347
   48SOL     OW 1042   1.074   2.101   5.433
   48SOL    HW1 1043   1.171   2.122   5.437
   48SOL    HW2 1044   1.060   2.003   5.448
   49SOL     OW 1045   4.804   2.332   0.464
   49SOL    HW1 1046   4.772   2.425   0.477
   49SOL    HW2 1047   4.845   2.322   0.374
   50SOL     OW 1048   6.429   3.956   4.531
   50SOL    HW1 1049   6.362   4.011   4.582
   50SOL    HW2 1050   6.521   3.985   4.555
   51SOL     OW 1051   3.377   5.619   2.840
   51SOL    HW1 1052   3.343   5.612   2.746
   51SOL    HW2 1053   3.316   5.678   2.893
   52SOL     OW 1054   1.280   2.506   1.505
   52SOL    HW1 1055   1.361   2.462   1.543
   52SOL    HW2 1056   1.203   2.441   1.505
   53SOL     OW 1057   5.057   6.689   4.085
   53SOL    HW1 1058   5.115   6.736   4.151
   53SOL    HW2 1059   5.113   6.632   4.026
   54SOL     OW 1060   4.032   5.646   6.053
   54SOL    HW1 1061   4.060   5.742   6.049
   54SOL    HW2 1062   3.996   5.618   5.964
   55SOL     OW 1063   4.081   2.350   0.472
   55SOL    HW1 1064   4.050   2.258   0.449
   55SOL    HW2 1065   4.041   2.377   0.560
   56SOL     OW 1066   0.853   6.956   1.888
   56SOL    HW1 1067   0.806   6.868   1.880
   56SOL    HW2 1068   0.948   6.940   1.916
   57SOL     OW 1069   5.641   0.537   0.853
   57SOL    HW1 1070   5.605   0.605   0.917
   57SOL    HW2 1071   5.672   0.457   0.904
   58SOL     OW 1072   6.754   6.424   6.929
   58SOL    HW1 1073   6.685   6.495   6.938
   58SOL    HW2 1074   6.835   6.461   6.883
   59SOL     OW 1075   1.122   0.052   4.857
   59SOL    HW1 1076   1.130   0.124   4.927
   59SOL    HW2 1077   1.208   0.000   4.854
   60SOL     OW 1078   4.930   6.588   4.804
   60SOL    HW1 1079   4.910   6.678   4.844
   60SOL    HW2 1080   5.020   6.591   4.759
   61SOL     OW 1081   4.128   6.993   4.707
   61SOL    HW1 1082   4.037   6.954   4.716
   61SOL    HW2 1083   4.143   0.001   4.612
   62SOL     OW 1084   2.385   1.345   4.588
   62SOL    HW1 1085   2.370   1.442   4.604
   62SOL    HW2 1086   2.378   1.326   4.490
   63SOL     OW 1087   6.621   3.557   3.455
   63SOL    HW1 1088   6.576   3.536   3.542
   63SOL    HW2 1089   6.682   3.482   3.431
   64SOL     OW 1090   6.755   2.676   5.671
   64SOL    HW1 1091   6.778   2.590   5.716
   64SOL    HW2 1092   6.663   2.705   5.700
   65SOL     OW 1093   7.001   4.673   6.247
   65SOL    HW1 1094   0.043   4.627   6.183
   65SOL    HW2 1095   0.029   4.690   6.333
   66SOL     OW 1096   2.710   1.410   0.575
   66SOL    HW1 1097   2.767   1.345   0.625
   66SOL    HW2 1098   2.716   1.391   0.477
   67SOL     OW 1099   5.298   6.053   4.216
   67SOL    HW1 1100   5.363   6.082   4.286
   67SOL    HW2 1101   5.274   6.131   4.158
   68SOL     OW 1102   5.726   2.502   6.158
   68SOL    HW1 1103   5.823   2.528   6.161
   68SOL    HW2 1104   5.705   2.463   6.069
   69SOL     OW 1105   2.879   3.320   6.077
   69SOL    HW1 1106   2.880   3.308   6.176
   69SOL    HW2 1107   2.808   3.386   6.052
   70SOL     OW 1108   0.232   4.964   1.979
   70SOL    HW1 1109   0.329   4.960   1.957
   70SOL    HW2 1110   0.180   4.907   1.915
   71SOL     OW 1111   1.440   2.499   3.130
   71SOL    HW1 1112   1.468   2.586   3.170
   71SOL    HW2 1113   1.440   2.506   3.031
   72SOL     OW 1114   3.534   5.767   4.124
   72SOL    HW1 1115   3.477   5.753   4.043
   72SOL    HW2 1116   3.615   5.820   4.099
   73SOL     OW 1117   4.485   2.759   0.145
   73SOL    HW1 1118   4.451   2.697   0.075
   73SOL    HW2 1119   4.552   2.711   0.202
   74SOL     OW 1120   5.204   5.713   5.848
   74SOL    HW1 1121   5.181   5.619   5.875
   74SOL    HW2 1122   5.234   5.764   5.929
   75SOL     OW 1123   3.971   5.273   5.808
   75SOL    HW1 1124   3.903   5.327   5.758
   75SOL    HW2 1125   3.946   5.269   5.904
   76SOL     OW 1126   2.528   2.875   1.291
   76SOL    HW1 1127   2.428   2.871   1.292
   76SOL    HW2 1128   2.558   2.969   1.309
   77SOL     OW 1129   5.753   4.998   6.471
   77SOL    HW1 1130   5.782   5.093   6.474
   77SOL    HW2 1131   5.773   4.953   6.558
   78SOL     OW 1132   6.393   6.607   6.106
   78SOL    HW1 1133   6.310   6.631   6.056
   78SOL    HW2 1134   6.408   6.509   6.101
   79SOL     OW 1135   2.966   0.281   0.024
   79SOL    HW1 1136   2.938   0.268   0.120
   79SOL    HW2 1137   2.914   0.357   7.004
   80SOL     OW 1138   0.353   1.640   4.326
   80SOL    HW1 1139   0.263   1.605   4.356
   80SOL    HW2 1140   0.421   1.567   4.335
   81SOL     OW 1141   1.068   0.373   3.772
   81SOL    HW1 1142   1.061   0.275   3.758
   81SOL    HW2 1143   1.013   0.400   3.851
   82SOL     OW 1144   0.303   4.558   5.180
   82SOL    HW1 1145   0.336   4.464   5.192
   82SOL    HW2 1146   0.241   4.581   5.255
   83SOL     OW 1147   0.025   6.882   6.904
   83SOL    HW1 1148   6.945   6.869   6.901
   83SOL    HW2 1149   0.066   6.844   6.822
   84SOL     OW 1150   6.052   3.810   1.702
   84SOL    HW1 1151   5.955   3.785   1.698
   84SOL    HW2 1152   6.104   3.750   1.642
   85SOL     OW 1153   0.194   2.792   5.862
   85SOL    HW1 1154   0.095   2.797   5.875
   85SOL    HW2 1155   0.240   2.817   5.947
   86SOL     OW 1156   1.132   0.881   5.752
   86SOL    HW1 1157   1.099   0.940   5.826
   86SOL    HW2 1158   1.191   0.934   5.691
   87SOL     OW 1159   4.173   0.872   1.355
   87SOL    HW1 1160   4.229   0.924   1.291
   87SOL    HW2 1161   4.177   0.775   1.332
   88SOL     OW 1162   5.007   0.470   0.725
   88SOL    HW1 1163   4.971   0.424   0.806
   88SOL    HW2 1164   5.046   0.558   0.752
   89SOL     OW 1165   1.731   2.256   5.894
   89SOL    HW1 1166   1.717   2.341   5.843
   89SOL    HW2 1167   1.783   2.276   5.977
   90SOL     OW 1168   6.282   6.571   3.393
   90SOL    HW1 1169   6.276   6.580   3.293
   90SOL    HW2 1170   6.321   6.654   3.432
   91SOL     OW 1171   4.796   4.838   4.734
   91SOL    HW1 1172   4.812   4.745   4.767
   91SOL    HW2 1173   4.790   4.837   4.634
   92SOL     OW 1174   3.226   6.006   1.049
   92SOL    HW1 1175   3.287   5.950   0.992
   92SOL    HW2 1176   3.280   6.069   1.104
   93SOL     OW 1177   3.676   5.306   5.847
   93SOL    HW1 1178   3.660   5.278   5.942
   93SOL    HW2 1179   3.683   5.224   5.790
   94SOL     OW 1180   2.381   6.054   0.629
   94SOL    HW1 1181   2.438   5.981   0.666
   94SOL    HW2 1182   2.403   6.068   0.532
   95SOL     OW 1183   6.440   0.624   4.809
   95SOL    HW1 1184   6.527   0.667   4.784
   95SOL    HW2 1185   6.408   0.662   4.896
   96SOL     OW 1186   1.706   0.312   5.142
   96SOL    HW1 1187   1.611   0.327   5.170
   96SOL    HW2 1188   1.759   0.280   5.220
   97SOL     OW 1189   6.226   3.255   5.336
   97SOL    HW1 1190   6.194   3.168   5.372
   97SOL    HW2 1191   6.326   3.255   5.332
   98SOL     OW 1192   5.993   2.543   6.189
   98SOL    HW1 1193   6.008   2.456   6.143
   98SOL    HW2 1194   6.008   2.532   6.287
   99SOL     OW 1195   4.269   2.078   1.180
   99SOL    HW1 1196   4.274   2.019   1.261
   99SOL    HW2 1197   4.321   2.038   1.106
  100SOL     OW 1198   6.485   5.468   5.967
  100SOL    HW1 1199   6.485   5.399   5.895
  100SOL    HW2 1200   6.575   5.512   5.971
  101SOL     OW 1201   0.819   6.350   3.615
  101SOL    HW1 1202   0.873   6.431   3.592
  101SOL    HW2 1203   0.854   6.310   3.700
  102SOL     OW 1204   4.950   6.890   3.571
  102SOL    HW1 1205   4.910   6.932   3.652
  102SOL    HW2 1206   4.877   6.871   3.505
  103SOL     OW 1207   3.715   1.806   1.023
  103SOL    HW1 1208   3.682   1.901   1.028
  103SOL    HW2 1209   3.714   1.766   1.115
  104SOL     OW 1210   0.097   5.763   1.767
  104SOL    HW1 1211   0.035   5.822   1.818
  104SOL    HW2 1212   0.114   5.679   1.819
  105SOL     OW 1213   5.064   1.102   5.440
  105SOL    HW1 1214   5.057   1.171   5.513
  105SOL    HW2 1215   5.110   1.141   5.361
  106SOL     OW 1216   2.983   6.351   6.826
  106SOL    HW1 1217   3.023   6.327   6.915
  106SOL    HW2 1218   2.891   6.311   6.819
  107SOL     OW 1219   2.315   3.471   1.287
  107SOL    HW1 1220   2.279   3.537   1.354
  107SOL    HW2 1221   2.349   3.520   1.207
  108SOL     OW 1222   4.960   4.414   5.661
  108SOL    HW1 1223   4.962   4.337   5.725
  108SOL    HW2 1224   4.969   4.500   5.711
  109SOL     OW 1225   6.344   0.931   1.211
  109SOL    HW1 1226   6.256   0.884   1.223
  109SOL    HW2 1227   6.345   1.014   1.266
  110SOL     OW 1228   4.161   5.513   5.613
  110SOL    HW1 1229   4.211   5.571   5.678
  110SOL    HW2 1230   4.151   5.561   5.526
  111SOL     OW 1231   3.953   0.959   3.395
  111SOL    HW1 1232   3.959   1.037   3.333
  111SOL    HW2 1233   3.858   0.929   3.402
  112SOL     OW 1234   0.584   0.561   6.152
  112SOL    HW1 1235   0.548   0.652   6.133
  112SOL    HW2 1236   0.681   0.559   6.130
  113SOL     OW 1237   0.401   5.250   3.804
  113SOL    HW1 1238   0.353   5.319   3.749
  113SOL    HW2 1239   0.406   5.164   3.753
  114SOL     OW 1240   0.441   6.724   0.002
  114SOL    HW1 1241   0.496   6.694   0.079
  114SOL    HW2 1242   0.405   6.815   0.020
  115SOL     OW 1243   5.078   0.973   4.760
  115SOL    HW1 1244   5.110   0.947   4.851
  115SOL    HW2 1245   5.156   1.004   4.705
  116SOL     OW 1246   6.280   4.453   2.312
  116SOL    HW1 1247   6.287   4.488   2.406
  116SOL    HW2 1248   6.251   4.527   2.251
  117SOL     OW 1249   1.323   0.034   6.705
  117SOL    HW1 1250   1.356   6.968   6.664
  117SOL    HW2 1251   1.396   0.102   6.705
  118SOL     OW 1252   1.377   0.550   2.421
  118SOL    HW1 1253   1.303   0.499   2.378
  118SOL    HW2 1254   1.372   0.646   2.393
  119SOL     OW 1255   6.858   3.013   6.266
  119SOL    HW1 1256   6.813   3.013   6.355
  119SOL    HW2 1257   6.910   3.098   6.254
  120SOL     OW 1258   5.682   6.516   1.211
  120SOL    HW1 1259   5.590   6.483   1.190
  120SOL    HW2 1260   5.731   6.447   1.263
  121SOL     OW 1261   2.740   3.144   5.819
  121SOL    HW1 1262   2.807   3.076   5.788
  121SOL    HW2 1263   2.723   3.133   5.917
  122SOL     OW 1264   0.346   3.269   4.575
  122SOL    HW1 1265   0.405   3.205   4.624
  122SOL    HW2 1266   0.357   3.360   4.615
  123SOL     OW 1267   1.039   1.920   1.393
  123SOL    HW1 1268   1.078   1.831   1.415
  123SOL    HW2 1269   1.087   1.959   1.315
  124SOL     OW 1270   5.014   2.869   0.904
  124SOL    HW1 1271   5.114   2.868   0.901
  124SOL    HW2 1272   4.983   2.950   0.954
  125SOL     OW 1273   2.090   3.306   1.842
  125SOL    HW1 1274   2.169   3.366   1.852
  125SOL    HW2 1275   2.112   3.215   1.879
  126SOL     OW 1276   3.187   4.721   1.605
  126SOL    HW1 1277   3.089   4.731   1.623
  126SOL    HW2 1278   3.232   4.810   1.613
  127SOL     OW 1279   0.418   5.973   6.053
  127SOL    HW1 1280   0.491   5.967   6.120
  127SOL    HW2 1281   0.357   5.894   6.062
  128SOL     OW 1282   4.458   2.530   1.602
  128SOL    HW1 1283   4.493   2.584   1.678
  128SOL    HW2 1284   4.405   2.589   1.541
  129SOL     OW 1285   2.644   3.807   6.511
  129SOL    HW1 1286   2.663   3.721   6.465
  129SOL    HW2 1287   2.730   3.858   6.522
  130SOL     OW 1288   1.510   2.011   4.741
  130SOL    HW1 1289   1.543   2.103   4.719
  130SOL    HW2 1290   1.427   1.993   4.689
  131SOL     OW 1291   5.202   1.506   2.655
  131SOL    HW1 1292   5.173   1.411   2.642
  131SOL    HW2 1293   5.173   1.561   2.577
  132SOL     OW 1294   0.708   2.250   0.659
  132SOL    HW1 1295   0.772   2.328   0.661
  132SOL    HW2 1296   0.621   2.279   0.620
  133SOL     OW 1297   6.485   5.069   2.213
  133SOL    HW1 1298   6.455   5.149   2.161
  133SOL    HW2 1299   6.444   4.987   2.174
  134SOL     OW 1300   0.421   3.497   2.822
  134SOL    HW1 1301   0.350   3.555   2.782
  134SOL    HW2 1302   0.416   3.501   2.922
  135SOL     OW 1303   5.024   1.460   4.224
  135SOL    HW1 1304   5.016   1.458   4.124
  135SOL    HW2 1305   4.943   1.417   4.265
  136SOL     OW 1306   5.878   4.654   5.290
  136SOL    HW1 1307   5.947   4.697   5.231
  136SOL    HW2 1308   5.788   4.660   5.246
  137SOL     OW 1309   4.052   0.218   5.538
  137SOL    HW1 1310   4.101   0.255   5.459
  137SOL    HW2 1311   3.983   0.283   5.569
  138SOL     OW 1312   6.907   5.127   4.620
  138SOL    HW1 1313   6.843   5.149   4.694
  138SOL    HW2 1314   6.864   5.145   4.532
  139SOL     OW 1315   3.679   5.385   5.409
  139SOL    HW1 1316   3.632   5.465   5.372
  139SOL    HW2 1317   3.757   5.362   5.351
  140SOL     OW 1318   6.172   4.115   4.561
  140SOL    HW1 1319   6.092   4.095   4.618
  140SOL    HW2 1320   6.142   4.154   4.474
  141SOL     OW 1321   1.460   2.052   3.680
  141SOL    HW1 1322   1.395   2.054   3.604
  141SOL    HW2 1323   1.503   2.142   3.689
  142SOL     OW 1324   1.745   5.393   1.432
  142SOL    HW1 1325   1.678   5.434   1.370
  142SOL    HW2 1326   1.701   5.325   1.490
  143SOL     OW 1327   5.805   4.102   1.751
  143SOL    HW1 1328   5.732   4.050   1.797
  143SOL    HW2 1329   5.890   4.091   1.801
  144SOL     OW 1330   2.640   6.695   0.070
  144SOL    HW1 1331   2.626   6.739   0.159
  144SOL    HW2 1332   2.731   6.719   0.035
  145SOL     OW 1333   6.981   5.725   0.762
  145SOL    HW1 1334   6.995   5.651   0.696
  145SOL    HW2 1335   6.888   5.721   0.798
  146SOL     OW 1336   5.998   5.050   0.787
  146SOL    HW1 1337   6.060   5.128   0.780
  146SOL    HW2 1338   6.013   5.003   0.874
  147SOL     OW 1339   6.234   2.092   1.001
  147SOL    HW1 1340   6.144   2.056   1.028
  147SOL    HW2 1341   6.240   2.189   1.026
  148SOL     OW 1342   1.446   5.284   5.532
  148SOL    HW1 1343   1.411   5.378   5.527
  148SOL    HW2 1344   1.480   5.266   5.624
  149SOL     OW 1345   3.072   1.015   5.460
  149SOL    HW1 1346   3.108   0.956   5.533
  149SOL    HW2 1347   2.985   0.979   5.427
  150SOL     OW 1348   0.065   5.354   6.418
  150SOL    HW1 1349   6.997   5.307   6.410
  150SOL    HW2 1350   0.081   5.380   6.513
  151SOL     OW 1351   4.104   1.449   1.517
  151SOL    HW1 1352   4.148   1.475   1.603
  151SOL    HW2 1353   4.043   1.522   1.487
  152SOL     OW 1354   3.522   1.174   4.497
  152SOL    HW1 1355   3.489   1.215   4.412
  152SOL    HW2 1356   3.530   1.075   4.486
  153SOL     OW 1357   2.584   0.992   3.246
  153SOL    HW1 1358   2.674   0.952   3.261
  153SOL    HW2 1359   2.576   1.019   3.150
  154SOL     OW 1360   0.032   2.273   2.627
  154SOL    HW1 1361   6.978   2.207   2.648
  154SOL    HW2 1362   0.115   2.247   2.676
  155SOL     OW 1363   0.265   0.930   3.354
  155SOL    HW1 1364   0.222   0.882   3.278
  155SOL    HW2 1365   0.206   0.925   3.435
  156SOL     OW 1366   6.500   1.992   1.074
  156SOL    HW1 1367   6.499   1.952   1.166
  156SOL    HW2 1368   6.407   2.018   1.048
  157SOL     OW 1369   5.533   3.599   2.714
  157SOL    HW1 1370   5.460   3.668   2.708
  157SOL    HW2 1371   5.518   3.529   2.644
  158SOL     OW 1372   1.672   1.514   3.183
  158SOL    HW1 1373   1.668   1.414   3.179
  158SOL    HW2 1374   1.621   1.545   3.263
  159SOL     OW 1375   5.074   3.817   2.060
  159SOL    HW1 1376   5.073   3.728   2.014
  159SOL    HW2 1377   5.007   3.878   2.017
  160SOL     OW 1378   6.656   4.338   5.804
  160SOL    HW1 1379   6.728   4.269   5.815
  160SOL    HW2 1380   6.568   4.299   5.829
  161SOL     OW 1381   3.114   4.962   4.825
  161SOL    HW1 1382   3.103   4.899   4.902
  161SOL    HW2 1383   3.082   5.053   4.852
  162SOL     OW 1384   4.321   6.000   1.534
  162SOL    HW1 1385   4.414   6.023   1.506
  162SOL    HW2 1386   4.318   5.989   1.634
  163SOL     OW 1387   4.704   0.864   2.221
  163SOL    HW1 1388   4.696   0.943   2.281
  163SOL    HW2 1389   4.687   0.892   2.126
  164SOL     OW 1390   5.643   3.231   1.296
  164SOL    HW1 1391   5.549   3.234   1.331
  164SOL    HW2 1392   5.696   3.306   1.336
  165SOL     OW 1393   4.984   4.181   6.567
  165SOL    HW1 1394   4.891   4.191   6.530
  165SOL    HW2 1395   4.979   4.159   6.664
  166SOL     OW 1396   1.149   0.348   1.773
  166SOL    HW1 1397   1.139   0.411   1.696
  166SOL    HW2 1398   1.059   0.331   1.814
  167SOL     OW 1399   6.652   3.051   0.465
  167SOL    HW1 1400   6.651   3.059   0.366
  167SOL    HW2 1401   6.562   3.025   0.498
  168SOL     OW 1402   2.234   5.626   1.006
  168SOL    HW1 1403   2.237   5.645   0.908
  168SOL    HW2 1404   2.224   5.712   1.056
  169SOL     OW 1405   1.665   6.575   1.574
  169SOL    HW1 1406   1.627   6.560   1.665
  169SOL    HW2 1407   1.758   6.612   1.582
  170SOL     OW 1408   0.399   1.791   3.227
  170SOL    HW1 1409   0.329   1.719   3.229
  170SOL    HW2 1410   0.362   1.875   3.268
  171SOL     OW 1411   3.332   3.503   6.611
  171SOL    HW1 1412   3.356   3.591   6.652
  171SOL    HW2 1413   3.408   3.439   6.624
  172SOL     OW 1414   0.314   2.928   6.357
  172SOL    HW1 1415   0.379   2.865   6.315
  172SOL    HW2 1416   0.221   2.903   6.329
  173SOL     OW 1417   0.435   6.023   5.795
  173SOL    HW1 1418   0.437   6.120   5.771
  173SOL    HW2 1419   0.423   6.014   5.894
  174SOL     OW 1420   2.749   5.234   3.603
  174SOL    HW1 1421   2.728   5.254   3.699
  174SOL    HW2 1422   2.718   5.142   3.581
  175SOL     OW 1423   1.009   5.592   2.778
  175SOL    HW1 1424   0.971   5.555   2.693
  175SOL    HW2 1425   0.937   5.638   2.830
  176SOL     OW 1426   2.365   5.299   1.176
  176SOL    HW1 1427   2.405   5.363   1.111
  176SOL    HW2 1428   2.272   5.276   1.146
  177SOL     OW 1429   4.894   1.829   2.404
  177SOL    HW1 1430   4.864   1.904   2.345
  177SOL    HW2 1431   4.899   1.862   2.499
  178SOL     OW 1432   5.939   4.941   6.273
  178SOL    HW1 1433   5.871   4.924   6.345
  178SOL    HW2 1434   6.017   4.990   6.312
  179SOL     OW 1435   2.882   0.116   0.635
  179SOL    HW1 1436   2.879   0.191   0.700
  179SOL    HW2 1437   2.791   0.076   0.625
  180SOL     OW 1438   0.877   2.159   6.823
  180SOL    HW1 1439   0.968   2.184   6.857
  180SOL    HW2 1440   0.809   2.177   6.894
  181SOL     OW 1441   3.349   2.735   5.234
  181SOL    HW1 1442   3.428   2.761   5.178
  181SOL    HW2 1443   3.284   2.811   5.236
  182SOL     OW 1444   4.431   2.511   4.862
  182SOL    HW1 1445   4.429   2.468   4.772
  182SOL    HW2 1446   4.345   2.492   4.910
  183SOL     OW 1447   5.280   1.436   2.192
  183SOL    HW1 1448   5.188   1.404   2.170
  183SOL    HW2 1449   5.344   1.359   2.187
  184SOL     OW 1450   0.524   4.661   2.894
  184SOL    HW1 1451   0.507   4.735   2.828
  184SOL    HW2 1452   0.485   4.576   2.860
  185SOL     OW 1453   2.179   4.189   6.372
  185SOL    HW1 1454   2.226   4.183   6.283
  185SOL    HW2 1455   2.194   4.280   6.411
  186SOL     OW 1456   5.922   6.843   2.978
  186SOL    HW1 1457   5.880   6.890   3.056
  186SOL    HW2 1458   6.003   6.794   3.008
  187SOL     OW 1459   5.527   1.095   3.782
  187SOL    HW1 1460   5.592   1.062   3.714
  187SOL    HW2 1461   5.563   1.178   3.826
  188SOL     OW 1462   6.509   2.445   3.877
  188SOL    HW1 1463   6.428   2.394   3.849
  188SOL    HW2 1464   6.590   2.386   3.868
  189SOL     OW 1465   2.354   4.301   2.749
  189SOL    HW1 1466   2.403   4.305   2.662
  189SOL    HW2 1467   2.255   4.306   2.731
  190SOL     OW 1468   3.464   1.117   5.836
  190SOL    HW1 1469   3.538   1.166   5.789
  190SOL    HW2 1470   3.445   1.032   5.789
  191SOL     OW 1471   4.838   5.939   6.271
  191SOL    HW1 1472   4.923   5.894   6.300
  191SOL    HW2 1473   4.810   5.903   6.182
  192SOL     OW 1474   6.732   0.239   1.389
  192SOL    HW1 1475   6.693   0.318   1.437
  192SOL    HW2 1476   6.826   0.259   1.362
  193SOL     OW 1477   5.672   4.479   6.651
  193SOL    HW1 1478   5.738   4.435   6.591
  193SOL    HW2 1479   5.688   4.451   6.746
  194SOL     OW 1480   3.683   0.544   3.879
  194SOL    HW1 1481   3.609   0.572   3.940
  194SOL    HW2 1482   3.645   0.519   3.790
  195SOL     OW 1483   0.131   5.700   3.609
  195SOL    HW1 1484   0.182   5.780   3.578
  195SOL    HW2 1485   0.033   5.722   3.613
  196SOL     OW 1486   0.708   1.539   0.632
  196SOL    HW1 1487   0.664   1.550   0.721
  196SOL    HW2 1488   0.788   1.599   0.627
  197SOL     OW 1489   1.670   1.021   1.031
  197SOL    HW1 1490   1.603   0.966   1.080
  197SOL    HW2 1491   1.753   1.029   1.086
  198SOL     OW 1492   2.898   1.739   3.825
  198SOL    HW1 1493   2.966   1.789   3.879
  198SOL    HW2 1494   2.934   1.724   3.732
  199SOL     OW 1495   0.987   2.399   4.166
  199SOL    HW1 1496   0.892   2.366   4.172
  199SOL    HW2 1497   0.992   2.475   4.101
  200SOL     OW 1498   6.727   2.641   0.196
  200SOL    HW1 1499   6.752   2.652   0.100
  200SOL    HW2 1500   6.670   2.719   0.225
  201SOL     OW 1501   0.902   0.939   6.492
  201SOL    HW1 1502   0.865   1.004   6.557
  201SOL    HW2 1503   0.922   0.985   6.405
  202SOL     OW 1504   4.318   6.593   0.623
  202SOL    HW1 1505   4.333   6.691   0.619
  202SOL    HW2 1506   4.234   6.573   0.674
  203SOL     OW 1507   6.200   2.928   6.235
  203SOL    HW1 1508   6.248   2.967   6.157
  203SOL    HW2 1509   6.115   2.885   6.205
  204SOL     OW 1510   6.490   1.325   5.397
  204SOL    HW1 1511   6.470   1.227   5.394
  204SOL    HW2 1512   6.510   1.352   5.491
  205SOL     OW 1513   1.513   3.223   2.756
  205SOL    HW1 1514   1.608   3.250   2.739
  205SOL    HW2 1515   1.457   3.246   2.677
  206SOL     OW 1516   0.625   3.766   0.215
  206SOL    HW1 1517   0.712   3.771   0.263
  206SOL    HW2 1518   0.567   3.697   0.258
  207SOL     OW 1519   5.845   2.593   4.561
  207SOL    HW1 1520   5.762   2.557   4.518
  207SOL    HW2 1521   5.823   2.677   4.610
  208SOL     OW 1522   1.275   3.986   4.597
  208SOL    HW1 1523   1.256   4.021   4.689
  208SOL    HW2 1524   1.353   4.035   4.558
  209SOL     OW 1525   6.505   4.322   2.981
  209SOL    HW1 1526   6.467   4.326   3.074
  209SOL    HW2 1527   6.544   4.231   2.965
  210SOL     OW 1528   4.667   3.066   0.612
  210SOL    HW1 1529   4.643   3.127   0.537
  210SOL    HW2 1530   4.645   2.972   0.587
  211SOL     OW 1531   0.127   1.214   3.256
  211SOL    HW1 1532   0.127   1.281   3.330
  211SOL    HW2 1533   0.084   1.129   3.288
  212SOL     OW 1534   2.134   3.824   2.417
  212SOL    HW1 1535   2.158   3.732   2.388
  212SOL    HW2 1536   2.099   3.876   2.338
  213SOL     OW 1537   1.351   5.294   1.506
  213SOL    HW1 1538   1.376   5.240   1.426
  213SOL    HW2 1539   1.363   5.392   1.486
  214SOL     OW 1540   5.102   5.969   1.630
  214SOL    HW1 1541   5.190   5.991   1.587
  214SOL    HW2 1542   5.035   5.948   1.559
  215SOL     OW 1543   2.581   5.418   3.447
  215SOL    HW1 1544   2.616   5.367   3.525
  215SOL    HW2 1545   2.498   5.467   3.474
  216SOL     OW 1546   0.811   7.001   2.498
  216SOL    HW1 1547   0.823   6.963   2.406
  216SOL    HW2 1548   0.730   6.960   2.540
  217SOL     OW 1549   1.485   4.641   6.084
  217SOL    HW1 1550   1.556   4.600   6.027
  217SOL    HW2 1551   1.424   4.569   6.117
  218SOL     OW 1552   1.538   1.519   4.940
  218SOL    HW1 1553   1.546   1.615   4.914
  218SOL    HW2 1554   1.575   1.507   5.032
  219SOL     OW 1555   4.329   1.910   0.949
  219SOL    HW1 1556   4.267   1.843   0.991
  219SOL    HW2 1557   4.315   1.911   0.850
  220SOL     OW 1558   2.870   6.759   0.687
  220SOL    HW1 1559   2.774   6.787   0.696
  220SOL    HW2 1560   2.928   6.823   0.737
  221SOL     OW 1561   5.505   4.957   2.062
  221SOL    HW1 1562   5.420   4.925   2.021
  221SOL    HW2 1563   5.567   4.879   2.073
  222SOL     OW 1564   2.075   5.198   6.508
  222SOL    HW1 1565   2.154   5.171   6.453
  222SOL    HW2 1566   2.075   5.297   6.523
  223SOL     OW 1567   6.169   2.981   5.106
  223SOL    HW1 1568   6.139   2.888   5.084
  223SOL    HW2 1569   6.159   3.039   5.024
  224SOL     OW 1570   2.378   1.170   6.276
  224SOL    HW1 1571   2.460   1.214   6.239
  224SOL    HW2 1572   2.386   1.071   6.265
  225SOL     OW 1573   4.080   6.153   5.948
  225SOL    HW1 1574   4.138   6.168   5.869
  225SOL    HW2 1575   4.035   6.064   5.941
  226SOL     OW 1576   1.206   2.513   0.112
  226SOL    HW1 1577   1.291   2.515   0.164
  226SOL    HW2 1578   1.135   2.563   0.161
  227SOL     OW 1579   1.624   3.924   1.518
  227SOL    HW1 1580   1.593   3.883   1.432
  227SOL    HW2 1581   1.714   3.888   1.541
  228SOL     OW 1582   1.327   0.226   2.462
  228SOL    HW1 1583   1.254   0.290   2.438
  228SOL    HW2 1584   1.361   0.247   2.554
  229SOL     OW 1585   4.162   6.372   6.059
  229SOL    HW1 1586   4.114   6.392   6.145
  229SOL    HW2 1587   4.130   6.284   6.023
  230SOL     OW 1588   5.330   5.774   5.333
  230SOL    HW1 1589   5.331   5.746   5.429
  230SOL    HW2 1590   5.255   5.839   5.318
  231SOL     OW 1591   4.974   1.573   6.584
  231SOL    HW1 1592   5.011   1.570   6.491
  231SOL    HW2 1593   5.050   1.577   6.649
  232SOL     OW 1594   1.519   1.690   5.674
  232SOL    HW1 1595   1.532   1.766   5.611
  232SOL    HW2 1596   1.547   1.717   5.766
  233SOL     OW 1597   3.354   1.766   3.156
  233SOL    HW1 1598   3.359   1.866   3.152
  233SOL    HW2 1599   3.316   1.731   3.070
  234SOL     OW 1600   4.355   0.939   0.127
  234SOL    HW1 1601   4.401   1.019   0.089
  234SOL    HW2 1602   4.423   0.869   0.151
  235SOL     OW 1603   4.879   3.121   3.369
  235SOL    HW1 1604   4.977   3.104   3.357
  235SOL    HW2 1605   4.827   3.061   3.309
  236SOL     OW 1606   4.385   4.990   6.017
  236SOL    HW1 1607   4.301   5.024   5.974
  236SOL    HW2 1608   4.455   5.061   6.013
  237SOL     OW 1609   6.281   3.398   2.934
  237SOL    HW1 1610   6.187   3.407   2.901
  237SOL    HW2 1611   6.345   3.425   2.862
  238SOL     OW 1612   6.470   1.661   0.775
  238SOL    HW1 1613   6.482   1.757   0.799
  238SOL    HW2 1614   6.487   1.649   0.677
  239SOL     OW 1615   1.281   3.569   0.590
  239SOL    HW1 1616   1.188   3.532   0.580
  239SOL    HW2 1617   1.338   3.502   0.638
  240SOL     OW 1618   5.474   3.325   3.342
  240SOL    HW1 1619   5.542   3.331   3.416
  240SOL    HW2 1620   5.445   3.418   3.316
  241SOL     OW 1621   3.059   1.860   3.990
  241SOL    HW1 1622   3.089   1.778   4.039
  241SOL    HW2 1623   3.037   1.932   4.055
  242SOL     OW 1624   3.626   3.577   2.871
  242SOL    HW1 1625   3.643   3.671   2.902
  242SOL    HW2 1626   3.530   3.554   2.886
  243SOL     OW 1627   4.425   2.789   5.890
  243SOL    HW1 1628   4.478   2.825   5.813
  243SOL    HW2 1629   4.393   2.697   5.868
  244SOL     OW 1630   4.987   3.647   5.213
  244SOL    HW1 1631   4.957   3.585   5.286
  244SOL    HW2 1632   4.925   3.639   5.135
  245SOL     OW 1633   3.862   1.514   2.865
  245SOL    HW1 1634   3.800   1.592   2.867
  245SOL    HW2 1635   3.927   1.526   2.790
  246SOL     OW 1636   6.638   1.590   2.082
  246SOL    HW1 1637   6.620   1.569   2.178
  246SOL    HW2 1638   6.568   1.653   2.048
  247SOL     OW 1639   1.570   0.924   1.437
  247SOL    HW1 1640   1.550   0.906   1.341
  247SOL    HW2 1641   1.576   1.023   1.452
  248SOL     OW 1642   1.819   2.349   2.101
  248SOL    HW1 1643   1.752   2.349   2.028
  248SOL    HW2 1644   1.884   2.274   2.088
  249SOL     OW 1645   4.896   5.687   5.257
  249SOL    HW1 1646   4.847   5.695   5.344
  249SOL    HW2 1647   4.957   5.766   5.246
  250SOL     OW 1648   4.210   2.548   0.938
  250SOL    HW1 1649   4.272   2.602   0.995
  250SOL    HW2 1650   4.138   2.509   0.994
  251SOL     OW 1651   3.927   4.109   5.668
  251SOL    HW1 1652   4.002   4.150   5.616
  251SOL    HW2 1653   3.889   4.177   5.731
  252SOL     OW 1654   6.501   6.399   5.322
  252SOL    HW1 1655   6.433   6.432   5.387
  252SOL    HW2 1656   6.460   6.389   5.232
  253SOL     OW 1657   3.464   6.239   6.367
  253SOL    HW1 1658   3.494   6.199   6.454
  253SOL    HW2 1659   3.470   6.170   6.295
  254SOL     OW 1660   5.449   2.535   4.994
  254SOL    HW1 1661   5.538   2.490   4.998
  254SOL    HW2 1662   5.422   2.563   5.087
  255SOL     OW 1663   1.557   4.162   6.256
  255SOL    HW1 1664   1.548   4.090   6.187
  255SOL    HW2 1665   1.545   4.123   6.347
  256SOL     OW 1666   5.153   2.405   5.111
  256SOL    HW1 1667   5.219   2.387   5.184
  256SOL    HW2 1668   5.194   2.386   5.022
  257SOL     OW 1669   4.878   7.016   2.804
  257SOL    HW1 1670   4.831   0.082   2.780
  257SOL    HW2 1671   4.973   0.002   2.775
  258SOL     OW 1672   1.852   2.837   5.444
  258SOL    HW1 1673   1.859   2.757   5.385
  258SOL    HW2 1674   1.912   2.824   5.524
  259SOL     OW 1675   3.645   0.029   3.984
  259SOL    HW1 1676   3.709   0.011   4.059
  259SOL    HW2 1677   3.688   0.004   3.898
  260SOL     OW 1678   3.844   5.430   3.713
  260SOL    HW1 1679   3.920   5.380   3.672
  260SOL    HW2 1680   3.771   5.442   3.646
  261SOL     OW 1681   4.119   4.866   0.431
  261SOL    HW1 1682   4.075   4.951   0.457
  261SOL    HW2 1683   4.194   4.885   0.367
  262SOL     OW 1684   1.759   3.934   6.359
  262SOL    HW1 1685   1.675   3.933   6.413
  262SOL    HW2 1686   1.811   4.017   6.379
  263SOL     OW 1687   1.080   6.359   3.959
  263SOL    HW1 1688   1.155   6.320   3.904
  263SOL    HW2 1689   1.088   6.327   4.053
  264SOL     OW 1690   6.813   3.557   6.690
  264SOL    HW1 1691   6.861   3.617   6.625
  264SOL    HW2 1692   6.807   3.602   6.778
  265SOL     OW 1693   6.687   7.013   4.142
  265SOL    HW1 1694   6.592   0.023   4.149
  265SOL    HW2 1695   6.694   6.915   4.162
  266SOL     OW 1696   3.584   0.734   5.643
  266SOL    HW1 1697   3.615   0.764   5.734
  266SOL    HW2 1698   3.643   0.660   5.611
  267SOL     OW 1699   1.845   0.943   4.360
  267SOL    HW1 1700   1.882   0.857   4.325
  267SOL    HW2 1701   1.745   0.940   4.357
  268SOL     OW 1702   3.313   1.669   1.250
  268SOL    HW1 1703   3.267   1.758   1.245
  268SOL    HW2 1704   3.288   1.624   1.336
  269SOL     OW 1705   4.541   1.691   0.221
  269SOL    HW1 1706   4.555   1.786   0.193
  269SOL    HW2 1707   4.443   1.675   0.237
  270SOL     OW 1708   5.571   6.950   0.301
  270SOL    HW1 1709   5.574   7.008   0.383
  270SOL    HW2 1710   5.631   6.989   0.231
  271SOL     OW 1711   1.325   3.391   6.483
  271SOL    HW1 1712   1.278   3.325   6.425
  271SOL    HW2 1713   1.265   3.469   6.500
  272SOL     OW 1714   3.201   6.590   4.175
  272SOL    HW1 1715   3.107   6.611   4.204
  272SOL    HW2 1716   3.263   6.661   4.208
  273SOL     OW 1717   1.826   4.964   6.326
  273SOL    HW1 1718   1.781   4.884   6.287
  273SOL    HW2 1719   1.895   4.934   6.392
  274SOL     OW 1720   4.836   1.774   3.705
  274SOL    HW1 1721   4.888   1.859   3.708
  274SOL    HW2 1722   4.761   1.783   3.639
  275SOL     OW 1723   6.597   6.335   2.060
  275SOL    HW1 1724   6.623   6.368   1.969
  275SOL    HW2 1725   6.555   6.245   2.052
  276SOL     OW 1726   0.524   1.283   4.695
  276SOL    HW1 1727   0.571   1.351   4.640
  276SOL    HW2 1728   0.553   1.291   4.790
  277SOL     OW 1729   1.823   3.956   1.110
  277SOL    HW1 1730   1.756   4.026   1.136
  277SOL    HW2 1731   1.844   3.898   1.189
  278SOL     OW 1732   0.294   2.844   2.211
  278SOL    HW1 1733   0.366   2.787   2.170
  278SOL    HW2 1734   0.237   2.883   2.139
  279SOL     OW 1735   6.212   2.027   3.883
  279SOL    HW1 1736   6.268   2.087   3.940
  279SOL    HW2 1737   6.133   1.995   3.936
  280SOL     OW 1738   1.903   4.299   2.108
  280SOL    HW1 1739   1.984   4.313   2.165
  280SOL    HW2 1740   1.847   4.382   2.110
  281SOL     OW 1741   2.095   4.370   1.363
  281SOL    HW1 1742   2.089   4.456   1.414
  281SOL    HW2 1743   2.116   4.295   1.426
  282SOL     OW 1744   2.945   2.267   5.960
  282SOL    HW1 1745   2.916   2.310   6.046
  282SOL    HW2 1746   3.032   2.308   5.930
  283SOL     OW 1747   4.422   2.440   6.014
  283SOL    HW1 1748   4.412   2.466   5.918
  283SOL    HW2 1749   4.372   2.355   6.031
  284SOL     OW 1750   1.189   3.405   3.938
  284SOL    HW1 1751   1.108   3.450   3.976
  284SOL    HW2 1752   1.235   3.354   4.009
  285SOL     OW 1753   5.550   4.706   4.764
  285SOL    HW1 1754   5.457   4.673   4.777
  285SOL    HW2 1755   5.613   4.629   4.761
  286SOL     OW 1756   2.936   3.677   6.667
  286SOL    HW1 1757   2.945   3.735   6.748
  286SOL    HW2 1758   2.940   3.735   6.585
  287SOL     OW 1759   1.700   3.663   0.284
  287SOL    HW1 1760   1.760   3.743   0.276
  287SOL    HW2 1761   1.625   3.684   0.346
  288SOL     OW 1762   4.875   3.217   0.272
  288SOL    HW1 1763   4.921   3.224   0.360
  288SOL    HW2 1764   4.922   3.273   0.205
  289SOL     OW 1765   3.122   4.749   6.309
  289SOL    HW1 1766   3.068   4.726   6.389
  289SOL    HW2 1767   3.154   4.664   6.265
  290SOL     OW 1768   0.538   1.525   4.940
  290SOL    HW1 1769   0.564   1.614   4.903
  290SOL    HW2 1770   0.446   1.532   4.980
  291SOL     OW 1771   0.086   2.508   2.907
  291SOL    HW1 1772   0.146   2.586   2.892
  291SOL    HW2 1773   0.086   2.484   3.004
  292SOL     OW 1774   2.370   6.557   4.119
  292SOL    HW1 1775   2.362   6.459   4.106
  292SOL    HW2 1776   2.339   6.581   4.211
  293SOL     OW 1777   3.702   4.855   3.435
  293SOL    HW1 1778   3.778   4.837   3.373
  293SOL    HW2 1779   3.625   4.893   3.384
  294SOL     OW 1780   4.670   0.036   6.628
  294SOL    HW1 1781   4.577   0.024   6.665
  294SOL    HW2 1782   4.714   0.114   6.672
  295SOL     OW 1783   5.272   6.810   3.857
  295SOL    HW1 1784   5.329   6.891   3.846
  295SOL    HW2 1785   5.266   6.760   3.770
  296SOL     OW 1786   2.263   1.702   3.332
  296SOL    HW1 1787   2.243   1.725   3.236
  296SOL    HW2 1788   2.179   1.668   3.376
  297SOL     OW 1789   2.013   4.470   3.328
  297SOL    HW1 1790   2.106   4.435   3.322
  297SOL    HW2 1791   2.002   4.521   3.414
  298SOL     OW 1792   6.143   5.311   0.340
  298SOL    HW1 1793   6.173   5.249   0.268
  298SOL    HW2 1794   6.184   5.284   0.427
  299SOL     OW 1795   6.414   2.440   4.419
  299SOL    HW1 1796   6.484   2.475   4.481
  299SOL    HW2 1797   6.456   2.380   4.351
  300SOL     OW 1798   6.518   0.118   2.259
  300SOL    HW1 1799   6.476   0.178   2.327
  300SOL    HW2 1800   6.446   0.073   2.206
  301SOL     OW 1801   5.038   3.488   6.136
  301SOL    HW1 1802   5.107   3.558   6.122
  301SOL    HW2 1803   5.005   3.491   6.230
  302SOL     OW 1804   1.302   0.026   3.489
  302SOL    HW1 1805   1.232   6.974   3.488
  302SOL    HW2 1806   1.389   7.007   3.519
  303SOL     OW 1807   6.097   6.403   3.211
  303SOL    HW1 1808   6.092   6.320   3.154
  303SOL    HW2 1809   6.006   6.445   3.215
  304SOL     OW 1810   3.146   6.718   3.315
  304SOL    HW1 1811   3.190   6.754   3.233
  304SOL    HW2 1812   3.215   6.687   3.380
  305SOL     OW 1813   1.201   3.855   2.006
  305SOL    HW1 1814   1.254   3.809   2.077
  305SOL    HW2 1815   1.106   3.824   2.010
  306SOL     OW 1816   2.856   0.267   3.165
  306SOL    HW1 1817   2.897   0.354   3.191
  306SOL    HW2 1818   2.760   0.281   3.141
  307SOL     OW 1819   3.511   0.151   1.310
  307SOL    HW1 1820   3.416   0.181   1.320
  307SOL    HW2 1821   3.572   0.230   1.321
  308SOL     OW 1822   0.747   4.891   4.540
  308SOL    HW1 1823   0.823   4.938   4.585
  308SOL    HW2 1824   0.775   4.797   4.517
  309SOL     OW 1825   3.910   5.033   5.441
  309SOL    HW1 1826   3.967   5.077   5.371
  309SOL    HW2 1827   3.969   4.992   5.510
  310SOL     OW 1828   0.825   6.695   6.115
  310SOL    HW1 1829   0.842   6.756   6.193
  310SOL    HW2 1830   0.881   6.612   6.125
  311SOL     OW 1831   0.722   0.187   1.518
  311SOL    HW1 1832   0.744   0.110   1.458
  311SOL    HW2 1833   0.625   0.183   1.543
  312SOL     OW 1834   3.826   1.896   4.411
  312SOL    HW1 1835   3.763   1.834   4.365
  312SOL    HW2 1836   3.907   1.845   4.441
  313SOL     OW 1837   0.159   4.804   1.273
  313SOL    HW1 1838   0.230   4.852   1.221
  313SOL    HW2 1839   0.149   4.711   1.236
  314SOL     OW 1840   3.027   6.359   1.424
  314SOL    HW1 1841   3.126   6.344   1.420
  314SOL    HW2 1842   2.998   6.415   1.346
  315SOL     OW 1843   0.999   3.074   2.943
  315SOL    HW1 1844   0.903   3.076   2.970
  315SOL    HW2 1845   1.008   3.029   2.854
  316SOL     OW 1846   2.135   3.193   4.096
  316SOL    HW1 1847   2.207   3.140   4.141
  316SOL    HW2 1848   2.045   3.164   4.131
  317SOL     OW 1849   6.526   1.442   0.231
  317SOL    HW1 1850   6.546   1.539   0.242
  317SOL    HW2 1851   6.493   1.424   0.138
  318SOL     OW 1852   1.989   4.818   1.227
  318SOL    HW1 1853   1.958   4.890   1.288
  318SOL    HW2 1854   2.078   4.842   1.189
  319SOL     OW 1855   1.328   0.359   0.355
  319SOL    HW1 1856   1.288   0.437   0.404
  319SOL    HW2 1857   1.388   0.392   0.283
  320SOL     OW 1858   4.989   3.650   0.547
  320SOL    HW1 1859   4.985   3.605   0.457
  320SOL    HW2 1860   5.082   3.681   0.564
  321SOL     OW 1861   1.914   1.596   1.443
  321SOL    HW1 1862   1.961   1.684   1.453
  321SOL    HW2 1863   1.863   1.596   1.357
  322SOL     OW 1864   3.198   2.956   5.268
  322SOL    HW1 1865   3.217   3.044   5.226
  322SOL    HW2 1866   3.102   2.953   5.298
  323SOL     OW 1867   0.532   4.143   1.842
  323SOL    HW1 1868   0.621   4.122   1.882
  323SOL    HW2 1869   0.471   4.176   1.914
  324SOL     OW 1870   0.402   3.324   4.303
  324SOL    HW1 1871   0.372   3.307   4.396
  324SOL    HW2 1872   0.379   3.418   4.276
  325SOL     OW 1873   2.474   2.599   3.224
  325SOL    HW1 1874   2.493   2.668   3.154
  325SOL    HW2 1875   2.377   2.601   3.247
  326SOL     OW 1876   2.384   4.528   5.596
  326SOL    HW1 1877   2.435   4.605   5.635
  326SOL    HW2 1878   2.366   4.546   5.499
  327SOL     OW 1879   6.454   5.119   5.579
  327SOL    HW1 1880   6.430   5.135   5.483
  327SOL    HW2 1881   6.553   5.128   5.591
  328SOL     OW 1882   2.931   5.418   1.935
  328SOL    HW1 1883   3.014   5.462   1.902
  328SOL    HW2 1884   2.880   5.482   1.994
  329SOL     OW 1885   3.043   3.420   2.484
  329SOL    HW1 1886   2.989   3.477   2.422
  329SOL    HW2 1887   3.112   3.476   2.531
  330SOL     OW 1888   3.511   1.062   1.842
  330SOL    HW1 1889   3.455   1.059   1.760
  330SOL    HW2 1890   3.486   1.141   1.898
  331SOL     OW 1891   5.774   5.113   5.822
  331SOL    HW1 1892   5.813   5.044   5.762
  331SOL    HW2 1893   5.677   5.123   5.803
  332SOL     OW 1894   4.309   1.733   3.314
  332SOL    HW1 1895   4.395   1.767   3.276
  332SOL    HW2 1896   4.315   1.634   3.326
  333SOL     OW 1897   3.778   6.291   6.991
  333SOL    HW1 1898   3.752   6.243   0.055
  333SOL    HW2 1899   3.861   6.249   6.953
  334SOL     OW 1900   4.614   6.713   2.863
  334SOL    HW1 1901   4.712   6.733   2.852
  334SOL    HW2 1902   4.573   6.699   2.773
  335SOL     OW 1903   3.691   6.743   2.966
  335SOL    HW1 1904   3.709   6.796   2.883
  335SOL    HW2 1905   3.721   6.795   3.046
  336SOL     OW 1906   3.144   0.533   5.005
  336SOL    HW1 1907   3.204   0.502   4.931
  336SOL    HW2 1908   3.199   0.579   5.075
  337SOL     OW 1909   0.492   4.226   1.424
  337SOL    HW1 1910   0.572   4.273   1.460
  337SOL    HW2 1911   0.487   4.240   1.325
  338SOL     OW 1912   2.839   2.341   1.667
  338SOL    HW1 1913   2.888   2.324   1.753
  338SOL    HW2 1914   2.849   2.437   1.642
  339SOL     OW 1915   4.130   0.654   3.196
  339SOL    HW1 1916   4.070   0.642   3.117
  339SOL    HW2 1917   4.224   0.632   3.170
  340SOL     OW 1918   4.891   3.773   4.557
  340SOL    HW1 1919   4.873   3.678   4.583
  340SOL    HW2 1920   4.870   3.786   4.460
  341SOL     OW 1921   5.313   4.890   5.200
  341SOL    HW1 1922   5.362   4.934   5.275
  341SOL    HW2 1923   5.239   4.950   5.170
  342SOL     OW 1924   5.242   3.451   0.421
  342SOL    HW1 1925   5.221   3.466   0.517
  342SOL    HW2 1926   5.209   3.361   0.393
  343SOL     OW 1927   2.603   0.728   2.859
  343SOL    HW1 1928   2.615   0.656   2.790
  343SOL    HW2 1929   2.598   0.817   2.814
  344SOL     OW 1930   3.301   5.116   6.868
  344SOL    HW1 1931   3.376   5.162   6.915
  344SOL    HW2 1932   3.336   5.032   6.825
  345SOL     OW 1933   0.967   6.711   5.873
  345SOL    HW1 1934   0.881   6.739   5.917
  345SOL    HW2 1935   0.975   6.755   5.784
  346SOL     OW 1936   3.201   0.482   4.112
  346SOL    HW1 1937   3.224   0.577   4.092
  346SOL    HW2 1938   3.152   0.443   4.034
  347SOL     OW 1939   4.840   6.145   5.984
  347SOL    HW1 1940   4.764   6.104   6.033
  347SOL    HW2 1941   4.887   6.211   6.042
  348SOL     OW 1942   2.953   5.812   2.716
  348SOL    HW1 1943   2.864   5.846   2.686
  348SOL    HW2 1944   2.943   5.721   2.755
  349SOL     OW 1945   2.140   4.867   1.698
  349SOL    HW1 1946   2.120   4.785   1.751
  349SOL    HW2 1947   2.059   4.926   1.695
  350SOL     OW 1948   4.299   2.977   1.125
  350SOL    HW1 1949   4.216   2.921   1.116
  350SOL    HW2 1950   4.273   3.072   1.141
  351SOL     OW 1951   3.158   2.237   0.790
  351SOL    HW1 1952   3.153   2.316   0.852
  351SOL    HW2 1953   3.218   2.168   0.829
  352SOL     OW 1954   4.043   1.586   6.361
  352SOL    HW1 1955   4.142   1.574   6.353
  352SOL    HW2 1956   4.017   1.673   6.318
  353SOL     OW 1957   2.048   0.168   1.211
  353SOL    HW1 1958   2.112   0.174   1.135
  353SOL    HW2 1959   2.051   0.253   1.264
  354SOL     OW 1960   5.019   1.323   2.128
  354SOL    HW1 1961   4.934   1.373   2.117
  354SOL    HW2 1962   5.022   1.246   2.063
  355SOL     OW 1963   1.705   1.603   1.802
  355SOL    HW1 1964   1.770   1.616   1.727
  355SOL    HW2 1965   1.618   1.644   1.779
  356SOL     OW 1966   3.843   6.056   2.732
  356SOL    HW1 1967   3.899   5.974   2.745
  356SOL    HW2 1968   3.899   6.127   2.688
  357SOL     OW 1969   1.714   4.502   5.898
  357SOL    HW1 1970   1.806   4.499   5.938
  357SOL    HW2 1971   1.707   4.582   5.838
  358SOL     OW 1972   5.418   1.423   2.429
  358SOL    HW1 1973   5.326   1.441   2.394
  358SOL    HW2 1974   5.477   1.501   2.406
  359SOL     OW 1975   1.421   2.183   1.295
  359SOL    HW1 1976   1.478   2.139   1.226
  359SOL    HW2 1977   1.444   2.146   1.385
  360SOL     OW 1978   4.288   6.462   0.906
  360SOL    HW1 1979   4.284   6.435   1.003
  360SOL    HW2 1980   4.305   6.560   0.899
  361SOL     OW 1981   3.726   0.494   3.078
  361SOL    HW1 1982   3.708   0.587   3.112
  361SOL    HW2 1983   3.734   0.497   2.978
  362SOL     OW 1984   2.890   3.483   0.801
  362SOL    HW1 1985   2.887   3.542   0.721
  362SOL    HW2 1986   2.913   3.390   0.773
  363SOL     OW 1987   4.274   4.656   3.833
  363SOL    HW1 1988   4.269   4.649   3.933
  363SOL    HW2 1989   4.183   4.669   3.796
  364SOL     OW 1990   1.490   6.281   5.733
  364SOL    HW1 1991   1.509   6.220   5.810
  364SOL    HW2 1992   1.571   6.335   5.712
  365SOL     OW 1993   4.912   6.726   2.805
  365SOL    HW1 1994   4.923   6.688   2.713
  365SOL    HW2 1995   4.904   6.825   2.799
  366SOL     OW 1996   4.926   6.902   0.563
  366SOL    HW1 1997   4.950   6.849   0.644
  366SOL    HW2 1998   4.929   6.999   0.583
  367SOL     OW 1999   4.712   1.885   1.413
  367SOL    HW1 2000   4.807   1.913   1.402
  367SOL    HW2 2001   4.672   1.933   1.491
  368SOL     OW 2002   2.017   5.038   5.606
  368SOL    HW1 2003   1.998   4.939   5.603
  368SOL    HW2 2004   1.982   5.076   5.692
  369SOL     OW 2005   0.353   3.315   1.433
  369SOL    HW1 2006   0.272   3.348   1.384
  369SOL    HW2 2007   0.347   3.341   1.529
  370SOL     OW 2008   3.826   1.531   6.550
  370SOL    HW1 2009   3.893   1.520   6.477
  370SOL    HW2 2010   3.856   1.604   6.612
  371SOL     OW 2011   4.006   2.882   6.081
  371SOL    HW1 2012   3.981   2.886   6.177
  371SOL    HW2 2013   3.949   2.815   6.034
  372SOL     OW 2014   1.349   5.461   6.846
  372SOL    HW1 2015   1.272   5.515   6.879
  372SOL    HW2 2016   1.408   5.435   6.924
  373SOL     OW 2017   6.963   6.535   0.461
  373SOL    HW1 2018   0.021   6.478   0.433
  373SOL    HW2 2019   6.923   6.498   0.545
  374SOL     OW 2020   3.983   1.073   1.208
  374SOL    HW1 2021   3.908   1.008   1.193
  374SOL    HW2 2022   4.057   1.027   1.257
  375SOL     OW 2023   6.883   4.156   1.680
  375SOL    HW1 2024   6.831   4.183   1.599
  375SOL    HW2 2025   6.832   4.181   1.763
  376SOL     OW 2026   2.110   3.351   4.508
  376SOL    HW1 2027   2.031   3.308   4.552
  376SOL    HW2 2028   2.091   3.448   4.492
  377SOL     OW 2029   4.527   1.928   4.607
  377SOL    HW1 2030   4.498   1.833   4.591
  377SOL    HW2 2031   4.623   1.938   4.583
  378SOL     OW 2032   4.682   2.668   4.065
  378SOL    HW1 2033   4.724   2.751   4.100
  378SOL    HW2 2034   4.604   2.643   4.123
  379SOL     OW 2035   6.981   2.880   1.472
  379SOL    HW1 2036   0.019   2.951   1.430
  379SOL    HW2 2037   0.000   2.790   1.451
  380SOL     OW 2038   1.203   1.901   0.237
  380SOL    HW1 2039   1.288   1.863   0.201
  380SOL    HW2 2040   1.148   1.937   0.161
  381SOL     OW 2041   3.489   4.389   0.203
  381SOL    HW1 2042   3.530   4.450   0.135
  381SOL    HW2 2043   3.548   4.308   0.214
  382SOL     OW 2044   1.920   4.926   0.893
  382SOL    HW1 2045   1.947   4.835   0.863
  382SOL    HW2 2046   1.834   4.921   0.945
  383SOL     OW 2047   6.302   2.113   0.234
  383SOL    HW1 2048   6.395   2.121   0.270
  383SOL    HW2 2049   6.254   2.200   0.244
  384SOL     OW 2050   1.992   5.207   5.051
  384SOL    HW1 2051   2.004   5.183   4.955
  384SOL    HW2 2052   1.946   5.132   5.099
  385SOL     OW 2053   4.930   5.437   1.236
  385SOL    HW1 2054   4.843   5.461   1.194
  385SOL    HW2 2055   4.933   5.338   1.251
  386SOL     OW 2056   2.941   6.484   4.769
  386SOL    HW1 2057   2.954   6.490   4.868
  386SOL    HW2 2058   2.916   6.391   4.745
  387SOL     OW 2059   6.781   0.005   6.112
  387SOL    HW1 2060   6.811   0.060   6.034
  387SOL    HW2 2061   6.702   0.049   6.156
  388SOL     OW 2062   0.002   2.273   4.721
  388SOL    HW1 2063   0.010   2.174   4.708
  388SOL    HW2 2064   0.013   2.320   4.633
  389SOL     OW 2065   5.281   4.608   1.834
  389SOL    HW1 2066   5.316   4.687   1.784
  389SOL    HW2 2067   5.294   4.622   1.932
  390SOL     OW 2068   3.800   2.547   6.989
  390SOL    HW1 2069   3.812   2.575   6.894
  390SOL    HW2 2070   3.864   2.597   0.028
  391SOL     OW 2071   3.942   3.959   3.693
  391SOL    HW1 2072   3.990   3.877   3.663
  391SOL    HW2 2073   3.940   3.963   3.792
  392SOL     OW 2074   1.584   3.874   1.815
  392SOL    HW1 2075   1.605   3.934   1.892
  392SOL    HW2 2076   1.551   3.929   1.738
  393SOL     OW 2077   1.469   5.634   1.493
  393SOL    HW1 2078   1.495   5.617   1.398
  393SOL    HW2 2079   1.381   5.683   1.495
  394SOL     OW 2080   6.080   1.046   6.678
  394SOL    HW1 2081   6.009   1.116   6.669
  394SOL    HW2 2082   6.168   1.084   6.647
  395SOL     OW 2083   5.930   4.558   0.267
  395SOL    HW1 2084   5.944   4.643   0.318
  395SOL    HW2 2085   5.889   4.580   0.178
  396SOL     OW 2086   1.471   0.386   1.493
  396SOL    HW1 2087   1.429   0.431   1.415
  396SOL    HW2 2088   1.475   0.449   1.570
  397SOL     OW 2089   4.149   2.070   4.631
  397SOL    HW1 2090   4.163   2.110   4.722
  397SOL    HW2 2091   4.219   2.104   4.568
  398SOL     OW 2092   0.166   0.785   3.151
  398SOL    HW1 2093   0.183   0.697   3.196
  398SOL    HW2 2094   0.227   0.794   3.072
  399SOL     OW 2095   6.058   5.904   3.843
  399SOL    HW1 2096   6.016   5.971   3.782
  399SOL    HW2 2097   5.993   5.829   3.860
  400SOL     OW 2098   6.629   6.950   3.565
  400SOL    HW1 2099   6.663   6.953   3.659
  400SOL    HW2 2100   6.690   7.004   3.506
  401SOL     OW 2101   0.849   5.362   4.958
  401SOL    HW1 2102   0.783   5.395   4.891
  401SOL    HW2 2103   0.802   5.310   5.029
  402SOL     OW 2104   5.785   1.806   4.127
  402SOL    HW1 2105   5.791   1.707   4.142
  402SOL    HW2 2106   5.707   1.843   4.178
  403SOL     OW 2107   2.768   1.900   5.217
  403SOL    HW1 2108   2.684   1.952   5.230
  403SOL    HW2 2109   2.832   1.953   5.161
  404SOL     OW 2110   3.274   5.749   3.601
  404SOL    HW1 2111   3.225   5.675   3.646
  404SOL    HW2 2112   3.218   5.785   3.526
  405SOL     OW 2113   2.646   5.003   4.287
  405SOL    HW1 2114   2.639   5.028   4.190
  405SOL    HW2 2115   2.737   4.966   4.306
  406SOL     OW 2116   0.217   0.449   6.302
  406SOL    HW1 2117   0.163   0.486   6.227
  406SOL    HW2 2118   0.298   0.403   6.267
  407SOL     OW 2119   2.149   3.256   3.838
  407SOL    HW1 2120   2.073   3.321   3.836
  407SOL    HW2 2121   2.150   3.208   3.925
  408SOL     OW 2122   2.095   2.374   2.716
  408SOL    HW1 2123   2.097   2.344   2.812
  408SOL    HW2 2124   2.128   2.468   2.710
  409SOL     OW 2125   0.286   2.687   2.808
  409SOL    HW1 2126   0.324   2.778   2.791
  409SOL    HW2 2127   0.357   2.628   2.848
  410SOL     OW 2128   1.947   2.766   1.140
  410SOL    HW1 2129   2.021   2.832   1.136
  410SOL    HW2 2130   1.970   2.692   1.204
  411SOL     OW 2131   6.522   2.015   0.490
  411SOL    HW1 2132   6.557   1.927   0.522
  411SOL    HW2 2133   6.536   2.084   0.561
  412SOL     OW 2134   1.852   5.265   3.069
  412SOL    HW1 2135   1.784   5.209   3.021
  412SOL    HW2 2136   1.838   5.256   3.168
  413SOL     OW 2137   6.310   4.926   1.980
  413SOL    HW1 2138   6.234   4.904   1.919
  413SOL    HW2 2139   6.353   5.011   1.952
  414SOL     OW 2140   2.329   0.022   3.576
  414SOL    HW1 2141   2.380   0.091   3.627
  414SOL    HW2 2142   2.262   6.998   3.637
  415SOL     OW 2143   5.393   1.631   6.426
  415SOL    HW1 2144   5.419   1.709   6.484
  415SOL    HW2 2145   5.472   1.602   6.372
  416SOL     OW 2146   5.786   3.246   5.716
  416SOL    HW1 2147   5.712   3.304   5.750
  416SOL    HW2 2148   5.874   3.281   5.749
  417SOL     OW 2149   2.327   2.321   6.379
  417SOL    HW1 2150   2.267   2.296   6.303
  417SOL    HW2 2151   2.414   2.353   6.342
  418SOL     OW 2152   3.495   6.832   5.335
  418SOL    HW1 2153   3.460   6.761   5.397
  418SOL    HW2 2154   3.430   6.848   5.262
  419SOL     OW 2155   5.593   0.453   0.596
  419SOL    HW1 2156   5.664   0.386   0.619
  419SOL    HW2 2157   5.613   0.540   0.641
  420SOL     OW 2158   3.537   6.621   0.801
  420SOL    HW1 2159   3.487   6.695   0.845
  420SOL    HW2 2160   3.497   6.533   0.827
  421SOL     OW 2161   4.912   4.083   2.144
  421SOL    HW1 2162   4.824   4.131   2.148
  421SOL    HW2 2163   4.983   4.141   2.183
  422SOL     OW 2164   4.627   2.032   1.628
  422SOL    HW1 2165   4.576   2.109   1.590
  422SOL    HW2 2166   4.588   2.007   1.717
  423SOL     OW 2167   3.129   1.018   6.230
  423SOL    HW1 2168   3.166   0.933   6.268
  423SOL    HW2 2169   3.190   1.094   6.255
  424SOL     OW 2170   1.845   3.925   4.467
  424SOL    HW1 2171   1.784   3.985   4.415
  424SOL    HW2 2172   1.905   3.980   4.525
  425SOL     OW 2173   3.598   1.388   6.858
  425SOL    HW1 2174   3.677   1.406   6.917
  425SOL    HW2 2175   3.514   1.389   6.912
  426SOL     OW 2176   2.863   1.917   4.306
  426SOL    HW1 2177   2.962   1.913   4.320
  426SOL    HW2 2178   2.819   1.954   4.387
  427SOL     OW 2179   4.985   2.045   3.661
  427SOL    HW1 2180   4.959   2.119   3.724
  427SOL    HW2 2181   5.070   2.003   3.692
  428SOL     OW 2182   2.759   2.161   6.415
  428SOL    HW1 2183   2.721   2.164   6.322
  428SOL    HW2 2184   2.767   2.254   6.450
  429SOL     OW 2185   0.522   5.845   3.678
  429SOL    HW1 2186   0.491   5.751   3.691
  429SOL    HW2 2187   0.450   5.898   3.633
  430SOL     OW 2188   1.931   0.168   4.464
  430SOL    HW1 2189   1.950   0.070   4.451
  430SOL    HW2 2190   1.836   0.179   4.492
  431SOL     OW 2191   2.769   1.498   0.924
  431SOL    HW1 2192   2.835   1.510   0.850
  431SOL    HW2 2193   2.749   1.586   0.966
  432SOL     OW 2194   4.772   1.363   1.321
  432SOL    HW1 2195   4.779   1.428   1.397
  432SOL    HW2 2196   4.744   1.412   1.238
  433SOL     OW 2197   1.961   4.695   0.753
  433SOL    HW1 2198   1.917   4.737   0.674
  433SOL    HW2 2199   2.057   4.677   0.731
  434SOL     OW 2200   4.269   5.264   2.912
  434SOL    HW1 2201   4.346   5.221   2.866
  434SOL    HW2 2202   4.271   5.363   2.895
  435SOL     OW 2203   3.667   2.920   5.969
  435SOL    HW1 2204   3.677   2.906   6.067
  435SOL    HW2 2205   3.570   2.919   5.944
  436SOL     OW 2206   5.360   5.904   1.575
  436SOL    HW1 2207   5.397   5.941   1.661
  436SOL    HW2 2208   5.364   5.804   1.578
  437SOL     OW 2209   6.946   1.262   5.287
  437SOL    HW1 2210   6.932   1.174   5.241
  437SOL    HW2 2211   0.017   1.298   5.264
  438SOL     OW 2212   0.654   4.383   2.605
  438SOL    HW1 2213   0.612   4.326   2.675
  438SOL    HW2 2214   0.584   4.443   2.566
  439SOL     OW 2215   0.307   0.375   5.571
  439SOL    HW1 2216   0.256   0.342   5.650
  439SOL    HW2 2217   0.349   0.298   5.524
  440SOL     OW 2218   4.427   1.875   0.690
  440SOL    HW1 2219   4.496   1.880   0.618
  440SOL    HW2 2220   4.443   1.794   0.747
  441SOL     OW 2221   0.011   4.487   2.160
  441SOL    HW1 2222   6.933   4.464   2.149
  441SOL    HW2 2223   0.049   4.436   2.237
  442SOL     OW 2224   4.111   3.664   5.166
  442SOL    HW1 2225   4.026   3.635   5.209
  442SOL    HW2 2226   4.189   3.637   5.223
  443SOL     OW 2227   4.791   2.910   3.200
  443SOL    HW1 2228   4.863   2.851   3.162
  443SOL    HW2 2229   4.732   2.942   3.127
  444SOL     OW 2230   3.825   2.105   1.280
  444SOL    HW1 2231   3.842   2.067   1.372
  444SOL    HW2 2232   3.832   2.204   1.283
  445SOL     OW 2233   2.514   5.483   2.922
  445SOL    HW1 2234   2.569   5.411   2.963
  445SOL    HW2 2235   2.440   5.442   2.869
  446SOL     OW 2236   6.540   6.789   1.820
  446SOL    HW1 2237   6.597   6.791   1.902
  446SOL    HW2 2238   6.522   6.882   1.789
  447SOL     OW 2239   5.881   3.900   0.383
  447SOL    HW1 2240   5.858   3.991   0.419
  447SOL    HW2 2241   5.975   3.877   0.409
  448SOL     OW 2242   3.266   6.379   3.843
  448SOL    HW1 2243   3.245   6.304   3.905
  448SOL    HW2 2244   3.278   6.344   3.751
  449SOL     OW 2245   0.962   4.024   4.255
  449SOL    HW1 2246   0.913   3.948   4.212
  449SOL    HW2 2247   0.948   4.020   4.354
  450SOL     OW 2248   6.853   4.283   3.021
  450SOL    HW1 2249   6.810   4.365   3.058
  450SOL    HW2 2250   6.794   4.204   3.037
  451SOL     OW 2251   1.208   1.925   0.533
  451SOL    HW1 2252   1.204   1.930   0.433
  451SOL    HW2 2253   1.303   1.931   0.563
  452SOL     OW 2254   4.025   5.404   1.990
  452SOL    HW1 2255   4.037   5.436   2.084
  452SOL    HW2 2256   4.098   5.441   1.933
  453SOL     OW 2257   4.000   1.294   6.943
  453SOL    HW1 2258   3.934   1.367   6.961
  453SOL    HW2 2259   4.020   1.245   0.009
  454SOL     OW 2260   0.405   3.518   4.660
  454SOL    HW1 2261   0.335   3.572   4.614
  454SOL    HW2 2262   0.494   3.562   4.648
  455SOL     OW 2263   5.290   5.079   5.984
  455SOL    HW1 2264   5.198   5.053   5.956
  455SOL    HW2 2265   5.309   5.042   6.075
  456SOL     OW 2266   2.325   0.723   3.091
  456SOL    HW1 2267   2.310   0.716   2.992
  456SOL    HW2 2268   2.277   0.647   3.137
  457SOL     OW 2269   2.263   6.487   0.014
  457SOL    HW1 2270   2.359   6.464   0.031
  457SOL    HW2 2271   2.234   6.448   6.946
  458SOL     OW 2272   4.024   1.390   3.076
  458SOL    HW1 2273   4.108   1.443   3.061
  458SOL    HW2 2274   3.952   1.423   3.014
  459SOL     OW 2275   3.388   0.761   2.907
  459SOL    HW1 2276   3.478   0.798   2.928
  459SOL    HW2 2277   3.329   0.768   2.988
  460SOL     OW 2278   0.849   1.659   6.131
  460SOL    HW1 2279   0.825   1.745   6.176
  460SOL    HW2 2280   0.845   1.670   6.032
  461SOL     OW 2281   1.483   6.385   5.289
  461SOL    HW1 2282   1.416   6.380   5.215
  461SOL    HW2 2283   1.436   6.407   5.375
  462SOL     OW 2284   3.463   4.161   4.821
  462SOL    HW1 2285   3.428   4.121   4.906
  462SOL    HW2 2286   3.386   4.190   4.764
  463SOL     OW 2287   5.860   5.953   3.364
  463SOL    HW1 2288   5.793   6.027   3.365
  463SOL    HW2 2289   5.868   5.917   3.271
  464SOL     OW 2290   4.250   5.392   5.280
  464SOL    HW1 2291   4.316   5.347   5.340
  464SOL    HW2 2292   4.298   5.455   5.219
  465SOL     OW 2293   0.378   4.688   6.824
  465SOL    HW1 2294   0.478   4.687   6.822
  465SOL    HW2 2295   0.343   4.679   6.731
  466SOL     OW 2296   4.136   5.206   4.213
  466SOL    HW1 2297   4.231   5.218   4.185
  466SOL    HW2 2298   4.078   5.277   4.172
  467SOL     OW 2299   6.665   0.684   1.892
  467SOL    HW1 2300   6.643   0.595   1.851
  467SOL    HW2 2301   6.675   0.672   1.991
  468SOL     OW 2302   2.523   6.028   6.044
  468SOL    HW1 2303   2.567   5.957   6.098
  468SOL    HW2 2304   2.441   6.060   6.091
  469SOL     OW 2305   3.053   4.826   5.059
  469SOL    HW1 2306   3.000   4.875   5.128
  469SOL    HW2 2307   3.037   4.728   5.069
  470SOL     OW 2308   2.064   4.837   3.275
  470SOL    HW1 2309   2.064   4.867   3.179
  470SOL    HW2 2310   1.971   4.811   3.302
  471SOL     OW 2311   1.736   2.016   3.549
  471SOL    HW1 2312   1.662   2.004   3.614
  471SOL    HW2 2313   1.707   2.077   3.475
  472SOL     OW 2314   5.253   4.252   6.693
  472SOL    HW1 2315   5.167   4.231   6.645
  472SOL    HW2 2316   5.296   4.332   6.651
  473SOL     OW 2317   5.071   3.486   2.368
  473SOL    HW1 2318   5.077   3.581   2.397
  473SOL    HW2 2319   5.008   3.478   2.291
  474SOL     OW 2320   5.087   5.548   3.809
  474SOL    HW1 2321   5.069   5.634   3.761
  474SOL    HW2 2322   5.165   5.559   3.871
  475SOL     OW 2323   5.929   1.616   0.852
  475SOL    HW1 2324   5.962   1.635   0.944
  475SOL    HW2 2325   5.944   1.697   0.794
  476SOL     OW 2326   1.502   3.980   0.242
  476SOL    HW1 2327   1.556   3.932   0.174
  476SOL    HW2 2328   1.405   3.965   0.224
  477SOL     OW 2329   0.125   5.422   2.831
  477SOL    HW1 2330   0.213   5.397   2.793
  477SOL    HW2 2331   0.138   5.466   2.919
  478SOL     OW 2332   6.207   5.736   2.916
  478SOL    HW1 2333   6.285   5.735   2.853
  478SOL    HW2 2334   6.237   5.771   3.005
  479SOL     OW 2335   2.914   3.584   3.080
  479SOL    HW1 2336   3.009   3.584   3.048
  479SOL    HW2 2337   2.853   3.586   3.001
  480SOL     OW 2338   0.891   0.844   2.279
  480SOL    HW1 2339   0.949   0.890   2.213
  480SOL    HW2 2340   0.947   0.801   2.350
  481SOL     OW 2341   5.648   6.892   0.794
  481SOL    HW1 2342   5.674   6.979   0.836
  481SOL    HW2 2343   5.728   6.833   0.788
  482SOL     OW 2344   3.904   4.831   2.788
  482SOL    HW1 2345   3.870   4.827   2.694
  482SOL    HW2 2346   3.846   4.892   2.841
  483SOL     OW 2347   5.916   1.130   4.012
  483SOL    HW1 2348   5.993   1.182   4.048
  483SOL    HW2 2349   5.906   1.045   4.064
  484SOL     OW 2350   2.079   5.155   3.384
  484SOL    HW1 2351   2.070   5.072   3.329
  484SOL    HW2 2352   2.168   5.197   3.366
  485SOL     OW 2353   5.119   2.064   0.792
  485SOL    HW1 2354   5.035   2.076   0.739
  485SOL    HW2 2355   5.126   1.969   0.822
  486SOL     OW 2356   5.964   0.077   5.873
  486SOL    HW1 2357   5.926   0.029   5.794
  486SOL    HW2 2358   5.969   0.175   5.853
  487SOL     OW 2359   0.304   0.952   6.645
  487SOL    HW1 2360   0.361   0.953   6.727
  487SOL    HW2 2361   0.354   0.907   6.571
  488SOL     OW 2362   1.964   5.723   3.640
  488SOL    HW1 2363   2.012   5.725   3.728
  488SOL    HW2 2364   1.871   5.758   3.652
  489SOL     OW 2365   3.007   5.083   5.275
  489SOL    HW1 2366   3.105   5.085   5.295
  489SOL    HW2 2367   2.959   5.039   5.350
  490SOL     OW 2368   1.478   3.411   4.666
  490SOL    HW1 2369   1.493   3.490   4.607
  490SOL    HW2 2370   1.468   3.441   4.760
  491SOL     OW 2371   6.113   2.704   0.990
  491SOL    HW1 2372   6.033   2.764   0.990
  491SOL    HW2 2373   6.141   2.686   0.896
  492SOL     OW 2374   1.661   2.518   5.733
  492SOL    HW1 2375   1.711   2.468   5.662
  492SOL    HW2 2376   1.563   2.515   5.712
  493SOL     OW 2377   1.967   5.576   4.240
  493SOL    HW1 2378   1.884   5.614   4.199
  493SOL    HW2 2379   2.045   5.632   4.213
  494SOL     OW 2380   3.047   1.189   4.326
  494SOL    HW1 2381   3.108   1.190   4.406
  494SOL    HW2 2382   2.961   1.145   4.351
  495SOL     OW 2383   3.794   4.443   6.931
  495SOL    HW1 2384   3.785   4.344   6.922
  495SOL    HW2 2385   3.868   4.474   6.871
  496SOL     OW 2386   5.118   1.050   3.220
  496SOL    HW1 2387   5.175   1.065   3.301
  496SOL    HW2 2388   5.151   1.107   3.145
  497SOL     OW 2389   4.472   2.165   0.763
  497SOL    HW1 2390   4.458   2.206   0.853
  497SOL    HW2 2391   4.481   2.066   0.773
  498SOL     OW 2392   0.127   0.848   1.247
  498SOL    HW1 2393   0.180   0.886   1.171
  498SOL    HW2 2394   0.186   0.789   1.302
  499SOL     OW 2395   3.055   6.257   0.048
  499SOL    HW1 2396   3.104   6.171   0.060
  499SOL    HW2 2397   3.012   6.284   0.135
  500SOL     OW 2398   5.676   2.037   6.146
  500SOL    HW1 2399   5.687   1.982   6.228
  500SOL    HW2 2400   5.595   2.095   6.155
  501SOL     OW 2401   2.085   1.593   4.478
  501SOL    HW1 2402   2.094   1.537   4.396
  501SOL    HW2 2403   2.110   1.688   4.456
  502SOL     OW 2404   2.658   4.117   6.784
  502SOL    HW1 2405   2.560   4.116   6.763
  502SOL    HW2 2406   2.699   4.201   6.750
  503SOL     OW 2407   3.131   4.991   1.317
  503SOL    HW1 2408   3.078   5.023   1.396
  503SOL    HW2 2409   3.189   5.065   1.284
  504SOL     OW 2410   5.967   6.467   0.261
  504SOL    HW1 2411   6.031   6.536   0.228
  504SOL    HW2 2412   6.016   6.382   0.282
  505SOL     OW 2413   5.786   4.931   5.337
  505SOL    HW1 2414   5.726   4.911   5.414
  505SOL    HW2 2415   5.784   4.855   5.273
  506SOL     OW 2416   3.296   5.119   2.732
  506SOL    HW1 2417   3.344   5.037   2.701
  506SOL    HW2 2418   3.228   5.145   2.664
  507SOL     OW 2419   3.637   0.522   2.197
  507SOL    HW1 2420   3.726   0.556   2.167
  507SOL    HW2 2421   3.644   0.494   2.293
  508SOL     OW 2422   0.533   4.845   3.486
  508SOL    HW1 2423   0.481   4.759   3.489
  508SOL    HW2 2424   0.612   4.838   3.547
  509SOL     OW 2425   4.407   0.231   6.495
  509SOL    HW1 2426   4.435   0.291   6.570
  509SOL    HW2 2427   4.347   0.159   6.530
  510SOL     OW 2428   6.617   4.313   0.330
  510SOL    HW1 2429   6.520   4.291   0.342
  510SOL    HW2 2430   6.655   4.343   0.417
  511SOL     OW 2431   0.855   1.555   6.852
  511SOL    HW1 2432   0.914   1.597   6.921
  511SOL    HW2 2433   0.764   1.539   6.891
  512SOL     OW 2434   0.316   2.683   3.993
  512SOL    HW1 2435   0.370   2.665   3.910
  512SOL    HW2 2436   0.284   2.596   4.031
  513SOL     OW 2437   5.489   6.982   2.915
  513SOL    HW1 2438   5.577   6.951   2.878
  513SOL    HW2 2439   5.499   0.055   2.952
  514SOL     OW 2440   4.853   1.708   5.104
  514SOL    HW1 2441   4.892   1.800   5.111
  514SOL    HW2 2442   4.833   1.673   5.196
  515SOL     OW 2443   3.317   1.095   6.829
  515SOL    HW1 2444   3.379   1.143   6.768
  515SOL    HW2 2445   3.365   1.020   6.874
  516SOL     OW 2446   1.580   6.048   1.836
  516SOL    HW1 2447   1.582   5.987   1.756
  516SOL    HW2 2448   1.533   6.002   1.911
  517SOL     OW 2449   3.483   5.342   1.702
  517SOL    HW1 2450   3.486   5.263   1.764
  517SOL    HW2 2451   3.396   5.342   1.653
  518SOL     OW 2452   2.344   5.760   4.573
  518SOL    HW1 2453   2.394   5.674   4.585
  518SOL    HW2 2454   2.384   5.810   4.496
  519SOL     OW 2455   6.665   0.447   2.379
  519SOL    HW1 2456   6.730   0.375   2.357
  519SOL    HW2 2457   6.670   0.468   2.477
  520SOL     OW 2458   2.223   4.902   1.150
  520SOL    HW1 2459   2.287   4.949   1.211
  520SOL    HW2 2460   2.244   4.925   1.055
  521SOL     OW 2461   6.082   6.009   5.726
  521SOL    HW1 2462   6.128   6.075   5.785
  521SOL    HW2 2463   5.985   6.032   5.719
  522SOL     OW 2464   3.679   4.210   0.276
  522SOL    HW1 2465   3.696   4.112   0.279
  522SOL    HW2 2466   3.767   4.259   0.272
  523SOL     OW 2467   1.752   6.622   6.272
  523SOL    HW1 2468   1.761   6.565   6.354
  523SOL    HW2 2469   1.721   6.713   6.299
  524SOL     OW 2470   0.146   1.100   0.870
  524SOL    HW1 2471   0.205   1.121   0.792
  524SOL    HW2 2472   0.052   1.084   0.838
  525SOL     OW 2473   0.504   2.918   3.536
  525SOL    HW1 2474   0.534   2.910   3.631
  525SOL    HW2 2475   0.579   2.953   3.480
  526SOL     OW 2476   4.389   0.028   4.266
  526SOL    HW1 2477   4.324   0.054   4.337
  526SOL    HW2 2478   4.477   0.073   4.283
  527SOL     OW 2479   0.635   0.980   1.172
  527SOL    HW1 2480   0.672   0.956   1.082
  527SOL    HW2 2481   0.535   0.971   1.170
  528SOL     OW 2482   0.191   2.503   4.154
  528SOL    HW1 2483   0.260   2.433   4.172
  528SOL    HW2 2484   0.100   2.468   4.177
  529SOL     OW 2485   1.763   0.382   6.049
  529SOL    HW1 2486   1.701   0.414   5.977
  529SOL    HW2 2487   1.812   0.460   6.088
  530SOL     OW 2488   2.949   4.603   1.265
  530SOL    HW1 2489   2.945   4.602   1.165
  530SOL    HW2 2490   3.037   4.640   1.295
  531SOL     OW 2491   1.153   0.627   6.590
  531SOL    HW1 2492   1.147   0.659   6.684
  531SOL    HW2 2493   1.190   0.700   6.532
  532SOL     OW 2494   2.768   0.875   6.048
  532SOL    HW1 2495   2.793   0.899   6.142
  532SOL    HW2 2496   2.851   0.858   5.995
  533SOL     OW 2497   3.820   0.055   4.232
  533SOL    HW1 2498   3.763   0.087   4.309
  533SOL    HW2 2499   3.878   0.130   4.201
  534SOL     OW 2500   1.537   4.005   2.041
  534SOL    HW1 2501   1.636   4.019   2.035
  534SOL    HW2 2502   1.490   4.092   2.029
  535SOL     OW 2503   4.889   4.393   4.482
  535SOL    HW1 2504   4.869   4.425   4.575
  535SOL    HW2 2505   4.876   4.294   4.477
  536SOL     OW 2506   6.648   6.352   1.299
  536SOL    HW1 2507   6.699   6.431   1.264
  536SOL    HW2 2508   6.692   6.268   1.268
  537SOL     OW 2509   2.543   1.859   2.433
  537SOL    HW1 2510   2.619   1.854   2.367
  537SOL    HW2 2511   2.464   1.901   2.389
  538SOL     OW 2512   3.871   4.620   5.346
  538SOL    HW1 2513   3.913   4.530   5.357
  538SOL    HW2 2514   3.795   4.629   5.411
  539SOL     OW 2515   2.310   0.174   6.600
  539SOL    HW1 2516   2.281   0.090   6.645
  539SOL    HW2 2517   2.409   0.185   6.610
  540SOL     OW 2518   1.842   0.773   5.254
  540SOL    HW1 2519   1.913   0.708   5.226
  540SOL    HW2 2520   1.866   0.864   5.220
  541SOL     OW 2521   5.556   6.294   3.540
  541SOL    HW1 2522   5.507   6.219   3.586
  541SOL    HW2 2523   5.506   6.379   3.554
  542SOL     OW 2524   3.777   6.321   6.127
  542SOL    HW1 2525   3.697   6.283   6.081
  542SOL    HW2 2526   3.783   6.419   6.108
  543SOL     OW 2527   5.798   2.842   3.644
  543SOL    HW1 2528   5.827   2.880   3.731
  543SOL    HW2 2529   5.766   2.748   3.657
  544SOL     OW 2530   1.254   3.374   1.078
  544SOL    HW1 2531   1.252   3.313   1.157
  544SOL    HW2 2532   1.306   3.456   1.099
  545SOL     OW 2533   6.657   5.452   0.771
  545SOL    HW1 2534   6.658   5.550   0.790
  545SOL    HW2 2535   6.737   5.409   0.814
  546SOL     OW 2536   0.121   4.182   1.827
  546SOL    HW1 2537   0.056   4.198   1.753
  546SOL    HW2 2538   0.073   4.145   1.907
  547SOL     OW 2539   4.396   0.274   6.827
  547SOL    HW1 2540   4.322   0.341   6.823
  547SOL    HW2 2541   4.481   0.316   6.795
  548SOL     OW 2542   4.129   3.137   0.283
  548SOL    HW1 2543   4.176   3.052   0.258
  548SOL    HW2 2544   4.092   3.127   0.376
  549SOL     OW 2545   5.366   1.998   2.988
  549SOL    HW1 2546   5.444   2.034   2.937
  549SOL    HW2 2547   5.302   2.073   3.008
  550SOL     OW 2548   7.009   5.871   3.991
  550SOL    HW1 2549   6.941   5.820   3.938
  550SOL    HW2 2550   0.066   5.811   4.014
  551SOL     OW 2551   5.629   0.342   0.071
  551SOL    HW1 2552   5.614   0.403   0.149
  551SOL    HW2 2553   5.692   0.385   0.007
  552SOL     OW 2554   0.634   0.024   4.791
  552SOL    HW1 2555   0.704   0.002   4.858
  552SOL    HW2 2556   0.660   0.106   4.740
  553SOL     OW 2557   3.448   2.586   6.155
  553SOL    HW1 2558   3.490   2.607   6.067
  553SOL    HW2 2559   3.519   2.576   6.224
  554SOL     OW 2560   6.599   5.859   0.583
  554SOL    HW1 2561   6.570   5.809   0.502
  554SOL    HW2 2562   6.520   5.881   0.640
  555SOL     OW 2563   2.744   3.503   5.524
  555SOL    HW1 2564   2.811   3.574   5.503
  555SOL    HW2 2565   2.662   3.518   5.469
  556SOL     OW 2566   6.127   6.652   3.029
  556SOL    HW1 2567   6.214   6.602   3.034
  556SOL    HW2 2568   6.070   6.627   3.107
  557SOL     OW 2569   5.270   4.314   6.359
  557SOL    HW1 2570   5.270   4.367   6.444
  557SOL    HW2 2571   5.344   4.248   6.361
  558SOL     OW 2572   3.716   3.568   2.380
  558SOL    HW1 2573   3.700   3.474   2.410
  558SOL    HW2 2574   3.695   3.631   2.454
  559SOL     OW 2575   6.745   0.868   6.520
  559SOL    HW1 2576   6.801   0.814   6.584
  559SOL    HW2 2577   6.804   0.912   6.453
  560SOL     OW 2578   0.085   2.697   4.319
  560SOL    HW1 2579   0.027   2.657   4.390
  560SOL    HW2 2580   0.118   2.625   4.258
  561SOL     OW 2581   0.437   4.041   0.259
  561SOL    HW1 2582   0.351   4.009   0.221
  561SOL    HW2 2583   0.458   3.989   0.342
  562SOL     OW 2584   4.570   6.230   3.973
  562SOL    HW1 2585   4.544   6.180   3.891
  562SOL    HW2 2586   4.493   6.285   4.005
  563SOL     OW 2587   1.239   0.964   3.866
  563SOL    HW1 2588   1.230   1.030   3.791
  563SOL    HW2 2589   1.323   0.911   3.853
  564SOL     OW 2590   6.097   1.613   6.255
  564SOL    HW1 2591   6.085   1.700   6.208
  564SOL    HW2 2592   6.194   1.600   6.276
  565SOL     OW 2593   3.645   2.931   3.580
  565SOL    HW1 2594   3.547   2.926   3.597
  565SOL    HW2 2595   3.695   2.908   3.664
  566SOL     OW 2596   2.409   1.642   3.727
  566SOL    HW1 2597   2.411   1.570   3.796
  566SOL    HW2 2598   2.344   1.714   3.756
  567SOL     OW 2599   2.155   3.050   5.513
  567SOL    HW1 2600   2.198   2.990   5.446
  567SOL    HW2 2601   2.168   3.146   5.487
  568SOL     OW 2602   0.660   6.477   6.948
  568SOL    HW1 2603   0.694   6.407   6.886
  568SOL    HW2 2604   0.563   6.495   6.929
  569SOL     OW 2605   5.776   3.457   6.599
  569SOL    HW1 2606   5.857   3.464   6.656
  569SOL    HW2 2607   5.775   3.367   6.554
  570SOL     OW 2608   3.433   0.454   6.163
  570SOL    HW1 2609   3.408   0.431   6.257
  570SOL    HW2 2610   3.504   0.524   6.163
  571SOL     OW 2611   2.383   4.641   1.719
  571SOL    HW1 2612   2.405   4.735   1.744
  571SOL    HW2 2613   2.466   4.585   1.720
  572SOL     OW 2614   2.994   1.019   4.633
  572SOL    HW1 2615   2.988   1.104   4.685
  572SOL    HW2 2616   3.033   0.947   4.692
  573SOL     OW 2617   0.430   0.538   5.166
  573SOL    HW1 2618   0.515   0.521   5.218
  573SOL    HW2 2619   0.452   0.543   5.069
  574SOL     OW 2620   2.282   0.911   5.987
  574SOL    HW1 2621   2.207   0.971   6.015
  574SOL    HW2 2622   2.333   0.955   5.913
  575SOL     OW 2623   4.077   3.976   6.779
  575SOL    HW1 2624   4.069   4.053   6.842
  575SOL    HW2 2625   4.113   3.897   6.828
  576SOL     OW 2626   1.661   1.243   2.853
  576SOL    HW1 2627   1.626   1.267   2.944
  576SOL    HW2 2628   1.613   1.163   2.819
  577SOL     OW 2629   0.628   0.712   1.876
  577SOL    HW1 2630   0.675   0.701   1.789
  577SOL    HW2 2631   0.531   0.691   1.864
  578SOL     OW 2632   3.344   6.612   6.699
  578SOL    HW1 2633   3.264   6.670   6.690
  578SOL    HW2 2634   3.361   6.564   6.613
  579SOL     OW 2635   1.015   3.528   1.934
  579SOL    HW1 2636   1.031   3.461   2.007
  579SOL    HW2 2637   0.981   3.613   1.973
  580SOL     OW 2638   4.641   4.952   4.499
  580SOL    HW1 2639   4.629   5.017   4.423
  580SOL    HW2 2640   4.734   4.916   4.497
  581SOL     OW 2641   2.085   2.538   4.173
  581SOL    HW1 2642   2.164   2.514   4.229
  581SOL    HW2 2643   2.067   2.636   4.180
  582SOL     OW 2644   5.868   4.429   4.849
  582SOL    HW1 2645   5.782   4.382   4.867
  582SOL    HW2 2646   5.863   4.523   4.883
  583SOL     OW 2647   3.608   6.131   5.777
  583SOL    HW1 2648   3.543   6.104   5.706
  583SOL    HW2 2649   3.657   6.050   5.809
  584SOL     OW 2650   3.935   0.348   5.149
  584SOL    HW1 2651   3.947   0.444   5.173
  584SOL    HW2 2652   3.964   0.332   5.055
  585SOL     OW 2653   3.670   6.688   1.849
  585SOL    HW1 2654   3.665   6.740   1.763
  585SOL    HW2 2655   3.593   6.624   1.853
  586SOL     OW 2656   3.409   0.294   0.561
  586SOL    HW1 2657   3.373   0.206   0.530
  586SOL    HW2 2658   3.388   0.306   0.658
  587SOL     OW 2659   4.752   1.414   2.137
  587SOL    HW1 2660   4.709   1.440   2.050
  587SOL    HW2 2661   4.738   1.487   2.204
  588SOL     OW 2662   1.770   4.696   2.873
  588SOL    HW1 2663   1.759   4.610   2.824
  588SOL    HW2 2664   1.827   4.682   2.954
  589SOL     OW 2665   3.203   5.296   0.727
  589SOL    HW1 2666   3.259   5.219   0.697
  589SOL    HW2 2667   3.262   5.376   0.741
  590SOL     OW 2668   3.107   2.233   6.684
  590SOL    HW1 2669   3.091   2.307   6.749
  590SOL    HW2 2670   3.180   2.173   6.719
  591SOL     OW 2671   2.932   6.843   3.827
  591SOL    HW1 2672   3.014   6.860   3.772
  591SOL    HW2 2673   2.911   6.925   3.881
  592SOL     OW 2674   4.514   2.541   4.239
  592SOL    HW1 2675   4.537   2.481   4.315
  592SOL    HW2 2676   4.479   2.488   4.163
  593SOL     OW 2677   2.215   1.445   6.633
  593SOL    HW1 2678   2.137   1.403   6.586
  593SOL    HW2 2679   2.278   1.482   6.565
  594SOL     OW 2680   4.539   1.265   3.370
  594SOL    HW1 2681   4.556   1.169   3.393
  594SOL    HW2 2682   4.622   1.306   3.332
  595SOL     OW 2683   6.187   4.711   2.851
  595SOL    HW1 2684   6.256   4.667   2.908
  595SOL    HW2 2685   6.229   4.785   2.799
  596SOL     OW 2686   6.489   5.001   4.589
  596SOL    HW1 2687   6.522   4.957   4.673
  596SOL    HW2 2688   6.397   4.968   4.569
  597SOL     OW 2689   3.475   1.590   6.692
  597SOL    HW1 2690   3.520   1.676   6.668
  597SOL    HW2 2691   3.538   1.514   6.680
  598SOL     OW 2692   3.463   3.756   3.238
  598SOL    HW1 2693   3.474   3.854   3.257
  598SOL    HW2 2694   3.525   3.704   3.297
  599SOL     OW 2695   1.596   5.183   1.577
  599SOL    HW1 2696   1.630   5.221   1.663
  599SOL    HW2 2697   1.500   5.208   1.565
  600SOL     OW 2698   7.000   3.525   5.717
  600SOL    HW1 2699   6.993   3.602   5.654
  600SOL    HW2 2700   0.043   3.456   5.678
  601SOL     OW 2701   0.224   6.259   5.819
  601SOL    HW1 2702   0.192   6.282   5.727
  601SOL    HW2 2703   0.271   6.339   5.858
  602SOL     OW 2704   1.892   0.787   3.647
  602SOL    HW1 2705   1.821   0.856   3.630
  602SOL    HW2 2706   1.894   0.723   3.570
  603SOL     OW 2707   1.849   1.674   4.276
  603SOL    HW1 2708   1.756   1.686   4.240
  603SOL    HW2 2709   1.891   1.764   4.290
  604SOL     OW 2710   5.869   2.876   0.997
  604SOL    HW1 2711   5.799   2.907   1.062
  604SOL    HW2 2712   5.826   2.818   0.928
  605SOL     OW 2713   6.331   6.244   1.026
  605SOL    HW1 2714   6.343   6.309   0.950
  605SOL    HW2 2715   6.358   6.288   1.112
  606SOL     OW 2716   3.324   6.653   4.950
  606SOL    HW1 2717   3.270   6.633   4.868
  606SOL    HW2 2718   3.366   6.744   4.942
  607SOL     OW 2719   1.792   2.644   6.247
  607SOL    HW1 2720   1.722   2.588   6.204
  607SOL    HW2 2721   1.811   2.724   6.190
  608SOL     OW 2722   3.345   1.559   6.293
  608SOL    HW1 2723   3.353   1.611   6.208
  608SOL    HW2 2724   3.430   1.509   6.310
  609SOL     OW 2725   3.856   2.968   2.287
  609SOL    HW1 2726   3.790   3.036   2.253
  609SOL    HW2 2727   3.858   2.890   2.225
  610SOL     OW 2728   4.795   3.604   1.491
  610SOL    HW1 2729   4.879   3.590   1.543
  610SOL    HW2 2730   4.747   3.517   1.482
  611SOL     OW 2731   4.175   1.332   2.711
  611SOL    HW1 2732   4.080   1.301   2.717
  611SOL    HW2 2733   4.236   1.260   2.745
  612SOL     OW 2734   4.934   4.955   3.669
  612SOL    HW1 2735   4.981   4.879   3.714
  612SOL    HW2 2736   4.850   4.977   3.719
  613SOL     OW 2737   3.859   4.620   6.184
  613SOL    HW1 2738   3.877   4.602   6.281
  613SOL    HW2 2739   3.866   4.718   6.167
  614SOL     OW 2740   2.437   6.692   6.075
  614SOL    HW1 2741   2.388   6.768   6.118
  614SOL    HW2 2742   2.532   6.692   6.106
  615SOL     OW 2743   0.212   4.564   2.582
  615SOL    HW1 2744   0.122   4.575   2.626
  615SOL    HW2 2745   0.213   4.613   2.495
  616SOL     OW 2746   5.999   3.435   3.762
  616SOL    HW1 2747   6.079   3.375   3.757
  616SOL    HW2 2748   5.967   3.440   3.856
  617SOL     OW 2749   3.471   6.467   5.856
  617SOL    HW1 2750   3.491   6.376   5.818
  617SOL    HW2 2751   3.373   6.474   5.874
  618SOL     OW 2752   1.686   0.662   3.804
  618SOL    HW1 2753   1.696   0.749   3.756
  618SOL    HW2 2754   1.768   0.606   3.789
  619SOL     OW 2755   0.835   2.138   6.246
  619SOL    HW1 2756   0.811   2.220   6.195
  619SOL    HW2 2757   0.798   2.143   6.338
  620SOL     OW 2758   4.340   3.122   0.529
  620SOL    HW1 2759   4.383   3.065   0.458
  620SOL    HW2 2760   4.387   3.211   0.532
  621SOL     OW 2761   0.068   6.099   0.483
  621SOL    HW1 2762   0.094   6.029   0.549
  621SOL    HW2 2763   6.990   6.089   0.460
  622SOL     OW 2764   0.584   0.858   6.906
  622SOL    HW1 2765   0.491   0.858   6.941
  622SOL    HW2 2766   0.640   0.924   6.957
  623SOL     OW 2767   0.241   5.258   4.951
  623SOL    HW1 2768   0.228   5.243   5.049
  623SOL    HW2 2769   0.326   5.215   4.922
  624SOL     OW 2770   0.850   1.559   1.461
  624SOL    HW1 2771   0.921   1.561   1.531
  624SOL    HW2 2772   0.827   1.653   1.435
  625SOL     OW 2773   1.545   1.238   3.097
  625SOL    HW1 2774   1.455   1.213   3.061
  625SOL    HW2 2775   1.599   1.155   3.111
  626SOL     OW 2776   3.130   6.046   4.608
  626SOL    HW1 2777   3.161   6.054   4.513
  626SOL    HW2 2778   3.200   6.001   4.663
  627SOL     OW 2779   5.293   6.737   7.018
  627SOL    HW1 2780   5.391   6.733   0.016
  627SOL    HW2 2781   5.244   6.750   0.085
  628SOL     OW 2782   5.661   4.259   3.007
  628SOL    HW1 2783   5.675   4.199   2.928
  628SOL    HW2 2784   5.611   4.210   3.078
  629SOL     OW 2785   1.194   6.836   1.381
  629SOL    HW1 2786   1.236   6.920   1.347
  629SOL    HW2 2787   1.266   6.772   1.408
  630SOL     OW 2788   2.869   1.699   1.103
  630SOL    HW1 2789   2.902   1.738   1.189
  630SOL    HW2 2790   2.928   1.729   1.028
  631SOL     OW 2791   2.713   0.556   4.668
  631SOL    HW1 2792   2.791   0.567   4.730
  631SOL    HW2 2793   2.711   0.631   4.603
  632SOL     OW 2794   3.010   0.289   1.118
  632SOL    HW1 2795   2.916   0.265   1.143
  632SOL    HW2 2796   3.024   0.387   1.134
  633SOL     OW 2797   2.259   6.752   5.381
  633SOL    HW1 2798   2.180   6.761   5.321
  633SOL    HW2 2799   2.267   6.657   5.411
  634SOL     OW 2800   2.867   5.383   1.648
  634SOL    HW1 2801   2.870   5.416   1.742
  634SOL    HW2 2802   2.893   5.286   1.646
  635SOL     OW 2803   2.963   0.009   3.206
  635SOL    HW1 2804   3.055   0.033   3.176
  635SOL    HW2 2805   2.902   0.088   3.195
  636SOL     OW 2806   4.533   5.297   0.035
  636SOL    HW1 2807   4.452   5.274   0.090
  636SOL    HW2 2808   4.568   5.214   7.010
  637SOL     OW 2809   6.042   4.275   6.999
  637SOL    HW1 2810   6.089   4.294   0.066
  637SOL    HW2 2811   6.027   4.177   6.990
  638SOL     OW 2812   5.606   1.205   3.091
  638SOL    HW1 2813   5.525   1.213   3.150
  638SOL    HW2 2814   5.684   1.247   3.137
  639SOL     OW 2815   4.974   4.004   1.856
  639SOL    HW1 2816   4.951   4.046   1.944
  639SOL    HW2 2817   4.960   4.070   1.783
  640SOL     OW 2818   2.293   3.149   5.822
  640SOL    HW1 2819   2.380   3.125   5.779
  640SOL    HW2 2820   2.269   3.243   5.798
  641SOL     OW 2821   0.207   5.907   5.620
  641SOL    HW1 2822   0.211   5.807   5.628
  641SOL    HW2 2823   0.295   5.947   5.642
  642SOL     OW 2824   1.707   4.738   6.208
  642SOL    HW1 2825   1.622   4.692   6.234
  642SOL    HW2 2826   1.783   4.698   6.260
  643SOL     OW 2827   5.983   6.115   4.943
  643SOL    HW1 2828   5.943   6.122   4.852
  643SOL    HW2 2829   5.982   6.204   4.987
  644SOL     OW 2830   2.315   5.818   1.908
  644SOL    HW1 2831   2.287   5.731   1.949
  644SOL    HW2 2832   2.343   5.881   1.980
  645SOL     OW 2833   6.409   2.245   2.993
  645SOL    HW1 2834   6.387   2.331   3.039
  645SOL    HW2 2835   6.457   2.184   3.057
  646SOL     OW 2836   1.125   2.582   4.619
  646SOL    HW1 2837   1.216   2.545   4.599
  646SOL    HW2 2838   1.134   2.659   4.682
  647SOL     OW 2839   5.251   3.138   0.166
  647SOL    HW1 2840   5.304   3.160   0.084
  647SOL    HW2 2841   5.312   3.132   0.245
  648SOL     OW 2842   4.848   2.378   4.133
  648SOL    HW1 2843   4.931   2.388   4.077
  648SOL    HW2 2844   4.843   2.454   4.198
  649SOL     OW 2845   4.478   4.618   1.910
  649SOL    HW1 2846   4.432   4.603   1.998
  649SOL    HW2 2847   4.472   4.535   1.855
  650SOL     OW 2848   5.084   4.185   0.807
  650SOL    HW1 2849   5.009   4.160   0.868
  650SOL    HW2 2850   5.050   4.194   0.714
  651SOL     OW 2851   0.798   6.194   6.312
  651SOL    HW1 2852   0.813   6.196   6.213
  651SOL    HW2 2853   0.732   6.265   6.337
  652SOL     OW 2854   4.867   1.576   2.638
  652SOL    HW1 2855   4.949   1.537   2.596
  652SOL    HW2 2856   4.804   1.502   2.662
  653SOL     OW 2857   3.448   4.895   2.594
  653SOL    HW1 2858   3.381   4.895   2.519
  653SOL    HW2 2859   3.466   4.801   2.622
  654SOL     OW 2860   6.529   5.721   6.391
  654SOL    HW1 2861   6.511   5.742   6.487
  654SOL    HW2 2862   6.615   5.671   6.383
  655SOL     OW 2863   0.301   1.365   6.901
  655SOL    HW1 2864   0.372   1.297   6.883
  655SOL    HW2 2865   0.214   1.319   6.916
  656SOL     OW 2866   2.480   6.015   1.078
  656SOL    HW1 2867   2.532   6.005   1.162
  656SOL    HW2 2868   2.383   6.031   1.100
  657SOL     OW 2869   3.825   1.493   0.036
  657SOL    HW1 2870   3.908   1.540   0.067
  657SOL    HW2 2871   3.748   1.521   0.094
  658SOL     OW 2872   3.765   5.421   6.556
  658SOL    HW1 2873   3.803   5.480   6.485
  658SOL    HW2 2874   3.691   5.469   6.603
  659SOL     OW 2875   3.751   0.526   5.530
  659SOL    HW1 2876   3.747   0.454   5.599
  659SOL    HW2 2877   3.680   0.511   5.462
  660SOL     OW 2878   3.907   5.592   3.245
  660SOL    HW1 2879   3.823   5.620   3.291
  660SOL    HW2 2880   3.891   5.507   3.195
  661SOL     OW 2881   5.848   5.593   2.767
  661SOL    HW1 2882   5.838   5.621   2.672
  661SOL    HW2 2883   5.864   5.495   2.771
  662SOL     OW 2884   3.771   1.597   0.449
  662SOL    HW1 2885   3.773   1.498   0.458
  662SOL    HW2 2886   3.855   1.628   0.404
  663SOL     OW 2887   1.834   4.554   4.796
  663SOL    HW1 2888   1.839   4.500   4.881
  663SOL    HW2 2889   1.824   4.651   4.819
  664SOL     OW 2890   5.773   0.205   6.512
  664SOL    HW1 2891   5.734   0.177   6.424
  664SOL    HW2 2892   5.810   0.124   6.559
  665SOL     OW 2893   0.923   4.769   2.023
  665SOL    HW1 2894   1.018   4.798   2.026
  665SOL    HW2 2895   0.863   4.848   2.037
  666SOL     OW 2896   4.484   1.539   1.275
  666SOL    HW1 2897   4.553   1.523   1.345
  666SOL    HW2 2898   4.523   1.519   1.185
  667SOL     OW 2899   1.172   0.132   2.760
  667SOL    HW1 2900   1.117   0.125   2.676
  667SOL    HW2 2901   1.115   0.168   2.834
  668SOL     OW 2902   5.701   3.427   0.473
  668SOL    HW1 2903   5.783   3.373   0.492
  668SOL    HW2 2904   5.623   3.388   0.522
  669SOL     OW 2905   5.175   1.780   2.727
  669SOL    HW1 2906   5.196   1.684   2.741
  669SOL    HW2 2907   5.258   1.830   2.703
  670SOL     OW 2908   3.629   2.121   2.894
  670SOL    HW1 2909   3.644   2.074   2.981
  670SOL    HW2 2910   3.531   2.134   2.880
  671SOL     OW 2911   2.391   6.388   2.079
  671SOL    HW1 2912   2.451   6.342   2.014
  671SOL    HW2 2913   2.300   6.399   2.039
  672SOL     OW 2914   0.890   6.863   2.288
  672SOL    HW1 2915   0.983   6.895   2.302
  672SOL    HW2 2916   0.888   6.763   2.286
  673SOL     OW 2917   5.870   6.971   6.573
  673SOL    HW1 2918   5.936   7.018   6.516
  673SOL    HW2 2919   5.873   6.873   6.554
  674SOL     OW 2920   5.322   0.549   3.976
  674SOL    HW1 2921   5.339   0.619   3.907
  674SOL    HW2 2922   5.224   0.529   3.981
  675SOL     OW 2923   0.544   3.618   3.100
  675SOL    HW1 2924   0.524   3.521   3.108
  675SOL    HW2 2925   0.642   3.631   3.085
  676SOL     OW 2926   2.279   6.432   6.010
  676SOL    HW1 2927   2.222   6.429   6.092
  676SOL    HW2 2928   2.352   6.499   6.023
  677SOL     OW 2929   5.587   1.872   1.231
  677SOL    HW1 2930   5.501   1.898   1.275
  677SOL    HW2 2931   5.571   1.792   1.173
  678SOL     OW 2932   1.102   5.006   3.700
  678SOL    HW1 2933   1.070   5.099   3.681
  678SOL    HW2 2934   1.049   4.941   3.645
  679SOL     OW 2935   4.785   2.140   4.983
  679SOL    HW1 2936   4.801   2.075   5.057
  679SOL    HW2 2937   4.818   2.231   5.010
  680SOL     OW 2938   6.458   6.086   3.864
  680SOL    HW1 2939   6.557   6.079   3.867
  680SOL    HW2 2940   6.426   6.153   3.931
  681SOL     OW 2941   4.593   4.328   2.779
  681SOL    HW1 2942   4.627   4.245   2.734
  681SOL    HW2 2943   4.578   4.310   2.876
  682SOL     OW 2944   0.218   1.746   2.951
  682SOL    HW1 2945   0.268   1.672   2.906
  682SOL    HW2 2946   0.281   1.822   2.970
  683SOL     OW 2947   3.440   4.222   1.260
  683SOL    HW1 2948   3.489   4.232   1.347
  683SOL    HW2 2949   3.351   4.180   1.276
  684SOL     OW 2950   6.612   1.384   5.636
  684SOL    HW1 2951   6.631   1.460   5.697
  684SOL    HW2 2952   6.668   1.305   5.661
  685SOL     OW 2953   3.095   6.846   2.683
  685SOL    HW1 2954   3.010   6.795   2.681
  685SOL    HW2 2955   3.171   6.786   2.658
  686SOL     OW 2956   4.138   0.854   5.140
  686SOL    HW1 2957   4.052   0.905   5.131
  686SOL    HW2 2958   4.176   0.838   5.049
  687SOL     OW 2959   0.020   1.461   4.157
  687SOL    HW1 2960   0.109   1.437   4.118
  687SOL    HW2 2961   6.992   1.525   4.095
  688SOL     OW 2962   5.593   1.215   0.029
  688SOL    HW1 2963   5.654   1.294   0.030
  688SOL    HW2 2964   5.568   1.194   6.954
  689SOL     OW 2965   1.694   5.500   6.863
  689SOL    HW1 2966   1.644   5.571   6.815
  689SOL    HW2 2967   1.780   5.481   6.815
  690SOL     OW 2968   5.538   4.090   3.169
  690SOL    HW1 2969   5.528   3.998   3.129
  690SOL    HW2 2970   5.574   4.082   3.262
  691SOL     OW 2971   6.004   1.706   1.525
  691SOL    HW1 2972   6.025   1.614   1.491
  691SOL    HW2 2973   6.083   1.742   1.575
  692SOL     OW 2974   1.934   0.841   4.634
  692SOL    HW1 2975   1.907   0.904   4.562
  692SOL    HW2 2976   2.022   0.800   4.611
  693SOL     OW 2977   6.006   5.039   3.223
  693SOL    HW1 2978   5.914   5.044   3.260
  693SOL    HW2 2979   6.045   4.949   3.243
  694SOL     OW 2980   4.571   6.071   4.760
  694SOL    HW1 2981   4.532   6.125   4.834
  694SOL    HW2 2982   4.518   6.085   4.677
  695SOL     OW 2983   4.813   6.828   4.052
  695SOL    HW1 2984   4.895   6.771   4.053
  695SOL    HW2 2985   4.733   6.773   4.077
  696SOL     OW 2986   5.615   4.039   2.555
  696SOL    HW1 2987   5.632   4.093   2.473
  696SOL    HW2 2988   5.662   3.951   2.547
  697SOL     OW 2989   1.278   6.408   2.060
  697SOL    HW1 2990   1.202   6.352   2.094
  697SOL    HW2 2991   1.355   6.400   2.123
  698SOL     OW 2992   5.517   5.947   6.489
  698SOL    HW1 2993   5.572   5.927   6.408
  698SOL    HW2 2994   5.477   6.038   6.480
  699SOL     OW 2995   3.687   3.569   0.673
  699SOL    HW1 2996   3.654   3.603   0.585
  699SOL    HW2 2997   3.714   3.647   0.730
  700SOL     OW 2998   3.969   6.654   5.059
  700SOL    HW1 2999   3.886   6.708   5.047
  700SOL    HW2 3000   4.046   6.715   5.078
  701SOL     OW 3001   4.313   5.163   0.931
  701SOL    HW1 3002   4.257   5.080   0.933
  701SOL    HW2 3003   4.310   5.208   1.021
  702SOL     OW 3004   4.169   0.918   4.547
  702SOL    HW1 3005   4.117   0.891   4.466
  702SOL    HW2 3006   4.259   0.953   4.518
  703SOL     OW 3007   2.936   2.763   0.049
  703SOL    HW1 3008   2.877   2.776   6.989
  703SOL    HW2 3009   2.948   2.851   0.097
  704SOL     OW 3010   3.196   1.406   5.488
  704SOL    HW1 3011   3.171   1.467   5.563
  704SOL    HW2 3012   3.143   1.322   5.494
  705SOL     OW 3013   0.406   6.245   5.508
  705SOL    HW1 3014   0.506   6.251   5.505
  705SOL    HW2 3015   0.373   6.191   5.430
  706SOL     OW 3016   3.861   0.994   5.149
  706SOL    HW1 3017   3.841   1.009   5.246
  706SOL    HW2 3018   3.833   1.074   5.097
  707SOL     OW 3019   2.584   5.494   4.075
  707SOL    HW1 3020   2.660   5.541   4.119
  707SOL    HW2 3021   2.585   5.397   4.101
  708SOL     OW 3022   4.821   5.887   3.995
  708SOL    HW1 3023   4.853   5.958   3.932
  708SOL    HW2 3024   4.875   5.892   4.080
  709SOL     OW 3025   2.207   0.836   1.361
  709SOL    HW1 3026   2.117   0.847   1.320
  709SOL    HW2 3027   2.270   0.903   1.321
  710SOL     OW 3028   5.260   3.480   2.181
  710SOL    HW1 3029   5.235   3.454   2.274
  710SOL    HW2 3030   5.243   3.403   2.119
  711SOL     OW 3031   0.155   1.754   0.243
  711SOL    HW1 3032   0.105   1.833   0.208
  711SOL    HW2 3033   0.183   1.695   0.167
  712SOL     OW 3034   5.350   3.756   0.093
  712SOL    HW1 3035   5.305   3.816   0.160
  712SOL    HW2 3036   5.291   3.748   0.012
  713SOL     OW 3037   4.350   3.676   5.341
  713SOL    HW1 3038   4.387   3.764   5.310
  713SOL    HW2 3039   4.415   3.604   5.317
  714SOL     OW 3040   5.565   6.018   3.001
  714SOL    HW1 3041   5.506   6.092   3.035
  714SOL    HW2 3042   5.659   6.050   2.999
  715SOL     OW 3043   5.927   4.502   5.527
  715SOL    HW1 3044   5.874   4.578   5.490
  715SOL    HW2 3045   6.024   4.517   5.508
  716SOL     OW 3046   3.070   2.084   3.228
  716SOL    HW1 3047   3.058   2.175   3.188
  716SOL    HW2 3048   3.005   2.071   3.303
  717SOL     OW 3049   5.089   5.267   3.974
  717SOL    HW1 3050   5.031   5.335   3.931
  717SOL    HW2 3051   5.167   5.312   4.017
  718SOL     OW 3052   6.218   2.647   5.277
  718SOL    HW1 3053   6.254   2.738   5.259
  718SOL    HW2 3054   6.180   2.643   5.370
  719SOL     OW 3055   5.075   6.395   3.457
  719SOL    HW1 3056   5.033   6.434   3.539
  719SOL    HW2 3057   5.038   6.440   3.376
  720SOL     OW 3058   2.654   1.244   0.979
  720SOL    HW1 3059   2.698   1.334   0.971
  720SOL    HW2 3060   2.637   1.224   1.076
  721SOL     OW 3061   6.727   2.833   1.946
  721SOL    HW1 3062   6.808   2.813   2.001
  721SOL    HW2 3063   6.754   2.868   1.856
  722SOL     OW 3064   4.779   5.990   0.741
  722SOL    HW1 3065   4.779   5.978   0.641
  722SOL    HW2 3066   4.806   6.084   0.762
  723SOL     OW 3067   2.393   0.258   4.545
  723SOL    HW1 3068   2.304   0.213   4.548
  723SOL    HW2 3069   2.435   0.255   4.635
  724SOL     OW 3070   1.060   1.784   4.584
  724SOL    HW1 3071   1.137   1.729   4.550
  724SOL    HW2 3072   1.085   1.828   4.670
  725SOL     OW 3073   1.901   4.561   3.084
  725SOL    HW1 3074   1.957   4.552   3.167
  725SOL    HW2 3075   1.822   4.500   3.090
  726SOL     OW 3076   1.635   3.771   1.290
  726SOL    HW1 3077   1.579   3.744   1.212
  726SOL    HW2 3078   1.643   3.694   1.354
  727SOL     OW 3079   3.579   5.079   4.868
  727SOL    HW1 3080   3.491   5.081   4.819
  727SOL    HW2 3081   3.648   5.127   4.813
  728SOL     OW 3082   6.681   3.086   3.917
  728SOL    HW1 3083   6.641   2.994   3.922
  728SOL    HW2 3084   6.741   3.092   3.837
  729SOL     OW 3085   0.598   4.283   1.192
  729SOL    HW1 3086   0.645   4.196   1.208
  729SOL    HW2 3087   0.663   4.359   1.201
  730SOL     OW 3088   4.432   1.380   3.135
  730SOL    HW1 3089   4.424   1.282   3.120
  730SOL    HW2 3090   4.476   1.396   3.224
  731SOL     OW 3091   4.553   4.491   4.062
  731SOL    HW1 3092   4.592   4.475   4.152
  731SOL    HW2 3093   4.623   4.528   4.001
  732SOL     OW 3094   3.653   1.057   4.860
  732SOL    HW1 3095   3.713   0.978   4.845
  732SOL    HW2 3096   3.667   1.123   4.786
  733SOL     OW 3097   6.114   5.140   3.723
  733SOL    HW1 3098   6.190   5.200   3.748
  733SOL    HW2 3099   6.064   5.181   3.646
  734SOL     OW 3100   6.328   6.825   2.600
  734SOL    HW1 3101   6.311   6.790   2.508
  734SOL    HW2 3102   6.411   6.784   2.636
  735SOL     OW 3103   4.173   0.095   2.218
  735SOL    HW1 3104   4.168   7.015   2.220
  735SOL    HW2 3105   4.245   0.123   2.155
  736SOL     OW 3106   1.907   1.772   3.513
  736SOL    HW1 3107   1.811   1.791   3.531
  736SOL    HW2 3108   1.963   1.844   3.553
  737SOL     OW 3109   3.777   1.350   6.181
  737SOL    HW1 3110   3.855   1.382   6.235
  737SOL    HW2 3111   3.811   1.295   6.104
  738SOL     OW 3112   1.961   4.714   0.276
  738SOL    HW1 3113   2.007   4.637   0.320
  738SOL    HW2 3114   2.009   4.799   0.298
  739SOL     OW 3115   1.900   6.926   3.663
  739SOL    HW1 3116   1.841   6.996   3.623
  739SOL    HW2 3117   1.985   6.968   3.695
  740SOL     OW 3118   4.909   3.724   3.273
  740SOL    HW1 3119   5.004   3.754   3.263
  740SOL    HW2 3120   4.907   3.625   3.291
  741SOL     OW 3121   3.036   1.040   2.920
  741SOL    HW1 3122   3.067   0.950   2.950
  741SOL    HW2 3123   2.981   1.082   2.993
  742SOL     OW 3124   1.971   6.309   1.725
  742SOL    HW1 3125   1.976   6.223   1.674
  742SOL    HW2 3126   1.973   6.386   1.661
  743SOL     OW 3127   0.691   6.083   2.889
  743SOL    HW1 3128   0.790   6.069   2.901
  743SOL    HW2 3129   0.669   6.077   2.792
  744SOL     OW 3130   5.225   1.586   6.692
  744SOL    HW1 3131   5.231   1.598   6.593
  744SOL    HW2 3132   5.260   1.495   6.716
  745SOL     OW 3133   2.314   6.429   4.429
  745SOL    HW1 3134   2.290   6.346   4.378
  745SOL    HW2 3135   2.410   6.451   4.413
  746SOL     OW 3136   0.145   4.918   4.622
  746SOL    HW1 3137   0.242   4.940   4.614
  746SOL    HW2 3138   0.090   4.996   4.593
  747SOL     OW 3139   4.714   5.624   2.646
  747SOL    HW1 3140   4.748   5.683   2.572
  747SOL    HW2 3141   4.777   5.548   2.659
  748SOL     OW 3142   5.607   5.052   1.410
  748SOL    HW1 3143   5.642   5.140   1.378
  748SOL    HW2 3144   5.668   4.978   1.380
  749SOL     OW 3145   5.057   4.659   5.040
  749SOL    HW1 3146   5.114   4.700   4.969
  749SOL    HW2 3147   5.115   4.627   5.116
  750SOL     OW 3148   2.269   2.093   2.922
  750SOL    HW1 3149   2.244   2.061   2.831
  750SOL    HW2 3150   2.206   2.055   2.989
  751SOL     OW 3151   3.335   0.715   0.540
  751SOL    HW1 3152   3.302   0.629   0.501
  751SOL    HW2 3153   3.268   0.748   0.607
  752SOL     OW 3154   3.712   2.773   5.249
  752SOL    HW1 3155   3.658   2.769   5.166
  752SOL    HW2 3156   3.703   2.864   5.290
  753SOL     OW 3157   3.560   4.059   4.147
  753SOL    HW1 3158   3.545   3.988   4.078
  753SOL    HW2 3159   3.520   4.145   4.116
  754SOL     OW 3160   5.323   0.265   0.307
  754SOL    HW1 3161   5.235   0.257   0.259
  754SOL    HW2 3162   5.324   0.202   0.385
  755SOL     OW 3163   4.449   4.511   5.308
  755SOL    HW1 3164   4.529   4.534   5.253
  755SOL    HW2 3165   4.372   4.490   5.248
  756SOL     OW 3166   2.471   5.020   6.167
  756SOL    HW1 3167   2.395   5.085   6.164
  756SOL    HW2 3168   2.521   5.023   6.081
  757SOL     OW 3169   1.824   6.142   1.932
  757SOL    HW1 3170   1.729   6.119   1.911
  757SOL    HW2 3171   1.859   6.204   1.862
  758SOL     OW 3172   4.916   0.878   4.149
  758SOL    HW1 3173   4.859   0.917   4.222
  758SOL    HW2 3174   5.004   0.850   4.188
  759SOL     OW 3175   0.477   3.827   3.922
  759SOL    HW1 3176   0.382   3.797   3.916
  759SOL    HW2 3177   0.536   3.760   3.877
  760SOL     OW 3178   6.790   4.915   3.597
  760SOL    HW1 3179   6.820   4.821   3.590
  760SOL    HW2 3180   6.772   4.952   3.505
  761SOL     OW 3181   5.138   5.056   6.577
  761SOL    HW1 3182   5.104   4.964   6.557
  761SOL    HW2 3183   5.231   5.065   6.542
  762SOL     OW 3184   3.896   5.956   3.410
  762SOL    HW1 3185   3.814   5.950   3.353
  762SOL    HW2 3186   3.925   5.865   3.436
  763SOL     OW 3187   5.141   0.404   0.495
  763SOL    HW1 3188   5.076   0.440   0.562
  763SOL    HW2 3189   5.227   0.380   0.541
  764SOL     OW 3190   5.564   6.603   5.308
  764SOL    HW1 3191   5.620   6.567   5.382
  764SOL    HW2 3192   5.490   6.659   5.346
  765SOL     OW 3193   6.097   6.726   0.177
  765SOL    HW1 3194   6.021   6.784   0.208
  765SOL    HW2 3195   6.177   6.743   0.234
  766SOL     OW 3196   2.652   1.645   4.466
  766SOL    HW1 3197   2.640   1.574   4.535
  766SOL    HW2 3198   2.749   1.654   4.443
  767SOL     OW 3199   6.593   5.797   4.236
  767SOL    HW1 3200   6.622   5.882   4.192
  767SOL    HW2 3201   6.516   5.758   4.186
  768SOL     OW 3202   2.191   5.646   3.051
  768SOL    HW1 3203   2.203   5.569   2.987
  768SOL    HW2 3204   2.099   5.643   3.090
  769SOL     OW 3205   2.980   2.061   5.416
  769SOL    HW1 3206   2.954   2.119   5.340
  769SOL    HW2 3207   2.901   2.046   5.475
  770SOL     OW 3208   1.496   4.902   6.000
  770SOL    HW1 3209   1.421   4.903   5.933
  770SOL    HW2 3210   1.499   4.813   6.045
  771SOL     OW 3211   1.685   5.073   2.946
  771SOL    HW1 3212   1.687   4.973   2.945
  771SOL    HW2 3213   1.592   5.104   2.927
  772SOL     OW 3214   5.286   4.637   0.403
  772SOL    HW1 3215   5.308   4.680   0.490
  772SOL    HW2 3216   5.300   4.539   0.409
  773SOL     OW 3217   2.113   4.268   3.936
  773SOL    HW1 3218   2.186   4.277   4.003
  773SOL    HW2 3219   2.029   4.308   3.973
  774SOL     OW 3220   2.262   1.082   3.601
  774SOL    HW1 3221   2.351   1.051   3.568
  774SOL    HW2 3222   2.274   1.163   3.658
  775SOL     OW 3223   1.350   4.760   2.795
  775SOL    HW1 3224   1.399   4.781   2.879
  775SOL    HW2 3225   1.402   4.691   2.744
  776SOL     OW 3226   2.664   5.245   6.019
  776SOL    HW1 3227   2.697   5.171   5.961
  776SOL    HW2 3228   2.567   5.261   6.000
  777SOL     OW 3229   1.894   3.574   6.222
  777SOL    HW1 3230   1.900   3.570   6.322
  777SOL    HW2 3231   1.986   3.586   6.184
  778SOL     OW 3232   3.288   5.643   6.825
  778SOL    HW1 3233   3.250   5.551   6.830
  778SOL    HW2 3234   3.334   5.665   6.912
  779SOL     OW 3235   6.107   2.313   2.987
  779SOL    HW1 3236   6.141   2.406   2.996
  779SOL    HW2 3237   6.164   2.263   2.921
  780SOL     OW 3238   6.829   2.280   4.914
  780SOL    HW1 3239   6.750   2.325   4.874
  780SOL    HW2 3240   6.909   2.293   4.855
  781SOL     OW 3241   0.576   4.464   6.777
  781SOL    HW1 3242   0.644   4.391   6.774
  781SOL    HW2 3243   0.538   4.479   6.685
  782SOL     OW 3244   2.137   3.705   5.544
  782SOL    HW1 3245   2.108   3.779   5.605
  782SOL    HW2 3246   2.177   3.744   5.461
  783SOL     OW 3247   6.389   4.852   6.512
  783SOL    HW1 3248   6.381   4.901   6.599
  783SOL    HW2 3249   6.465   4.891   6.459
  784SOL     OW 3250   2.126   6.297   0.673
  784SOL    HW1 3251   2.111   6.394   0.691
  784SOL    HW2 3252   2.201   6.286   0.608
  785SOL     OW 3253   0.338   0.992   4.340
  785SOL    HW1 3254   0.301   0.919   4.396
  785SOL    HW2 3255   0.315   0.976   4.244
  786SOL     OW 3256   5.921   0.862   4.240
  786SOL    HW1 3257   6.016   0.885   4.217
  786SOL    HW2 3258   5.914   0.843   4.338
  787SOL     OW 3259   2.384   7.014   1.729
  787SOL    HW1 3260   2.427   6.944   1.672
  787SOL    HW2 3261   2.291   6.986   1.752
  788SOL     OW 3262   2.202   2.787   2.085
  788SOL    HW1 3263   2.279   2.780   2.148
  788SOL    HW2 3264   2.116   2.790   2.138
  789SOL     OW 3265   4.234   4.698   2.634
  789SOL    HW1 3266   4.277   4.612   2.659
  789SOL    HW2 3267   4.231   4.706   2.534
  790SOL     OW 3268   0.412   3.197   2.063
  790SOL    HW1 3269   0.444   3.152   1.979
  790SOL    HW2 3270   0.313   3.211   2.057
  791SOL     OW 3271   3.301   6.972   3.792
  791SOL    HW1 3272   3.267   0.009   3.868
  791SOL    HW2 3273   3.223   6.927   3.747
  792SOL     OW 3274   2.257   0.405   0.651
  792SOL    HW1 3275   2.339   0.413   0.708
  792SOL    HW2 3276   2.177   0.398   0.709
  793SOL     OW 3277   2.190   6.285   4.747
  793SOL    HW1 3278   2.227   6.232   4.670
  793SOL    HW2 3279   2.106   6.330   4.719
  794SOL     OW 3280   2.957   3.189   2.650
  794SOL    HW1 3281   2.958   3.223   2.744
  794SOL    HW2 3282   2.968   3.266   2.587
  795SOL     OW 3283   4.994   0.985   5.712
  795SOL    HW1 3284   5.075   0.937   5.679
  795SOL    HW2 3285   5.000   1.082   5.689
  796SOL     OW 3286   0.442   2.328   0.019
  796SOL    HW1 3287   0.489   2.372   0.096
  796SOL    HW2 3288   0.366   2.273   0.054
  797SOL     OW 3289   3.487   6.586   1.424
  797SOL    HW1 3290   3.454   6.534   1.345
  797SOL    HW2 3291   3.429   6.665   1.439
  798SOL     OW 3292   5.207   4.873   1.138
  798SOL    HW1 3293   5.188   4.775   1.128
  798SOL    HW2 3294   5.300   4.886   1.173
  799SOL     OW 3295   2.601   2.841   6.016
  799SOL    HW1 3296   2.646   2.822   5.929
  799SOL    HW2 3297   2.613   2.938   6.039
  800SOL     OW 3298   5.556   3.000   3.544
  800SOL    HW1 3299   5.556   2.918   3.485
  800SOL    HW2 3300   5.619   2.987   3.620
  801SOL     OW 3301   1.665   5.803   6.404
  801SOL    HW1 3302   1.736   5.733   6.406
  801SOL    HW2 3303   1.688   5.872   6.336
  802SOL     OW 3304   4.643   2.507   6.635
  802SOL    HW1 3305   4.687   2.562   6.706
  802SOL    HW2 3306   4.544   2.510   6.647
  803SOL     OW 3307   2.445   2.165   4.014
  803SOL    HW1 3308   2.428   2.262   3.996
  803SOL    HW2 3309   2.526   2.156   4.072
  804SOL     OW 3310   5.259   0.314   2.696
  804SOL    HW1 3311   5.222   0.306   2.789
  804SOL    HW2 3312   5.334   0.249   2.684
  805SOL     OW 3313   3.620   0.833   4.079
  805SOL    HW1 3314   3.672   0.870   4.001
  805SOL    HW2 3315   3.568   0.753   4.049
  806SOL     OW 3316   3.245   6.466   5.389
  806SOL    HW1 3317   3.223   6.500   5.298
  806SOL    HW2 3318   3.344   6.449   5.396
  807SOL     OW 3319   1.057   6.042   5.907
  807SOL    HW1 3320   1.131   6.093   5.863
  807SOL    HW2 3321   1.009   5.987   5.838
  808SOL     OW 3322   5.257   2.772   5.880
  808SOL    HW1 3323   5.163   2.792   5.852
  808SOL    HW2 3324   5.283   2.681   5.847
  809SOL     OW 3325   3.097   5.858   6.773
  809SOL    HW1 3326   3.179   5.801   6.768
  809SOL    HW2 3327   3.015   5.801   6.771
  810SOL     OW 3328   3.420   3.602   0.229
  810SOL    HW1 3329   3.459   3.513   0.252
  810SOL    HW2 3330   3.383   3.600   0.136
  811SOL     OW 3331   5.924   5.527   4.685
  811SOL    HW1 3332   5.907   5.606   4.744
  811SOL    HW2 3333   6.018   5.531   4.650
  812SOL     OW 3334   1.020   3.704   1.734
  812SOL    HW1 3335   1.111   3.718   1.694
  812SOL    HW2 3336   1.024   3.628   1.799
  813SOL     OW 3337   1.965   1.259   5.193
  813SOL    HW1 3338   1.889   1.197   5.174
  813SOL    HW2 3339   2.013   1.281   5.108
  814SOL     OW 3340   0.889   4.188   2.592
  814SOL    HW1 3341   0.871   4.131   2.512
  814SOL    HW2 3342   0.825   4.266   2.592
  815SOL     OW 3343   4.588   2.679   4.697
  815SOL    HW1 3344   4.582   2.778   4.707
  815SOL    HW2 3345   4.518   2.636   4.753
  816SOL     OW 3346   5.447   3.548   6.388
  816SOL    HW1 3347   5.458   3.509   6.479
  816SOL    HW2 3348   5.519   3.511   6.328
  817SOL     OW 3349   0.250   4.797   6.288
  817SOL    HW1 3350   0.246   4.786   6.387
  817SOL    HW2 3351   0.340   4.769   6.255
  818SOL     OW 3352   0.124   1.806   5.185
  818SOL    HW1 3353   0.053   1.739   5.164
  818SOL    HW2 3354   0.155   1.793   5.279
  819SOL     OW 3355   4.943   3.470   1.723
  819SOL    HW1 3356   4.860   3.416   1.715
  819SOL    HW2 3357   5.019   3.422   1.679
  820SOL     OW 3358   2.739   2.248   5.200
  820SOL    HW1 3359   2.812   2.201   5.149
  820SOL    HW2 3360   2.659   2.189   5.204
  821SOL     OW 3361   4.986   3.028   6.792
  821SOL    HW1 3362   5.076   3.011   6.751
  821SOL    HW2 3363   4.988   3.004   6.889
  822SOL     OW 3364   0.232   4.888   3.319
  822SOL    HW1 3365   0.232   4.859   3.415
  822SOL    HW2 3366   0.257   4.811   3.261
  823SOL     OW 3367   1.960   3.015   4.459
  823SOL    HW1 3368   1.906   3.092   4.493
  823SOL    HW2 3369   2.057   3.031   4.478
  824SOL     OW 3370   5.001   0.027   6.583
  824SOL    HW1 3371   4.944   0.023   6.501
  824SOL    HW2 3372   5.044   0.117   6.589
  825SOL     OW 3373   6.378   5.912   0.726
  825SOL    HW1 3374   6.343   5.819   0.712
  825SOL    HW2 3375   6.304   5.977   0.708
  826SOL     OW 3376   3.748   1.857   0.193
  826SOL    HW1 3377   3.675   1.841   0.258
  826SOL    HW2 3378   3.714   1.841   0.100
  827SOL     OW 3379   3.443   3.710   4.841
  827SOL    HW1 3380   3.474   3.752   4.926
  827SOL    HW2 3381   3.396   3.624   4.861
  828SOL     OW 3382   0.144   6.672   6.332
  828SOL    HW1 3383   0.094   6.591   6.362
  828SOL    HW2 3384   0.237   6.646   6.307
  829SOL     OW 3385   3.806   3.572   2.116
  829SOL    HW1 3386   3.899   3.540   2.099
  829SOL    HW2 3387   3.792   3.582   2.215
  830SOL     OW 3388   6.897   4.698   6.784
  830SOL    HW1 3389   6.828   4.671   6.851
  830SOL    HW2 3390   6.985   4.711   6.829
  831SOL     OW 3391   5.638   0.951   2.146
  831SOL    HW1 3392   5.656   1.007   2.226
  831SOL    HW2 3393   5.551   0.904   2.157
  832SOL     OW 3394   3.025   1.925   4.636
  832SOL    HW1 3395   2.933   1.905   4.603
  832SOL    HW2 3396   3.032   2.022   4.659
  833SOL     OW 3397   4.034   3.127   6.603
  833SOL    HW1 3398   3.955   3.071   6.576
  833SOL    HW2 3399   4.001   3.211   6.647
  834SOL     OW 3400   5.542   2.764   0.576
  834SOL    HW1 3401   5.446   2.735   0.583
  834SOL    HW2 3402   5.591   2.741   0.660
  835SOL     OW 3403   6.839   0.360   4.729
  835SOL    HW1 3404   6.845   0.261   4.740
  835SOL    HW2 3405   6.765   0.395   4.787
  836SOL     OW 3406   5.133   0.570   4.611
  836SOL    HW1 3407   5.179   0.659   4.617
  836SOL    HW2 3408   5.200   0.498   4.598
  837SOL     OW 3409   1.498   0.510   0.115
  837SOL    HW1 3410   1.550   0.486   0.033
  837SOL    HW2 3411   1.400   0.500   0.097
  838SOL     OW 3412   1.866   5.974   3.332
  838SOL    HW1 3413   1.895   6.067   3.308
  838SOL    HW2 3414   1.874   5.915   3.252
  839SOL     OW 3415   1.406   2.275   0.860
  839SOL    HW1 3416   1.360   2.285   0.773
  839SOL    HW2 3417   1.482   2.211   0.850
  840SOL     OW 3418   4.850   5.035   0.676
  840SOL    HW1 3419   4.779   4.966   0.692
  840SOL    HW2 3420   4.835   5.077   0.587
  841SOL     OW 3421   2.536   5.333   6.527
  841SOL    HW1 3422   2.468   5.372   6.465
  841SOL    HW2 3423   2.621   5.314   6.477
  842SOL     OW 3424   3.939   5.703   0.764
  842SOL    HW1 3425   4.022   5.739   0.722
  842SOL    HW2 3426   3.948   5.706   0.863
  843SOL     OW 3427   1.454   0.248   2.221
  843SOL    HW1 3428   1.428   0.244   2.318
  843SOL    HW2 3429   1.400   0.317   2.175
  844SOL     OW 3430   0.167   0.491   1.844
  844SOL    HW1 3431   0.154   0.547   1.762
  844SOL    HW2 3432   0.081   0.485   1.894
  845SOL     OW 3433   3.563   1.469   2.633
  845SOL    HW1 3434   3.474   1.516   2.640
  845SOL    HW2 3435   3.572   1.430   2.542
  846SOL     OW 3436   2.162   2.257   0.773
  846SOL    HW1 3437   2.235   2.322   0.796
  846SOL    HW2 3438   2.200   2.181   0.721
  847SOL     OW 3439   2.605   3.636   1.540
  847SOL    HW1 3440   2.552   3.685   1.471
  847SOL    HW2 3441   2.699   3.625   1.508
  848SOL     OW 3442   6.406   6.132   0.203
  848SOL    HW1 3443   6.351   6.171   0.129
  848SOL    HW2 3444   6.347   6.083   0.266
  849SOL     OW 3445   5.873   2.876   6.687
  849SOL    HW1 3446   5.972   2.887   6.691
  849SOL    HW2 3447   5.849   2.813   6.613
  850SOL     OW 3448   1.420   0.982   4.582
  850SOL    HW1 3449   1.372   0.894   4.583
  850SOL    HW2 3450   1.489   0.982   4.655
  851SOL     OW 3451   5.622   2.712   6.302
  851SOL    HW1 3452   5.654   2.644   6.236
  851SOL    HW2 3453   5.596   2.795   6.254
  852SOL     OW 3454   7.012   4.022   1.999
  852SOL    HW1 3455   6.947   3.950   1.972
  852SOL    HW2 3456   0.040   3.994   2.083
  853SOL     OW 3457   3.008   3.001   0.630
  853SOL    HW1 3458   3.071   2.945   0.684
  853SOL    HW2 3459   2.922   2.951   0.619
  854SOL     OW 3460   6.341   6.634   5.515
  854SOL    HW1 3461   6.427   6.675   5.484
  854SOL    HW2 3462   6.328   6.654   5.612
  855SOL     OW 3463   5.760   1.475   0.461
  855SOL    HW1 3464   5.672   1.456   0.504
  855SOL    HW2 3465   5.825   1.404   0.486
  856SOL     OW 3466   1.978   5.480   2.034
  856SOL    HW1 3467   1.997   5.574   2.005
  856SOL    HW2 3468   2.000   5.417   1.960
  857SOL     OW 3469   6.988   5.573   4.987
  857SOL    HW1 3470   0.022   5.500   5.030
  857SOL    HW2 3471   6.896   5.539   4.966
  858SOL     OW 3472   4.530   4.013   0.179
  858SOL    HW1 3473   4.594   4.062   0.120
  858SOL    HW2 3474   4.577   3.939   0.226
  859SOL     OW 3475   5.018   5.674   5.578
  859SOL    HW1 3476   5.006   5.589   5.527
  859SOL    HW2 3477   5.110   5.674   5.619
  860SOL     OW 3478   4.397   2.741   6.247
  860SOL    HW1 3479   4.495   2.744   6.268
  860SOL    HW2 3480   4.369   2.828   6.205
  861SOL     OW 3481   1.802   5.343   2.230
  861SOL    HW1 3482   1.834   5.356   2.324
  861SOL    HW2 3483   1.876   5.362   2.167
  862SOL     OW 3484   0.628   3.863   3.594
  862SOL    HW1 3485   0.665   3.800   3.663
  862SOL    HW2 3486   0.608   3.813   3.510
  863SOL     OW 3487   6.357   0.515   1.369
  863SOL    HW1 3488   6.336   0.419   1.351
  863SOL    HW2 3489   6.273   0.564   1.392
  864SOL     OW 3490   6.150   6.005   3.263
  864SOL    HW1 3491   6.060   5.971   3.234
  864SOL    HW2 3492   6.147   6.032   3.359
  865SOL     OW 3493   1.553   5.858   4.801
  865SOL    HW1 3494   1.583   5.804   4.879
  865SOL    HW2 3495   1.573   5.808   4.716
  866SOL     OW 3496   3.592   0.057   1.882
  866SOL    HW1 3497   3.661   7.006   1.898
  866SOL    HW2 3498   3.511   0.038   1.938
  867SOL     OW 3499   5.934   2.856   5.796
  867SOL    HW1 3500   5.935   2.861   5.896
  867SOL    HW2 3501   5.841   2.872   5.763
  868SOL     OW 3502   0.428   2.518   1.456
  868SOL    HW1 3503   0.506   2.538   1.397
  868SOL    HW2 3504   0.397   2.602   1.500
  869SOL     OW 3505   6.838   3.972   3.099
  869SOL    HW1 3506   6.912   3.949   3.161
  869SOL    HW2 3507   6.871   3.971   3.004
  870SOL     OW 3508   3.314   5.272   2.264
  870SOL    HW1 3509   3.278   5.181   2.246
  870SOL    HW2 3510   3.319   5.323   2.178
  871SOL     OW 3511   4.833   2.119   3.462
  871SOL    HW1 3512   4.903   2.080   3.522
  871SOL    HW2 3513   4.772   2.178   3.515
  872SOL     OW 3514   1.271   2.322   4.900
  872SOL    HW1 3515   1.192   2.292   4.847
  872SOL    HW2 3516   1.253   2.414   4.937
  873SOL     OW 3517   4.000   7.007   6.243
  873SOL    HW1 3518   4.009   0.045   6.324
  873SOL    HW2 3519   3.903   6.991   6.224
  874SOL     OW 3520   5.303   3.617   1.770
  874SOL    HW1 3521   5.219   3.616   1.825
  874SOL    HW2 3522   5.374   3.667   1.819
  875SOL     OW 3523   4.819   5.600   1.660
  875SOL    HW1 3524   4.742   5.537   1.663
  875SOL    HW2 3525   4.786   5.693   1.674
  876SOL     OW 3526   6.449   0.207   0.593
  876SOL    HW1 3527   6.418   0.302   0.590
  876SOL    HW2 3528   6.547   0.204   0.574
  877SOL     OW 3529   1.810   3.932   0.166
  877SOL    HW1 3530   1.894   3.894   0.127
  877SOL    HW2 3531   1.785   4.015   0.117
  878SOL     OW 3532   3.867   6.328   4.374
  878SOL    HW1 3533   3.821   6.295   4.292
  878SOL    HW2 3534   3.944   6.387   4.348
  879SOL     OW 3535   5.669   6.520   6.492
  879SOL    HW1 3536   5.637   6.441   6.543
  879SOL    HW2 3537   5.623   6.602   6.525
  880SOL     OW 3538   2.974   3.335   2.937
  880SOL    HW1 3539   2.904   3.406   2.934
  880SOL    HW2 3540   3.064   3.376   2.921
  881SOL     OW 3541   4.747   1.590   0.386
  881SOL    HW1 3542   4.689   1.623   0.311
  881SOL    HW2 3543   4.780   1.498   0.364
  882SOL     OW 3544   1.470   2.787   3.518
  882SOL    HW1 3545   1.524   2.752   3.442
  882SOL    HW2 3546   1.387   2.830   3.483
  883SOL     OW 3547   2.931   6.843   3.399
  883SOL    HW1 3548   3.008   6.784   3.374
  883SOL    HW2 3549   2.925   6.919   3.335
  884SOL     OW 3550   3.742   3.767   5.830
  884SOL    HW1 3551   3.652   3.748   5.791
  884SOL    HW2 3552   3.801   3.807   5.760
  885SOL     OW 3553   4.214   2.673   6.456
  885SOL    HW1 3554   4.260   2.706   6.374
  885SOL    HW2 3555   4.240   2.730   6.534
  886SOL     OW 3556   3.445   1.718   6.990
  886SOL    HW1 3557   3.536   1.757   6.974
  886SOL    HW2 3558   3.418   1.662   6.912
  887SOL     OW 3559   5.311   1.118   5.172
  887SOL    HW1 3560   5.310   1.218   5.165
  887SOL    HW2 3561   5.348   1.091   5.261
  888SOL     OW 3562   0.028   5.899   2.458
  888SOL    HW1 3563   0.021   5.806   2.494
  888SOL    HW2 3564   0.027   5.964   2.534
  889SOL     OW 3565   0.854   3.779   0.347
  889SOL    HW1 3566   0.954   3.778   0.350
  889SOL    HW2 3567   0.821   3.863   0.391
  890SOL     OW 3568   2.489   6.012   4.432
  890SOL    HW1 3569   2.519   6.100   4.395
  890SOL    HW2 3570   2.566   5.966   4.476
  891SOL     OW 3571   4.914   5.242   2.185
  891SOL    HW1 3572   4.902   5.210   2.278
  891SOL    HW2 3573   4.843   5.309   2.164
  892SOL     OW 3574   2.397   4.629   0.979
  892SOL    HW1 3575   2.472   4.569   0.951
  892SOL    HW2 3576   2.332   4.578   1.036
  893SOL     OW 3577   2.063   6.167   2.753
  893SOL    HW1 3578   2.056   6.074   2.717
  893SOL    HW2 3579   2.047   6.165   2.852
  894SOL     OW 3580   0.887   3.856   1.398
  894SOL    HW1 3581   0.902   3.921   1.473
  894SOL    HW2 3582   0.975   3.828   1.359
  895SOL     OW 3583   0.487   5.807   4.060
  895SOL    HW1 3584   0.453   5.753   3.983
  895SOL    HW2 3585   0.414   5.818   4.128
  896SOL     OW 3586   0.636   1.107   6.495
  896SOL    HW1 3587   0.691   1.101   6.579
  896SOL    HW2 3588   0.541   1.082   6.515
  897SOL     OW 3589   4.719   0.573   0.379
  897SOL    HW1 3590   4.803   0.627   0.389
  897SOL    HW2 3591   4.640   0.633   0.384
  898SOL     OW 3592   4.246   0.161   3.335
  898SOL    HW1 3593   4.163   0.130   3.381
  898SOL    HW2 3594   4.326   0.135   3.389
  899SOL     OW 3595   6.803   5.474   0.357
  899SOL    HW1 3596   6.806   5.374   0.365
  899SOL    HW2 3597   6.813   5.500   0.261
  900SOL     OW 3598   5.523   5.484   0.911
  900SOL    HW1 3599   5.492   5.577   0.889
  900SOL    HW2 3600   5.606   5.489   0.966
  901SOL     OW 3601   1.394   0.637   3.297
  901SOL    HW1 3602   1.450   0.694   3.357
  901SOL    HW2 3603   1.347   0.696   3.231
  902SOL     OW 3604   6.044   3.094   1.806
  902SOL    HW1 3605   6.018   3.011   1.855
  902SOL    HW2 3606   6.100   3.070   1.727
  903SOL     OW 3607   6.712   1.764   1.290
  903SOL    HW1 3608   6.739   1.757   1.194
  903SOL    HW2 3609   6.740   1.681   1.338
  904SOL     OW 3610   2.965   0.829   2.390
  904SOL    HW1 3611   2.869   0.810   2.370
  904SOL    HW2 3612   2.971   0.894   2.466
  905SOL     OW 3613   5.790   2.527   6.607
  905SOL    HW1 3614   5.875   2.527   6.553
  905SOL    HW2 3615   5.731   2.453   6.575
  906SOL     OW 3616   5.460   2.929   6.712
  906SOL    HW1 3617   5.400   2.883   6.777
  906SOL    HW2 3618   5.509   2.861   6.658
  907SOL     OW 3619   4.956   4.556   6.651
  907SOL    HW1 3620   4.930   4.490   6.581
  907SOL    HW2 3621   5.018   4.513   6.717
  908SOL     OW 3622   1.414   4.352   3.084
  908SOL    HW1 3623   1.424   4.450   3.100
  908SOL    HW2 3624   1.324   4.323   3.118
  909SOL     OW 3625   5.389   5.387   6.087
  909SOL    HW1 3626   5.344   5.300   6.104
  909SOL    HW2 3627   5.481   5.386   6.126
  910SOL     OW 3628   2.520   4.766   1.204
  910SOL    HW1 3629   2.458   4.702   1.159
  910SOL    HW2 3630   2.467   4.844   1.239
  911SOL     OW 3631   1.237   4.739   6.183
  911SOL    HW1 3632   1.320   4.720   6.131
  911SOL    HW2 3633   1.191   4.652   6.204
  912SOL     OW 3634   5.287   1.840   4.143
  912SOL    HW1 3635   5.258   1.775   4.213
  912SOL    HW2 3636   5.370   1.886   4.173
  913SOL     OW 3637   5.555   6.849   2.465
  913SOL    HW1 3638   5.619   6.918   2.429
  913SOL    HW2 3639   5.578   6.760   2.425
  914SOL     OW 3640   2.809   6.821   6.674
  914SOL    HW1 3641   2.811   6.721   6.675
  914SOL    HW2 3642   2.717   6.852   6.700
  915SOL     OW 3643   5.635   5.832   1.023
  915SOL    HW1 3644   5.695   5.755   1.047
  915SOL    HW2 3645   5.571   5.803   0.952
  916SOL     OW 3646   1.829   2.935   2.696
  916SOL    HW1 3647   1.865   3.028   2.694
  916SOL    HW2 3648   1.734   2.935   2.664
  917SOL     OW 3649   0.371   6.737   0.636
  917SOL    HW1 3650   0.467   6.713   0.624
  917SOL    HW2 3651   0.350   6.820   0.584
  918SOL     OW 3652   2.752   5.882   0.064
  918SOL    HW1 3653   2.837   5.928   0.038
  918SOL    HW2 3654   2.701   5.856   7.001
  919SOL     OW 3655   5.725   1.713   5.488
  919SOL    HW1 3656   5.688   1.788   5.544
  919SOL    HW2 3657   5.655   1.682   5.424
  920SOL     OW 3658   2.675   5.089   2.446
  920SOL    HW1 3659   2.656   5.126   2.355
  920SOL    HW2 3660   2.770   5.056   2.449
  921SOL     OW 3661   4.851   5.203   5.196
  921SOL    HW1 3662   4.798   5.267   5.252
  921SOL    HW2 3663   4.859   5.238   5.103
  922SOL     OW 3664   3.497   2.898   4.198
  922SOL    HW1 3665   3.584   2.894   4.248
  922SOL    HW2 3666   3.431   2.837   4.242
  923SOL     OW 3667   2.494   3.461   5.383
  923SOL    HW1 3668   2.477   3.407   5.465
  923SOL    HW2 3669   2.436   3.542   5.384
  924SOL     OW 3670   6.836   3.080   1.723
  924SOL    HW1 3671   6.775   3.149   1.683
  924SOL    HW2 3672   6.818   2.991   1.680
  925SOL     OW 3673   0.393   1.865   0.139
  925SOL    HW1 3674   0.327   1.885   0.210
  925SOL    HW2 3675   0.347   1.857   0.051
  926SOL     OW 3676   1.778   1.930   1.949
  926SOL    HW1 3677   1.755   1.877   1.868
  926SOL    HW2 3678   1.858   1.987   1.929
  927SOL     OW 3679   6.378   3.532   4.529
  927SOL    HW1 3680   6.283   3.557   4.548
  927SOL    HW2 3681   6.393   3.437   4.555
  928SOL     OW 3682   3.512   4.638   6.090
  928SOL    HW1 3683   3.522   4.627   6.189
  928SOL    HW2 3684   3.601   4.655   6.048
  929SOL     OW 3685   0.231   1.314   4.918
  929SOL    HW1 3686   0.311   1.267   4.954
  929SOL    HW2 3687   0.253   1.357   4.831
  930SOL     OW 3688   5.106   5.138   5.314
  930SOL    HW1 3689   5.087   5.096   5.402
  930SOL    HW2 3690   5.020   5.171   5.273
  931SOL     OW 3691   6.499   1.090   2.942
  931SOL    HW1 3692   6.420   1.108   3.000
  931SOL    HW2 3693   6.539   1.001   2.966
  932SOL     OW 3694   3.876   0.717   3.761
  932SOL    HW1 3695   3.800   0.674   3.808
  932SOL    HW2 3696   3.961   0.671   3.786
  933SOL     OW 3697   1.708   5.707   2.061
  933SOL    HW1 3698   1.692   5.659   2.147
  933SOL    HW2 3699   1.623   5.750   2.031
  934SOL     OW 3700   1.936   3.247   0.212
  934SOL    HW1 3701   1.983   3.258   0.300
  934SOL    HW2 3702   1.861   3.313   0.206
  935SOL     OW 3703   6.199   2.695   4.875
  935SOL    HW1 3704   6.115   2.741   4.903
  935SOL    HW2 3705   6.179   2.628   4.804
  936SOL     OW 3706   1.807   0.033   5.810
  936SOL    HW1 3707   1.712   0.048   5.838
  936SOL    HW2 3708   1.825   6.955   5.807
  937SOL     OW 3709   3.537   1.826   5.776
  937SOL    HW1 3710   3.457   1.785   5.818
  937SOL    HW2 3711   3.577   1.763   5.709
  938SOL     OW 3712   5.964   5.899   4.574
  938SOL    HW1 3713   5.932   5.986   4.535
  938SOL    HW2 3714   5.917   5.881   4.660
  939SOL     OW 3715   0.664   6.646   5.702
  939SOL    HW1 3716   0.677   6.742   5.676
  939SOL    HW2 3717   0.642   6.639   5.799
  940SOL     OW 3718   1.800   5.284   0.201
  940SOL    HW1 3719   1.722   5.274   0.140
  940SOL    HW2 3720   1.857   5.361   0.170
  941SOL     OW 3721   3.630   0.403   0.453
  941SOL    HW1 3722   3.556   0.351   0.497
  941SOL    HW2 3723   3.601   0.431   0.362
  942SOL     OW 3724   6.652   5.169   0.626
  942SOL    HW1 3725   6.631   5.262   0.659
  942SOL    HW2 3726   6.647   5.105   0.703
  943SOL     OW 3727   3.240   5.543   1.606
  943SOL    HW1 3728   3.310   5.580   1.544
  943SOL    HW2 3729   3.152   5.587   1.586
  944SOL     OW 3730   6.503   6.623   3.636
  944SOL    HW1 3731   6.408   6.652   3.644
  944SOL    HW2 3732   6.533   6.631   3.541
  945SOL     OW 3733   0.800   5.132   6.250
  945SOL    HW1 3734   0.883   5.186   6.260
  945SOL    HW2 3735   0.806   5.051   6.309
  946SOL     OW 3736   5.684   2.103   4.254
  946SOL    HW1 3737   5.784   2.105   4.264
  946SOL    HW2 3738   5.646   2.040   4.322
  947SOL     OW 3739   3.815   4.065   4.248
  947SOL    HW1 3740   3.720   4.076   4.221
  947SOL    HW2 3741   3.848   4.151   4.288
  948SOL     OW 3742   3.694   0.865   3.064
  948SOL    HW1 3743   3.778   0.890   3.016
  948SOL    HW2 3744   3.711   0.861   3.162
  949SOL     OW 3745   3.749   0.092   5.585
  949SOL    HW1 3746   3.672   0.029   5.592
  949SOL    HW2 3747   3.771   0.107   5.488
  950SOL     OW 3748   6.778   0.658   2.736
  950SOL    HW1 3749   6.711   0.723   2.771
  950SOL    HW2 3750   6.835   0.625   2.811
  951SOL     OW 3751   1.824   6.954   2.737
  951SOL    HW1 3752   1.907   6.900   2.750
  951SOL    HW2 3753   1.847   0.032   2.734
  952SOL     OW 3754   3.871   1.332   3.320
  952SOL    HW1 3755   3.925   1.339   3.236
  952SOL    HW2 3756   3.774   1.325   3.297
  953SOL     OW 3757   0.348   4.632   5.935
  953SOL    HW1 3758   0.420   4.580   5.890
  953SOL    HW2 3759   0.290   4.675   5.866
  954SOL     OW 3760   5.041   6.170   2.518
  954SOL    HW1 3761   4.983   6.101   2.476
  954SOL    HW2 3762   4.993   6.210   2.597
  955SOL     OW 3763   1.756   5.387   0.759
  955SOL    HW1 3764   1.769   5.300   0.712
  955SOL    HW2 3765   1.772   5.462   0.695
  956SOL     OW 3766   4.588   0.650   0.931
  956SOL    HW1 3767   4.497   0.689   0.917
  956SOL    HW2 3768   4.585   0.581   1.003
  957SOL     OW 3769   6.344   0.805   2.768
  957SOL    HW1 3770   6.295   0.732   2.719
  957SOL    HW2 3771   6.281   0.851   2.831
  958SOL     OW 3772   5.056   6.436   1.657
  958SOL    HW1 3773   4.982   6.502   1.675
  958SOL    HW2 3774   5.019   6.358   1.607
  959SOL     OW 3775   5.255   6.374   3.048
  959SOL    HW1 3776   5.211   6.464   3.053
  959SOL    HW2 3777   5.212   6.320   2.975
  960SOL     OW 3778   1.589   6.329   6.410
  960SOL    HW1 3779   1.673   6.274   6.413
  960SOL    HW2 3780   1.560   6.350   6.503
  961SOL     OW 3781   3.697   0.837   3.352
  961SOL    HW1 3782   3.705   0.749   3.398
  961SOL    HW2 3783   3.610   0.880   3.376
  962SOL     OW 3784   0.338   0.588   4.802
  962SOL    HW1 3785   0.306   0.503   4.760
  962SOL    HW2 3786   0.415   0.568   4.863
  963SOL     OW 3787   5.434   2.954   1.050
  963SOL    HW1 3788   5.420   2.894   1.129
  963SOL    HW2 3789   5.369   2.930   0.978
  964SOL     OW 3790   3.971   5.834   5.132
  964SOL    HW1 3791   4.032   5.775   5.079
  964SOL    HW2 3792   3.945   5.914   5.078
  965SOL     OW 3793   5.943   2.153   3.444
  965SOL    HW1 3794   5.867   2.093   3.469
  965SOL    HW2 3795   5.908   2.231   3.391
  966SOL     OW 3796   4.792   0.855   3.923
  966SOL    HW1 3797   4.844   0.885   4.003
  966SOL    HW2 3798   4.774   0.757   3.929
  967SOL     OW 3799   4.326   4.416   6.526
  967SOL    HW1 3800   4.392   4.428   6.600
  967SOL    HW2 3801   4.348   4.331   6.477
  968SOL     OW 3802   3.601   0.272   1.737
  968SOL    HW1 3803   3.505   0.295   1.719
  968SOL    HW2 3804   3.606   0.187   1.788
  969SOL     OW 3805   3.076   4.252   6.351
  969SOL    HW1 3806   3.153   4.214   6.298
  969SOL    HW2 3807   3.074   4.210   6.442
  970SOL     OW 3808   4.721   6.729   6.081
  970SOL    HW1 3809   4.641   6.755   6.026
  970SOL    HW2 3810   4.804   6.753   6.031
  971SOL     OW 3811   5.409   3.634   3.251
  971SOL    HW1 3812   5.496   3.684   3.247
  971SOL    HW2 3813   5.397   3.582   3.166
  972SOL     OW 3814   0.287   2.805   0.745
  972SOL    HW1 3815   0.199   2.787   0.700
  972SOL    HW2 3816   0.271   2.845   0.835
  973SOL     OW 3817   0.342   3.054   5.580
  973SOL    HW1 3818   0.286   3.078   5.500
  973SOL    HW2 3819   0.391   2.969   5.562
  974SOL     OW 3820   0.490   4.556   2.509
  974SOL    HW1 3821   0.514   4.569   2.413
  974SOL    HW2 3822   0.390   4.555   2.518
  975SOL     OW 3823   3.020   0.284   2.639
  975SOL    HW1 3824   3.009   0.189   2.613
  975SOL    HW2 3825   2.971   0.343   2.575
  976SOL     OW 3826   6.838   3.229   3.670
  976SOL    HW1 3827   6.925   3.202   3.711
  976SOL    HW2 3828   6.811   3.319   3.704
  977SOL     OW 3829   6.332   1.451   2.074
  977SOL    HW1 3830   6.398   1.501   2.019
  977SOL    HW2 3831   6.378   1.376   2.122
  978SOL     OW 3832   5.187   3.100   1.477
  978SOL    HW1 3833   5.157   3.121   1.384
  978SOL    HW2 3834   5.111   3.061   1.528
  979SOL     OW 3835   0.600   4.521   0.042
  979SOL    HW1 3836   0.577   4.431   0.080
  979SOL    HW2 3837   0.607   4.514   6.962
  980SOL     OW 3838   4.000   1.180   4.734
  980SOL    HW1 3839   3.922   1.227   4.775
  980SOL    HW2 3840   4.051   1.133   4.806
  981SOL     OW 3841   0.454   6.587   5.547
  981SOL    HW1 3842   0.528   6.589   5.614
  981SOL    HW2 3843   0.478   6.524   5.473
  982SOL     OW 3844   6.410   1.146   5.971
  982SOL    HW1 3845   6.470   1.145   6.051
  982SOL    HW2 3846   6.344   1.071   5.978
  983SOL     OW 3847   0.591   4.292   3.161
  983SOL    HW1 3848   0.513   4.251   3.115
  983SOL    HW2 3849   0.644   4.221   3.208
  984SOL     OW 3850   0.557   3.378   3.623
  984SOL    HW1 3851   0.578   3.442   3.549
  984SOL    HW2 3852   0.499   3.305   3.588
  985SOL     OW 3853   6.377   5.485   5.006
  985SOL    HW1 3854   6.314   5.408   4.992
  985SOL    HW2 3855   6.404   5.489   5.102
  986SOL     OW 3856   4.687   5.161   1.113
  986SOL    HW1 3857   4.739   5.097   1.169
  986SOL    HW2 3858   4.749   5.219   1.061
  987SOL     OW 3859   4.801   4.580   4.809
  987SOL    HW1 3860   4.722   4.532   4.845
  987SOL    HW2 3861   4.873   4.515   4.787
  988SOL     OW 3862   2.531   4.569   2.064
  988SOL    HW1 3863   2.494   4.490   2.015
  988SOL    HW2 3864   2.630   4.557   2.077
  989SOL     OW 3865   1.317   2.435   1.051
  989SOL    HW1 3866   1.363   2.424   1.139
  989SOL    HW2 3867   1.367   2.386   0.980
  990SOL     OW 3868   3.860   6.937   4.676
  990SOL    HW1 3869   3.776   6.988   4.698
  990SOL    HW2 3870   3.835   6.848   4.637
  991SOL     OW 3871   1.007   5.275   3.665
  991SOL    HW1 3872   0.939   5.341   3.696
  991SOL    HW2 3873   1.003   5.268   3.565
  992SOL     OW 3874   0.074   2.470   0.240
  992SOL    HW1 3875   0.096   2.385   0.193
  992SOL    HW2 3876   7.010   2.458   0.294
  993SOL     OW 3877   1.025   5.239   0.346
  993SOL    HW1 3878   1.117   5.220   0.314
  993SOL    HW2 3879   1.017   5.212   0.442
  994SOL     OW 3880   3.245   6.573   0.450
  994SOL    HW1 3881   3.252   6.660   0.500
  994SOL    HW2 3882   3.171   6.580   0.382
  995SOL     OW 3883   6.330   3.988   5.975
  995SOL    HW1 3884   6.326   3.903   5.924
  995SOL    HW2 3885   6.249   3.996   6.034
  996SOL     OW 3886   4.480   6.142   4.454
  996SOL    HW1 3887   4.518   6.204   4.386
  996SOL    HW2 3888   4.389   6.173   4.482
  997SOL     OW 3889   1.274   6.558   3.436
  997SOL    HW1 3890   1.349   6.622   3.454
  997SOL    HW2 3891   1.311   6.476   3.391
  998SOL     OW 3892   4.320   6.941   6.060
  998SOL    HW1 3893   4.343   0.014   6.029
  998SOL    HW2 3894   4.394   6.906   6.119
  999SOL     OW 3895   5.425   3.070   2.916
  999SOL    HW1 3896   5.441   3.082   3.014
  999SOL    HW2 3897   5.332   3.036   2.901
 1000SOL     OW 3898   5.353   2.135   1.734
 1000SOL    HW1 3899   5.287   2.123   1.807
 1000SOL    HW2 3900   5.442   2.159   1.772
 1001SOL     OW 3901   3.043   6.894   2.225
 1001SOL    HW1 3902   3.009   6.986   2.247
 1001SOL    HW2 3903   2.990   6.826   2.275
 1002SOL     OW 3904   4.084   2.712   1.323
 1002SOL    HW1 3905   4.064   2.725   1.226
 1002SOL    HW2 3906   4.045   2.625   1.354
 1003SOL     OW 3907   0.743   0.198   3.342
 1003SOL    HW1 3908   0.713   0.112   3.300
 1003SOL    HW2 3909   0.834   0.185   3.382
 1004SOL     OW 3910   5.045   1.311   4.573
 1004SOL    HW1 3911   5.132   1.345   4.608
 1004SOL    HW2 3912   5.061   1.260   4.488
 1005SOL     OW 3913   0.985   5.283   2.115
 1005SOL    HW1 3914   1.067   5.275   2.172
 1005SOL    HW2 3915   1.012   5.289   2.019
 1006SOL     OW 3916   2.284   3.866   1.636
 1006SOL    HW1 3917   2.370   3.847   1.589
 1006SOL    HW2 3918   2.252   3.782   1.680
 1007SOL     OW 3919   4.526   0.707   6.162
 1007SOL    HW1 3920   4.544   0.697   6.259
 1007SOL    HW2 3921   4.501   0.802   6.142
 1008SOL     OW 3922   0.847   5.270   5.234
 1008SOL    HW1 3923   0.812   5.177   5.240
 1008SOL    HW2 3924   0.817   5.323   5.314
 1009SOL     OW 3925   6.805   5.807   6.242
 1009SOL    HW1 3926   6.748   5.827   6.162
 1009SOL    HW2 3927   6.856   5.722   6.226
 1010SOL     OW 3928   3.108   3.461   0.498
 1010SOL    HW1 3929   3.152   3.490   0.412
 1010SOL    HW2 3930   3.076   3.367   0.488
 1011SOL     OW 3931   6.605   5.249   2.740
 1011SOL    HW1 3932   6.585   5.267   2.836
 1011SOL    HW2 3933   6.695   5.207   2.731
 1012SOL     OW 3934   5.539   6.556   2.598
 1012SOL    HW1 3935   5.534   6.487   2.670
 1012SOL    HW2 3936   5.482   6.635   2.624
 1013SOL     OW 3937   6.876   0.236   6.333
 1013SOL    HW1 3938   6.853   0.320   6.382
 1013SOL    HW2 3939   6.797   0.206   6.280
 1014SOL     OW 3940   1.053   4.729   5.186
 1014SOL    HW1 3941   1.054   4.817   5.234
 1014SOL    HW2 3942   0.981   4.671   5.225
 1015SOL     OW 3943   2.115   6.513   0.246
 1015SOL    HW1 3944   2.174   6.495   0.167
 1015SOL    HW2 3945   2.023   6.535   0.215
 1016SOL     OW 3946   7.016   3.776   0.768
 1016SOL    HW1 3947   6.997   3.684   0.804
 1016SOL    HW2 3948   0.096   3.789   0.762
 1017SOL     OW 3949   2.179   1.252   2.254
 1017SOL    HW1 3950   2.124   1.233   2.173
 1017SOL    HW2 3951   2.157   1.343   2.289
 1018SOL     OW 3952   6.074   6.656   4.168
 1018SOL    HW1 3953   6.109   6.708   4.246
 1018SOL    HW2 3954   5.989   6.610   4.195
 1019SOL     OW 3955   6.669   4.433   0.933
 1019SOL    HW1 3956   6.746   4.377   0.900
 1019SOL    HW2 3957   6.702   4.525   0.952
 1020SOL     OW 3958   5.037   1.248   0.784
 1020SOL    HW1 3959   5.100   1.201   0.846
 1020SOL    HW2 3960   5.055   1.219   0.690
 1021SOL     OW 3961   0.961   6.645   0.980
 1021SOL    HW1 3962   0.993   6.724   1.031
 1021SOL    HW2 3963   0.861   6.644   0.980
 1022SOL     OW 3964   2.517   5.532   6.716
 1022SOL    HW1 3965   2.519   5.471   6.637
 1022SOL    HW2 3966   2.545   5.624   6.688
 1023SOL     OW 3967   0.406   1.259   2.738
 1023SOL    HW1 3968   0.332   1.216   2.686
 1023SOL    HW2 3969   0.492   1.212   2.719
 1024SOL     OW 3970   1.698   1.890   4.101
 1024SOL    HW1 3971   1.764   1.882   4.027
 1024SOL    HW2 3972   1.651   1.803   4.114
 1025SOL     OW 3973   5.010   4.459   0.334
 1025SOL    HW1 3974   5.075   4.397   0.292
 1025SOL    HW2 3975   5.016   4.549   0.290
 1026SOL     OW 3976   3.065   2.867   1.832
 1026SOL    HW1 3977   3.125   2.794   1.866
 1026SOL    HW2 3978   3.089   2.953   1.876
 1027SOL     OW 3979   0.153   6.680   0.015
 1027SOL    HW1 3980   0.117   6.757   6.980
 1027SOL    HW2 3981   0.250   6.667   7.013
 1028SOL     OW 3982   1.351   6.067   2.751
 1028SOL    HW1 3983   1.410   6.148   2.747
 1028SOL    HW2 3984   1.366   6.019   2.838
 1029SOL     OW 3985   1.390   0.764   5.540
 1029SOL    HW1 3986   1.337   0.679   5.536
 1029SOL    HW2 3987   1.456   0.766   5.466
 1030SOL     OW 3988   3.799   3.399   0.910
 1030SOL    HW1 3989   3.790   3.439   0.819
 1030SOL    HW2 3990   3.711   3.404   0.958
 1031SOL     OW 3991   3.909   3.171   1.005
 1031SOL    HW1 3992   3.922   3.139   1.099
 1031SOL    HW2 3993   3.873   3.264   1.006
 1032SOL     OW 3994   1.948   1.757   0.471
 1032SOL    HW1 3995   1.976   1.756   0.375
 1032SOL    HW2 3996   1.982   1.674   0.516
 1033SOL     OW 3997   0.200   0.599   2.841
 1033SOL    HW1 3998   0.101   0.611   2.840
 1033SOL    HW2 3999   0.245   0.686   2.861
 1034SOL     OW 4000   3.383   1.011   4.806
 1034SOL    HW1 4001   3.480   1.018   4.825
 1034SOL    HW2 4002   3.330   1.049   4.882
 1035SOL     OW 4003   1.770   1.159   0.127
 1035SOL    HW1 4004   1.784   1.236   0.065
 1035SOL    HW2 4005   1.731   1.082   0.076
 1036SOL     OW 4006   4.691   1.125   1.307
 1036SOL    HW1 4007   4.705   1.222   1.324
 1036SOL    HW2 4008   4.718   1.104   1.213
 1037SOL     OW 4009   1.628   3.607   2.214
 1037SOL    HW1 4010   1.598   3.518   2.180
 1037SOL    HW2 4011   1.552   3.672   2.208
 1038SOL     OW 4012   2.452   6.101   0.377
 1038SOL    HW1 4013   2.513   6.070   0.305
 1038SOL    HW2 4014   2.363   6.127   0.338
 1039SOL     OW 4015   3.422   3.549   3.069
 1039SOL    HW1 4016   3.424   3.613   3.146
 1039SOL    HW2 4017   3.425   3.456   3.104
 1040SOL     OW 4018   3.630   2.081   3.185
 1040SOL    HW1 4019   3.606   1.993   3.227
 1040SOL    HW2 4020   3.695   2.129   3.244
 1041SOL     OW 4021   6.238   6.191   0.004
 1041SOL    HW1 4022   6.142   6.189   0.034
 1041SOL    HW2 4023   6.256   6.276   6.974
 1042SOL     OW 4024   5.513   4.678   3.186
 1042SOL    HW1 4025   5.414   4.666   3.188
 1042SOL    HW2 4026   5.557   4.594   3.219
 1043SOL     OW 4027   2.643   1.936   3.649
 1043SOL    HW1 4028   2.660   1.838   3.664
 1043SOL    HW2 4029   2.623   1.951   3.552
 1044SOL     OW 4030   6.174   4.813   1.715
 1044SOL    HW1 4031   6.097   4.836   1.773
 1044SOL    HW2 4032   6.158   4.725   1.671
 1045SOL     OW 4033   2.048   0.895   2.042
 1045SOL    HW1 4034   2.143   0.906   2.071
 1045SOL    HW2 4035   2.005   0.822   2.095
 1046SOL     OW 4036   3.004   1.758   1.345
 1046SOL    HW1 4037   3.050   1.699   1.412
 1046SOL    HW2 4038   3.068   1.827   1.312
 1047SOL     OW 4039   3.603   0.189   3.338
 1047SOL    HW1 4040   3.659   0.256   3.385
 1047SOL    HW2 4041   3.630   0.183   3.242
 1048SOL     OW 4042   1.176   0.009   2.193
 1048SOL    HW1 4043   1.188   6.933   2.222
 1048SOL    HW2 4044   1.184   0.070   2.271
 1049SOL     OW 4045   4.094   6.606   5.925
 1049SOL    HW1 4046   4.129   6.517   5.956
 1049SOL    HW2 4047   4.165   6.654   5.874
 1050SOL     OW 4048   2.853   0.038   4.135
 1050SOL    HW1 4049   2.800   0.039   4.050
 1050SOL    HW2 4050   2.854   0.130   4.175
 1051SOL     OW 4051   1.641   1.260   5.142
 1051SOL    HW1 4052   1.663   1.349   5.180
 1051SOL    HW2 4053   1.552   1.230   5.176
 1052SOL     OW 4054   3.574   1.238   0.261
 1052SOL    HW1 4055   3.599   1.330   0.232
 1052SOL    HW2 4056   3.491   1.209   0.213
 1053SOL     OW 4057   4.790   1.970   4.581
 1053SOL    HW1 4058   4.844   1.901   4.533
 1053SOL    HW2 4059   4.845   2.009   4.655
 1054SOL     OW 4060   4.165   5.031   6.276
 1054SOL    HW1 4061   4.243   4.987   6.321
 1054SOL    HW2 4062   4.147   5.118   6.320
 1055SOL     OW 4063   4.622   5.357   6.651
 1055SOL    HW1 4064   4.540   5.385   6.601
 1055SOL    HW2 4065   4.681   5.436   6.665
 1056SOL     OW 4066   3.291   3.718   6.989
 1056SOL    HW1 4067   3.296   3.789   0.040
 1056SOL    HW2 4068   3.204   3.725   6.941
 1057SOL     OW 4069   3.314   2.935   6.934
 1057SOL    HW1 4070   3.305   2.861   7.001
 1057SOL    HW2 4071   3.231   2.990   6.934
 1058SOL     OW 4072   3.023   2.120   2.368
 1058SOL    HW1 4073   2.961   2.177   2.422
 1058SOL    HW2 4074   2.994   2.122   2.272
 1059SOL     OW 4075   2.432   5.997   2.073
 1059SOL    HW1 4076   2.377   6.064   2.123
 1059SOL    HW2 4077   2.523   5.991   2.114
 1060SOL     OW 4078   6.221   0.887   5.404
 1060SOL    HW1 4079   6.138   0.835   5.381
 1060SOL    HW2 4080   6.269   0.842   5.479
 1061SOL     OW 4081   0.315   3.597   5.843
 1061SOL    HW1 4082   0.402   3.601   5.893
 1061SOL    HW2 4083   0.240   3.616   5.907
 1062SOL     OW 4084   3.411   5.477   4.429
 1062SOL    HW1 4085   3.457   5.513   4.349
 1062SOL    HW2 4086   3.478   5.452   4.498
 1063SOL     OW 4087   3.602   6.489   4.416
 1063SOL    HW1 4088   3.581   6.420   4.347
 1063SOL    HW2 4089   3.581   6.453   4.506
 1064SOL     OW 4090   1.556   3.331   0.361
 1064SOL    HW1 4091   1.630   3.366   0.304
 1064SOL    HW2 4092   1.595   3.296   0.447
 1065SOL     OW 4093   6.026   1.177   5.031
 1065SOL    HW1 4094   6.106   1.150   5.085
 1065SOL    HW2 4095   6.052   1.182   4.934
 1066SOL     OW 4096   5.190   6.682   0.527
 1066SOL    HW1 4097   5.171   6.591   0.564
 1066SOL    HW2 4098   5.110   6.741   0.540
 1067SOL     OW 4099   2.444   1.640   0.181
 1067SOL    HW1 4100   2.354   1.607   0.152
 1067SOL    HW2 4101   2.451   1.637   0.280
 1068SOL     OW 4102   6.495   3.073   1.371
 1068SOL    HW1 4103   6.435   3.111   1.440
 1068SOL    HW2 4104   6.441   3.032   1.298
 1069SOL     OW 4105   6.050   3.266   2.640
 1069SOL    HW1 4106   5.961   3.220   2.648
 1069SOL    HW2 4107   6.050   3.349   2.696
 1070SOL     OW 4108   0.895   0.382   2.220
 1070SOL    HW1 4109   0.819   0.441   2.195
 1070SOL    HW2 4110   0.878   0.290   2.187
 1071SOL     OW 4111   0.560   3.252   6.111
 1071SOL    HW1 4112   0.523   3.273   6.021
 1071SOL    HW2 4113   0.655   3.283   6.117
 1072SOL     OW 4114   1.684   1.343   2.260
 1072SOL    HW1 4115   1.748   1.364   2.334
 1072SOL    HW2 4116   1.708   1.394   2.178
 1073SOL     OW 4117   5.309   2.680   2.676
 1073SOL    HW1 4118   5.342   2.591   2.646
 1073SOL    HW2 4119   5.306   2.743   2.598
 1074SOL     OW 4120   2.916   5.117   1.457
 1074SOL    HW1 4121   2.948   5.209   1.432
 1074SOL    HW2 4122   2.913   5.109   1.557
 1075SOL     OW 4123   6.643   4.226   6.273
 1075SOL    HW1 4124   6.666   4.309   6.323
 1075SOL    HW2 4125   6.574   4.247   6.203
 1076SOL     OW 4126   1.562   4.812   5.094
 1076SOL    HW1 4127   1.624   4.784   5.168
 1076SOL    HW2 4128   1.562   4.742   5.023
 1077SOL     OW 4129   6.523   6.545   0.414
 1077SOL    HW1 4130   6.552   6.460   0.370
 1077SOL    HW2 4131   6.602   6.605   0.426
 1078SOL     OW 4132   6.122   6.724   4.670
 1078SOL    HW1 4133   6.101   6.629   4.695
 1078SOL    HW2 4134   6.165   6.770   4.747
 1079SOL     OW 4135   0.464   6.619   1.764
 1079SOL    HW1 4136   0.415   6.705   1.780
 1079SOL    HW2 4137   0.433   6.550   1.829
 1080SOL     OW 4138   3.775   6.778   0.117
 1080SOL    HW1 4139   3.796   6.680   0.120
 1080SOL    HW2 4140   3.838   6.824   0.055
 1081SOL     OW 4141   6.530   6.384   3.737
 1081SOL    HW1 4142   6.551   6.470   3.691
 1081SOL    HW2 4143   6.441   6.350   3.707
 1082SOL     OW 4144   3.951   6.989   0.290
 1082SOL    HW1 4145   3.868   6.963   0.340
 1082SOL    HW2 4146   3.959   6.934   0.207
 1083SOL     OW 4147   5.609   4.245   2.363
 1083SOL    HW1 4148   5.685   4.310   2.373
 1083SOL    HW2 4149   5.568   4.254   2.273
 1084SOL     OW 4150   5.617   0.862   5.292
 1084SOL    HW1 4151   5.600   0.853   5.390
 1084SOL    HW2 4152   5.670   0.945   5.274
 1085SOL     OW 4153   2.164   3.877   4.621
 1085SOL    HW1 4154   2.260   3.849   4.620
 1085SOL    HW2 4155   2.131   3.880   4.715
 1086SOL     OW 4156   5.648   5.632   0.535
 1086SOL    HW1 4157   5.671   5.600   0.443
 1086SOL    HW2 4158   5.620   5.554   0.592
 1087SOL     OW 4159   4.169   6.987   5.633
 1087SOL    HW1 4160   4.119   0.046   5.596
 1087SOL    HW2 4161   4.112   6.905   5.627
 1088SOL     OW 4162   6.604   5.226   3.775
 1088SOL    HW1 4163   6.652   5.139   3.763
 1088SOL    HW2 4164   6.625   5.287   3.699
 1089SOL     OW 4165   5.650   5.375   4.315
 1089SOL    HW1 4166   5.617   5.281   4.308
 1089SOL    HW2 4167   5.654   5.402   4.412
 1090SOL     OW 4168   5.709   2.418   5.059
 1090SOL    HW1 4169   5.704   2.444   5.156
 1090SOL    HW2 4170   5.802   2.434   5.026
 1091SOL     OW 4171   1.709   3.166   3.323
 1091SOL    HW1 4172   1.744   3.085   3.369
 1091SOL    HW2 4173   1.660   3.223   3.390
 1092SOL     OW 4174   0.264   6.130   0.228
 1092SOL    HW1 4175   0.200   6.108   0.302
 1092SOL    HW2 4176   0.330   6.198   0.261
 1093SOL     OW 4177   1.486   0.399   3.183
 1093SOL    HW1 4178   1.443   0.389   3.094
 1093SOL    HW2 4179   1.447   0.479   3.230
 1094SOL     OW 4180   0.281   7.007   3.253
 1094SOL    HW1 4181   0.370   6.961   3.260
 1094SOL    HW2 4182   0.209   6.938   3.248
 1095SOL     OW 4183   5.581   3.039   0.533
 1095SOL    HW1 4184   5.560   3.066   0.627
 1095SOL    HW2 4185   5.580   2.939   0.526
 1096SOL     OW 4186   2.083   5.296   1.820
 1096SOL    HW1 4187   1.992   5.254   1.813
 1096SOL    HW2 4188   2.133   5.281   1.735
 1097SOL     OW 4189   2.579   6.504   4.392
 1097SOL    HW1 4190   2.646   6.429   4.389
 1097SOL    HW2 4191   2.619   6.586   4.350
 1098SOL     OW 4192   6.802   3.931   0.756
 1098SOL    HW1 4193   6.899   3.911   0.757
 1098SOL    HW2 4194   6.788   4.030   0.747
 1099SOL     OW 4195   4.942   0.603   6.418
 1099SOL    HW1 4196   4.880   0.548   6.362
 1099SOL    HW2 4197   5.033   0.603   6.376
 1100SOL     OW 4198   4.072   1.805   4.505
 1100SOL    HW1 4199   4.083   1.810   4.604
 1100SOL    HW2 4200   4.140   1.865   4.461
 1101SOL     OW 4201   5.011   3.192   6.133
 1101SOL    HW1 4202   5.031   3.189   6.035
 1101SOL    HW2 4203   5.023   3.285   6.168
 1102SOL     OW 4204   2.903   0.526   3.221
 1102SOL    HW1 4205   2.859   0.564   3.141
 1102SOL    HW2 4206   3.000   0.551   3.221
 1103SOL     OW 4207   3.206   6.193   0.459
 1103SOL    HW1 4208   3.278   6.258   0.437
 1103SOL    HW2 4209   3.165   6.158   0.374
 1104SOL     OW 4210   0.159   2.805   3.694
 1104SOL    HW1 4211   0.066   2.790   3.724
 1104SOL    HW2 4212   0.203   2.718   3.675
 1105SOL     OW 4213   5.394   1.823   5.991
 1105SOL    HW1 4214   5.342   1.856   5.912
 1105SOL    HW2 4215   5.442   1.739   5.967
 1106SOL     OW 4216   6.290   1.368   0.977
 1106SOL    HW1 4217   6.206   1.341   1.025
 1106SOL    HW2 4218   6.343   1.431   1.034
 1107SOL     OW 4219   1.031   1.509   6.632
 1107SOL    HW1 4220   0.976   1.524   6.550
 1107SOL    HW2 4221   0.979   1.537   6.713
 1108SOL     OW 4222   2.353   0.700   4.122
 1108SOL    HW1 4223   2.343   0.601   4.119
 1108SOL    HW2 4224   2.402   0.726   4.205
 1109SOL     OW 4225   4.911   2.729   4.854
 1109SOL    HW1 4226   4.990   2.723   4.915
 1109SOL    HW2 4227   4.858   2.811   4.876
 1110SOL     OW 4228   2.353   0.835   2.127
 1110SOL    HW1 4229   2.376   0.927   2.158
 1110SOL    HW2 4230   2.377   0.769   2.198
 1111SOL     OW 4231   5.959   3.929   6.481
 1111SOL    HW1 4232   6.011   3.979   6.551
 1111SOL    HW2 4233   5.907   3.856   6.523
 1112SOL     OW 4234   5.558   0.412   2.347
 1112SOL    HW1 4235   5.612   0.406   2.431
 1112SOL    HW2 4236   5.599   0.480   2.286
 1113SOL     OW 4237   5.896   3.471   2.252
 1113SOL    HW1 4238   5.862   3.384   2.287
 1113SOL    HW2 4239   5.962   3.510   2.316
 1114SOL     OW 4240   3.637   3.979   4.729
 1114SOL    HW1 4241   3.579   3.916   4.678
 1114SOL    HW2 4242   3.581   4.049   4.773
 1115SOL     OW 4243   2.888   4.582   5.682
 1115SOL    HW1 4244   2.823   4.515   5.718
 1115SOL    HW2 4245   2.886   4.580   5.582
 1116SOL     OW 4246   4.333   0.318   0.143
 1116SOL    HW1 4247   4.333   0.281   0.236
 1116SOL    HW2 4248   4.283   0.256   0.083
 1117SOL     OW 4249   2.599   2.554   1.652
 1117SOL    HW1 4250   2.566   2.639   1.693
 1117SOL    HW2 4251   2.662   2.574   1.578
 1118SOL     OW 4252   4.190   6.168   0.341
 1118SOL    HW1 4253   4.154   6.162   0.248
 1118SOL    HW2 4254   4.115   6.161   0.407
 1119SOL     OW 4255   3.503   4.897   3.764
 1119SOL    HW1 4256   3.443   4.937   3.834
 1119SOL    HW2 4257   3.449   4.865   3.687
 1120SOL     OW 4258   6.684   3.239   1.238
 1120SOL    HW1 4259   6.625   3.164   1.269
 1120SOL    HW2 4260   6.672   3.317   1.299
 1121SOL     OW 4261   6.598   4.514   4.823
 1121SOL    HW1 4262   6.526   4.542   4.887
 1121SOL    HW2 4263   6.673   4.580   4.827
 1122SOL     OW 4264   5.536   2.268   1.570
 1122SOL    HW1 4265   5.621   2.218   1.588
 1122SOL    HW2 4266   5.464   2.235   1.631
 1123SOL     OW 4267   3.952   1.578   3.721
 1123SOL    HW1 4268   3.952   1.539   3.629
 1123SOL    HW2 4269   3.941   1.677   3.715
 1124SOL     OW 4270   2.139   2.481   3.898
 1124SOL    HW1 4271   2.234   2.511   3.892
 1124SOL    HW2 4272   2.100   2.508   3.986
 1125SOL     OW 4273   1.595   3.434   3.710
 1125SOL    HW1 4274   1.652   3.513   3.733
 1125SOL    HW2 4275   1.500   3.453   3.737
 1126SOL     OW 4276   4.463   5.055   4.681
 1126SOL    HW1 4277   4.533   5.019   4.620
 1126SOL    HW2 4278   4.379   5.073   4.630
 1127SOL     OW 4279   6.686   6.871   2.033
 1127SOL    HW1 4280   6.695   6.958   2.080
 1127SOL    HW2 4281   6.766   6.814   2.051
 1128SOL     OW 4282   4.866   1.138   4.695
 1128SOL    HW1 4283   4.911   1.067   4.749
 1128SOL    HW2 4284   4.930   1.175   4.628
 1129SOL     OW 4285   1.295   0.592   0.802
 1129SOL    HW1 4286   1.236   0.664   0.838
 1129SOL    HW2 4287   1.267   0.504   0.841
 1130SOL     OW 4288   2.383   4.804   2.173
 1130SOL    HW1 4289   2.435   4.737   2.119
 1130SOL    HW2 4290   2.313   4.757   2.227
 1131SOL     OW 4291   1.859   5.411   3.998
 1131SOL    HW1 4292   1.918   5.487   3.972
 1131SOL    HW2 4293   1.789   5.398   3.927
 1132SOL     OW 4294   1.821   1.557   2.465
 1132SOL    HW1 4295   1.816   1.499   2.546
 1132SOL    HW2 4296   1.899   1.619   2.474
 1133SOL     OW 4297   0.658   0.062   6.329
 1133SOL    HW1 4298   0.623   0.106   6.411
 1133SOL    HW2 4299   0.673   0.132   6.258
 1134SOL     OW 4300   3.384   5.866   1.753
 1134SOL    HW1 4301   3.424   5.775   1.763
 1134SOL    HW2 4302   3.422   5.910   1.671
 1135SOL     OW 4303   1.644   6.136   3.419
 1135SOL    HW1 4304   1.713   6.071   3.388
 1135SOL    HW2 4305   1.633   6.209   3.351
 1136SOL     OW 4306   1.822   5.443   2.493
 1136SOL    HW1 4307   1.804   5.374   2.563
 1136SOL    HW2 4308   1.913   5.482   2.507
 1137SOL     OW 4309   0.891   5.650   4.604
 1137SOL    HW1 4310   0.875   5.718   4.532
 1137SOL    HW2 4311   0.958   5.687   4.669
 1138SOL     OW 4312   1.991   3.628   4.508
 1138SOL    HW1 4313   2.023   3.717   4.540
 1138SOL    HW2 4314   1.960   3.574   4.587
 1139SOL     OW 4315   2.341   5.161   4.950
 1139SOL    HW1 4316   2.425   5.124   4.989
 1139SOL    HW2 4317   2.357   5.186   4.855
 1140SOL     OW 4318   1.997   2.271   1.266
 1140SOL    HW1 4319   1.972   2.258   1.170
 1140SOL    HW2 4320   2.095   2.251   1.278
 1141SOL     OW 4321   0.123   4.861   6.045
 1141SOL    HW1 4322   0.155   4.817   6.129
 1141SOL    HW2 4323   0.079   4.948   6.068
 1142SOL     OW 4324   1.779   6.240   2.175
 1142SOL    HW1 4325   1.782   6.180   2.255
 1142SOL    HW2 4326   1.788   6.186   2.091
 1143SOL     OW 4327   0.604   3.689   2.273
 1143SOL    HW1 4328   0.666   3.668   2.197
 1143SOL    HW2 4329   0.522   3.733   2.238
 1144SOL     OW 4330   5.751   4.392   0.389
 1144SOL    HW1 4331   5.815   4.464   0.361
 1144SOL    HW2 4332   5.743   4.393   0.489
 1145SOL     OW 4333   5.461   6.675   0.869
 1145SOL    HW1 4334   5.504   6.599   0.820
 1145SOL    HW2 4335   5.533   6.732   0.910
 1146SOL     OW 4336   0.993   0.753   1.438
 1146SOL    HW1 4337   0.939   0.668   1.432
 1146SOL    HW2 4338   0.938   0.829   1.403
 1147SOL     OW 4339   1.743   6.350   0.986
 1147SOL    HW1 4340   1.712   6.415   0.916
 1147SOL    HW2 4341   1.668   6.288   1.009
 1148SOL     OW 4342   4.303   5.820   3.328
 1148SOL    HW1 4343   4.319   5.730   3.367
 1148SOL    HW2 4344   4.244   5.873   3.389
 1149SOL     OW 4345   4.708   3.307   1.563
 1149SOL    HW1 4346   4.691   3.261   1.476
 1149SOL    HW2 4347   4.744   3.241   1.629
 1150SOL     OW 4348   1.558   3.540   0.931
 1150SOL    HW1 4349   1.495   3.585   0.994
 1150SOL    HW2 4350   1.617   3.609   0.888
 1151SOL     OW 4351   6.027   5.373   4.411
 1151SOL    HW1 4352   6.124   5.359   4.392
 1151SOL    HW2 4353   6.013   5.466   4.445
 1152SOL     OW 4354   3.255   6.495   6.424
 1152SOL    HW1 4355   3.193   6.460   6.354
 1152SOL    HW2 4356   3.343   6.447   6.417
 1153SOL     OW 4357   5.483   6.586   2.122
 1153SOL    HW1 4358   5.517   6.674   2.158
 1153SOL    HW2 4359   5.384   6.582   2.132
 1154SOL     OW 4360   2.260   2.704   0.416
 1154SOL    HW1 4361   2.261   2.794   0.460
 1154SOL    HW2 4362   2.335   2.700   0.349
 1155SOL     OW 4363   3.546   6.267   4.240
 1155SOL    HW1 4364   3.625   6.239   4.185
 1155SOL    HW2 4365   3.472   6.297   4.179
 1156SOL     OW 4366   2.617   1.734   3.082
 1156SOL    HW1 4367   2.535   1.677   3.086
 1156SOL    HW2 4368   2.698   1.675   3.079
 1157SOL     OW 4369   2.758   1.283   0.340
 1157SOL    HW1 4370   2.786   1.209   0.280
 1157SOL    HW2 4371   2.796   1.369   0.307
 1158SOL     OW 4372   6.143   4.362   3.084
 1158SOL    HW1 4373   6.058   4.335   3.129
 1158SOL    HW2 4374   6.122   4.418   3.004
 1159SOL     OW 4375   6.613   5.008   0.864
 1159SOL    HW1 4376   6.668   4.999   0.946
 1159SOL    HW2 4377   6.535   4.945   0.869
 1160SOL     OW 4378   5.673   2.155   0.006
 1160SOL    HW1 4379   5.643   2.219   0.077
 1160SOL    HW2 4380   5.771   2.166   7.010
 1161SOL     OW 4381   6.744   4.928   1.082
 1161SOL    HW1 4382   6.717   4.865   1.155
 1161SOL    HW2 4383   6.837   4.961   1.099
 1162SOL     OW 4384   3.031   2.204   4.726
 1162SOL    HW1 4385   3.101   2.214   4.655
 1162SOL    HW2 4386   3.066   2.238   4.813
 1163SOL     OW 4387   5.399   2.846   1.303
 1163SOL    HW1 4388   5.346   2.916   1.351
 1163SOL    HW2 4389   5.418   2.770   1.365
 1164SOL     OW 4390   3.850   2.713   5.862
 1164SOL    HW1 4391   3.772   2.751   5.911
 1164SOL    HW2 4392   3.839   2.614   5.854
 1165SOL     OW 4393   4.360   6.538   3.394
 1165SOL    HW1 4394   4.383   6.547   3.297
 1165SOL    HW2 4395   4.347   6.629   3.433
 1166SOL     OW 4396   2.831   4.611   6.012
 1166SOL    HW1 4397   2.775   4.529   5.999
 1166SOL    HW2 4398   2.821   4.672   5.933
 1167SOL     OW 4399   4.942   4.664   2.421
 1167SOL    HW1 4400   4.902   4.595   2.360
 1167SOL    HW2 4401   4.870   4.726   2.453
 1168SOL     OW 4402   6.937   0.292   2.370
 1168SOL    HW1 4403   7.014   0.287   2.306
 1168SOL    HW2 4404   6.959   0.357   2.443
 1169SOL     OW 4405   4.772   1.301   5.301
 1169SOL    HW1 4406   4.772   1.302   5.201
 1169SOL    HW2 4407   4.806   1.212   5.333
 1170SOL     OW 4408   4.605   5.265   2.932
 1170SOL    HW1 4409   4.670   5.204   2.977
 1170SOL    HW2 4410   4.636   5.284   2.839
 1171SOL     OW 4411   0.163   6.346   0.556
 1171SOL    HW1 4412   0.115   6.385   0.635
 1171SOL    HW2 4413   0.121   6.258   0.531
 1172SOL     OW 4414   6.592   3.488   6.558
 1172SOL    HW1 4415   6.683   3.494   6.600
 1172SOL    HW2 4416   6.552   3.579   6.554
 1173SOL     OW 4417   3.715   1.946   0.585
 1173SOL    HW1 4418   3.807   1.976   0.612
 1173SOL    HW2 4419   3.674   2.016   0.526
 1174SOL     OW 4420   2.361   4.453   0.568
 1174SOL    HW1 4421   2.363   4.373   0.628
 1174SOL    HW2 4422   2.318   4.530   0.617
 1175SOL     OW 4423   3.149   3.135   4.601
 1175SOL    HW1 4424   3.115   3.172   4.514
 1175SOL    HW2 4425   3.167   3.037   4.590
 1176SOL     OW 4426   5.535   2.895   6.131
 1176SOL    HW1 4427   5.582   2.929   6.049
 1176SOL    HW2 4428   5.443   2.933   6.135
 1177SOL     OW 4429   1.225   1.753   4.293
 1177SOL    HW1 4430   1.263   1.770   4.202
 1177SOL    HW2 4431   1.125   1.752   4.286
 1178SOL     OW 4432   4.205   5.863   0.361
 1178SOL    HW1 4433   4.173   5.955   0.342
 1178SOL    HW2 4434   4.209   5.810   0.276
 1179SOL     OW 4435   1.385   6.150   0.044
 1179SOL    HW1 4436   1.331   6.225   0.007
 1179SOL    HW2 4437   1.325   6.078   0.078
 1180SOL     OW 4438   3.418   6.356   0.389
 1180SOL    HW1 4439   3.517   6.353   0.377
 1180SOL    HW2 4440   3.386   6.450   0.384
 1181SOL     OW 4441   6.842   6.382   0.150
 1181SOL    HW1 4442   6.847   6.473   0.191
 1181SOL    HW2 4443   6.811   6.390   0.056
 1182SOL     OW 4444   4.549   4.692   2.473
 1182SOL    HW1 4445   4.631   4.749   2.478
 1182SOL    HW2 4446   4.490   4.725   2.399
 1183SOL     OW 4447   2.176   3.611   5.929
 1183SOL    HW1 4448   2.130   3.693   5.895
 1183SOL    HW2 4449   2.179   3.613   6.029
 1184SOL     OW 4450   0.695   6.988   5.429
 1184SOL    HW1 4451   0.612   6.996   5.485
 1184SOL    HW2 4452   0.690   0.032   5.352
 1185SOL     OW 4453   6.658   1.508   6.695
 1185SOL    HW1 4454   6.598   1.539   6.622
 1185SOL    HW2 4455   6.642   1.563   6.777
 1186SOL     OW 4456   5.914   6.456   4.407
 1186SOL    HW1 4457   6.010   6.466   4.434
 1186SOL    HW2 4458   5.857   6.517   4.462
 1187SOL     OW 4459   6.212   1.010   6.225
 1187SOL    HW1 4460   6.245   0.966   6.142
 1187SOL    HW2 4461   6.242   0.957   6.305
 1188SOL     OW 4462   2.693   0.153   6.149
 1188SOL    HW1 4463   2.600   0.167   6.184
 1188SOL    HW2 4464   2.743   0.239   6.154
 1189SOL     OW 4465   5.528   3.886   3.567
 1189SOL    HW1 4466   5.428   3.879   3.576
 1189SOL    HW2 4467   5.561   3.960   3.625
 1190SOL     OW 4468   2.128   6.391   3.495
 1190SOL    HW1 4469   2.212   6.436   3.526
 1190SOL    HW2 4470   2.136   6.292   3.512
 1191SOL     OW 4471   4.299   5.922   2.398
 1191SOL    HW1 4472   4.329   5.993   2.335
 1191SOL    HW2 4473   4.211   5.947   2.437
 1192SOL     OW 4474   5.927   5.755   3.551
 1192SOL    HW1 4475   5.904   5.824   3.482
 1192SOL    HW2 4476   6.026   5.756   3.567
 1193SOL     OW 4477   6.847   5.436   4.111
 1193SOL    HW1 4478   6.818   5.509   4.172
 1193SOL    HW2 4479   6.910   5.375   4.160
 1194SOL     OW 4480   3.699   0.366   1.330
 1194SOL    HW1 4481   3.746   0.397   1.247
 1194SOL    HW2 4482   3.677   0.445   1.387
 1195SOL     OW 4483   5.686   2.315   3.642
 1195SOL    HW1 4484   5.637   2.262   3.711
 1195SOL    HW2 4485   5.655   2.288   3.551
 1196SOL     OW 4486   6.471   6.310   4.997
 1196SOL    HW1 4487   6.528   6.344   4.922
 1196SOL    HW2 4488   6.386   6.363   5.001
 1197SOL     OW 4489   2.303   6.269   0.225
 1197SOL    HW1 4490   2.221   6.269   0.283
 1197SOL    HW2 4491   2.369   6.335   0.261
 1198SOL     OW 4492   1.722   2.843   0.034
 1198SOL    HW1 4493   1.713   2.778   0.109
 1198SOL    HW2 4494   1.648   2.828   6.987
 1199SOL     OW 4495   5.830   4.155   1.488
 1199SOL    HW1 4496   5.836   4.144   1.587
 1199SOL    HW2 4497   5.758   4.096   1.452
 1200SOL     OW 4498   3.038   3.112   2.217
 1200SOL    HW1 4499   2.956   3.166   2.199
 1200SOL    HW2 4500   3.015   3.015   2.217
 1201SOL     OW 4501   1.893   2.299   4.134
 1201SOL    HW1 4502   1.861   2.278   4.042
 1201SOL    HW2 4503   1.943   2.385   4.133
 1202SOL     OW 4504   1.012   5.290   5.519
 1202SOL    HW1 4505   1.073   5.300   5.598
 1202SOL    HW2 4506   0.950   5.213   5.534
 1203SOL     OW 4507   4.463   5.878   5.532
 1203SOL    HW1 4508   4.469   5.929   5.617
 1203SOL    HW2 4509   4.381   5.820   5.533
 1204SOL     OW 4510   2.061   6.813   2.736
 1204SOL    HW1 4511   2.139   6.870   2.711
 1204SOL    HW2 4512   2.062   6.729   2.681
 1205SOL     OW 4513   5.062   4.242   2.294
 1205SOL    HW1 4514   5.151   4.242   2.340
 1205SOL    HW2 4515   4.991   4.218   2.360
 1206SOL     OW 4516   2.966   4.024   4.972
 1206SOL    HW1 4517   2.874   4.053   5.000
 1206SOL    HW2 4518   2.981   4.049   4.877
 1207SOL     OW 4519   1.519   6.344   2.434
 1207SOL    HW1 4520   1.432   6.296   2.445
 1207SOL    HW2 4521   1.530   6.372   2.339
 1208SOL     OW 4522   3.398   3.968   5.653
 1208SOL    HW1 4523   3.433   3.881   5.687
 1208SOL    HW2 4524   3.298   3.968   5.656
 1209SOL     OW 4525   3.920   6.386   5.535
 1209SOL    HW1 4526   3.840   6.401   5.594
 1209SOL    HW2 4527   3.898   6.416   5.442
 1210SOL     OW 4528   3.178   0.797   3.087
 1210SOL    HW1 4529   3.109   0.725   3.103
 1210SOL    HW2 4530   3.210   0.832   3.175
 1211SOL     OW 4531   1.102   3.283   0.224
 1211SOL    HW1 4532   1.084   3.298   0.127
 1211SOL    HW2 4533   1.190   3.237   0.235
 1212SOL     OW 4534   0.951   6.981   0.188
 1212SOL    HW1 4535   0.964   6.882   0.194
 1212SOL    HW2 4536   1.037   0.005   0.164
 1213SOL     OW 4537   5.090   3.182   1.231
 1213SOL    HW1 4538   5.016   3.141   1.177
 1213SOL    HW2 4539   5.165   3.208   1.170
 1214SOL     OW 4540   6.959   2.402   1.555
 1214SOL    HW1 4541   6.953   2.337   1.479
 1214SOL    HW2 4542   6.873   2.451   1.565
 1215SOL     OW 4543   1.651   5.775   3.410
 1215SOL    HW1 4544   1.562   5.820   3.414
 1215SOL    HW2 4545   1.723   5.842   3.429
 1216SOL     OW 4546   4.273   6.400   1.184
 1216SOL    HW1 4547   4.344   6.454   1.231
 1216SOL    HW2 4548   4.197   6.386   1.247
 1217SOL     OW 4549   3.073   4.693   0.251
 1217SOL    HW1 4550   3.149   4.733   0.200
 1217SOL    HW2 4551   2.992   4.690   0.192
 1218SOL     OW 4552   1.881   5.064   3.838
 1218SOL    HW1 4553   1.942   5.113   3.775
 1218SOL    HW2 4554   1.935   5.016   3.907
 1219SOL     OW 4555   4.626   6.147   2.481
 1219SOL    HW1 4556   4.621   6.144   2.581
 1219SOL    HW2 4557   4.653   6.058   2.446
 1220SOL     OW 4558   0.971   4.488   2.632
 1220SOL    HW1 4559   0.888   4.433   2.644
 1220SOL    HW2 4560   1.036   4.466   2.704
 1221SOL     OW 4561   5.071   4.148   6.265
 1221SOL    HW1 4562   5.127   4.229   6.282
 1221SOL    HW2 4563   4.993   4.148   6.328
 1222SOL     OW 4564   6.357   0.655   6.595
 1222SOL    HW1 4565   6.268   0.612   6.581
 1222SOL    HW2 4566   6.389   0.635   6.687
 1223SOL     OW 4567   3.414   6.177   0.790
 1223SOL    HW1 4568   3.362   6.109   0.739
 1223SOL    HW2 4569   3.368   6.265   0.784
 1224SOL     OW 4570   2.955   0.502   2.420
 1224SOL    HW1 4571   2.876   0.545   2.376
 1224SOL    HW2 4572   3.019   0.572   2.450
 1225SOL     OW 4573   2.787   4.084   5.848
 1225SOL    HW1 4574   2.756   4.177   5.829
 1225SOL    HW2 4575   2.882   4.086   5.879
 1226SOL     OW 4576   1.820   4.614   1.099
 1226SOL    HW1 4577   1.876   4.694   1.118
 1226SOL    HW2 4578   1.860   4.561   1.025
 1227SOL     OW 4579   0.577   3.862   5.990
 1227SOL    HW1 4580   0.612   3.931   5.925
 1227SOL    HW2 4581   0.604   3.771   5.959
 1228SOL     OW 4582   3.577   1.824   6.580
 1228SOL    HW1 4583   3.632   1.872   6.648
 1228SOL    HW2 4584   3.615   1.840   6.489
 1229SOL     OW 4585   3.243   4.158   6.177
 1229SOL    HW1 4586   3.178   4.123   6.110
 1229SOL    HW2 4587   3.330   4.178   6.131
 1230SOL     OW 4588   4.503   0.111   3.512
 1230SOL    HW1 4589   4.486   0.072   3.603
 1230SOL    HW2 4590   4.524   0.038   3.448
 1231SOL     OW 4591   1.109   4.786   4.603
 1231SOL    HW1 4592   1.114   4.799   4.504
 1231SOL    HW2 4593   1.015   4.765   4.628
 1232SOL     OW 4594   1.945   2.285   4.440
 1232SOL    HW1 4595   1.948   2.189   4.465
 1232SOL    HW2 4596   1.877   2.300   4.368
 1233SOL     OW 4597   0.566   3.104   4.289
 1233SOL    HW1 4598   0.639   3.090   4.356
 1233SOL    HW2 4599   0.527   3.195   4.300
 1234SOL     OW 4600   6.332   3.811   4.227
 1234SOL    HW1 4601   6.390   3.738   4.191
 1234SOL    HW2 4602   6.264   3.771   4.289
 1235SOL     OW 4603   6.938   5.142   3.863
 1235SOL    HW1 4604   6.855   5.198   3.863
 1235SOL    HW2 4605   6.963   5.119   3.769
 1236SOL     OW 4606   5.200   1.162   6.189
 1236SOL    HW1 4607   5.178   1.171   6.286
 1236SOL    HW2 4608   5.133   1.103   6.144
 1237SOL     OW 4609   2.975   4.528   6.959
 1237SOL    HW1 4610   2.924   4.557   0.021
 1237SOL    HW2 4611   3.073   4.533   6.978
 1238SOL     OW 4612   1.172   1.655   1.457
 1238SOL    HW1 4613   1.154   1.568   1.412
 1238SOL    HW2 4614   1.271   1.670   1.462
 1239SOL     OW 4615   0.432   6.799   5.796
 1239SOL    HW1 4616   0.524   6.835   5.812
 1239SOL    HW2 4617   0.374   6.819   5.875
 1240SOL     OW 4618   3.994   6.057   2.046
 1240SOL    HW1 4619   4.030   6.139   2.003
 1240SOL    HW2 4620   3.979   5.986   1.977
 1241SOL     OW 4621   6.959   2.812   4.115
 1241SOL    HW1 4622   0.008   2.767   4.172
 1241SOL    HW2 4623   6.956   2.909   4.135
 1242SOL     OW 4624   2.215   3.965   6.559
 1242SOL    HW1 4625   2.185   4.048   6.512
 1242SOL    HW2 4626   2.137   3.924   6.607
 1243SOL     OW 4627   3.006   5.260   5.542
 1243SOL    HW1 4628   3.026   5.232   5.448
 1243SOL    HW2 4629   3.061   5.206   5.605
 1244SOL     OW 4630   0.729   1.014   2.947
 1244SOL    HW1 4631   0.797   0.955   2.902
 1244SOL    HW2 4632   0.680   1.066   2.878
 1245SOL     OW 4633   2.706   3.080   6.094
 1245SOL    HW1 4634   2.800   3.094   6.125
 1245SOL    HW2 4635   2.647   3.150   6.133
 1246SOL     OW 4636   1.116   6.925   1.963
 1246SOL    HW1 4637   1.141   6.831   1.987
 1246SOL    HW2 4638   1.153   6.988   2.031
 1247SOL     OW 4639   1.177   6.991   6.948
 1247SOL    HW1 4640   1.245   7.018   6.879
 1247SOL    HW2 4641   1.114   6.924   6.908
 1248SOL     OW 4642   1.985   6.775   3.458
 1248SOL    HW1 4643   1.959   6.683   3.487
 1248SOL    HW2 4644   1.956   6.842   3.526
 1249SOL     OW 4645   6.128   3.134   3.537
 1249SOL    HW1 4646   6.159   3.132   3.632
 1249SOL    HW2 4647   6.201   3.172   3.479
 1250SOL     OW 4648   0.423   3.761   4.345
 1250SOL    HW1 4649   0.505   3.707   4.324
 1250SOL    HW2 4650   0.448   3.857   4.353
 1251SOL     OW 4651   3.562   6.582   6.083
 1251SOL    HW1 4652   3.659   6.605   6.080
 1251SOL    HW2 4653   3.532   6.551   5.993
 1252SOL     OW 4654   3.564   3.264   6.694
 1252SOL    HW1 4655   3.521   3.179   6.663
 1252SOL    HW2 4656   3.648   3.280   6.641
 1253SOL     OW 4657   4.435   6.578   3.114
 1253SOL    HW1 4658   4.483   6.497   3.081
 1253SOL    HW2 4659   4.405   6.633   3.036
 1254SOL     OW 4660   6.388   2.110   2.438
 1254SOL    HW1 4661   6.462   2.176   2.453
 1254SOL    HW2 4662   6.392   2.041   2.510
 1255SOL     OW 4663   5.695   0.626   0.248
 1255SOL    HW1 4664   5.623   0.561   0.273
 1255SOL    HW2 4665   5.744   0.654   0.330
 1256SOL     OW 4666   4.728   1.715   3.956
 1256SOL    HW1 4667   4.712   1.621   3.929
 1256SOL    HW2 4668   4.777   1.763   3.883
 1257SOL     OW 4669   6.089   1.645   4.421
 1257SOL    HW1 4670   6.113   1.687   4.333
 1257SOL    HW2 4671   6.044   1.558   4.405
 1258SOL     OW 4672   0.232   6.215   3.939
 1258SOL    HW1 4673   0.280   6.296   3.905
 1258SOL    HW2 4674   0.298   6.153   3.981
 1259SOL     OW 4675   4.316   2.079   5.477
 1259SOL    HW1 4676   4.358   2.012   5.415
 1259SOL    HW2 4677   4.274   2.152   5.423
 1260SOL     OW 4678   0.726   1.591   5.614
 1260SOL    HW1 4679   0.711   1.675   5.563
 1260SOL    HW2 4680   0.800   1.539   5.571
 1261SOL     OW 4681   6.336   3.932   0.614
 1261SOL    HW1 4682   6.433   3.919   0.596
 1261SOL    HW2 4683   6.321   3.938   0.712
 1262SOL     OW 4684   5.263   6.049   2.648
 1262SOL    HW1 4685   5.168   6.073   2.628
 1262SOL    HW2 4686   5.295   5.979   2.584
 1263SOL     OW 4687   6.531   2.503   3.258
 1263SOL    HW1 4688   6.589   2.559   3.317
 1263SOL    HW2 4689   6.447   2.480   3.307
 1264SOL     OW 4690   1.047   3.000   5.569
 1264SOL    HW1 4691   1.100   2.958   5.643
 1264SOL    HW2 4692   0.990   3.073   5.606
 1265SOL     OW 4693   5.811   6.913   6.082
 1265SOL    HW1 4694   5.801   6.888   5.986
 1265SOL    HW2 4695   5.752   6.855   6.138
 1266SOL     OW 4696   2.087   1.114   5.901
 1266SOL    HW1 4697   2.025   1.036   5.904
 1266SOL    HW2 4698   2.049   1.189   5.957
 1267SOL     OW 4699   3.681   0.481   2.454
 1267SOL    HW1 4700   3.764   0.434   2.486
 1267SOL    HW2 4701   3.646   0.540   2.527
 1268SOL     OW 4702   3.873   3.034   5.629
 1268SOL    HW1 4703   3.875   3.066   5.724
 1268SOL    HW2 4704   3.817   2.951   5.624
 1269SOL     OW 4705   5.851   1.953   3.848
 1269SOL    HW1 4706   5.899   2.034   3.882
 1269SOL    HW2 4707   5.879   1.873   3.902
 1270SOL     OW 4708   6.337   5.118   2.791
 1270SOL    HW1 4709   6.423   5.159   2.762
 1270SOL    HW2 4710   6.336   5.108   2.891
 1271SOL     OW 4711   2.051   1.293   1.090
 1271SOL    HW1 4712   1.987   1.226   1.127
 1271SOL    HW2 4713   2.092   1.344   1.164
 1272SOL     OW 4714   5.976   2.074   6.680
 1272SOL    HW1 4715   6.015   2.028   6.601
 1272SOL    HW2 4716   6.014   2.167   6.686
 1273SOL     OW 4717   1.498   4.444   5.572
 1273SOL    HW1 4718   1.496   4.375   5.500
 1273SOL    HW2 4719   1.577   4.503   5.559
 1274SOL     OW 4720   0.271   4.691   3.143
 1274SOL    HW1 4721   0.323   4.607   3.159
 1274SOL    HW2 4722   0.239   4.694   3.049
 1275SOL     OW 4723   2.229   1.123   2.644
 1275SOL    HW1 4724   2.163   1.129   2.719
 1275SOL    HW2 4725   2.230   1.030   2.608
 1276SOL     OW 4726   5.802   5.039   3.417
 1276SOL    HW1 4727   5.778   5.016   3.511
 1276SOL    HW2 4728   5.751   4.981   3.354
 1277SOL     OW 4729   0.148   6.064   0.008
 1277SOL    HW1 4730   0.196   6.054   0.095
 1277SOL    HW2 4731   0.166   6.155   6.989
 1278SOL     OW 4732   0.824   5.724   2.925
 1278SOL    HW1 4733   0.730   5.728   2.891
 1278SOL    HW2 4734   0.829   5.767   3.015
 1279SOL     OW 4735   2.829   2.830   1.671
 1279SOL    HW1 4736   2.771   2.901   1.710
 1279SOL    HW2 4737   2.903   2.809   1.734
 1280SOL     OW 4738   2.654   2.348   3.944
 1280SOL    HW1 4739   2.617   2.394   3.864
 1280SOL    HW2 4740   2.694   2.260   3.917
 1281SOL     OW 4741   6.041   6.479   4.741
 1281SOL    HW1 4742   6.005   6.399   4.693
 1281SOL    HW2 4743   5.975   6.510   4.809
 1282SOL     OW 4744   0.690   2.829   1.335
 1282SOL    HW1 4745   0.721   2.924   1.337
 1282SOL    HW2 4746   0.765   2.769   1.307
 1283SOL     OW 4747   6.623   2.097   4.704
 1283SOL    HW1 4748   6.690   2.039   4.750
 1283SOL    HW2 4749   6.532   2.055   4.709
 1284SOL     OW 4750   3.728   1.991   1.882
 1284SOL    HW1 4751   3.825   2.011   1.873
 1284SOL    HW2 4752   3.681   2.072   1.918
 1285SOL     OW 4753   4.513   0.988   4.240
 1285SOL    HW1 4754   4.504   0.989   4.140
 1285SOL    HW2 4755   4.591   1.046   4.266
 1286SOL     OW 4756   5.252   1.538   0.780
 1286SOL    HW1 4757   5.233   1.439   0.774
 1286SOL    HW2 4758   5.291   1.569   0.694
 1287SOL     OW 4759   6.417   4.727   4.972
 1287SOL    HW1 4760   6.466   4.801   4.926
 1287SOL    HW2 4761   6.343   4.696   4.913
 1288SOL     OW 4762   4.945   4.890   0.153
 1288SOL    HW1 4763   4.868   4.869   0.093
 1288SOL    HW2 4764   4.987   4.976   0.124
 1289SOL     OW 4765   6.518   6.980   1.184
 1289SOL    HW1 4766   6.561   6.900   1.227
 1289SOL    HW2 4767   6.523   6.971   1.085
 1290SOL     OW 4768   1.327   6.289   5.533
 1290SOL    HW1 4769   1.396   6.296   5.606
 1290SOL    HW2 4770   1.329   6.197   5.494
 1291SOL     OW 4771   6.188   5.300   4.134
 1291SOL    HW1 4772   6.237   5.295   4.221
 1291SOL    HW2 4773   6.227   5.374   4.078
 1292SOL     OW 4774   1.202   6.659   1.955
 1292SOL    HW1 4775   1.191   6.561   1.971
 1292SOL    HW2 4776   1.248   6.674   1.868
 1293SOL     OW 4777   4.800   1.047   0.362
 1293SOL    HW1 4778   4.724   1.076   0.305
 1293SOL    HW2 4779   4.841   0.964   0.324
 1294SOL     OW 4780   1.986   4.703   5.062
 1294SOL    HW1 4781   2.084   4.710   5.077
 1294SOL    HW2 4782   1.957   4.768   4.992
 1295SOL     OW 4783   6.652   4.193   0.746
 1295SOL    HW1 4784   6.618   4.148   0.829
 1295SOL    HW2 4785   6.575   4.215   0.686
 1296SOL     OW 4786   4.989   0.102   6.045
 1296SOL    HW1 4787   5.036   0.190   6.048
 1296SOL    HW2 4788   4.891   0.116   6.056
 1297SOL     OW 4789   0.106   0.208   1.742
 1297SOL    HW1 4790   0.013   0.207   1.777
 1297SOL    HW2 4791   0.167   0.246   1.812
 1298SOL     OW 4792   5.546   0.531   2.871
 1298SOL    HW1 4793   5.627   0.569   2.916
 1298SOL    HW2 4794   5.564   0.520   2.773
 1299SOL     OW 4795   1.044   3.181   4.223
 1299SOL    HW1 4796   1.076   3.126   4.300
 1299SOL    HW2 4797   1.116   3.188   4.154
 1300SOL     OW 4798   0.337   5.879   0.838
 1300SOL    HW1 4799   0.425   5.901   0.796
 1300SOL    HW2 4800   0.266   5.879   0.768
 1301SOL     OW 4801   6.709   0.321   0.242
 1301SOL    HW1 4802   6.773   0.311   0.319
 1301SOL    HW2 4803   6.716   0.413   0.204
 1302SOL     OW 4804   6.593   0.007   5.441
 1302SOL    HW1 4805   6.508   7.016   5.389
 1302SOL    HW2 4806   6.668   0.029   5.378
 1303SOL     OW 4807   2.884   5.790   1.751
 1303SOL    HW1 4808   2.951   5.839   1.806
 1303SOL    HW2 4809   2.799   5.779   1.803
 1304SOL     OW 4810   0.321   0.785   0.657
 1304SOL    HW1 4811   0.402   0.836   0.684
 1304SOL    HW2 4812   0.286   0.733   0.735
 1305SOL     OW 4813   4.114   4.359   6.100
 1305SOL    HW1 4814   4.166   4.425   6.046
 1305SOL    HW2 4815   4.018   4.359   6.070
 1306SOL     OW 4816   3.310   5.802   3.924
 1306SOL    HW1 4817   3.295   5.861   3.844
 1306SOL    HW2 4818   3.363   5.722   3.897
 1307SOL     OW 4819   2.387   2.637   3.984
 1307SOL    HW1 4820   2.449   2.560   3.997
 1307SOL    HW2 4821   2.383   2.661   3.887
 1308SOL     OW 4822   6.948   3.786   6.562
 1308SOL    HW1 4823   0.014   3.812   6.606
 1308SOL    HW2 4824   6.946   3.822   6.469
 1309SOL     OW 4825   6.040   4.249   6.697
 1309SOL    HW1 4826   6.036   4.256   6.797
 1309SOL    HW2 4827   6.133   4.225   6.669
 1310SOL     OW 4828   1.710   4.485   3.385
 1310SOL    HW1 4829   1.645   4.433   3.440
 1310SOL    HW2 4830   1.715   4.445   3.293
 1311SOL     OW 4831   5.664   5.112   0.314
 1311SOL    HW1 4832   5.737   5.043   0.317
 1311SOL    HW2 4833   5.680   5.173   0.237
 1312SOL     OW 4834   2.516   1.292   5.845
 1312SOL    HW1 4835   2.553   1.272   5.754
 1312SOL    HW2 4836   2.557   1.230   5.912
 1313SOL     OW 4837   6.623   5.628   1.802
 1313SOL    HW1 4838   6.533   5.671   1.811
 1313SOL    HW2 4839   6.693   5.691   1.835
 1314SOL     OW 4840   2.254   2.074   4.222
 1314SOL    HW1 4841   2.314   2.111   4.151
 1314SOL    HW2 4842   2.160   2.069   4.187
 1315SOL     OW 4843   6.409   1.264   2.719
 1315SOL    HW1 4844   6.444   1.358   2.725
 1315SOL    HW2 4845   6.435   1.213   2.801
 1316SOL     OW 4846   5.319   0.115   6.458
 1316SOL    HW1 4847   5.237   0.155   6.417
 1316SOL    HW2 4848   5.311   0.118   6.558
 1317SOL     OW 4849   3.207   2.947   5.597
 1317SOL    HW1 4850   3.203   2.966   5.499
 1317SOL    HW2 4851   3.268   3.014   5.641
 1318SOL     OW 4852   1.852   1.634   5.983
 1318SOL    HW1 4853   1.880   1.635   6.079
 1318SOL    HW2 4854   1.771   1.692   5.971
 1319SOL     OW 4855   6.947   0.260   0.401
 1319SOL    HW1 4856   6.949   0.263   0.501
 1319SOL    HW2 4857   6.987   0.174   0.370
 1320SOL     OW 4858   3.115   3.434   6.228
 1320SOL    HW1 4859   3.130   3.515   6.286
 1320SOL    HW2 4860   3.046   3.375   6.270
 1321SOL     OW 4861   0.094   2.698   0.579
 1321SOL    HW1 4862   0.032   2.624   0.606
 1321SOL    HW2 4863   0.040   2.778   0.553
 1322SOL     OW 4864   3.837   2.268   6.984
 1322SOL    HW1 4865   3.825   2.365   6.962
 1322SOL    HW2 4866   3.748   2.228   7.005
 1323SOL     OW 4867   4.115   6.385   1.393
 1323SOL    HW1 4868   4.112   6.482   1.417
 1323SOL    HW2 4869   4.039   6.337   1.437
 1324SOL     OW 4870   2.630   3.908   6.248
 1324SOL    HW1 4871   2.716   3.886   6.201
 1324SOL    HW2 4872   2.646   3.906   6.347
 1325SOL     OW 4873   3.582   5.650   5.354
 1325SOL    HW1 4874   3.639   5.704   5.291
 1325SOL    HW2 4875   3.531   5.712   5.413
 1326SOL     OW 4876   5.154   1.816   4.653
 1326SOL    HW1 4877   5.095   1.883   4.699
 1326SOL    HW2 4878   5.164   1.842   4.556
 1327SOL     OW 4879   4.973   5.485   2.511
 1327SOL    HW1 4880   4.996   5.469   2.607
 1327SOL    HW2 4881   5.057   5.497   2.459
 1328SOL     OW 4882   2.137   2.260   6.205
 1328SOL    HW1 4883   2.058   2.319   6.189
 1328SOL    HW2 4884   2.118   2.197   6.280
 1329SOL     OW 4885   0.670   2.468   3.970
 1329SOL    HW1 4886   0.627   2.530   4.035
 1329SOL    HW2 4887   0.761   2.501   3.947
 1330SOL     OW 4888   5.933   3.065   2.907
 1330SOL    HW1 4889   6.024   3.032   2.883
 1330SOL    HW2 4890   5.891   3.004   2.973
 1331SOL     OW 4891   4.655   2.171   3.697
 1331SOL    HW1 4892   4.611   2.091   3.656
 1331SOL    HW2 4893   4.616   2.254   3.657
 1332SOL     OW 4894   1.984   5.892   0.362
 1332SOL    HW1 4895   2.036   5.849   0.288
 1332SOL    HW2 4896   2.043   5.954   0.413
 1333SOL     OW 4897   3.345   4.138   3.025
 1333SOL    HW1 4898   3.371   4.160   3.120
 1333SOL    HW2 4899   3.309   4.045   3.021
 1334SOL     OW 4900   6.616   3.278   1.686
 1334SOL    HW1 4901   6.616   3.351   1.754
 1334SOL    HW2 4902   6.531   3.225   1.694
 1335SOL     OW 4903   0.659   3.233   3.267
 1335SOL    HW1 4904   0.680   3.142   3.304
 1335SOL    HW2 4905   0.564   3.256   3.288
 1336SOL     OW 4906   1.973   0.346   5.325
 1336SOL    HW1 4907   1.929   0.314   5.409
 1336SOL    HW2 4908   2.043   0.281   5.296
 1337SOL     OW 4909   0.016   6.837   2.705
 1337SOL    HW1 4910   0.013   6.880   2.614
 1337SOL    HW2 4911   0.000   6.907   2.775
 1338SOL     OW 4912   6.649   3.833   4.998
 1338SOL    HW1 4913   6.745   3.856   5.011
 1338SOL    HW2 4914   6.623   3.759   5.060
 1339SOL     OW 4915   5.971   0.418   0.098
 1339SOL    HW1 4916   5.955   0.358   0.175
 1339SOL    HW2 4917   6.068   0.417   0.074
 1340SOL     OW 4918   3.625   2.745   1.231
 1340SOL    HW1 4919   3.677   2.670   1.272
 1340SOL    HW2 4920   3.553   2.707   1.173
 1341SOL     OW 4921   4.967   6.165   6.804
 1341SOL    HW1 4922   4.925   6.194   6.718
 1341SOL    HW2 4923   4.909   6.193   6.880
 1342SOL     OW 4924   1.899   6.106   1.548
 1342SOL    HW1 4925   1.850   6.019   1.556
 1342SOL    HW2 4926   1.963   6.101   1.471
 1343SOL     OW 4927   5.578   5.567   3.062
 1343SOL    HW1 4928   5.676   5.578   3.076
 1343SOL    HW2 4929   5.561   5.510   2.982
 1344SOL     OW 4930   0.876   0.580   4.566
 1344SOL    HW1 4931   0.869   0.503   4.503
 1344SOL    HW2 4932   0.973   0.601   4.582
 1345SOL     OW 4933   0.864   6.396   0.109
 1345SOL    HW1 4934   0.782   6.430   0.063
 1345SOL    HW2 4935   0.869   6.434   0.201
 1346SOL     OW 4936   3.212   5.233   4.406
 1346SOL    HW1 4937   3.248   5.326   4.405
 1346SOL    HW2 4938   3.231   5.189   4.318
 1347SOL     OW 4939   1.268   0.386   6.568
 1347SOL    HW1 4940   1.278   0.359   6.664
 1347SOL    HW2 4941   1.211   0.467   6.561
 1348SOL     OW 4942   0.994   6.125   4.966
 1348SOL    HW1 4943   0.928   6.057   4.934
 1348SOL    HW2 4944   0.974   6.147   5.062
 1349SOL     OW 4945   5.257   3.497   4.073
 1349SOL    HW1 4946   5.355   3.500   4.095
 1349SOL    HW2 4947   5.219   3.410   4.102
 1350SOL     OW 4948   4.426   4.631   6.943
 1350SOL    HW1 4949   4.403   4.548   6.892
 1350SOL    HW2 4950   4.395   4.622   0.018
 1351SOL     OW 4951   0.570   2.954   5.906
 1351SOL    HW1 4952   0.545   2.860   5.885
 1351SOL    HW2 4953   0.489   3.012   5.898
 1352SOL     OW 4954   6.954   0.915   3.176
 1352SOL    HW1 4955   0.017   0.861   3.162
 1352SOL    HW2 4956   6.900   0.874   3.250
 1353SOL     OW 4957   0.072   0.921   0.351
 1353SOL    HW1 4958   0.112   0.911   0.259
 1353SOL    HW2 4959   0.018   1.005   0.355
 1354SOL     OW 4960   4.649   5.111   2.508
 1354SOL    HW1 4961   4.555   5.104   2.473
 1354SOL    HW2 4962   4.690   5.197   2.480
 1355SOL     OW 4963   4.936   3.312   5.455
 1355SOL    HW1 4964   4.962   3.385   5.518
 1355SOL    HW2 4965   5.012   3.292   5.394
 1356SOL     OW 4966   2.767   3.362   0.229
 1356SOL    HW1 4967   2.858   3.374   0.191
 1356SOL    HW2 4968   2.774   3.338   0.326
 1357SOL     OW 4969   1.332   2.706   5.359
 1357SOL    HW1 4970   1.264   2.727   5.429
 1357SOL    HW2 4971   1.385   2.788   5.339
 1358SOL     OW 4972   2.174   0.024   0.269
 1358SOL    HW1 4973   2.092   6.989   0.291
 1358SOL    HW2 4974   2.151   0.121   0.269
 1359SOL     OW 4975   6.467   4.273   0.995
 1359SOL    HW1 4976   6.530   4.201   1.025
 1359SOL    HW2 4977   6.520   4.355   0.971
 1360SOL     OW 4978   2.148   2.823   0.105
 1360SOL    HW1 4979   2.076   2.884   0.140
 1360SOL    HW2 4980   2.125   2.729   0.128
 1361SOL     OW 4981   6.806   4.131   4.828
 1361SOL    HW1 4982   6.841   4.224   4.811
 1361SOL    HW2 4983   6.825   4.106   4.923
 1362SOL     OW 4984   3.174   3.562   2.970
 1362SOL    HW1 4985   3.185   3.581   2.873
 1362SOL    HW2 4986   3.264   3.563   3.015
 1363SOL     OW 4987   1.145   6.266   4.206
 1363SOL    HW1 4988   1.186   6.352   4.235
 1363SOL    HW2 4989   1.195   6.190   4.248
 1364SOL     OW 4990   4.777   4.063   0.746
 1364SOL    HW1 4991   4.682   4.033   0.743
 1364SOL    HW2 4992   4.788   4.132   0.818
 1365SOL     OW 4993   6.771   3.000   6.546
 1365SOL    HW1 4994   6.734   3.040   6.630
 1365SOL    HW2 4995   6.864   2.968   6.561
 1366SOL     OW 4996   2.425   6.998   5.654
 1366SOL    HW1 4997   2.421   0.060   5.595
 1366SOL    HW2 4998   2.510   6.948   5.636
 1367SOL     OW 4999   2.858   1.328   2.184
 1367SOL    HW1 5000   2.952   1.308   2.157
 1367SOL    HW2 5001   2.810   1.369   2.107
 1368SOL     OW 5002   5.799   6.339   3.037
 1368SOL    HW1 5003   5.792   6.392   2.952
 1368SOL    HW2 5004   5.802   6.401   3.115
 1369SOL     OW 5005   1.242   0.652   2.657
 1369SOL    HW1 5006   1.315   0.658   2.724
 1369SOL    HW2 5007   1.262   0.579   2.592
 1370SOL     OW 5008   2.272   1.057   1.835
 1370SOL    HW1 5009   2.215   1.123   1.787
 1370SOL    HW2 5010   2.319   1.102   1.910
 1371SOL     OW 5011   3.808   0.143   6.649
 1371SOL    HW1 5012   3.722   0.134   6.598
 1371SOL    HW2 5013   3.821   0.064   6.708
 1372SOL     OW 5014   2.947   2.163   2.111
 1372SOL    HW1 5015   3.025   2.132   2.057
 1372SOL    HW2 5016   2.916   2.251   2.077
 1373SOL     OW 5017   1.527   6.167   6.808
 1373SOL    HW1 5018   1.580   6.088   6.778
 1373SOL    HW2 5019   1.483   6.148   6.896
 1374SOL     OW 5020   5.233   4.307   0.187
 1374SOL    HW1 5021   5.245   4.215   0.226
 1374SOL    HW2 5022   5.315   4.361   0.202
 1375SOL     OW 5023   0.834   4.616   5.304
 1375SOL    HW1 5024   0.746   4.662   5.316
 1375SOL    HW2 5025   0.883   4.613   5.391
 1376SOL     OW 5026   4.969   1.078   2.391
 1376SOL    HW1 5027   4.961   0.997   2.449
 1376SOL    HW2 5028   5.055   1.075   2.341
 1377SOL     OW 5029   0.979   4.570   4.204
 1377SOL    HW1 5030   0.881   4.585   4.220
 1377SOL    HW2 5031   1.028   4.571   4.291
 1378SOL     OW 5032   1.912   3.027   6.549
 1378SOL    HW1 5033   1.934   2.990   6.459
 1378SOL    HW2 5034   1.871   3.118   6.539
 1379SOL     OW 5035   4.303   5.950   0.989
 1379SOL    HW1 5036   4.270   5.912   1.075
 1379SOL    HW2 5037   4.332   6.045   1.003
 1380SOL     OW 5038   5.679   5.202   2.823
 1380SOL    HW1 5039   5.760   5.253   2.794
 1380SOL    HW2 5040   5.690   5.105   2.799
 1381SOL     OW 5041   5.581   6.819   1.759
 1381SOL    HW1 5042   5.547   6.877   1.833
 1381SOL    HW2 5043   5.576   6.870   1.672
 1382SOL     OW 5044   0.228   4.384   6.532
 1382SOL    HW1 5045   0.326   4.399   6.521
 1382SOL    HW2 5046   0.187   4.368   6.443
 1383SOL     OW 5047   2.312   0.450   0.176
 1383SOL    HW1 5048   2.372   0.372   0.157
 1383SOL    HW2 5049   2.268   0.480   0.091
 1384SOL     OW 5050   2.177   2.136   2.419
 1384SOL    HW1 5051   2.219   2.214   2.466
 1384SOL    HW2 5052   2.108   2.168   2.355
 1385SOL     OW 5053   5.275   3.182   3.860
 1385SOL    HW1 5054   5.257   3.257   3.796
 1385SOL    HW2 5055   5.373   3.164   3.864
 1386SOL     OW 5056   2.116   2.807   3.937
 1386SOL    HW1 5057   2.210   2.773   3.942
 1386SOL    HW2 5058   2.075   2.803   4.028
 1387SOL     OW 5059   3.158   0.292   4.475
 1387SOL    HW1 5060   3.113   0.302   4.386
 1387SOL    HW2 5061   3.100   0.331   4.546
 1388SOL     OW 5062   5.821   1.495   4.103
 1388SOL    HW1 5063   5.836   1.434   4.181
 1388SOL    HW2 5064   5.722   1.501   4.085
 1389SOL     OW 5065   6.993   0.476   3.865
 1389SOL    HW1 5066   6.949   0.561   3.838
 1389SOL    HW2 5067   6.938   0.430   3.934
 1390SOL     OW 5068   4.517   2.343   2.425
 1390SOL    HW1 5069   4.589   2.382   2.368
 1390SOL    HW2 5070   4.514   2.389   2.513
 1391SOL     OW 5071   5.634   1.361   4.654
 1391SOL    HW1 5072   5.696   1.298   4.700
 1391SOL    HW2 5073   5.539   1.336   4.675
 1392SOL     OW 5074   4.554   6.297   5.568
 1392SOL    HW1 5075   4.612   6.267   5.644
 1392SOL    HW2 5076   4.611   6.326   5.491
 1393SOL     OW 5077   4.574   0.164   0.027
 1393SOL    HW1 5078   4.575   0.259   0.056
 1393SOL    HW2 5079   4.509   0.152   6.971
 1394SOL     OW 5080   4.277   6.666   4.147
 1394SOL    HW1 5081   4.223   6.735   4.099
 1394SOL    HW2 5082   4.375   6.681   4.129
 1395SOL     OW 5083   0.358   5.110   2.406
 1395SOL    HW1 5084   0.307   5.121   2.320
 1395SOL    HW2 5085   0.397   5.198   2.432
 1396SOL     OW 5086   1.281   1.991   3.482
 1396SOL    HW1 5087   1.184   1.998   3.506
 1396SOL    HW2 5088   1.300   1.899   3.447
 1397SOL     OW 5089   1.616   5.193   5.100
 1397SOL    HW1 5090   1.586   5.188   5.195
 1397SOL    HW2 5091   1.545   5.156   5.040
 1398SOL     OW 5092   2.021   6.776   6.406
 1398SOL    HW1 5093   1.939   6.736   6.366
 1398SOL    HW2 5094   2.045   6.860   6.356
 1399SOL     OW 5095   3.677   0.477   6.873
 1399SOL    HW1 5096   3.654   0.568   6.906
 1399SOL    HW2 5097   3.776   0.471   6.856
 1400SOL     OW 5098   0.281   0.637   5.368
 1400SOL    HW1 5099   0.274   0.546   5.410
 1400SOL    HW2 5100   0.328   0.628   5.280
 1401SOL     OW 5101   5.584   0.220   1.947
 1401SOL    HW1 5102   5.527   0.289   1.991
 1401SOL    HW2 5103   5.655   0.265   1.893
 1402SOL     OW 5104   6.224   4.703   2.172
 1402SOL    HW1 5105   6.182   4.793   2.178
 1402SOL    HW2 5106   6.177   4.649   2.101
 1403SOL     OW 5107   2.850   3.853   6.115
 1403SOL    HW1 5108   2.883   3.764   6.084
 1403SOL    HW2 5109   2.928   3.908   6.146
 1404SOL     OW 5110   3.671   6.684   0.576
 1404SOL    HW1 5111   3.618   6.698   0.659
 1404SOL    HW2 5112   3.743   6.617   0.592
 1405SOL     OW 5113   1.063   3.459   0.478
 1405SOL    HW1 5114   0.966   3.457   0.454
 1405SOL    HW2 5115   1.110   3.382   0.434
 1406SOL     OW 5116   2.504   2.877   6.966
 1406SOL    HW1 5117   2.491   2.958   6.909
 1406SOL    HW2 5118   2.550   2.903   0.032
 1407SOL     OW 5119   0.464   2.413   1.100
 1407SOL    HW1 5120   0.378   2.364   1.084
 1407SOL    HW2 5121   0.466   2.496   1.044
 1408SOL     OW 5122   5.338   6.370   0.461
 1408SOL    HW1 5123   5.384   6.309   0.396
 1408SOL    HW2 5124   5.383   6.459   0.459
 1409SOL     OW 5125   6.343   1.690   5.718
 1409SOL    HW1 5126   6.431   1.661   5.679
 1409SOL    HW2 5127   6.283   1.721   5.644
 1410SOL     OW 5128   2.936   0.782   0.343
 1410SOL    HW1 5129   2.970   0.735   0.262
 1410SOL    HW2 5130   2.837   0.774   0.347
 1411SOL     OW 5131   3.686   5.142   6.673
 1411SOL    HW1 5132   3.639   5.217   6.718
 1411SOL    HW2 5133   3.761   5.110   6.730
 1412SOL     OW 5134   2.383   2.114   6.585
 1412SOL    HW1 5135   2.394   2.209   6.557
 1412SOL    HW2 5136   2.295   2.079   6.552
 1413SOL     OW 5137   2.027   1.640   5.499
 1413SOL    HW1 5138   2.083   1.561   5.477
 1413SOL    HW2 5139   2.026   1.655   5.598
 1414SOL     OW 5140   0.496   5.041   1.928
 1414SOL    HW1 5141   0.512   5.133   1.962
 1414SOL    HW2 5142   0.498   5.041   1.828
 1415SOL     OW 5143   3.938   1.685   4.991
 1415SOL    HW1 5144   3.840   1.663   4.986
 1415SOL    HW2 5145   3.966   1.730   4.906
 1416SOL     OW 5146   4.649   0.281   5.068
 1416SOL    HW1 5147   4.648   0.199   5.010
 1416SOL    HW2 5148   4.566   0.334   5.053
 1417SOL     OW 5149   3.373   3.328   4.620
 1417SOL    HW1 5150   3.442   3.355   4.553
 1417SOL    HW2 5151   3.315   3.256   4.580
 1418SOL     OW 5152   2.846   3.721   5.189
 1418SOL    HW1 5153   2.770   3.778   5.218
 1418SOL    HW2 5154   2.856   3.726   5.090
 1419SOL     OW 5155   0.825   6.111   2.006
 1419SOL    HW1 5156   0.845   6.059   2.089
 1419SOL    HW2 5157   0.784   6.050   1.938
 1420SOL     OW 5158   3.040   6.094   3.067
 1420SOL    HW1 5159   3.131   6.061   3.038
 1420SOL    HW2 5160   3.002   6.152   2.995
 1421SOL     OW 5161   1.727   5.893   0.281
 1421SOL    HW1 5162   1.824   5.892   0.302
 1421SOL    HW2 5163   1.697   5.987   0.265
 1422SOL     OW 5164   1.642   3.826   6.826
 1422SOL    HW1 5165   1.705   3.902   6.840
 1422SOL    HW2 5166   1.587   3.812   6.908
 1423SOL     OW 5167   4.318   1.103   4.762
 1423SOL    HW1 5168   4.276   1.105   4.671
 1423SOL    HW2 5169   4.254   1.139   4.829
 1424SOL     OW 5170   6.351   2.395   1.335
 1424SOL    HW1 5171   6.265   2.435   1.302
 1424SOL    HW2 5172   6.335   2.299   1.359
 1425SOL     OW 5173   5.601   0.037   3.425
 1425SOL    HW1 5174   5.513   0.080   3.442
 1425SOL    HW2 5175   5.599   6.962   3.456
 1426SOL     OW 5176   4.048   0.972   0.614
 1426SOL    HW1 5177   4.144   0.955   0.594
 1426SOL    HW2 5178   4.024   1.066   0.587
 1427SOL     OW 5179   1.173   0.524   4.311
 1427SOL    HW1 5180   1.128   0.434   4.312
 1427SOL    HW2 5181   1.272   0.512   4.310
 1428SOL     OW 5182   2.174   3.897   3.927
 1428SOL    HW1 5183   2.193   3.828   3.857
 1428SOL    HW2 5184   2.152   3.984   3.883
 1429SOL     OW 5185   5.791   0.134   2.083
 1429SOL    HW1 5186   5.765   0.080   2.163
 1429SOL    HW2 5187   5.711   0.182   2.048
 1430SOL     OW 5188   2.295   4.224   4.473
 1430SOL    HW1 5189   2.276   4.175   4.388
 1430SOL    HW2 5190   2.220   4.287   4.492
 1431SOL     OW 5191   3.408   1.534   0.377
 1431SOL    HW1 5192   3.309   1.520   0.381
 1431SOL    HW2 5193   3.451   1.484   0.451
 1432SOL     OW 5194   4.590   0.117   3.185
 1432SOL    HW1 5195   4.538   0.094   3.102
 1432SOL    HW2 5196   4.654   0.043   3.206
 1433SOL     OW 5197   3.228   1.546   3.780
 1433SOL    HW1 5198   3.192   1.459   3.746
 1433SOL    HW2 5199   3.223   1.546   3.880
 1434SOL     OW 5200   5.345   3.631   0.905
 1434SOL    HW1 5201   5.314   3.720   0.939
 1434SOL    HW2 5202   5.441   3.618   0.928
 1435SOL     OW 5203   0.740   6.487   4.210
 1435SOL    HW1 5204   0.794   6.404   4.199
 1435SOL    HW2 5205   0.749   6.544   4.129
 1436SOL     OW 5206   5.206   0.684   0.497
 1436SOL    HW1 5207   5.256   0.693   0.583
 1436SOL    HW2 5208   5.196   0.587   0.474
 1437SOL     OW 5209   4.534   1.226   0.498
 1437SOL    HW1 5210   4.593   1.301   0.529
 1437SOL    HW2 5211   4.467   1.262   0.433
 1438SOL     OW 5212   2.359   0.046   2.863
 1438SOL    HW1 5213   2.431   0.056   2.933
 1438SOL    HW2 5214   2.333   6.970   2.856
 1439SOL     OW 5215   0.828   5.214   5.882
 1439SOL    HW1 5216   0.820   5.310   5.855
 1439SOL    HW2 5217   0.790   5.202   5.973
 1440SOL     OW 5218   4.069   3.171   2.044
 1440SOL    HW1 5219   4.060   3.123   2.131
 1440SOL    HW2 5220   4.095   3.106   1.973
 1441SOL     OW 5221   6.281   1.908   5.931
 1441SOL    HW1 5222   6.374   1.909   5.966
 1441SOL    HW2 5223   6.283   1.899   5.831
 1442SOL     OW 5224   5.267   6.053   0.299
 1442SOL    HW1 5225   5.189   6.114   0.285
 1442SOL    HW2 5226   5.351   6.099   0.268
 1443SOL     OW 5227   1.231   2.341   3.698
 1443SOL    HW1 5228   1.135   2.315   3.709
 1443SOL    HW2 5229   1.289   2.267   3.730
 1444SOL     OW 5230   5.127   6.288   4.901
 1444SOL    HW1 5231   5.028   6.302   4.894
 1444SOL    HW2 5232   5.145   6.196   4.936
 1445SOL     OW 5233   6.376   2.150   6.876
 1445SOL    HW1 5234   6.385   2.120   6.782
 1445SOL    HW2 5235   6.375   2.071   6.937
 1446SOL     OW 5236   3.820   5.488   1.304
 1446SOL    HW1 5237   3.820   5.587   1.292
 1446SOL    HW2 5238   3.743   5.462   1.363
 1447SOL     OW 5239   6.273   1.080   5.118
 1447SOL    HW1 5240   6.323   1.098   5.203
 1447SOL    HW2 5241   6.331   1.104   5.040
 1448SOL     OW 5242   5.548   0.550   6.819
 1448SOL    HW1 5243   5.508   0.609   6.890
 1448SOL    HW2 5244   5.647   0.545   6.832
 1449SOL     OW 5245   4.354   5.406   0.547
 1449SOL    HW1 5246   4.305   5.364   0.624
 1449SOL    HW2 5247   4.448   5.374   0.546
 1450SOL     OW 5248   6.015   1.634   3.973
 1450SOL    HW1 5249   6.054   1.655   4.063
 1450SOL    HW2 5250   5.933   1.577   3.985
 1451SOL     OW 5251   1.326   6.599   1.723
 1451SOL    HW1 5252   1.390   6.541   1.775
 1451SOL    HW2 5253   1.358   6.607   1.629
 1452SOL     OW 5254   3.494   0.435   5.469
 1452SOL    HW1 5255   3.429   0.508   5.491
 1452SOL    HW2 5256   3.443   0.350   5.454
 1453SOL     OW 5257   5.329   4.499   4.294
 1453SOL    HW1 5258   5.342   4.407   4.332
 1453SOL    HW2 5259   5.367   4.502   4.202
 1454SOL     OW 5260   5.069   3.832   0.878
 1454SOL    HW1 5261   5.018   3.878   0.951
 1454SOL    HW2 5262   5.073   3.892   0.798
 1455SOL     OW 5263   1.894   2.053   1.591
 1455SOL    HW1 5264   1.875   2.146   1.623
 1455SOL    HW2 5265   1.992   2.035   1.596
 1456SOL     OW 5266   6.175   5.252   5.211
 1456SOL    HW1 5267   6.110   5.322   5.181
 1456SOL    HW2 5268   6.127   5.165   5.223
 1457SOL     OW 5269   1.975   0.668   3.919
 1457SOL    HW1 5270   2.071   0.696   3.921
 1457SOL    HW2 5271   1.920   0.740   3.876
 1458SOL     OW 5272   0.327   5.582   7.006
 1458SOL    HW1 5273   0.400   5.562   6.941
 1458SOL    HW2 5274   0.365   5.595   0.078
 1459SOL     OW 5275   2.853   0.204   1.436
 1459SOL    HW1 5276   2.765   0.161   1.452
 1459SOL    HW2 5277   2.841   0.303   1.429
 1460SOL     OW 5278   0.366   7.014   6.967
 1460SOL    HW1 5279   0.277   0.036   6.985
 1460SOL    HW2 5280   0.438   0.059   6.993
 1461SOL     OW 5281   4.771   5.350   2.444
 1461SOL    HW1 5282   4.675   5.378   2.445
 1461SOL    HW2 5283   4.829   5.427   2.469
 1462SOL     OW 5284   5.552   0.373   5.077
 1462SOL    HW1 5285   5.581   0.450   5.134
 1462SOL    HW2 5286   5.618   0.298   5.087
 1463SOL     OW 5287   0.572   2.437   6.046
 1463SOL    HW1 5288   0.545   2.532   6.037
 1463SOL    HW2 5289   0.671   2.430   6.034
 1464SOL     OW 5290   0.727   0.476   1.234
 1464SOL    HW1 5291   0.765   0.446   1.322
 1464SOL    HW2 5292   0.639   0.522   1.249
 1465SOL     OW 5293   0.804   0.670   3.801
 1465SOL    HW1 5294   0.705   0.667   3.788
 1465SOL    HW2 5295   0.829   0.750   3.855
 1466SOL     OW 5296   6.021   5.414   5.030
 1466SOL    HW1 5297   6.098   5.383   4.975
 1466SOL    HW2 5298   5.936   5.379   4.992
 1467SOL     OW 5299   5.950   4.005   3.877
 1467SOL    HW1 5300   5.876   4.049   3.927
 1467SOL    HW2 5301   5.972   3.917   3.920
 1468SOL     OW 5302   4.590   0.260   2.553
 1468SOL    HW1 5303   4.663   0.261   2.484
 1468SOL    HW2 5304   4.501   0.266   2.508
 1469SOL     OW 5305   0.747   0.614   2.152
 1469SOL    HW1 5306   0.805   0.677   2.204
 1469SOL    HW2 5307   0.719   0.659   2.066
 1470SOL     OW 5308   6.990   0.057   2.919
 1470SOL    HW1 5309   6.972   0.040   3.016
 1470SOL    HW2 5310   6.925   0.125   2.885
 1471SOL     OW 5311   5.789   0.787   1.480
 1471SOL    HW1 5312   5.780   0.693   1.447
 1471SOL    HW2 5313   5.754   0.793   1.573
 1472SOL     OW 5314   4.663   5.337   4.687
 1472SOL    HW1 5315   4.716   5.370   4.609
 1472SOL    HW2 5316   4.700   5.250   4.719
 1473SOL     OW 5317   6.234   3.529   3.459
 1473SOL    HW1 5318   6.301   3.595   3.425
 1473SOL    HW2 5319   6.233   3.529   3.559
 1474SOL     OW 5320   4.365   5.529   2.949
 1474SOL    HW1 5321   4.418   5.606   2.913
 1474SOL    HW2 5322   4.419   5.481   3.019
 1475SOL     OW 5323   6.235   6.886   3.240
 1475SOL    HW1 5324   6.280   6.880   3.151
 1475SOL    HW2 5325   6.302   6.874   3.313
 1476SOL     OW 5326   0.318   2.559   0.858
 1476SOL    HW1 5327   0.290   2.614   0.937
 1476SOL    HW2 5328   0.308   2.613   0.775
 1477SOL     OW 5329   2.615   6.292   3.892
 1477SOL    HW1 5330   2.698   6.343   3.916
 1477SOL    HW2 5331   2.603   6.292   3.793
 1478SOL     OW 5332   6.652   3.394   1.444
 1478SOL    HW1 5333   6.717   3.470   1.439
 1478SOL    HW2 5334   6.665   3.344   1.529
 1479SOL     OW 5335   1.035   5.450   0.562
 1479SOL    HW1 5336   0.940   5.479   0.558
 1479SOL    HW2 5337   1.042   5.365   0.614
 1480SOL     OW 5338   2.309   1.116   0.092
 1480SOL    HW1 5339   2.277   1.118   7.017
 1480SOL    HW2 5340   2.378   1.186   0.106
 1481SOL     OW 5341   0.975   3.581   6.748
 1481SOL    HW1 5342   0.886   3.565   6.704
 1481SOL    HW2 5343   0.963   3.641   6.827
 1482SOL     OW 5344   5.609   0.549   6.272
 1482SOL    HW1 5345   5.622   0.516   6.366
 1482SOL    HW2 5346   5.544   0.490   6.225
 1483SOL     OW 5347   6.481   1.840   6.537
 1483SOL    HW1 5348   6.518   1.830   6.444
 1483SOL    HW2 5349   6.548   1.886   6.595
 1484SOL     OW 5350   6.432   6.446   2.655
 1484SOL    HW1 5351   6.426   6.373   2.722
 1484SOL    HW2 5352   6.462   6.409   2.567
 1485SOL     OW 5353   5.619   2.961   3.958
 1485SOL    HW1 5354   5.558   2.947   3.880
 1485SOL    HW2 5355   5.596   3.048   4.002
 1486SOL     OW 5356   5.037   2.351   1.923
 1486SOL    HW1 5357   4.944   2.356   1.960
 1486SOL    HW2 5358   5.044   2.270   1.864
 1487SOL     OW 5359   6.960   0.388   5.653
 1487SOL    HW1 5360   6.926   0.295   5.643
 1487SOL    HW2 5361   6.903   0.438   5.718
 1488SOL     OW 5362   5.113   1.959   3.956
 1488SOL    HW1 5363   5.026   1.997   3.985
 1488SOL    HW2 5364   5.161   1.922   4.036
 1489SOL     OW 5365   3.849   5.287   4.469
 1489SOL    HW1 5366   3.771   5.285   4.532
 1489SOL    HW2 5367   3.902   5.204   4.480
 1490SOL     OW 5368   2.493   2.374   1.306
 1490SOL    HW1 5369   2.552   2.294   1.294
 1490SOL    HW2 5370   2.463   2.379   1.401
 1491SOL     OW 5371   0.313   2.326   5.131
 1491SOL    HW1 5372   0.257   2.328   5.214
 1491SOL    HW2 5373   0.261   2.364   5.055
 1492SOL     OW 5374   6.693   2.285   1.124
 1492SOL    HW1 5375   6.750   2.326   1.052
 1492SOL    HW2 5376   6.632   2.217   1.082
 1493SOL     OW 5377   6.311   2.636   5.624
 1493SOL    HW1 5378   6.305   2.544   5.586
 1493SOL    HW2 5379   6.220   2.671   5.643
 1494SOL     OW 5380   5.572   1.824   4.297
 1494SOL    HW1 5381   5.556   1.729   4.324
 1494SOL    HW2 5382   5.494   1.880   4.324
 1495SOL     OW 5383   1.091   3.593   2.386
 1495SOL    HW1 5384   1.164   3.562   2.446
 1495SOL    HW2 5385   1.003   3.575   2.429
 1496SOL     OW 5386   0.859   0.455   2.514
 1496SOL    HW1 5387   0.845   0.441   2.416
 1496SOL    HW2 5388   0.932   0.522   2.528
 1497SOL     OW 5389   5.333   5.541   5.681
 1497SOL    HW1 5390   5.423   5.542   5.637
 1497SOL    HW2 5391   5.317   5.628   5.727
 1498SOL     OW 5392   2.469   5.635   0.298
 1498SOL    HW1 5393   2.462   5.684   0.211
 1498SOL    HW2 5394   2.455   5.699   0.374
 1499SOL     OW 5395   0.946   4.061   4.532
 1499SOL    HW1 5396   1.015   4.127   4.561
 1499SOL    HW2 5397   0.867   4.065   4.593
 1500SOL     OW 5398   4.145   6.777   5.387
 1500SOL    HW1 5399   4.229   6.814   5.346
 1500SOL    HW2 5400   4.168   6.730   5.471
 1501SOL     OW 5401   3.927   0.721   0.483
 1501SOL    HW1 5402   3.995   0.720   0.557
 1501SOL    HW2 5403   3.907   0.627   0.455
 1502SOL     OW 5404   0.290   5.843   6.376
 1502SOL    HW1 5405   0.235   5.927   6.381
 1502SOL    HW2 5406   0.270   5.795   6.291
 1503SOL     OW 5407   3.579   4.428   5.752
 1503SOL    HW1 5408   3.544   4.513   5.714
 1503SOL    HW2 5409   3.534   4.350   5.708
 1504SOL     OW 5410   2.884   6.679   4.046
 1504SOL    HW1 5411   2.835   6.739   3.984
 1504SOL    HW2 5412   2.982   6.679   4.023
 1505SOL     OW 5413   5.084   0.070   2.583
 1505SOL    HW1 5414   5.132   0.011   2.648
 1505SOL    HW2 5415   5.145   0.144   2.554
 1506SOL     OW 5416   0.995   6.673   3.197
 1506SOL    HW1 5417   0.956   6.665   3.288
 1506SOL    HW2 5418   0.921   6.673   3.129
 1507SOL     OW 5419   2.494   2.621   6.908
 1507SOL    HW1 5420   2.522   2.609   6.812
 1507SOL    HW2 5421   2.499   2.717   6.932
 1508SOL     OW 5422   4.530   6.864   1.211
 1508SOL    HW1 5423   4.562   6.894   1.121
 1508SOL    HW2 5424   4.445   6.814   1.202
 1509SOL     OW 5425   5.727   1.940   6.378
 1509SOL    HW1 5426   5.786   1.862   6.401
 1509SOL    HW2 5427   5.649   1.942   6.441
 1510SOL     OW 5428   6.803   1.660   2.976
 1510SOL    HW1 5429   6.715   1.650   3.024
 1510SOL    HW2 5430   6.857   1.731   3.021
 1511SOL     OW 5431   1.079   2.946   0.346
 1511SOL    HW1 5432   0.989   2.920   0.382
 1511SOL    HW2 5433   1.083   3.045   0.335
 1512SOL     OW 5434   6.832   1.354   1.716
 1512SOL    HW1 5435   6.755   1.404   1.755
 1512SOL    HW2 5436   6.904   1.344   1.785
 1513SOL     OW 5437   3.141   0.398   2.849
 1513SOL    HW1 5438   3.123   0.352   2.762
 1513SOL    HW2 5439   3.240   0.412   2.860
 1514SOL     OW 5440   4.651   0.466   6.058
 1514SOL    HW1 5441   4.724   0.493   6.120
 1514SOL    HW2 5442   4.579   0.535   6.059
 1515SOL     OW 5443   5.397   5.111   5.374
 1515SOL    HW1 5444   5.304   5.148   5.378
 1515SOL    HW2 5445   5.455   5.160   5.438
 1516SOL     OW 5446   0.332   1.427   0.643
 1516SOL    HW1 5447   0.264   1.483   0.596
 1516SOL    HW2 5448   0.407   1.486   0.675
 1517SOL     OW 5449   3.131   5.617   3.361
 1517SOL    HW1 5450   3.079   5.567   3.292
 1517SOL    HW2 5451   3.154   5.555   3.436
 1518SOL     OW 5452   0.519   4.847   0.660
 1518SOL    HW1 5453   0.555   4.935   0.627
 1518SOL    HW2 5454   0.466   4.862   0.743
 1519SOL     OW 5455   0.566   3.870   0.788
 1519SOL    HW1 5456   0.519   3.959   0.795
 1519SOL    HW2 5457   0.572   3.844   0.692
 1520SOL     OW 5458   1.516   2.750   3.215
 1520SOL    HW1 5459   1.480   2.833   3.172
 1520SOL    HW2 5460   1.616   2.756   3.220
 1521SOL     OW 5461   2.540   4.433   5.313
 1521SOL    HW1 5462   2.609   4.383   5.365
 1521SOL    HW2 5463   2.540   4.529   5.342
 1522SOL     OW 5464   1.337   2.133   6.288
 1522SOL    HW1 5465   1.357   2.062   6.221
 1522SOL    HW2 5466   1.249   2.113   6.332
 1523SOL     OW 5467   5.493   1.614   1.060
 1523SOL    HW1 5468   5.536   1.540   1.112
 1523SOL    HW2 5469   5.394   1.600   1.059
 1524SOL     OW 5470   0.055   1.274   1.510
 1524SOL    HW1 5471   7.017   1.304   1.586
 1524SOL    HW2 5472   0.053   1.174   1.504
 1525SOL     OW 5473   4.917   1.432   5.907
 1525SOL    HW1 5474   4.860   1.492   5.964
 1525SOL    HW2 5475   5.013   1.441   5.935
 1526SOL     OW 5476   6.239   1.104   0.102
 1526SOL    HW1 5477   6.187   1.142   0.178
 1526SOL    HW2 5478   6.295   1.177   0.061
 1527SOL     OW 5479   3.034   1.911   6.117
 1527SOL    HW1 5480   3.096   1.979   6.079
 1527SOL    HW2 5481   3.065   1.819   6.091
 1528SOL     OW 5482   5.309   5.358   4.105
 1528SOL    HW1 5483   5.363   5.416   4.166
 1528SOL    HW2 5484   5.370   5.299   4.052
 1529SOL     OW 5485   2.101   0.126   5.570
 1529SOL    HW1 5486   2.125   0.029   5.570
 1529SOL    HW2 5487   2.002   0.135   5.580
 1530SOL     OW 5488   2.850   6.698   1.450
 1530SOL    HW1 5489   2.808   6.610   1.426
 1530SOL    HW2 5490   2.870   6.699   1.548
 1531SOL     OW 5491   5.865   0.641   6.210
 1531SOL    HW1 5492   5.877   0.739   6.226
 1531SOL    HW2 5493   5.778   0.611   6.251
 1532SOL     OW 5494   2.746   2.641   5.379
 1532SOL    HW1 5495   2.825   2.592   5.341
 1532SOL    HW2 5496   2.777   2.723   5.426
 1533SOL     OW 5497   4.833   2.838   0.108
 1533SOL    HW1 5498   4.785   2.924   0.090
 1533SOL    HW2 5499   4.797   2.797   0.192
 1534SOL     OW 5500   6.697   0.159   1.810
 1534SOL    HW1 5501   6.781   0.137   1.860
 1534SOL    HW2 5502   6.691   0.258   1.799
 1535SOL     OW 5503   5.288   4.566   4.743
 1535SOL    HW1 5504   5.218   4.550   4.673
 1535SOL    HW2 5505   5.252   4.627   4.813
 1536SOL     OW 5506   3.355   6.256   3.076
 1536SOL    HW1 5507   3.318   6.164   3.087
 1536SOL    HW2 5508   3.316   6.297   2.993
 1537SOL     OW 5509   3.015   5.411   4.642
 1537SOL    HW1 5510   3.079   5.389   4.715
 1537SOL    HW2 5511   3.063   5.457   4.568
 1538SOL     OW 5512   3.131   5.525   6.506
 1538SOL    HW1 5513   3.211   5.572   6.544
 1538SOL    HW2 5514   3.053   5.586   6.505
 1539SOL     OW 5515   3.253   6.279   1.811
 1539SOL    HW1 5516   3.208   6.331   1.883
 1539SOL    HW2 5517   3.183   6.233   1.756
 1540SOL     OW 5518   5.825   0.048   5.136
 1540SOL    HW1 5519   5.753   0.079   5.074
 1540SOL    HW2 5520   5.800   6.978   5.174
 1541SOL     OW 5521   5.207   1.596   1.029
 1541SOL    HW1 5522   5.201   1.601   0.929
 1541SOL    HW2 5523   5.217   1.500   1.057
 1542SOL     OW 5524   0.009   6.256   1.272
 1542SOL    HW1 5525   0.099   6.216   1.255
 1542SOL    HW2 5526   6.959   6.184   1.267
 1543SOL     OW 5527   3.586   3.560   3.427
 1543SOL    HW1 5528   3.656   3.583   3.359
 1543SOL    HW2 5529   3.572   3.461   3.428
 1544SOL     OW 5530   3.261   3.525   2.610
 1544SOL    HW1 5531   3.320   3.472   2.670
 1544SOL    HW2 5532   3.308   3.539   2.522
 1545SOL     OW 5533   0.068   0.268   4.922
 1545SOL    HW1 5534   0.102   0.179   4.952
 1545SOL    HW2 5535   0.018   0.258   4.836
 1546SOL     OW 5536   6.365   6.410   6.370
 1546SOL    HW1 5537   6.273   6.439   6.342
 1546SOL    HW2 5538   6.363   6.381   6.466
 1547SOL     OW 5539   3.323   5.639   0.118
 1547SOL    HW1 5540   3.306   5.541   0.130
 1547SOL    HW2 5541   3.235   5.687   0.119
 1548SOL     OW 5542   6.142   4.220   3.665
 1548SOL    HW1 5543   6.116   4.309   3.703
 1548SOL    HW2 5544   6.167   4.158   3.738
 1549SOL     OW 5545   7.005   2.386   0.763
 1549SOL    HW1 5546   6.933   2.382   0.694
 1549SOL    HW2 5547   7.004   2.477   0.806
 1550SOL     OW 5548   2.705   4.976   3.052
 1550SOL    HW1 5549   2.614   4.939   3.072
 1550SOL    HW2 5550   2.722   4.971   2.954
 1551SOL     OW 5551   0.380   2.259   1.405
 1551SOL    HW1 5552   0.346   2.261   1.310
 1551SOL    HW2 5553   0.408   2.351   1.432
 1552SOL     OW 5554   0.912   6.590   2.267
 1552SOL    HW1 5555   0.903   6.557   2.172
 1552SOL    HW2 5556   0.992   6.546   2.309
 1553SOL     OW 5557   5.443   0.981   6.107
 1553SOL    HW1 5558   5.482   0.920   6.177
 1553SOL    HW2 5559   5.357   1.019   6.140
 1554SOL     OW 5560   2.601   2.207   0.715
 1554SOL    HW1 5561   2.616   2.257   0.801
 1554SOL    HW2 5562   2.689   2.193   0.669
 1555SOL     OW 5563   4.134   1.479   0.452
 1555SOL    HW1 5564   4.206   1.425   0.409
 1555SOL    HW2 5565   4.075   1.518   0.381
 1556SOL     OW 5566   3.576   2.136   0.456
 1556SOL    HW1 5567   3.528   2.222   0.475
 1556SOL    HW2 5568   3.509   2.063   0.446
 1557SOL     OW 5569   1.648   3.235   0.579
 1557SOL    HW1 5570   1.709   3.271   0.649
 1557SOL    HW2 5571   1.694   3.161   0.529
 1558SOL     OW 5572   5.392   2.588   6.136
 1558SOL    HW1 5573   5.334   2.657   6.093
 1558SOL    HW2 5574   5.487   2.620   6.137
 1559SOL     OW 5575   2.543   6.297   3.628
 1559SOL    HW1 5576   2.526   6.375   3.568
 1559SOL    HW2 5577   2.581   6.221   3.575
 1560SOL     OW 5578   4.225   3.246   1.165
 1560SOL    HW1 5579   4.220   3.267   1.068
 1560SOL    HW2 5580   4.154   3.297   1.214
 1561SOL     OW 5581   5.598   6.087   0.616
 1561SOL    HW1 5582   5.596   6.181   0.651
 1561SOL    HW2 5583   5.507   6.062   0.584
 1562SOL     OW 5584   2.666   0.312   2.521
 1562SOL    HW1 5585   2.750   0.340   2.475
 1562SOL    HW2 5586   2.662   0.212   2.527
 1563SOL     OW 5587   1.958   3.451   3.929
 1563SOL    HW1 5588   1.897   3.498   3.865
 1563SOL    HW2 5589   2.025   3.515   3.966
 1564SOL     OW 5590   0.681   1.890   2.816
 1564SOL    HW1 5591   0.693   1.794   2.841
 1564SOL    HW2 5592   0.698   1.948   2.896
 1565SOL     OW 5593   4.764   1.866   5.569
 1565SOL    HW1 5594   4.689   1.852   5.633
 1565SOL    HW2 5595   4.767   1.963   5.542
 1566SOL     OW 5596   0.244   3.530   3.393
 1566SOL    HW1 5597   0.236   3.596   3.468
 1566SOL    HW2 5598   0.200   3.444   3.419
 1567SOL     OW 5599   5.596   0.317   4.733
 1567SOL    HW1 5600   5.684   0.272   4.746
 1567SOL    HW2 5601   5.612   0.410   4.698
 1568SOL     OW 5602   2.189   4.490   1.148
 1568SOL    HW1 5603   2.161   4.429   1.223
 1568SOL    HW2 5604   2.132   4.572   1.148
 1569SOL     OW 5605   2.408   1.343   2.720
 1569SOL    HW1 5606   2.416   1.425   2.664
 1569SOL    HW2 5607   2.331   1.288   2.688
 1570SOL     OW 5608   2.449   5.716   6.451
 1570SOL    HW1 5609   2.537   5.670   6.451
 1570SOL    HW2 5610   2.429   5.749   6.358
 1571SOL     OW 5611   6.780   2.460   4.377
 1571SOL    HW1 5612   6.740   2.371   4.400
 1571SOL    HW2 5613   6.776   2.519   4.458
 1572SOL     OW 5614   2.311   6.490   3.076
 1572SOL    HW1 5615   2.357   6.401   3.083
 1572SOL    HW2 5616   2.374   6.563   3.102
 1573SOL     OW 5617   5.245   5.460   0.135
 1573SOL    HW1 5618   5.288   5.403   0.065
 1573SOL    HW2 5619   5.308   5.532   0.163
 1574SOL     OW 5620   1.074   4.408   3.014
 1574SOL    HW1 5621   1.099   4.367   2.926
 1574SOL    HW2 5622   0.986   4.371   3.044
 1575SOL     OW 5623   6.846   2.467   0.380
 1575SOL    HW1 5624   6.801   2.531   0.318
 1575SOL    HW2 5625   6.795   2.461   0.466
 1576SOL     OW 5626   1.891   5.818   1.548
 1576SOL    HW1 5627   1.823   5.823   1.621
 1576SOL    HW2 5628   1.956   5.745   1.568
 1577SOL     OW 5629   4.701   5.895   3.691
 1577SOL    HW1 5630   4.687   5.801   3.661
 1577SOL    HW2 5631   4.775   5.937   3.637
 1578SOL     OW 5632   4.996   1.875   1.403
 1578SOL    HW1 5633   5.039   1.866   1.493
 1578SOL    HW2 5634   4.997   1.787   1.357
 1579SOL     OW 5635   1.876   3.000   1.837
 1579SOL    HW1 5636   1.882   3.091   1.880
 1579SOL    HW2 5637   1.967   2.958   1.836
 1580SOL     OW 5638   2.846   3.574   3.330
 1580SOL    HW1 5639   2.880   3.569   3.236
 1580SOL    HW2 5640   2.771   3.640   3.334
 1581SOL     OW 5641   5.914   4.125   4.719
 1581SOL    HW1 5642   5.862   4.188   4.776
 1581SOL    HW2 5643   5.917   4.035   4.762
 1582SOL     OW 5644   4.631   5.900   5.134
 1582SOL    HW1 5645   4.660   5.814   5.092
 1582SOL    HW2 5646   4.695   5.926   5.206
 1583SOL     OW 5647   1.217   5.588   5.321
 1583SOL    HW1 5648   1.190   5.497   5.290
 1583SOL    HW2 5649   1.306   5.612   5.282
 1584SOL     OW 5650   0.156   4.358   0.584
 1584SOL    HW1 5651   0.160   4.261   0.607
 1584SOL    HW2 5652   0.217   4.376   0.506
 1585SOL     OW 5653   4.977   6.581   4.428
 1585SOL    HW1 5654   4.878   6.580   4.416
 1585SOL    HW2 5655   5.007   6.673   4.451
 1586SOL     OW 5656   2.970   5.855   3.212
 1586SOL    HW1 5657   2.965   5.854   3.311
 1586SOL    HW2 5658   3.016   5.938   3.181
 1587SOL     OW 5659   3.087   6.735   6.353
 1587SOL    HW1 5660   2.993   6.705   6.345
 1587SOL    HW2 5661   3.141   6.665   6.401
 1588SOL     OW 5662   6.320   1.912   3.313
 1588SOL    HW1 5663   6.301   1.997   3.361
 1588SOL    HW2 5664   6.256   1.902   3.237
 1589SOL     OW 5665   0.068   2.957   4.672
 1589SOL    HW1 5666   0.098   3.053   4.670
 1589SOL    HW2 5667   6.995   2.950   4.634
 1590SOL     OW 5668   5.854   0.894   3.432
 1590SOL    HW1 5669   5.875   0.826   3.502
 1590SOL    HW2 5670   5.787   0.960   3.468
 1591SOL     OW 5671   1.004   5.876   0.353
 1591SOL    HW1 5672   1.022   5.960   0.303
 1591SOL    HW2 5673   0.974   5.805   0.289
 1592SOL     OW 5674   0.214   3.412   5.526
 1592SOL    HW1 5675   0.294   3.394   5.469
 1592SOL    HW2 5676   0.210   3.509   5.548
 1593SOL     OW 5677   3.845   6.013   1.346
 1593SOL    HW1 5678   3.789   6.007   1.428
 1593SOL    HW2 5679   3.884   6.105   1.338
 1594SOL     OW 5680   5.418   0.975   2.902
 1594SOL    HW1 5681   5.434   0.918   2.982
 1594SOL    HW2 5682   5.421   0.919   2.819
 1595SOL     OW 5683   1.037   3.190   6.759
 1595SOL    HW1 5684   1.124   3.162   6.718
 1595SOL    HW2 5685   0.964   3.185   6.691
 1596SOL     OW 5686   4.934   4.478   3.714
 1596SOL    HW1 5687   4.935   4.565   3.763
 1596SOL    HW2 5688   4.859   4.422   3.747
 1597SOL     OW 5689   3.123   5.785   0.440
 1597SOL    HW1 5690   3.162   5.703   0.482
 1597SOL    HW2 5691   3.072   5.837   0.509
 1598SOL     OW 5692   1.452   4.393   6.327
 1598SOL    HW1 5693   1.472   4.301   6.294
 1598SOL    HW2 5694   1.526   4.425   6.386
 1599SOL     OW 5695   4.736   5.656   3.543
 1599SOL    HW1 5696   4.787   5.653   3.629
 1599SOL    HW2 5697   4.781   5.599   3.475
 1600SOL     OW 5698   4.298   0.575   1.667
 1600SOL    HW1 5699   4.338   0.658   1.706
 1600SOL    HW2 5700   4.253   0.597   1.580
 1601SOL     OW 5701   6.641   1.005   4.598
 1601SOL    HW1 5702   6.625   1.008   4.500
 1601SOL    HW2 5703   6.629   1.097   4.637
 1602SOL     OW 5704   4.821   5.647   3.847
 1602SOL    HW1 5705   4.855   5.724   3.902
 1602SOL    HW2 5706   4.894   5.579   3.837
 1603SOL     OW 5707   3.051   4.801   2.329
 1603SOL    HW1 5708   2.964   4.798   2.279
 1603SOL    HW2 5709   3.034   4.832   2.422
 1604SOL     OW 5710   4.364   5.049   2.723
 1604SOL    HW1 5711   4.450   5.002   2.742
 1604SOL    HW2 5712   4.382   5.130   2.667
 1605SOL     OW 5713   5.034   5.088   0.455
 1605SOL    HW1 5714   5.097   5.138   0.394
 1605SOL    HW2 5715   5.052   5.113   0.550
 1606SOL     OW 5716   3.257   5.747   4.966
 1606SOL    HW1 5717   3.161   5.737   4.994
 1606SOL    HW2 5718   3.311   5.673   5.006
 1607SOL     OW 5719   4.726   4.295   3.801
 1607SOL    HW1 5720   4.733   4.195   3.797
 1607SOL    HW2 5721   4.757   4.328   3.890
 1608SOL     OW 5722   5.454   2.617   3.604
 1608SOL    HW1 5723   5.532   2.596   3.664
 1608SOL    HW2 5724   5.476   2.591   3.510
 1609SOL     OW 5725   1.630   0.193   0.865
 1609SOL    HW1 5726   1.676   0.189   0.954
 1609SOL    HW2 5727   1.569   0.272   0.862
 1610SOL     OW 5728   5.591   6.364   0.788
 1610SOL    HW1 5729   5.528   6.322   0.853
 1610SOL    HW2 5730   5.685   6.344   0.815
 1611SOL     OW 5731   1.581   4.406   0.012
 1611SOL    HW1 5732   1.620   4.413   0.104
 1611SOL    HW2 5733   1.566   4.498   6.994
 1612SOL     OW 5734   4.270   1.087   2.536
 1612SOL    HW1 5735   4.323   1.112   2.455
 1612SOL    HW2 5736   4.221   1.002   2.519
 1613SOL     OW 5737   0.078   5.736   2.760
 1613SOL    HW1 5738   0.043   5.683   2.837
 1613SOL    HW2 5739   0.085   5.832   2.787
 1614SOL     OW 5740   6.639   1.407   6.045
 1614SOL    HW1 5741   6.604   1.343   6.113
 1614SOL    HW2 5742   6.734   1.385   6.023
 1615SOL     OW 5743   6.998   3.753   5.542
 1615SOL    HW1 5744   0.077   3.758   5.524
 1615SOL    HW2 5745   6.948   3.798   5.468
 1616SOL     OW 5746   0.386   0.788   3.906
 1616SOL    HW1 5747   0.304   0.733   3.921
 1616SOL    HW2 5748   0.454   0.768   3.978
 1617SOL     OW 5749   6.891   5.596   3.623
 1617SOL    HW1 5750   6.932   5.559   3.706
 1617SOL    HW2 5751   6.945   5.570   3.544
 1618SOL     OW 5752   3.669   5.677   2.796
 1618SOL    HW1 5753   3.611   5.600   2.822
 1618SOL    HW2 5754   3.711   5.716   2.878
 1619SOL     OW 5755   1.047   4.222   6.655
 1619SOL    HW1 5756   1.047   4.225   6.555
 1619SOL    HW2 5757   1.016   4.133   6.685
 1620SOL     OW 5758   3.462   6.847   3.988
 1620SOL    HW1 5759   3.391   6.864   3.919
 1620SOL    HW2 5760   3.545   6.897   3.964
 1621SOL     OW 5761   4.642   5.445   0.803
 1621SOL    HW1 5762   4.633   5.527   0.748
 1621SOL    HW2 5763   4.552   5.403   0.817
 1622SOL     OW 5764   6.110   4.617   4.068
 1622SOL    HW1 5765   6.061   4.531   4.084
 1622SOL    HW2 5766   6.047   4.693   4.077
 1623SOL     OW 5767   0.198   2.469   3.439
 1623SOL    HW1 5768   0.185   2.476   3.537
 1623SOL    HW2 5769   0.184   2.374   3.410
 1624SOL     OW 5770   3.597   3.082   0.400
 1624SOL    HW1 5771   3.668   3.059   0.333
 1624SOL    HW2 5772   3.638   3.133   0.475
 1625SOL     OW 5773   0.606   6.740   0.324
 1625SOL    HW1 5774   0.554   6.662   0.289
 1625SOL    HW2 5775   0.646   6.717   0.413
 1626SOL     OW 5776   2.518   1.934   1.915
 1626SOL    HW1 5777   2.574   1.923   1.834
 1626SOL    HW2 5778   2.509   2.032   1.937
 1627SOL     OW 5779   4.001   2.059   5.878
 1627SOL    HW1 5780   3.931   2.100   5.820
 1627SOL    HW2 5781   4.091   2.068   5.834
 1628SOL     OW 5782   5.201   6.543   0.854
 1628SOL    HW1 5783   5.276   6.607   0.837
 1628SOL    HW2 5784   5.232   6.450   0.837
 1629SOL     OW 5785   1.728   0.146   3.585
 1629SOL    HW1 5786   1.816   0.186   3.562
 1629SOL    HW2 5787   1.691   0.190   3.666
 1630SOL     OW 5788   0.614   3.620   5.878
 1630SOL    HW1 5789   0.638   3.524   5.885
 1630SOL    HW2 5790   0.629   3.652   5.784
 1631SOL     OW 5791   5.850   2.959   0.656
 1631SOL    HW1 5792   5.825   3.007   0.572
 1631SOL    HW2 5793   5.767   2.926   0.702
 1632SOL     OW 5794   6.718   5.897   2.103
 1632SOL    HW1 5795   6.629   5.861   2.131
 1632SOL    HW2 5796   6.762   5.941   2.182
 1633SOL     OW 5797   5.142   3.828   4.577
 1633SOL    HW1 5798   5.174   3.738   4.548
 1633SOL    HW2 5799   5.043   3.830   4.574
 1634SOL     OW 5800   1.043   3.654   5.557
 1634SOL    HW1 5801   1.089   3.570   5.586
 1634SOL    HW2 5802   1.008   3.701   5.638
 1635SOL     OW 5803   3.439   0.240   3.801
 1635SOL    HW1 5804   3.409   0.158   3.752
 1635SOL    HW2 5805   3.476   0.214   3.890
 1636SOL     OW 5806   6.549   5.690   1.322
 1636SOL    HW1 5807   6.450   5.681   1.333
 1636SOL    HW2 5808   6.570   5.761   1.255
 1637SOL     OW 5809   1.409   1.501   2.604
 1637SOL    HW1 5810   1.454   1.412   2.609
 1637SOL    HW2 5811   1.316   1.494   2.641
 1638SOL     OW 5812   5.116   2.045   2.478
 1638SOL    HW1 5813   5.129   2.144   2.473
 1638SOL    HW2 5814   5.147   2.012   2.567
 1639SOL     OW 5815   4.806   2.291   2.055
 1639SOL    HW1 5816   4.740   2.231   2.010
 1639SOL    HW2 5817   4.757   2.362   2.106
 1640SOL     OW 5818   5.973   0.793   6.700
 1640SOL    HW1 5819   6.031   0.762   6.775
 1640SOL    HW2 5820   6.003   0.883   6.670
 1641SOL     OW 5821   6.380   1.624   2.935
 1641SOL    HW1 5822   6.428   1.537   2.933
 1641SOL    HW2 5823   6.284   1.609   2.957
 1642SOL     OW 5824   0.046   3.520   6.240
 1642SOL    HW1 5825   0.068   3.438   6.188
 1642SOL    HW2 5826   0.063   3.504   6.337
 1643SOL     OW 5827   1.974   5.428   3.689
 1643SOL    HW1 5828   1.981   5.522   3.656
 1643SOL    HW2 5829   1.880   5.411   3.719
 1644SOL     OW 5830   6.384   1.947   1.775
 1644SOL    HW1 5831   6.375   2.043   1.801
 1644SOL    HW2 5832   6.446   1.939   1.697
 1645SOL     OW 5833   2.645   0.578   5.084
 1645SOL    HW1 5834   2.606   0.670   5.078
 1645SOL    HW2 5835   2.705   0.572   5.163
 1646SOL     OW 5836   0.897   5.528   1.159
 1646SOL    HW1 5837   0.976   5.468   1.154
 1646SOL    HW2 5838   0.813   5.475   1.145
 1647SOL     OW 5839   6.097   3.001   4.588
 1647SOL    HW1 5840   6.094   2.908   4.551
 1647SOL    HW2 5841   6.165   3.055   4.538
 1648SOL     OW 5842   5.985   5.881   2.041
 1648SOL    HW1 5843   6.014   5.877   1.946
 1648SOL    HW2 5844   5.887   5.904   2.045
 1649SOL     OW 5845   3.872   1.590   3.448
 1649SOL    HW1 5846   3.939   1.611   3.376
 1649SOL    HW2 5847   3.837   1.497   3.435
 1650SOL     OW 5848   3.071   2.678   5.507
 1650SOL    HW1 5849   3.146   2.729   5.548
 1650SOL    HW2 5850   3.106   2.623   5.431
 1651SOL     OW 5851   0.984   2.189   3.682
 1651SOL    HW1 5852   0.918   2.207   3.609
 1651SOL    HW2 5853   1.017   2.095   3.674
 1652SOL     OW 5854   0.399   3.659   1.799
 1652SOL    HW1 5855   0.360   3.603   1.872
 1652SOL    HW2 5856   0.441   3.599   1.730
 1653SOL     OW 5857   0.207   4.440   1.791
 1653SOL    HW1 5858   0.183   4.352   1.830
 1653SOL    HW2 5859   0.283   4.480   1.843
 1654SOL     OW 5860   0.236   3.908   1.746
 1654SOL    HW1 5861   0.251   3.837   1.814
 1654SOL    HW2 5862   0.217   3.995   1.792
 1655SOL     OW 5863   0.793   0.731   5.830
 1655SOL    HW1 5864   0.814   0.634   5.820
 1655SOL    HW2 5865   0.817   0.779   5.745
 1656SOL     OW 5866   2.144   4.070   3.508
 1656SOL    HW1 5867   2.167   4.042   3.415
 1656SOL    HW2 5868   2.224   4.110   3.552
 1657SOL     OW 5869   0.551   0.218   5.668
 1657SOL    HW1 5870   0.516   0.202   5.575
 1657SOL    HW2 5871   0.498   0.163   5.732
 1658SOL     OW 5872   4.851   6.679   6.319
 1658SOL    HW1 5873   4.930   6.620   6.305
 1658SOL    HW2 5874   4.808   6.698   6.231
 1659SOL     OW 5875   4.192   6.673   5.633
 1659SOL    HW1 5876   4.263   6.698   5.699
 1659SOL    HW2 5877   4.158   6.582   5.653
 1660SOL     OW 5878   2.331   0.804   1.852
 1660SOL    HW1 5879   2.344   0.785   1.949
 1660SOL    HW2 5880   2.326   0.903   1.837
 1661SOL     OW 5881   4.748   4.115   2.677
 1661SOL    HW1 5882   4.760   4.016   2.685
 1661SOL    HW2 5883   4.804   4.149   2.601
 1662SOL     OW 5884   0.038   2.034   3.963
 1662SOL    HW1 5885   0.106   1.971   3.925
 1662SOL    HW2 5886   6.966   1.997   3.948
 1663SOL     OW 5887   5.352   3.863   1.056
 1663SOL    HW1 5888   5.328   3.945   1.004
 1663SOL    HW2 5889   5.446   3.871   1.090
 1664SOL     OW 5890   1.667   0.228   6.256
 1664SOL    HW1 5891   1.573   0.258   6.275
 1664SOL    HW2 5892   1.695   0.261   6.166
 1665SOL     OW 5893   2.922   4.530   6.461
 1665SOL    HW1 5894   2.960   4.439   6.444
 1665SOL    HW2 5895   2.826   4.531   6.432
 1666SOL     OW 5896   5.085   6.458   6.613
 1666SOL    HW1 5897   5.093   6.557   6.623
 1666SOL    HW2 5898   5.126   6.413   6.693
 1667SOL     OW 5899   7.019   5.553   0.534
 1667SOL    HW1 5900   0.029   5.621   0.468
 1667SOL    HW2 5901   6.954   5.491   0.491
 1668SOL     OW 5902   5.965   3.192   2.034
 1668SOL    HW1 5903   6.044   3.190   2.095
 1668SOL    HW2 5904   5.992   3.161   1.942
 1669SOL     OW 5905   6.899   2.876   5.690
 1669SOL    HW1 5906   6.874   2.929   5.609
 1669SOL    HW2 5907   6.843   2.793   5.693
 1670SOL     OW 5908   3.212   4.485   5.607
 1670SOL    HW1 5909   3.156   4.486   5.525
 1670SOL    HW2 5910   3.175   4.419   5.673
 1671SOL     OW 5911   5.772   2.443   0.265
 1671SOL    HW1 5912   5.711   2.516   0.297
 1671SOL    HW2 5913   5.717   2.368   0.229
 1672SOL     OW 5914   0.479   2.093   1.691
 1672SOL    HW1 5915   0.442   2.180   1.655
 1672SOL    HW2 5916   0.475   2.024   1.619
 1673SOL     OW 5917   1.437   0.427   4.582
 1673SOL    HW1 5918   1.404   0.346   4.630
 1673SOL    HW2 5919   1.469   0.494   4.650
 1674SOL     OW 5920   5.085   2.072   2.970
 1674SOL    HW1 5921   4.988   2.086   2.987
 1674SOL    HW2 5922   5.100   2.057   2.872
 1675SOL     OW 5923   5.131   0.224   1.939
 1675SOL    HW1 5924   5.225   0.248   1.963
 1675SOL    HW2 5925   5.095   0.291   1.874
 1676SOL     OW 5926   0.867   2.116   3.938
 1676SOL    HW1 5927   0.880   2.155   3.847
 1676SOL    HW2 5928   0.824   2.183   3.998
 1677SOL     OW 5929   3.383   3.224   3.028
 1677SOL    HW1 5930   3.313   3.176   2.974
 1677SOL    HW2 5931   3.362   3.214   3.125
 1678SOL     OW 5932   0.892   0.368   0.403
 1678SOL    HW1 5933   0.928   0.428   0.475
 1678SOL    HW2 5934   0.938   0.388   0.317
 1679SOL     OW 5935   6.383   1.320   7.011
 1679SOL    HW1 5936   6.440   1.238   7.001
 1679SOL    HW2 5937   6.356   1.353   6.920
 1680SOL     OW 5938   5.771   2.779   2.940
 1680SOL    HW1 5939   5.811   2.727   2.864
 1680SOL    HW2 5940   5.724   2.716   3.002
 1681SOL     OW 5941   3.741   6.247   4.594
 1681SOL    HW1 5942   3.768   6.284   4.505
 1681SOL    HW2 5943   3.812   6.266   4.662
 1682SOL     OW 5944   4.061   0.349   4.660
 1682SOL    HW1 5945   4.066   0.449   4.661
 1682SOL    HW2 5946   4.097   0.314   4.573
 1683SOL     OW 5947   6.605   2.791   2.953
 1683SOL    HW1 5948   6.671   2.776   3.027
 1683SOL    HW2 5949   6.649   2.774   2.865
 1684SOL     OW 5950   2.680   5.767   1.517
 1684SOL    HW1 5951   2.643   5.798   1.429
 1684SOL    HW2 5952   2.780   5.762   1.511
 1685SOL     OW 5953   6.992   1.324   5.779
 1685SOL    HW1 5954   0.071   1.314   5.768
 1685SOL    HW2 5955   6.951   1.352   5.692
 1686SOL     OW 5956   3.561   5.215   1.961
 1686SOL    HW1 5957   3.546   5.230   2.058
 1686SOL    HW2 5958   3.659   5.213   1.942
 1687SOL     OW 5959   5.134   4.078   1.218
 1687SOL    HW1 5960   5.155   4.136   1.139
 1687SOL    HW2 5961   5.077   4.128   1.283
 1688SOL     OW 5962   2.268   0.438   3.416
 1688SOL    HW1 5963   2.192   0.467   3.475
 1688SOL    HW2 5964   2.342   0.403   3.472
 1689SOL     OW 5965   4.065   0.558   2.020
 1689SOL    HW1 5966   4.054   0.555   2.119
 1689SOL    HW2 5967   4.121   0.481   1.990
 1690SOL     OW 5968   6.562   4.742   3.998
 1690SOL    HW1 5969   6.522   4.661   3.957
 1690SOL    HW2 5970   6.495   4.787   4.056
 1691SOL     OW 5971   4.228   2.775   5.334
 1691SOL    HW1 5972   4.305   2.758   5.396
 1691SOL    HW2 5973   4.224   2.703   5.265
 1692SOL     OW 5974   5.232   5.176   1.486
 1692SOL    HW1 5975   5.266   5.265   1.455
 1692SOL    HW2 5976   5.142   5.188   1.530
 1693SOL     OW 5977   5.235   6.964   6.066
 1693SOL    HW1 5978   5.309   7.008   6.118
 1693SOL    HW2 5979   5.155   0.004   6.066
 1694SOL     OW 5980   4.615   1.634   6.389
 1694SOL    HW1 5981   4.624   1.535   6.392
 1694SOL    HW2 5982   4.649   1.674   6.474
 1695SOL     OW 5983   4.138   0.608   5.559
 1695SOL    HW1 5984   4.146   0.534   5.493
 1695SOL    HW2 5985   4.107   0.691   5.513
 1696SOL     OW 5986   3.963   6.899   0.798
 1696SOL    HW1 5987   3.904   6.977   0.776
 1696SOL    HW2 5988   4.015   6.872   0.717
 1697SOL     OW 5989   4.665   2.776   1.822
 1697SOL    HW1 5990   4.664   2.726   1.909
 1697SOL    HW2 5991   4.628   2.868   1.837
 1698SOL     OW 5992   4.260   1.707   1.328
 1698SOL    HW1 5993   4.195   1.691   1.254
 1698SOL    HW2 5994   4.326   1.632   1.332
 1699SOL     OW 5995   1.921   0.649   0.765
 1699SOL    HW1 5996   1.852   0.712   0.803
 1699SOL    HW2 5997   2.006   0.699   0.749
 1700SOL     OW 5998   5.244   3.330   2.535
 1700SOL    HW1 5999   5.219   3.335   2.632
 1700SOL    HW2 6000   5.182   3.387   2.482
 1701SOL     OW 6001   0.627   5.372   4.711
 1701SOL    HW1 6002   0.553   5.391   4.646
 1701SOL    HW2 6003   0.714   5.400   4.671
 1702SOL     OW 6004   2.618   2.970   6.693
 1702SOL    HW1 6005   2.596   2.873   6.682
 1702SOL    HW2 6006   2.562   3.024   6.629
 1703SOL     OW 6007   1.254   2.338   1.767
 1703SOL    HW1 6008   1.300   2.406   1.825
 1703SOL    HW2 6009   1.323   2.278   1.725
 1704SOL     OW 6010   2.827   3.046   6.998
 1704SOL    HW1 6011   2.876   3.051   0.067
 1704SOL    HW2 6012   2.741   3.095   7.005
 1705SOL     OW 6013   4.638   3.207   0.889
 1705SOL    HW1 6014   4.722   3.248   0.855
 1705SOL    HW2 6015   4.617   3.125   0.835
 1706SOL     OW 6016   5.908   1.743   6.435
 1706SOL    HW1 6017   5.880   1.678   6.506
 1706SOL    HW2 6018   5.992   1.711   6.391
 1707SOL     OW 6019   3.807   1.286   1.889
 1707SOL    HW1 6020   3.793   1.280   1.790
 1707SOL    HW2 6021   3.794   1.196   1.930
 1708SOL     OW 6022   2.667   4.790   1.868
 1708SOL    HW1 6023   2.713   4.715   1.917
 1708SOL    HW2 6024   2.719   4.810   1.784
 1709SOL     OW 6025   5.071   4.605   0.763
 1709SOL    HW1 6026   5.158   4.604   0.714
 1709SOL    HW2 6027   5.066   4.686   0.821
 1710SOL     OW 6028   4.907   2.978   2.287
 1710SOL    HW1 6029   4.838   2.986   2.215
 1710SOL    HW2 6030   4.988   3.030   2.262
 1711SOL     OW 6031   3.904   5.600   0.209
 1711SOL    HW1 6032   3.814   5.625   0.173
 1711SOL    HW2 6033   3.894   5.576   0.306
 1712SOL     OW 6034   0.238   1.871   1.847
 1712SOL    HW1 6035   0.247   1.773   1.865
 1712SOL    HW2 6036   0.308   1.921   1.899
 1713SOL     OW 6037   2.594   1.596   2.499
 1713SOL    HW1 6038   2.682   1.574   2.456
 1713SOL    HW2 6039   2.576   1.694   2.491
 1714SOL     OW 6040   2.324   4.112   0.993
 1714SOL    HW1 6041   2.229   4.140   0.979
 1714SOL    HW2 6042   2.357   4.151   1.079
 1715SOL     OW 6043   0.813   5.763   0.718
 1715SOL    HW1 6044   0.872   5.743   0.796
 1715SOL    HW2 6045   0.802   5.681   0.662
 1716SOL     OW 6046   4.846   1.133   2.730
 1716SOL    HW1 6047   4.924   1.126   2.666
 1716SOL    HW2 6048   4.782   1.201   2.696
 1717SOL     OW 6049   3.979   6.140   3.664
 1717SOL    HW1 6050   3.891   6.144   3.711
 1717SOL    HW2 6051   3.981   6.061   3.602
 1718SOL     OW 6052   1.899   3.401   1.658
 1718SOL    HW1 6053   1.835   3.470   1.691
 1718SOL    HW2 6054   1.964   3.378   1.731
 1719SOL     OW 6055   1.902   5.868   3.082
 1719SOL    HW1 6056   1.974   5.878   3.014
 1719SOL    HW2 6057   1.815   5.900   3.044
 1720SOL     OW 6058   1.017   3.210   5.265
 1720SOL    HW1 6059   0.971   3.121   5.275
 1720SOL    HW2 6060   1.116   3.196   5.265
 1721SOL     OW 6061   1.783   2.558   6.985
 1721SOL    HW1 6062   1.834   2.589   0.045
 1721SOL    HW2 6063   1.689   2.538   7.012
 1722SOL     OW 6064   2.179   2.405   3.409
 1722SOL    HW1 6065   2.080   2.391   3.408
 1722SOL    HW2 6066   2.214   2.389   3.502
 1723SOL     OW 6067   5.650   4.273   1.171
 1723SOL    HW1 6068   5.702   4.329   1.236
 1723SOL    HW2 6069   5.560   4.313   1.157
 1724SOL     OW 6070   5.144   2.419   0.780
 1724SOL    HW1 6071   5.049   2.429   0.812
 1724SOL    HW2 6072   5.201   2.386   0.856
 1725SOL     OW 6073   2.067   6.512   5.853
 1725SOL    HW1 6074   2.002   6.545   5.922
 1725SOL    HW2 6075   2.141   6.462   5.898
 1726SOL     OW 6076   4.771   4.555   2.784
 1726SOL    HW1 6077   4.793   4.550   2.881
 1726SOL    HW2 6078   4.731   4.468   2.754
 1727SOL     OW 6079   3.665   3.813   2.972
 1727SOL    HW1 6080   3.742   3.878   2.978
 1727SOL    HW2 6081   3.608   3.822   3.054
 1728SOL     OW 6082   5.672   2.305   4.073
 1728SOL    HW1 6083   5.600   2.369   4.100
 1728SOL    HW2 6084   5.687   2.238   4.147
 1729SOL     OW 6085   1.133   2.275   2.533
 1729SOL    HW1 6086   1.119   2.215   2.454
 1729SOL    HW2 6087   1.200   2.233   2.595
 1730SOL     OW 6088   2.479   6.573   4.951
 1730SOL    HW1 6089   2.515   6.490   4.994
 1730SOL    HW2 6090   2.500   6.572   4.854
 1731SOL     OW 6091   5.034   4.603   4.146
 1731SOL    HW1 6092   5.067   4.591   4.240
 1731SOL    HW2 6093   4.944   4.645   4.148
 1732SOL     OW 6094   3.029   3.476   5.412
 1732SOL    HW1 6095   3.063   3.558   5.459
 1732SOL    HW2 6096   3.026   3.399   5.476
 1733SOL     OW 6097   1.618   2.381   6.421
 1733SOL    HW1 6098   1.658   2.472   6.411
 1733SOL    HW2 6099   1.542   2.384   6.486
 1734SOL     OW 6100   0.303   3.158   0.895
 1734SOL    HW1 6101   0.245   3.160   0.814
 1734SOL    HW2 6102   0.354   3.244   0.902
 1735SOL     OW 6103   3.212   5.264   6.600
 1735SOL    HW1 6104   3.210   5.364   6.601
 1735SOL    HW2 6105   3.224   5.231   6.694
 1736SOL     OW 6106   5.222   2.300   6.297
 1736SOL    HW1 6107   5.219   2.397   6.274
 1736SOL    HW2 6108   5.199   2.288   6.394
 1737SOL     OW 6109   3.099   0.867   5.720
 1737SOL    HW1 6110   3.129   0.860   5.815
 1737SOL    HW2 6111   3.000   0.858   5.716
 1738SOL     OW 6112   1.380   3.823   2.227
 1738SOL    HW1 6113   1.447   3.870   2.168
 1738SOL    HW2 6114   1.320   3.891   2.269
 1739SOL     OW 6115   5.007   5.748   2.987
 1739SOL    HW1 6116   5.054   5.666   3.021
 1739SOL    HW2 6117   4.924   5.763   3.041
 1740SOL     OW 6118   0.213   3.209   4.839
 1740SOL    HW1 6119   0.288   3.190   4.776
 1740SOL    HW2 6120   0.208   3.136   4.908
 1741SOL     OW 6121   0.799   2.698   4.896
 1741SOL    HW1 6122   0.887   2.742   4.913
 1741SOL    HW2 6123   0.767   2.722   4.804
 1742SOL     OW 6124   6.611   6.880   0.084
 1742SOL    HW1 6125   6.533   6.825   0.055
 1742SOL    HW2 6126   6.579   6.956   0.141
 1743SOL     OW 6127   1.697   2.512   1.507
 1743SOL    HW1 6128   1.790   2.541   1.481
 1743SOL    HW2 6129   1.630   2.559   1.449
 1744SOL     OW 6130   3.287   2.308   5.515
 1744SOL    HW1 6131   3.285   2.385   5.451
 1744SOL    HW2 6132   3.268   2.223   5.466
 1745SOL     OW 6133   6.761   6.725   0.476
 1745SOL    HW1 6134   6.727   6.763   0.562
 1745SOL    HW2 6135   6.852   6.687   0.490
 1746SOL     OW 6136   2.648   4.617   3.148
 1746SOL    HW1 6137   2.602   4.568   3.222
 1746SOL    HW2 6138   2.616   4.583   3.060
 1747SOL     OW 6139   3.956   0.239   2.304
 1747SOL    HW1 6140   4.042   0.199   2.273
 1747SOL    HW2 6141   3.904   0.271   2.224
 1748SOL     OW 6142   6.892   2.156   4.132
 1748SOL    HW1 6143   6.814   2.094   4.139
 1748SOL    HW2 6144   6.961   2.116   4.072
 1749SOL     OW 6145   6.430   5.187   1.891
 1749SOL    HW1 6146   6.412   5.241   1.974
 1749SOL    HW2 6147   6.512   5.223   1.846
 1750SOL     OW 6148   3.088   0.785   0.625
 1750SOL    HW1 6149   3.071   0.758   0.530
 1750SOL    HW2 6150   3.024   0.856   0.652
 1751SOL     OW 6151   5.432   3.736   4.882
 1751SOL    HW1 6152   5.391   3.646   4.899
 1751SOL    HW2 6153   5.361   3.806   4.885
 1752SOL     OW 6154   6.927   0.719   2.526
 1752SOL    HW1 6155   6.862   0.704   2.601
 1752SOL    HW2 6156   6.943   0.817   2.516
 1753SOL     OW 6157   6.835   2.080   1.549
 1753SOL    HW1 6158   6.897   2.044   1.619
 1753SOL    HW2 6159   6.871   2.061   1.458
 1754SOL     OW 6160   3.182   5.473   3.633
 1754SOL    HW1 6161   3.205   5.390   3.582
 1754SOL    HW2 6162   3.112   5.452   3.701
 1755SOL     OW 6163   6.310   0.245   5.065
 1755SOL    HW1 6164   6.283   0.154   5.098
 1755SOL    HW2 6165   6.410   0.250   5.059
 1756SOL     OW 6166   4.597   5.977   1.007
 1756SOL    HW1 6167   4.645   5.998   0.922
 1756SOL    HW2 6168   4.501   5.958   0.988
 1757SOL     OW 6169   2.751   4.830   5.182
 1757SOL    HW1 6170   2.653   4.837   5.161
 1757SOL    HW2 6171   2.790   4.751   5.135
 1758SOL     OW 6172   1.258   6.219   3.774
 1758SOL    HW1 6173   1.330   6.289   3.777
 1758SOL    HW2 6174   1.285   6.147   3.710
 1759SOL     OW 6175   1.158   5.582   0.010
 1759SOL    HW1 6176   1.148   5.611   0.105
 1759SOL    HW2 6177   1.128   5.487   0.001
 1760SOL     OW 6178   6.458   1.637   4.695
 1760SOL    HW1 6179   6.456   1.550   4.646
 1760SOL    HW2 6180   6.392   1.634   4.770
 1761SOL     OW 6181   5.398   1.300   3.299
 1761SOL    HW1 6182   5.329   1.258   3.357
 1761SOL    HW2 6183   5.364   1.388   3.265
 1762SOL     OW 6184   0.913   1.348   5.796
 1762SOL    HW1 6185   0.937   1.432   5.846
 1762SOL    HW2 6186   0.910   1.367   5.698
 1763SOL     OW 6187   1.531   5.191   3.310
 1763SOL    HW1 6188   1.630   5.182   3.310
 1763SOL    HW2 6189   1.506   5.284   3.335
 1764SOL     OW 6190   0.612   5.986   3.133
 1764SOL    HW1 6191   0.632   6.040   3.214
 1764SOL    HW2 6192   0.648   6.032   3.052
 1765SOL     OW 6193   5.410   4.012   2.305
 1765SOL    HW1 6194   5.507   4.015   2.280
 1765SOL    HW2 6195   5.399   4.042   2.399
 1766SOL     OW 6196   4.700   4.461   4.287
 1766SOL    HW1 6197   4.774   4.422   4.342
 1766SOL    HW2 6198   4.613   4.446   4.333
 1767SOL     OW 6199   0.441   5.121   1.672
 1767SOL    HW1 6200   0.409   5.199   1.619
 1767SOL    HW2 6201   0.378   5.044   1.659
 1768SOL     OW 6202   4.578   4.425   2.366
 1768SOL    HW1 6203   4.479   4.419   2.348
 1768SOL    HW2 6204   4.593   4.435   2.464
 1769SOL     OW 6205   5.115   0.216   1.363
 1769SOL    HW1 6206   5.072   0.305   1.376
 1769SOL    HW2 6207   5.045   0.147   1.345
 1770SOL     OW 6208   1.863   5.259   0.495
 1770SOL    HW1 6209   1.826   5.239   0.404
 1770SOL    HW2 6210   1.913   5.179   0.528
 1771SOL     OW 6211   1.447   2.888   6.331
 1771SOL    HW1 6212   1.474   2.932   6.417
 1771SOL    HW2 6213   1.462   2.789   6.339
 1772SOL     OW 6214   2.171   3.981   3.209
 1772SOL    HW1 6215   2.129   3.900   3.251
 1772SOL    HW2 6216   2.177   3.967   3.110
 1773SOL     OW 6217   2.589   6.207   5.252
 1773SOL    HW1 6218   2.548   6.116   5.256
 1773SOL    HW2 6219   2.674   6.208   5.304
 1774SOL     OW 6220   5.609   5.916   1.450
 1774SOL    HW1 6221   5.536   5.927   1.517
 1774SOL    HW2 6222   5.580   5.853   1.378
 1775SOL     OW 6223   1.241   6.138   0.494
 1775SOL    HW1 6224   1.256   6.164   0.399
 1775SOL    HW2 6225   1.325   6.153   0.546
 1776SOL     OW 6226   4.733   3.470   5.844
 1776SOL    HW1 6227   4.689   3.494   5.758
 1776SOL    HW2 6228   4.824   3.433   5.825
 1777SOL     OW 6229   4.489   6.289   6.895
 1777SOL    HW1 6230   4.450   6.376   6.925
 1777SOL    HW2 6231   4.508   6.292   6.797
 1778SOL     OW 6232   6.148   0.168   3.780
 1778SOL    HW1 6233   6.150   0.256   3.732
 1778SOL    HW2 6234   6.129   0.184   3.877
 1779SOL     OW 6235   5.710   0.595   4.438
 1779SOL    HW1 6236   5.688   0.630   4.347
 1779SOL    HW2 6237   5.625   0.575   4.487
 1780SOL     OW 6238   3.077   6.021   5.188
 1780SOL    HW1 6239   3.122   6.111   5.192
 1780SOL    HW2 6240   2.981   6.034   5.164
 1781SOL     OW 6241   4.009   0.967   5.643
 1781SOL    HW1 6242   4.015   0.925   5.553
 1781SOL    HW2 6243   4.095   1.014   5.664
 1782SOL     OW 6244   5.213   1.027   2.266
 1782SOL    HW1 6245   5.165   0.945   2.235
 1782SOL    HW2 6246   5.225   1.090   2.189
 1783SOL     OW 6247   1.916   4.138   6.461
 1783SOL    HW1 6248   1.903   4.202   6.385
 1783SOL    HW2 6249   2.014   4.127   6.479
 1784SOL     OW 6250   2.672   6.254   1.179
 1784SOL    HW1 6251   2.579   6.270   1.146
 1784SOL    HW2 6252   2.730   6.224   1.103
 1785SOL     OW 6253   1.542   6.235   4.462
 1785SOL    HW1 6254   1.595   6.291   4.398
 1785SOL    HW2 6255   1.604   6.183   4.521
 1786SOL     OW 6256   0.687   6.015   1.599
 1786SOL    HW1 6257   0.621   6.082   1.564
 1786SOL    HW2 6258   0.774   6.062   1.618
 1787SOL     OW 6259   1.864   2.363   6.108
 1787SOL    HW1 6260   1.790   2.429   6.124
 1787SOL    HW2 6261   1.932   2.404   6.048
 1788SOL     OW 6262   3.945   4.016   0.136
 1788SOL    HW1 6263   3.872   3.954   0.165
 1788SOL    HW2 6264   4.027   3.963   0.112
 1789SOL     OW 6265   5.615   2.903   1.952
 1789SOL    HW1 6266   5.644   2.814   1.917
 1789SOL    HW2 6267   5.686   2.941   2.011
 1790SOL     OW 6268   1.863   1.722   4.863
 1790SOL    HW1 6269   1.843   1.729   4.765
 1790SOL    HW2 6270   1.857   1.813   4.905
 1791SOL     OW 6271   5.358   0.366   3.632
 1791SOL    HW1 6272   5.367   0.372   3.533
 1791SOL    HW2 6273   5.269   0.326   3.655
 1792SOL     OW 6274   6.634   2.503   6.456
 1792SOL    HW1 6275   6.722   2.456   6.459
 1792SOL    HW2 6276   6.636   2.583   6.516
 1793SOL     OW 6277   7.010   1.438   5.001
 1793SOL    HW1 6278   0.079   1.401   4.972
 1793SOL    HW2 6279   6.964   1.480   4.923
 1794SOL     OW 6280   0.474   1.527   6.367
 1794SOL    HW1 6281   0.503   1.529   6.463
 1794SOL    HW2 6282   0.492   1.437   6.329
 1795SOL     OW 6283   5.585   4.855   0.903
 1795SOL    HW1 6284   5.535   4.936   0.873
 1795SOL    HW2 6285   5.645   4.879   0.979
 1796SOL     OW 6286   6.158   7.002   0.714
 1796SOL    HW1 6287   6.222   0.049   0.752
 1796SOL    HW2 6288   6.178   6.911   0.752
 1797SOL     OW 6289   3.458   5.667   5.792
 1797SOL    HW1 6290   3.493   5.588   5.742
 1797SOL    HW2 6291   3.501   5.671   5.882
 1798SOL     OW 6292   2.127   3.458   5.712
 1798SOL    HW1 6293   2.131   3.538   5.653
 1798SOL    HW2 6294   2.128   3.487   5.808
 1799SOL     OW 6295   3.132   1.295   2.081
 1799SOL    HW1 6296   3.226   1.272   2.053
 1799SOL    HW2 6297   3.085   1.338   2.005
 1800SOL     OW 6298   6.374   2.998   6.035
 1800SOL    HW1 6299   6.360   3.063   5.961
 1800SOL    HW2 6300   6.470   2.999   6.063
 1801SOL     OW 6301   0.367   1.537   2.831
 1801SOL    HW1 6302   0.388   1.471   2.903
 1801SOL    HW2 6303   0.362   1.490   2.743
 1802SOL     OW 6304   5.763   4.967   4.121
 1802SOL    HW1 6305   5.716   4.993   4.206
 1802SOL    HW2 6306   5.862   4.974   4.134
 1803SOL     OW 6307   0.052   0.106   4.380
 1803SOL    HW1 6308   0.105   0.166   4.319
 1803SOL    HW2 6309   0.067   0.011   4.354
 1804SOL     OW 6310   1.187   2.673   6.629
 1804SOL    HW1 6311   1.120   2.718   6.570
 1804SOL    HW2 6312   1.266   2.732   6.640
 1805SOL     OW 6313   6.244   4.550   0.455
 1805SOL    HW1 6314   6.158   4.598   0.437
 1805SOL    HW2 6315   6.248   4.467   0.400
 1806SOL     OW 6316   0.802   2.038   1.473
 1806SOL    HW1 6317   0.881   1.985   1.442
 1806SOL    HW2 6318   0.718   1.991   1.447
 1807SOL     OW 6319   6.144   2.941   2.857
 1807SOL    HW1 6320   6.239   2.959   2.882
 1807SOL    HW2 6321   6.133   2.844   2.835
 1808SOL     OW 6322   5.547   0.816   6.297
 1808SOL    HW1 6323   5.623   0.831   6.361
 1808SOL    HW2 6324   5.538   0.718   6.279
 1809SOL     OW 6325   5.182   0.435   5.504
 1809SOL    HW1 6326   5.115   0.408   5.573
 1809SOL    HW2 6327   5.196   0.359   5.440
 1810SOL     OW 6328   1.337   1.199   4.426
 1810SOL    HW1 6329   1.288   1.137   4.365
 1810SOL    HW2 6330   1.394   1.147   4.489
 1811SOL     OW 6331   2.944   5.712   2.410
 1811SOL    HW1 6332   2.995   5.789   2.373
 1811SOL    HW2 6333   2.955   5.710   2.510
 1812SOL     OW 6334   4.030   0.180   6.478
 1812SOL    HW1 6335   3.956   0.202   6.542
 1812SOL    HW2 6336   4.050   0.260   6.422
 1813SOL     OW 6337   4.974   3.780   1.688
 1813SOL    HW1 6338   4.966   3.837   1.769
 1813SOL    HW2 6339   4.961   3.684   1.712
 1814SOL     OW 6340   6.732   5.739   0.823
 1814SOL    HW1 6341   6.693   5.808   0.762
 1814SOL    HW2 6342   6.698   5.752   0.916
 1815SOL     OW 6343   6.357   5.103   1.117
 1815SOL    HW1 6344   6.276   5.149   1.153
 1815SOL    HW2 6345   6.420   5.171   1.079
 1816SOL     OW 6346   4.235   5.103   4.527
 1816SOL    HW1 6347   4.168   5.097   4.453
 1816SOL    HW2 6348   4.214   5.181   4.585
 1817SOL     OW 6349   6.657   3.075   3.348
 1817SOL    HW1 6350   6.558   3.069   3.333
 1817SOL    HW2 6351   6.704   3.027   3.273
 1818SOL     OW 6352   2.020   1.502   0.563
 1818SOL    HW1 6353   2.015   1.448   0.479
 1818SOL    HW2 6354   2.044   1.442   0.640
 1819SOL     OW 6355   0.853   4.412   1.708
 1819SOL    HW1 6356   0.866   4.364   1.795
 1819SOL    HW2 6357   0.756   4.419   1.687
 1820SOL     OW 6358   4.343   0.374   5.143
 1820SOL    HW1 6359   4.393   0.433   5.205
 1820SOL    HW2 6360   4.300   0.429   5.071
 1821SOL     OW 6361   3.979   1.621   2.379
 1821SOL    HW1 6362   4.000   1.627   2.477
 1821SOL    HW2 6363   3.935   1.534   2.359
 1822SOL     OW 6364   1.696   4.125   4.327
 1822SOL    HW1 6365   1.731   4.149   4.236
 1822SOL    HW2 6366   1.607   4.082   4.319
 1823SOL     OW 6367   4.053   6.875   3.381
 1823SOL    HW1 6368   4.063   6.805   3.311
 1823SOL    HW2 6369   4.005   6.954   3.343
 1824SOL     OW 6370   4.515   3.060   1.680
 1824SOL    HW1 6371   4.502   3.157   1.656
 1824SOL    HW2 6372   4.586   3.053   1.750
 1825SOL     OW 6373   0.923   3.787   6.977
 1825SOL    HW1 6374   1.013   3.829   6.964
 1825SOL    HW2 6375   0.913   3.759   0.054
 1826SOL     OW 6376   3.550   2.670   0.594
 1826SOL    HW1 6377   3.621   2.604   0.569
 1826SOL    HW2 6378   3.482   2.675   0.521
 1827SOL     OW 6379   5.122   4.700   0.181
 1827SOL    HW1 6380   5.058   4.777   0.183
 1827SOL    HW2 6381   5.172   4.697   0.268
 1828SOL     OW 6382   2.225   4.778   4.762
 1828SOL    HW1 6383   2.163   4.760   4.686
 1828SOL    HW2 6384   2.245   4.693   4.811
 1829SOL     OW 6385   2.557   6.198   1.909
 1829SOL    HW1 6386   2.522   6.111   1.943
 1829SOL    HW2 6387   2.497   6.232   1.837
 1830SOL     OW 6388   4.565   1.342   6.157
 1830SOL    HW1 6389   4.476   1.350   6.200
 1830SOL    HW2 6390   4.555   1.299   6.067
 1831SOL     OW 6391   3.710   4.647   0.408
 1831SOL    HW1 6392   3.774   4.645   0.332
 1831SOL    HW2 6393   3.687   4.741   0.431
 1832SOL     OW 6394   1.913   3.548   5.444
 1832SOL    HW1 6395   1.878   3.498   5.523
 1832SOL    HW2 6396   1.986   3.610   5.474
 1833SOL     OW 6397   5.782   0.571   6.949
 1833SOL    HW1 6398   5.860   0.529   6.996
 1833SOL    HW2 6399   5.746   0.646   7.004
 1834SOL     OW 6400   1.443   3.792   6.620
 1834SOL    HW1 6401   1.503   3.813   6.698
 1834SOL    HW2 6402   1.382   3.717   6.644
 1835SOL     OW 6403   6.630   6.560   1.060
 1835SOL    HW1 6404   6.554   6.544   1.123
 1835SOL    HW2 6405   6.716   6.544   1.108
 1836SOL     OW 6406   5.864   1.741   2.810
 1836SOL    HW1 6407   5.782   1.715   2.758
 1836SOL    HW2 6408   5.864   1.841   2.822
 1837SOL     OW 6409   1.873   2.268   6.964
 1837SOL    HW1 6410   1.814   2.341   6.998
 1837SOL    HW2 6411   1.967   2.302   6.955
 1838SOL     OW 6412   4.579   0.225   0.768
 1838SOL    HW1 6413   4.641   0.270   0.704
 1838SOL    HW2 6414   4.629   0.197   0.850
 1839SOL     OW 6415   6.722   0.579   6.859
 1839SOL    HW1 6416   6.622   0.578   6.856
 1839SOL    HW2 6417   6.755   0.664   6.819
 1840SOL     OW 6418   4.182   0.142   4.912
 1840SOL    HW1 6419   4.160   0.076   4.840
 1840SOL    HW2 6420   4.098   0.181   4.949
 1841SOL     OW 6421   1.762   0.720   1.418
 1841SOL    HW1 6422   1.813   0.764   1.344
 1841SOL    HW2 6423   1.683   0.777   1.441
 1842SOL     OW 6424   6.775   5.061   1.484
 1842SOL    HW1 6425   6.814   5.109   1.562
 1842SOL    HW2 6426   6.702   5.115   1.444
 1843SOL     OW 6427   2.831   1.301   6.653
 1843SOL    HW1 6428   2.749   1.248   6.675
 1843SOL    HW2 6429   2.817   1.396   6.679
 1844SOL     OW 6430   5.298   2.858   6.980
 1844SOL    HW1 6431   5.267   2.807   6.900
 1844SOL    HW2 6432   5.223   2.915   7.014
 1845SOL     OW 6433   0.950   2.490   4.444
 1845SOL    HW1 6434   0.981   2.483   4.349
 1845SOL    HW2 6435   1.011   2.551   4.495
 1846SOL     OW 6436   3.204   1.017   1.559
 1846SOL    HW1 6437   3.294   1.002   1.518
 1846SOL    HW2 6438   3.208   1.096   1.620
 1847SOL     OW 6439   2.216   5.918   6.462
 1847SOL    HW1 6440   2.277   5.936   6.385
 1847SOL    HW2 6441   2.174   5.828   6.450
 1848SOL     OW 6442   4.149   6.320   3.329
 1848SOL    HW1 6443   4.196   6.290   3.246
 1848SOL    HW2 6444   4.201   6.393   3.372
 1849SOL     OW 6445   4.813   2.919   2.878
 1849SOL    HW1 6446   4.876   2.904   2.802
 1849SOL    HW2 6447   4.724   2.880   2.855
 1850SOL     OW 6448   4.235   1.564   0.866
 1850SOL    HW1 6449   4.167   1.634   0.886
 1850SOL    HW2 6450   4.324   1.593   0.902
 1851SOL     OW 6451   0.446   4.747   4.148
 1851SOL    HW1 6452   0.391   4.790   4.220
 1851SOL    HW2 6453   0.532   4.797   4.138
 1852SOL     OW 6454   0.355   6.407   3.761
 1852SOL    HW1 6455   0.403   6.487   3.726
 1852SOL    HW2 6456   0.261   6.406   3.726
 1853SOL     OW 6457   0.968   1.743   5.902
 1853SOL    HW1 6458   1.012   1.783   5.821
 1853SOL    HW2 6459   1.008   1.653   5.921
 1854SOL     OW 6460   0.163   0.208   4.061
 1854SOL    HW1 6461   0.171   0.302   4.093
 1854SOL    HW2 6462   0.255   0.171   4.043
 1855SOL     OW 6463   6.633   2.140   5.059
 1855SOL    HW1 6464   6.558   2.159   4.996
 1855SOL    HW2 6465   6.720   2.164   5.015
 1856SOL     OW 6466   5.024   4.238   0.045
 1856SOL    HW1 6467   5.105   4.280   0.086
 1856SOL    HW2 6468   4.972   4.190   0.116
 1857SOL     OW 6469   4.100   1.345   6.541
 1857SOL    HW1 6470   4.196   1.372   6.544
 1857SOL    HW2 6471   4.070   1.340   6.446
 1858SOL     OW 6472   5.474   2.010   4.836
 1858SOL    HW1 6473   5.481   1.944   4.762
 1858SOL    HW2 6474   5.517   1.973   4.919
 1859SOL     OW 6475   6.717   6.957   2.872
 1859SOL    HW1 6476   6.757   0.015   2.824
 1859SOL    HW2 6477   6.657   6.990   2.944
 1860SOL     OW 6478   2.623   1.118   6.022
 1860SOL    HW1 6479   2.628   1.170   6.107
 1860SOL    HW2 6480   2.653   1.024   6.038
 1861SOL     OW 6481   6.291   6.461   5.116
 1861SOL    HW1 6482   6.215   6.418   5.164
 1861SOL    HW2 6483   6.256   6.535   5.058
 1862SOL     OW 6484   2.879   5.803   6.192
 1862SOL    HW1 6485   2.908   5.713   6.161
 1862SOL    HW2 6486   2.917   5.874   6.132
 1863SOL     OW 6487   0.028   2.027   1.708
 1863SOL    HW1 6488   0.084   1.966   1.764
 1863SOL    HW2 6489   0.063   2.026   1.614
 1864SOL     OW 6490   2.416   6.319   1.717
 1864SOL    HW1 6491   2.432   6.366   1.631
 1864SOL    HW2 6492   2.319   6.322   1.740
 1865SOL     OW 6493   6.329   2.317   5.830
 1865SOL    HW1 6494   6.417   2.352   5.864
 1865SOL    HW2 6495   6.330   2.317   5.730
 1866SOL     OW 6496   6.988   4.404   4.137
 1866SOL    HW1 6497   6.984   4.413   4.037
 1866SOL    HW2 6498   6.902   4.434   4.177
 1867SOL     OW 6499   1.173   1.366   1.819
 1867SOL    HW1 6500   1.106   1.292   1.813
 1867SOL    HW2 6501   1.219   1.377   1.731
 1868SOL     OW 6502   5.195   3.895   6.385
 1868SOL    HW1 6503   5.295   3.899   6.383
 1868SOL    HW2 6504   5.158   3.987   6.394
 1869SOL     OW 6505   5.206   0.868   5.574
 1869SOL    HW1 6506   5.155   0.901   5.495
 1869SOL    HW2 6507   5.303   0.887   5.561
 1870SOL     OW 6508   6.074   0.438   6.306
 1870SOL    HW1 6509   5.999   0.503   6.292
 1870SOL    HW2 6510   6.067   0.365   6.237
 1871SOL     OW 6511   0.574   6.148   6.692
 1871SOL    HW1 6512   0.513   6.201   6.751
 1871SOL    HW2 6513   0.553   6.168   6.596
 1872SOL     OW 6514   2.563   3.140   1.293
 1872SOL    HW1 6515   2.485   3.182   1.340
 1872SOL    HW2 6516   2.562   3.166   1.197
 1873SOL     OW 6517   6.080   1.267   1.934
 1873SOL    HW1 6518   6.045   1.351   1.976
 1873SOL    HW2 6519   6.068   1.190   1.998
 1874SOL     OW 6520   1.076   6.271   6.369
 1874SOL    HW1 6521   1.151   6.227   6.319
 1874SOL    HW2 6522   1.002   6.205   6.383
 1875SOL     OW 6523   0.509   6.271   2.327
 1875SOL    HW1 6524   0.424   6.251   2.278
 1875SOL    HW2 6525   0.505   6.363   2.364
 1876SOL     OW 6526   0.954   4.370   0.928
 1876SOL    HW1 6527   0.940   4.277   0.960
 1876SOL    HW2 6528   1.044   4.377   0.885
 1877SOL     OW 6529   1.298   1.145   2.986
 1877SOL    HW1 6530   1.213   1.191   2.959
 1877SOL    HW2 6531   1.351   1.125   2.904
 1878SOL     OW 6532   5.197   4.006   4.266
 1878SOL    HW1 6533   5.152   3.918   4.250
 1878SOL    HW2 6534   5.266   3.996   4.337
 1879SOL     OW 6535   4.275   6.528   4.991
 1879SOL    HW1 6536   4.341   6.529   4.916
 1879SOL    HW2 6537   4.248   6.621   5.013
 1880SOL     OW 6538   1.274   2.248   4.469
 1880SOL    HW1 6539   1.342   2.320   4.456
 1880SOL    HW2 6540   1.226   2.231   4.382
 1881SOL     OW 6541   1.976   1.378   3.982
 1881SOL    HW1 6542   1.987   1.279   3.982
 1881SOL    HW2 6543   2.044   1.420   4.042
 1882SOL     OW 6544   2.906   5.649   0.612
 1882SOL    HW1 6545   2.849   5.615   0.686
 1882SOL    HW2 6546   2.849   5.677   0.535
 1883SOL     OW 6547   1.996   2.765   2.827
 1883SOL    HW1 6548   1.931   2.830   2.789
 1883SOL    HW2 6549   2.066   2.744   2.759
 1884SOL     OW 6550   4.754   0.348   0.595
 1884SOL    HW1 6551   4.838   0.300   0.573
 1884SOL    HW2 6552   4.759   0.442   0.561
 1885SOL     OW 6553   0.031   1.383   0.499
 1885SOL    HW1 6554   6.990   1.310   0.466
 1885SOL    HW2 6555   0.019   1.395   0.597
 1886SOL     OW 6556   3.761   2.760   5.572
 1886SOL    HW1 6557   3.773   2.667   5.605
 1886SOL    HW2 6558   3.669   2.792   5.594
 1887SOL     OW 6559   0.812   5.921   4.883
 1887SOL    HW1 6560   0.809   5.927   4.784
 1887SOL    HW2 6561   0.744   5.855   4.915
 1888SOL     OW 6562   1.632   1.790   5.927
 1888SOL    HW1 6563   1.608   1.886   5.910
 1888SOL    HW2 6564   1.572   1.752   5.997
 1889SOL     OW 6565   3.557   2.768   0.116
 1889SOL    HW1 6566   3.577   2.802   0.025
 1889SOL    HW2 6567   3.492   2.829   0.161
 1890SOL     OW 6568   6.096   5.848   6.447
 1890SOL    HW1 6569   6.157   5.816   6.520
 1890SOL    HW2 6570   6.054   5.769   6.403
 1891SOL     OW 6571   5.387   3.501   0.181
 1891SOL    HW1 6572   5.341   3.498   0.269
 1891SOL    HW2 6573   5.354   3.579   0.128
 1892SOL     OW 6574   4.095   0.409   3.447
 1892SOL    HW1 6575   4.126   0.485   3.504
 1892SOL    HW2 6576   4.174   0.358   3.415
 1893SOL     OW 6577   2.852   1.008   6.294
 1893SOL    HW1 6578   2.951   0.994   6.288
 1893SOL    HW2 6579   2.833   1.105   6.309
 1894SOL     OW 6580   4.931   3.091   0.651
 1894SOL    HW1 6581   4.839   3.062   0.629
 1894SOL    HW2 6582   4.928   3.172   0.711
 1895SOL     OW 6583   4.751   5.736   3.140
 1895SOL    HW1 6584   4.705   5.649   3.158
 1895SOL    HW2 6585   4.765   5.785   3.226
 1896SOL     OW 6586   6.498   2.279   5.288
 1896SOL    HW1 6587   6.567   2.257   5.219
 1896SOL    HW2 6588   6.538   2.275   5.379
 1897SOL     OW 6589   5.047   4.818   3.022
 1897SOL    HW1 6590   5.121   4.772   2.972
 1897SOL    HW2 6591   5.043   4.784   3.115
 1898SOL     OW 6592   5.332   6.435   0.120
 1898SOL    HW1 6593   5.340   6.532   0.142
 1898SOL    HW2 6594   5.283   6.425   0.033
 1899SOL     OW 6595   2.113   2.896   3.488
 1899SOL    HW1 6596   2.139   2.907   3.584
 1899SOL    HW2 6597   2.124   2.983   3.441
 1900SOL     OW 6598   2.033   5.632   1.699
 1900SOL    HW1 6599   2.000   5.668   1.786
 1900SOL    HW2 6600   2.084   5.548   1.714
 1901SOL     OW 6601   1.689   0.520   5.421
 1901SOL    HW1 6602   1.772   0.534   5.475
 1901SOL    HW2 6603   1.663   0.606   5.377
 1902SOL     OW 6604   1.188   3.007   4.028
 1902SOL    HW1 6605   1.105   2.958   4.055
 1902SOL    HW2 6606   1.181   3.037   3.933
 1903SOL     OW 6607   6.578   4.943   3.769
 1903SOL    HW1 6608   6.563   4.860   3.823
 1903SOL    HW2 6609   6.662   4.934   3.716
 1904SOL     OW 6610   0.481   0.158   4.390
 1904SOL    HW1 6611   0.578   0.135   4.392
 1904SOL    HW2 6612   0.427   0.082   4.426
 1905SOL     OW 6613   6.741   3.072   4.813
 1905SOL    HW1 6614   6.781   3.015   4.741
 1905SOL    HW2 6615   6.656   3.113   4.780
 1906SOL     OW 6616   2.506   6.448   5.433
 1906SOL    HW1 6617   2.509   6.454   5.533
 1906SOL    HW2 6618   2.420   6.405   5.405
 1907SOL     OW 6619   4.331   6.823   3.488
 1907SOL    HW1 6620   4.330   6.809   3.587
 1907SOL    HW2 6621   4.238   6.848   3.457
 1908SOL     OW 6622   4.810   5.739   0.831
 1908SOL    HW1 6623   4.774   5.825   0.796
 1908SOL    HW2 6624   4.845   5.683   0.756
 1909SOL     OW 6625   4.892   5.496   3.375
 1909SOL    HW1 6626   4.890   5.459   3.468
 1909SOL    HW2 6627   4.883   5.422   3.309
 1910SOL     OW 6628   4.883   3.197   4.548
 1910SOL    HW1 6629   4.864   3.137   4.626
 1910SOL    HW2 6630   4.874   3.145   4.463
 1911SOL     OW 6631   0.737   3.038   5.713
 1911SOL    HW1 6632   0.699   3.013   5.802
 1911SOL    HW2 6633   0.835   3.055   5.722
 1912SOL     OW 6634   3.559   6.163   3.245
 1912SOL    HW1 6635   3.628   6.223   3.285
 1912SOL    HW2 6636   3.520   6.206   3.164
 1913SOL     OW 6637   2.090   4.234   5.349
 1913SOL    HW1 6638   2.124   4.143   5.369
 1913SOL    HW2 6639   2.109   4.256   5.253
 1914SOL     OW 6640   4.123   1.468   4.901
 1914SOL    HW1 6641   4.124   1.383   4.955
 1914SOL    HW2 6642   4.042   1.521   4.926
 1915SOL     OW 6643   3.501   6.969   5.632
 1915SOL    HW1 6644   3.500   6.974   5.732
 1915SOL    HW2 6645   3.538   6.881   5.604
 1916SOL     OW 6646   3.553   6.220   2.523
 1916SOL    HW1 6647   3.478   6.230   2.457
 1916SOL    HW2 6648   3.580   6.124   2.527
 1917SOL     OW 6649   3.094   3.595   4.031
 1917SOL    HW1 6650   3.056   3.676   3.986
 1917SOL    HW2 6651   3.160   3.623   4.100
 1918SOL     OW 6652   6.833   6.590   5.517
 1918SOL    HW1 6653   6.833   6.565   5.613
 1918SOL    HW2 6654   6.838   6.507   5.461
 1919SOL     OW 6655   6.572   0.808   2.549
 1919SOL    HW1 6656   6.535   0.825   2.640
 1919SOL    HW2 6657   6.496   0.788   2.486
 1920SOL     OW 6658   6.578   6.286   4.472
 1920SOL    HW1 6659   6.570   6.386   4.475
 1920SOL    HW2 6660   6.614   6.258   4.383
 1921SOL     OW 6661   2.163   6.623   6.587
 1921SOL    HW1 6662   2.119   6.688   6.526
 1921SOL    HW2 6663   2.260   6.648   6.598
 1922SOL     OW 6664   3.776   4.287   0.788
 1922SOL    HW1 6665   3.701   4.246   0.839
 1922SOL    HW2 6666   3.769   4.262   0.692
 1923SOL     OW 6667   1.364   3.097   0.630
 1923SOL    HW1 6668   1.428   3.144   0.569
 1923SOL    HW2 6669   1.394   3.108   0.725
 1924SOL     OW 6670   0.809   3.927   0.904
 1924SOL    HW1 6671   0.849   3.842   0.869
 1924SOL    HW2 6672   0.712   3.930   0.880
 1925SOL     OW 6673   3.045   4.338   0.235
 1925SOL    HW1 6674   3.104   4.367   0.310
 1925SOL    HW2 6675   2.950   4.334   0.267
 1926SOL     OW 6676   0.416   0.556   3.503
 1926SOL    HW1 6677   0.456   0.645   3.524
 1926SOL    HW2 6678   0.402   0.505   3.588
 1927SOL     OW 6679   4.773   3.373   1.188
 1927SOL    HW1 6680   4.746   3.281   1.217
 1927SOL    HW2 6681   4.867   3.391   1.219
 1928SOL     OW 6682   0.183   5.534   4.606
 1928SOL    HW1 6683   0.125   5.567   4.532
 1928SOL    HW2 6684   0.140   5.456   4.651
 1929SOL     OW 6685   1.675   5.947   2.968
 1929SOL    HW1 6686   1.690   6.030   2.914
 1929SOL    HW2 6687   1.607   5.889   2.923
 1930SOL     OW 6688   6.830   5.280   6.392
 1930SOL    HW1 6689   6.800   5.211   6.458
 1930SOL    HW2 6690   6.796   5.256   6.301
 1931SOL     OW 6691   1.034   2.002   4.398
 1931SOL    HW1 6692   1.048   1.945   4.479
 1931SOL    HW2 6693   0.982   2.083   4.424
 1932SOL     OW 6694   6.026   3.496   2.788
 1932SOL    HW1 6695   5.991   3.431   2.855
 1932SOL    HW2 6696   5.969   3.578   2.788
 1933SOL     OW 6697   2.784   4.978   0.397
 1933SOL    HW1 6698   2.737   5.061   0.427
 1933SOL    HW2 6699   2.810   4.987   0.301
 1934SOL     OW 6700   6.742   6.208   2.888
 1934SOL    HW1 6701   6.820   6.146   2.893
 1934SOL    HW2 6702   6.744   6.257   2.801
 1935SOL     OW 6703   1.924   1.426   3.185
 1935SOL    HW1 6704   1.973   1.453   3.102
 1935SOL    HW2 6705   1.837   1.476   3.190
 1936SOL     OW 6706   6.395   6.077   5.314
 1936SOL    HW1 6707   6.481   6.106   5.272
 1936SOL    HW2 6708   6.370   6.142   5.386
 1937SOL     OW 6709   4.272   1.042   3.252
 1937SOL    HW1 6710   4.238   1.033   3.346
 1937SOL    HW2 6711   4.195   1.041   3.188
 1938SOL     OW 6712   5.642   0.970   4.605
 1938SOL    HW1 6713   5.666   1.047   4.664
 1938SOL    HW2 6714   5.555   0.932   4.636
 1939SOL     OW 6715   3.057   0.730   4.666
 1939SOL    HW1 6716   2.985   0.712   4.734
 1939SOL    HW2 6717   3.137   0.768   4.712
 1940SOL     OW 6718   6.211   5.789   6.147
 1940SOL    HW1 6719   6.217   5.783   6.247
 1940SOL    HW2 6720   6.223   5.884   6.119
 1941SOL     OW 6721   4.553   4.786   2.775
 1941SOL    HW1 6722   4.597   4.739   2.699
 1941SOL    HW2 6723   4.477   4.731   2.810
 1942SOL     OW 6724   0.018   3.895   3.265
 1942SOL    HW1 6725   7.016   3.859   3.356
 1942SOL    HW2 6726   0.097   3.847   3.227
 1943SOL     OW 6727   2.861   5.624   3.483
 1943SOL    HW1 6728   2.857   5.546   3.421
 1943SOL    HW2 6729   2.931   5.688   3.452
 1944SOL     OW 6730   0.341   6.857   2.308
 1944SOL    HW1 6731   0.328   6.793   2.233
 1944SOL    HW2 6732   0.368   6.807   2.390
 1945SOL     OW 6733   3.482   4.973   3.305
 1945SOL    HW1 6734   3.520   5.053   3.259
 1945SOL    HW2 6735   3.392   4.951   3.266
 1946SOL     OW 6736   1.473   6.662   6.846
 1946SOL    HW1 6737   1.453   6.731   6.916
 1946SOL    HW2 6738   1.469   6.705   6.756
 1947SOL     OW 6739   5.014   6.556   3.697
 1947SOL    HW1 6740   5.077   6.565   3.774
 1947SOL    HW2 6741   5.035   6.627   3.629
 1948SOL     OW 6742   6.361   3.897   5.017
 1948SOL    HW1 6743   6.459   3.897   5.035
 1948SOL    HW2 6744   6.334   3.984   4.976
 1949SOL     OW 6745   4.638   4.395   6.769
 1949SOL    HW1 6746   4.650   4.376   6.672
 1949SOL    HW2 6747   4.543   4.378   6.795
 1950SOL     OW 6748   3.408   5.117   0.995
 1950SOL    HW1 6749   3.485   5.157   1.045
 1950SOL    HW2 6750   3.388   5.026   1.033
 1951SOL     OW 6751   6.416   2.962   0.585
 1951SOL    HW1 6752   6.346   2.901   0.549
 1951SOL    HW2 6753   6.398   2.982   0.681
 1952SOL     OW 6754   3.520   2.875   5.065
 1952SOL    HW1 6755   3.596   2.924   5.021
 1952SOL    HW2 6756   3.433   2.916   5.038
 1953SOL     OW 6757   0.467   2.790   4.776
 1953SOL    HW1 6758   0.452   2.814   4.680
 1953SOL    HW2 6759   0.547   2.838   4.811
 1954SOL     OW 6760   2.890   1.983   3.390
 1954SOL    HW1 6761   2.962   1.914   3.397
 1954SOL    HW2 6762   2.804   1.945   3.424
 1955SOL     OW 6763   6.085   5.242   1.933
 1955SOL    HW1 6764   6.153   5.271   2.000
 1955SOL    HW2 6765   6.119   5.257   1.841
 1956SOL     OW 6766   5.430   5.764   2.622
 1956SOL    HW1 6767   5.509   5.783   2.563
 1956SOL    HW2 6768   5.459   5.770   2.718
 1957SOL     OW 6769   1.415   6.677   4.639
 1957SOL    HW1 6770   1.475   6.622   4.581
 1957SOL    HW2 6771   1.447   6.771   4.640
 1958SOL     OW 6772   4.459   3.184   5.922
 1958SOL    HW1 6773   4.425   3.119   5.991
 1958SOL    HW2 6774   4.439   3.149   5.831
 1959SOL     OW 6775   2.065   1.366   0.348
 1959SOL    HW1 6776   2.064   1.268   0.327
 1959SOL    HW2 6777   2.123   1.414   0.281
 1960SOL     OW 6778   6.020   5.824   2.312
 1960SOL    HW1 6779   6.046   5.832   2.216
 1960SOL    HW2 6780   5.955   5.897   2.335
 1961SOL     OW 6781   6.191   4.931   4.906
 1961SOL    HW1 6782   6.154   4.989   4.834
 1961SOL    HW2 6783   6.265   4.979   4.954
 1962SOL     OW 6784   6.872   6.869   3.901
 1962SOL    HW1 6785   6.774   6.851   3.886
 1962SOL    HW2 6786   6.883   6.956   3.949
 1963SOL     OW 6787   2.848   0.534   3.483
 1963SOL    HW1 6788   2.869   0.630   3.501
 1963SOL    HW2 6789   2.868   0.513   3.387
 1964SOL     OW 6790   6.100   3.522   2.062
 1964SOL    HW1 6791   6.024   3.488   2.117
 1964SOL    HW2 6792   6.171   3.452   2.055
 1965SOL     OW 6793   2.071   6.125   3.523
 1965SOL    HW1 6794   2.002   6.142   3.452
 1965SOL    HW2 6795   2.026   6.091   3.605
 1966SOL     OW 6796   6.162   6.985   6.926
 1966SOL    HW1 6797   6.102   6.905   6.937
 1966SOL    HW2 6798   6.108   0.043   6.893
 1967SOL     OW 6799   5.203   3.925   4.830
 1967SOL    HW1 6800   5.281   3.977   4.796
 1967SOL    HW2 6801   5.153   3.886   4.753
 1968SOL     OW 6802   3.982   5.161   4.917
 1968SOL    HW1 6803   3.914   5.146   4.845
 1968SOL    HW2 6804   3.947   5.127   5.004
 1969SOL     OW 6805   6.636   1.638   1.695
 1969SOL    HW1 6806   6.716   1.678   1.740
 1969SOL    HW2 6807   6.602   1.561   1.749
 1970SOL     OW 6808   1.977   0.505   3.511
 1970SOL    HW1 6809   1.962   0.485   3.608
 1970SOL    HW2 6810   1.901   0.468   3.457
 1971SOL     OW 6811   0.497   1.293   5.968
 1971SOL    HW1 6812   0.549   1.378   5.968
 1971SOL    HW2 6813   0.431   1.294   5.893
 1972SOL     OW 6814   1.786   0.369   3.359
 1972SOL    HW1 6815   1.847   0.342   3.285
 1972SOL    HW2 6816   1.691   0.351   3.332
 1973SOL     OW 6817   2.485   3.558   0.386
 1973SOL    HW1 6818   2.461   3.651   0.357
 1973SOL    HW2 6819   2.410   3.497   0.364
 1974SOL     OW 6820   6.086   0.004   4.387
 1974SOL    HW1 6821   6.054   6.997   4.296
 1974SOL    HW2 6822   6.130   0.093   4.382
 1975SOL     OW 6823   3.013   0.303   3.937
 1975SOL    HW1 6824   3.042   0.208   3.927
 1975SOL    HW2 6825   3.052   0.358   3.863
 1976SOL     OW 6826   6.508   4.071   6.571
 1976SOL    HW1 6827   6.528   4.071   6.473
 1976SOL    HW2 6828   6.592   4.051   6.621
 1977SOL     OW 6829   2.750   2.263   5.778
 1977SOL    HW1 6830   2.835   2.277   5.829
 1977SOL    HW2 6831   2.724   2.347   5.731
 1978SOL     OW 6832   6.815   2.241   5.759
 1978SOL    HW1 6833   6.788   2.178   5.831
 1978SOL    HW2 6834   6.833   2.191   5.675
 1979SOL     OW 6835   6.230   4.157   2.590
 1979SOL    HW1 6836   6.272   4.247   2.598
 1979SOL    HW2 6837   6.198   4.127   2.679
 1980SOL     OW 6838   2.726   0.851   1.698
 1980SOL    HW1 6839   2.715   0.905   1.781
 1980SOL    HW2 6840   2.666   0.772   1.701
 1981SOL     OW 6841   5.089   3.583   1.929
 1981SOL    HW1 6842   5.116   3.500   1.978
 1981SOL    HW2 6843   5.011   3.564   1.870
 1982SOL     OW 6844   6.671   6.584   5.174
 1982SOL    HW1 6845   6.770   6.572   5.184
 1982SOL    HW2 6846   6.623   6.525   5.239
 1983SOL     OW 6847   0.282   4.563   2.161
 1983SOL    HW1 6848   0.190   4.526   2.162
 1983SOL    HW2 6849   0.287   4.642   2.222
 1984SOL     OW 6850   4.706   0.752   4.939
 1984SOL    HW1 6851   4.658   0.840   4.941
 1984SOL    HW2 6852   4.704   0.715   4.846
 1985SOL     OW 6853   1.552   6.088   1.400
 1985SOL    HW1 6854   1.627   6.069   1.337
 1985SOL    HW2 6855   1.574   6.168   1.456
 1986SOL     OW 6856   0.009   2.211   6.896
 1986SOL    HW1 6857   6.941   2.233   6.940
 1986SOL    HW2 6858   0.037   2.287   6.837
 1987SOL     OW 6859   2.786   4.431   0.332
 1987SOL    HW1 6860   2.828   4.446   0.422
 1987SOL    HW2 6861   2.708   4.370   0.342
 1988SOL     OW 6862   4.747   3.605   0.259
 1988SOL    HW1 6863   4.680   3.678   0.276
 1988SOL    HW2 6864   4.739   3.535   0.329
 1989SOL     OW 6865   1.986   1.898   4.334
 1989SOL    HW1 6866   2.000   1.962   4.258
 1989SOL    HW2 6867   2.044   1.924   4.411
 1990SOL     OW 6868   1.445   0.727   2.863
 1990SOL    HW1 6869   1.521   0.668   2.890
 1990SOL    HW2 6870   1.467   0.773   2.777
 1991SOL     OW 6871   4.121   5.633   2.872
 1991SOL    HW1 6872   4.217   5.604   2.873
 1991SOL    HW2 6873   4.100   5.680   2.957
 1992SOL     OW 6874   2.836   6.095   4.930
 1992SOL    HW1 6875   2.863   6.005   4.965
 1992SOL    HW2 6876   2.830   6.160   5.006
 1993SOL     OW 6877   3.075   3.210   4.358
 1993SOL    HW1 6878   3.109   3.141   4.295
 1993SOL    HW2 6879   2.984   3.240   4.330
 1994SOL     OW 6880   6.023   2.462   1.767
 1994SOL    HW1 6881   6.011   2.444   1.670
 1994SOL    HW2 6882   5.933   2.464   1.812
 1995SOL     OW 6883   3.944   2.501   1.639
 1995SOL    HW1 6884   3.914   2.411   1.671
 1995SOL    HW2 6885   4.016   2.491   1.572
 1996SOL     OW 6886   2.845   4.344   5.330
 1996SOL    HW1 6887   2.934   4.324   5.290
 1996SOL    HW2 6888   2.837   4.442   5.346
 1997SOL     OW 6889   5.833   6.699   3.511
 1997SOL    HW1 6890   5.932   6.690   3.514
 1997SOL    HW2 6891   5.798   6.657   3.427
 1998SOL     OW 6892   3.271   5.356   4.794
 1998SOL    HW1 6893   3.306   5.267   4.764
 1998SOL    HW2 6894   3.229   5.347   4.884
 1999SOL     OW 6895   2.572   1.150   1.756
 1999SOL    HW1 6896   2.506   1.184   1.823
 1999SOL    HW2 6897   2.650   1.110   1.804
 2000SOL     OW 6898   3.298   1.387   4.891
 2000SOL    HW1 6899   3.215   1.386   4.835
 2000SOL    HW2 6900   3.372   1.339   4.843
 2001SOL     OW 6901   2.258   3.650   0.001
 2001SOL    HW1 6902   2.301   3.570   6.979
 2001SOL    HW2 6903   2.290   3.732   6.973
 2002SOL     OW 6904   1.119   5.230   4.914
 2002SOL    HW1 6905   1.030   5.272   4.934
 2002SOL    HW2 6906   1.109   5.131   4.911
 2003SOL     OW 6907   6.687   4.569   3.125
 2003SOL    HW1 6908   6.754   4.539   3.193
 2003SOL    HW2 6909   6.732   4.622   3.054
 2004SOL     OW 6910   2.973   6.965   6.464
 2004SOL    HW1 6911   3.054   6.916   6.432
 2004SOL    HW2 6912   2.922   6.909   6.529
 2005SOL     OW 6913   3.015   6.716   5.371
 2005SOL    HW1 6914   3.052   6.686   5.283
 2005SOL    HW2 6915   3.054   6.660   5.444
 2006SOL     OW 6916   5.234   6.838   3.259
 2006SOL    HW1 6917   5.171   6.780   3.310
 2006SOL    HW2 6918   5.328   6.817   3.286
 2007SOL     OW 6919   6.336   5.364   6.905
 2007SOL    HW1 6920   6.377   5.454   6.890
 2007SOL    HW2 6921   6.360   5.303   6.830
 2008SOL     OW 6922   6.840   6.324   4.870
 2008SOL    HW1 6923   6.768   6.282   4.815
 2008SOL    HW2 6924   6.928   6.281   4.848
 2009SOL     OW 6925   0.869   0.656   0.129
 2009SOL    HW1 6926   0.771   0.638   0.119
 2009SOL    HW2 6927   0.899   0.717   0.055
 2010SOL     OW 6928   1.369   0.424   1.218
 2010SOL    HW1 6929   1.463   0.390   1.209
 2010SOL    HW2 6930   1.330   0.437   1.127
 2011SOL     OW 6931   0.098   2.309   5.306
 2011SOL    HW1 6932   0.080   2.300   5.404
 2011SOL    HW2 6933   0.058   2.231   5.258
 2012SOL     OW 6934   6.763   3.538   0.993
 2012SOL    HW1 6935   6.845   3.535   0.935
 2012SOL    HW2 6936   6.689   3.489   0.948
 2013SOL     OW 6937   4.081   1.765   2.192
 2013SOL    HW1 6938   3.998   1.803   2.150
 2013SOL    HW2 6939   4.057   1.683   2.244
 2014SOL     OW 6940   3.019   5.884   3.482
 2014SOL    HW1 6941   2.945   5.924   3.537
 2014SOL    HW2 6942   3.078   5.956   3.448
 2015SOL     OW 6943   3.159   6.750   0.031
 2015SOL    HW1 6944   3.259   6.746   0.032
 2015SOL    HW2 6945   3.124   6.735   0.124
 2016SOL     OW 6946   6.361   5.716   4.147
 2016SOL    HW1 6947   6.348   5.774   4.067
 2016SOL    HW2 6948   6.290   5.736   4.215
 2017SOL     OW 6949   2.225   5.038   2.274
 2017SOL    HW1 6950   2.265   4.958   2.228
 2017SOL    HW2 6951   2.224   5.115   2.210
 2018SOL     OW 6952   0.416   4.127   6.239
 2018SOL    HW1 6953   0.333   4.109   6.291
 2018SOL    HW2 6954   0.440   4.046   6.185
 2019SOL     OW 6955   5.740   1.905   3.337
 2019SOL    HW1 6956   5.733   1.908   3.437
 2019SOL    HW2 6957   5.835   1.886   3.311
 2020SOL     OW 6958   1.742   5.532   3.439
 2020SOL    HW1 6959   1.811   5.530   3.511
 2020SOL    HW2 6960   1.701   5.623   3.435
 2021SOL     OW 6961   2.037   0.084   1.608
 2021SOL    HW1 6962   1.998   0.171   1.638
 2021SOL    HW2 6963   2.098   0.048   1.678
 2022SOL     OW 6964   2.527   4.897   0.948
 2022SOL    HW1 6965   2.586   4.903   1.029
 2022SOL    HW2 6966   2.475   4.812   0.951
 2023SOL     OW 6967   6.223   1.391   6.521
 2023SOL    HW1 6968   6.215   1.400   6.421
 2023SOL    HW2 6969   6.141   1.426   6.564
 2024SOL     OW 6970   6.078   0.353   2.696
 2024SOL    HW1 6971   6.104   0.280   2.759
 2024SOL    HW2 6972   6.159   0.409   2.675
 2025SOL     OW 6973   6.107   0.813   1.225
 2025SOL    HW1 6974   6.094   0.731   1.280
 2025SOL    HW2 6975   6.023   0.867   1.225
 2026SOL     OW 6976   1.513   1.815   5.211
 2026SOL    HW1 6977   1.598   1.770   5.237
 2026SOL    HW2 6978   1.497   1.803   5.113
 2027SOL     OW 6979   0.597   1.068   2.716
 2027SOL    HW1 6980   0.543   0.984   2.721
 2027SOL    HW2 6981   0.644   1.072   2.627
 2028SOL     OW 6982   3.702   4.084   5.929
 2028SOL    HW1 6983   3.707   4.004   5.870
 2028SOL    HW2 6984   3.745   4.162   5.883
 2029SOL     OW 6985   1.560   0.783   0.515
 2029SOL    HW1 6986   1.644   0.737   0.486
 2029SOL    HW2 6987   1.534   0.753   0.606
 2030SOL     OW 6988   1.771   2.741   3.132
 2030SOL    HW1 6989   1.794   2.837   3.116
 2030SOL    HW2 6990   1.846   2.697   3.183
 2031SOL     OW 6991   5.705   0.153   2.674
 2031SOL    HW1 6992   5.775   0.169   2.604
 2031SOL    HW2 6993   5.719   0.063   2.715
 2032SOL     OW 6994   4.909   5.880   1.452
 2032SOL    HW1 6995   4.969   5.802   1.434
 2032SOL    HW2 6996   4.896   5.932   1.368
 2033SOL     OW 6997   6.677   5.118   6.586
 2033SOL    HW1 6998   6.712   5.025   6.591
 2033SOL    HW2 6999   6.594   5.120   6.531
 2034SOL     OW 7000   2.462   6.763   3.716
 2034SOL    HW1 7001   2.452   6.859   3.690
 2034SOL    HW2 7002   2.415   6.706   3.649
 2035SOL     OW 7003   0.086   2.631   1.503
 2035SOL    HW1 7004   0.185   2.623   1.505
 2035SOL    HW2 7005   0.045   2.541   1.514
 2036SOL     OW 7006   0.434   4.087   0.737
 2036SOL    HW1 7007   0.343   4.126   0.725
 2036SOL    HW2 7008   0.502   4.160   0.742
 2037SOL     OW 7009   0.232   2.002   6.446
 2037SOL    HW1 7010   0.328   2.022   6.467
 2037SOL    HW2 7011   0.224   1.908   6.413
 2038SOL     OW 7012   1.214   0.244   5.011
 2038SOL    HW1 7013   1.252   0.329   4.974
 2038SOL    HW2 7014   1.215   0.248   5.111
 2039SOL     OW 7015   1.255   5.574   2.203
 2039SOL    HW1 7016   1.304   5.562   2.116
 2039SOL    HW2 7017   1.158   5.556   2.189
 2040SOL     OW 7018   4.029   3.892   4.571
 2040SOL    HW1 7019   3.964   3.821   4.544
 2040SOL    HW2 7020   3.988   3.951   4.640
 2041SOL     OW 7021   5.729   3.262   0.216
 2041SOL    HW1 7022   5.764   3.248   0.124
 2041SOL    HW2 7023   5.727   3.360   0.236
 2042SOL     OW 7024   3.153   6.011   0.245
 2042SOL    HW1 7025   3.131   5.930   0.298
 2042SOL    HW2 7026   3.197   5.984   0.159
 2043SOL     OW 7027   4.395   5.043   2.418
 2043SOL    HW1 7028   4.417   4.949   2.392
 2043SOL    HW2 7029   4.343   5.087   2.345
 2044SOL     OW 7030   6.313   0.897   2.033
 2044SOL    HW1 7031   6.393   0.876   2.089
 2044SOL    HW2 7032   6.324   0.855   1.943
 2045SOL     OW 7033   2.380   6.217   5.860
 2045SOL    HW1 7034   2.455   6.157   5.890
 2045SOL    HW2 7035   2.334   6.255   5.940
 2046SOL     OW 7036   6.178   0.147   4.847
 2046SOL    HW1 7037   6.092   0.191   4.824
 2046SOL    HW2 7038   6.227   0.202   4.915
 2047SOL     OW 7039   5.131   2.521   0.141
 2047SOL    HW1 7040   5.205   2.541   0.207
 2047SOL    HW2 7041   5.171   2.504   0.051
 2048SOL     OW 7042   4.361   6.531   5.436
 2048SOL    HW1 7043   4.371   6.551   5.534
 2048SOL    HW2 7044   4.305   6.449   5.424
 2049SOL     OW 7045   4.688   6.291   0.306
 2049SOL    HW1 7046   4.589   6.289   0.293
 2049SOL    HW2 7047   4.729   6.211   0.263
 2050SOL     OW 7048   5.544   0.835   3.948
 2050SOL    HW1 7049   5.504   0.772   3.881
 2050SOL    HW2 7050   5.522   0.929   3.923
 2051SOL     OW 7051   2.379   5.283   0.823
 2051SOL    HW1 7052   2.433   5.349   0.875
 2051SOL    HW2 7053   2.288   5.274   0.863
 2052SOL     OW 7054   1.489   3.109   0.882
 2052SOL    HW1 7055   1.496   3.174   0.958
 2052SOL    HW2 7056   1.566   3.046   0.884
 2053SOL     OW 7057   5.182   0.813   0.182
 2053SOL    HW1 7058   5.196   0.717   0.206
 2053SOL    HW2 7059   5.085   0.830   0.166
 2054SOL     OW 7060   0.030   3.713   1.614
 2054SOL    HW1 7061   0.114   3.747   1.572
 2054SOL    HW2 7062   6.985   3.789   1.625
 2055SOL     OW 7063   6.171   1.746   4.197
 2055SOL    HW1 7064   6.131   1.834   4.171
 2055SOL    HW2 7065   6.269   1.747   4.178
 2056SOL     OW 7066   0.888   0.126   2.125
 2056SOL    HW1 7067   0.810   0.071   2.099
 2056SOL    HW2 7068   0.970   0.068   2.131
 2057SOL     OW 7069   6.456   2.081   4.351
 2057SOL    HW1 7070   6.442   1.988   4.386
 2057SOL    HW2 7071   6.384   2.141   4.388
 2058SOL     OW 7072   0.857   1.324   1.825
 2058SOL    HW1 7073   0.767   1.354   1.790
 2058SOL    HW2 7074   0.914   1.404   1.842
 2059SOL     OW 7075   1.894   0.542   6.756
 2059SOL    HW1 7076   1.925   0.528   6.662
 2059SOL    HW2 7077   1.973   0.536   6.818
 2060SOL     OW 7078   0.277   5.466   2.078
 2060SOL    HW1 7079   0.276   5.521   1.994
 2060SOL    HW2 7080   0.360   5.488   2.130
 2061SOL     OW 7081   0.880   1.200   1.383
 2061SOL    HW1 7082   0.908   1.240   1.296
 2061SOL    HW2 7083   0.897   1.101   1.382
 2062SOL     OW 7084   4.069   0.530   3.865
 2062SOL    HW1 7085   4.003   0.454   3.872
 2062SOL    HW2 7086   4.152   0.498   3.820
 2063SOL     OW 7087   2.431   1.986   0.346
 2063SOL    HW1 7088   2.391   2.014   0.258
 2063SOL    HW2 7089   2.441   2.066   0.405
 2064SOL     OW 7090   0.807   1.858   0.137
 2064SOL    HW1 7091   0.804   1.849   0.038
 2064SOL    HW2 7092   0.737   1.799   0.178
 2065SOL     OW 7093   6.364   2.949   2.205
 2065SOL    HW1 7094   6.365   2.867   2.147
 2065SOL    HW2 7095   6.420   2.934   2.286
 2066SOL     OW 7096   1.586   6.820   2.836
 2066SOL    HW1 7097   1.662   6.873   2.799
 2066SOL    HW2 7098   1.502   6.875   2.834
 2067SOL     OW 7099   6.563   6.975   0.911
 2067SOL    HW1 7100   6.488   0.011   0.873
 2067SOL    HW2 7101   6.637   0.016   0.941
 2068SOL     OW 7102   2.064   1.304   4.909
 2068SOL    HW1 7103   2.057   1.393   4.863
 2068SOL    HW2 7104   2.137   1.250   4.866
 2069SOL     OW 7105   0.617   1.694   2.027
 2069SOL    HW1 7106   0.672   1.690   1.944
 2069SOL    HW2 7107   0.665   1.649   2.102
 2070SOL     OW 7108   0.980   0.825   2.950
 2070SOL    HW1 7109   1.078   0.842   2.942
 2070SOL    HW2 7110   0.962   0.772   3.033
 2071SOL     OW 7111   2.006   6.116   4.986
 2071SOL    HW1 7112   1.999   6.017   5.001
 2071SOL    HW2 7113   2.075   6.134   4.916
 2072SOL     OW 7114   4.669   4.687   2.090
 2072SOL    HW1 7115   4.613   4.648   2.017
 2072SOL    HW2 7116   4.684   4.618   2.161
 2073SOL     OW 7117   3.777   6.091   5.349
 2073SOL    HW1 7118   3.804   6.171   5.295
 2073SOL    HW2 7119   3.815   6.098   5.441
 2074SOL     OW 7120   6.172   2.035   2.262
 2074SOL    HW1 7121   6.241   2.085   2.313
 2074SOL    HW2 7122   6.205   2.020   2.168
 2075SOL     OW 7123   3.900   3.735   6.500
 2075SOL    HW1 7124   3.953   3.809   6.541
 2075SOL    HW2 7125   3.804   3.762   6.496
 2076SOL     OW 7126   4.700   0.242   1.066
 2076SOL    HW1 7127   4.738   0.176   1.130
 2076SOL    HW2 7128   4.601   0.229   1.060
 2077SOL     OW 7129   5.169   1.450   3.730
 2077SOL    HW1 7130   5.086   1.486   3.686
 2077SOL    HW2 7131   5.250   1.486   3.684
 2078SOL     OW 7132   4.059   5.651   4.946
 2078SOL    HW1 7133   3.985   5.656   4.879
 2078SOL    HW2 7134   4.075   5.556   4.972
 2079SOL     OW 7135   6.001   0.643   3.668
 2079SOL    HW1 7136   5.972   0.715   3.730
 2079SOL    HW2 7137   6.059   0.683   3.596
 2080SOL     OW 7138   2.858   2.219   4.131
 2080SOL    HW1 7139   2.779   2.158   4.141
 2080SOL    HW2 7140   2.847   2.274   4.048
 2081SOL     OW 7141   0.884   5.803   4.370
 2081SOL    HW1 7142   0.830   5.772   4.292
 2081SOL    HW2 7143   0.981   5.780   4.355
 2082SOL     OW 7144   4.831   0.641   2.192
 2082SOL    HW1 7145   4.772   0.721   2.195
 2082SOL    HW2 7146   4.784   0.565   2.147
 2083SOL     OW 7147   3.531   4.920   5.809
 2083SOL    HW1 7148   3.504   4.913   5.713
 2083SOL    HW2 7149   3.465   4.976   5.859
 2084SOL     OW 7150   0.198   2.818   2.473
 2084SOL    HW1 7151   0.234   2.802   2.381
 2084SOL    HW2 7152   0.215   2.738   2.530
 2085SOL     OW 7153   5.114   6.142   6.499
 2085SOL    HW1 7154   5.195   6.144   6.558
 2085SOL    HW2 7155   5.092   6.047   6.475
 2086SOL     OW 7156   3.494   5.115   0.400
 2086SOL    HW1 7157   3.440   5.038   0.368
 2086SOL    HW2 7158   3.457   5.147   0.488
 2087SOL     OW 7159   6.512   5.674   3.788
 2087SOL    HW1 7160   6.488   5.587   3.743
 2087SOL    HW2 7161   6.429   5.729   3.799
 2088SOL     OW 7162   2.265   0.544   0.940
 2088SOL    HW1 7163   2.349   0.503   0.906
 2088SOL    HW2 7164   2.189   0.481   0.929
 2089SOL     OW 7165   2.908   1.294   6.376
 2089SOL    HW1 7166   3.007   1.308   6.371
 2089SOL    HW2 7167   2.881   1.286   6.472
 2090SOL     OW 7168   3.484   2.948   3.924
 2090SOL    HW1 7169   3.501   2.901   4.012
 2090SOL    HW2 7170   3.387   2.944   3.903
 2091SOL     OW 7171   2.051   5.464   0.716
 2091SOL    HW1 7172   2.118   5.536   0.702
 2091SOL    HW2 7173   2.074   5.411   0.798
 2092SOL     OW 7174   0.250   6.301   1.451
 2092SOL    HW1 7175   0.348   6.288   1.466
 2092SOL    HW2 7176   0.222   6.390   1.486
 2093SOL     OW 7177   0.697   2.769   1.605
 2093SOL    HW1 7178   0.726   2.784   1.510
 2093SOL    HW2 7179   0.730   2.845   1.662
 2094SOL     OW 7180   6.360   0.362   1.778
 2094SOL    HW1 7181   6.278   0.342   1.724
 2094SOL    HW2 7182   6.333   0.402   1.865
 2095SOL     OW 7183   6.800   4.698   4.755
 2095SOL    HW1 7184   6.785   4.733   4.662
 2095SOL    HW2 7185   6.890   4.726   4.788
 2096SOL     OW 7186   4.893   3.877   3.569
 2096SOL    HW1 7187   4.830   3.901   3.496
 2096SOL    HW2 7188   4.921   3.781   3.559
 2097SOL     OW 7189   6.370   3.496   0.119
 2097SOL    HW1 7190   6.416   3.572   0.073
 2097SOL    HW2 7191   6.271   3.506   0.112
 2098SOL     OW 7192   4.602   0.216   3.884
 2098SOL    HW1 7193   4.647   0.139   3.932
 2098SOL    HW2 7194   4.531   0.254   3.943
 2099SOL     OW 7195   2.943   1.997   2.999
 2099SOL    HW1 7196   3.009   2.007   3.074
 2099SOL    HW2 7197   2.943   1.903   2.966
 2100SOL     OW 7198   3.781   4.419   6.642
 2100SOL    HW1 7199   3.761   4.323   6.621
 2100SOL    HW2 7200   3.720   4.451   6.714
 2101SOL     OW 7201   6.960   0.597   2.950
 2101SOL    HW1 7202   6.967   0.640   3.040
 2101SOL    HW2 7203   7.008   0.509   2.951
 2102SOL     OW 7204   0.266   4.886   1.659
 2102SOL    HW1 7205   0.169   4.897   1.683
 2102SOL    HW2 7206   0.273   4.829   1.577
 2103SOL     OW 7207   2.352   3.825   6.230
 2103SOL    HW1 7208   2.440   3.831   6.277
 2103SOL    HW2 7209   2.325   3.916   6.198
 2104SOL     OW 7210   1.215   3.854   5.193
 2104SOL    HW1 7211   1.172   3.880   5.280
 2104SOL    HW2 7212   1.304   3.813   5.211
 2105SOL     OW 7213   6.303   5.611   1.435
 2105SOL    HW1 7214   6.204   5.628   1.440
 2105SOL    HW2 7215   6.329   5.544   1.505
 2106SOL     OW 7216   5.613   5.518   6.500
 2106SOL    HW1 7217   5.686   5.542   6.437
 2106SOL    HW2 7218   5.527   5.510   6.450
 2107SOL     OW 7219   2.816   4.661   0.175
 2107SOL    HW1 7220   2.809   4.588   0.242
 2107SOL    HW2 7221   2.727   4.705   0.163
 2108SOL     OW 7222   5.347   4.840   5.660
 2108SOL    HW1 7223   5.338   4.750   5.618
 2108SOL    HW2 7224   5.380   4.829   5.754
 2109SOL     OW 7225   5.930   6.428   2.454
 2109SOL    HW1 7226   5.982   6.512   2.442
 2109SOL    HW2 7227   5.927   6.404   2.551
 2110SOL     OW 7228   2.252   4.898   5.023
 2110SOL    HW1 7229   2.204   4.859   4.944
 2110SOL    HW2 7230   2.291   4.987   4.999
 2111SOL     OW 7231   2.045   2.674   6.882
 2111SOL    HW1 7232   2.068   2.743   6.951
 2111SOL    HW2 7233   1.990   2.602   6.924
 2112SOL     OW 7234   5.177   3.362   0.705
 2112SOL    HW1 7235   5.158   3.271   0.667
 2112SOL    HW2 7236   5.275   3.372   0.719
 2113SOL     OW 7237   6.563   1.702   3.112
 2113SOL    HW1 7238   6.572   1.798   3.139
 2113SOL    HW2 7239   6.496   1.694   3.038
 2114SOL     OW 7240   1.546   3.703   0.503
 2114SOL    HW1 7241   1.602   3.680   0.582
 2114SOL    HW2 7242   1.476   3.633   0.489
 2115SOL     OW 7243   3.139   5.384   2.423
 2115SOL    HW1 7244   3.055   5.409   2.374
 2115SOL    HW2 7245   3.205   5.348   2.358
 2116SOL     OW 7246   0.241   4.237   2.846
 2116SOL    HW1 7247   0.247   4.140   2.826
 2116SOL    HW2 7248   0.145   4.266   2.844
 2117SOL     OW 7249   0.194   5.431   6.657
 2117SOL    HW1 7250   0.280   5.443   6.608
 2117SOL    HW2 7251   0.176   5.512   6.713
 2118SOL     OW 7252   6.508   3.722   2.309
 2118SOL    HW1 7253   6.434   3.708   2.374
 2118SOL    HW2 7254   6.490   3.805   2.256
 2119SOL     OW 7255   3.391   5.856   0.617
 2119SOL    HW1 7256   3.329   5.809   0.555
 2119SOL    HW2 7257   3.482   5.861   0.576
 2120SOL     OW 7258   6.829   4.859   2.620
 2120SOL    HW1 7259   6.902   4.913   2.662
 2120SOL    HW2 7260   6.743   4.878   2.666
 2121SOL     OW 7261   0.715   4.097   4.687
 2121SOL    HW1 7262   0.743   4.129   4.777
 2121SOL    HW2 7263   0.618   4.072   4.689
 2122SOL     OW 7264   4.542   4.330   5.506
 2122SOL    HW1 7265   4.541   4.411   5.447
 2122SOL    HW2 7266   4.502   4.253   5.457
 2123SOL     OW 7267   4.431   4.468   3.459
 2123SOL    HW1 7268   4.347   4.465   3.405
 2123SOL    HW2 7269   4.409   4.491   3.554
 2124SOL     OW 7270   3.234   1.199   1.788
 2124SOL    HW1 7271   3.254   1.297   1.782
 2124SOL    HW2 7272   3.142   1.186   1.825
 2125SOL     OW 7273   3.403   6.838   0.887
 2125SOL    HW1 7274   3.362   6.835   0.978
 2125SOL    HW2 7275   3.449   6.926   0.874
 2126SOL     OW 7276   2.722   0.548   1.811
 2126SOL    HW1 7277   2.623   0.561   1.800
 2126SOL    HW2 7278   2.744   0.539   1.908
 2127SOL     OW 7279   5.791   2.992   4.885
 2127SOL    HW1 7280   5.851   3.071   4.873
 2127SOL    HW2 7281   5.723   3.012   4.956
 2128SOL     OW 7282   0.828   4.306   4.211
 2128SOL    HW1 7283   0.918   4.313   4.168
 2128SOL    HW2 7284   0.777   4.391   4.196
 2129SOL     OW 7285   3.832   2.257   5.314
 2129SOL    HW1 7286   3.785   2.344   5.306
 2129SOL    HW2 7287   3.921   2.263   5.269
 2130SOL     OW 7288   4.479   0.360   3.352
 2130SOL    HW1 7289   4.476   0.262   3.331
 2130SOL    HW2 7290   4.490   0.373   3.450
 2131SOL     OW 7291   5.227   1.865   6.663
 2131SOL    HW1 7292   5.319   1.862   6.624
 2131SOL    HW2 7293   5.205   1.776   6.703
 2132SOL     OW 7294   1.913   3.700   0.664
 2132SOL    HW1 7295   1.875   3.790   0.641
 2132SOL    HW2 7296   1.959   3.705   0.752
 2133SOL     OW 7297   2.573   3.812   5.571
 2133SOL    HW1 7298   2.657   3.854   5.607
 2133SOL    HW2 7299   2.562   3.721   5.613
 2134SOL     OW 7300   0.478   0.234   0.730
 2134SOL    HW1 7301   0.386   0.199   0.745
 2134SOL    HW2 7302   0.523   0.249   0.818
 2135SOL     OW 7303   6.680   4.315   5.524
 2135SOL    HW1 7304   6.659   4.339   5.619
 2135SOL    HW2 7305   6.778   4.304   5.513
 2136SOL     OW 7306   0.609   4.671   0.885
 2136SOL    HW1 7307   0.576   4.739   0.951
 2136SOL    HW2 7308   0.603   4.709   0.793
 2137SOL     OW 7309   1.359   6.632   4.093
 2137SOL    HW1 7310   1.442   6.586   4.123
 2137SOL    HW2 7311   1.283   6.606   4.152
 2138SOL     OW 7312   5.126   1.895   1.679
 2138SOL    HW1 7313   5.154   1.953   1.755
 2138SOL    HW2 7314   5.087   1.810   1.714
 2139SOL     OW 7315   3.239   6.924   5.609
 2139SOL    HW1 7316   3.208   6.986   5.537
 2139SOL    HW2 7317   3.339   6.929   5.617
 2140SOL     OW 7318   2.475   1.835   4.327
 2140SOL    HW1 7319   2.498   1.771   4.400
 2140SOL    HW2 7320   2.471   1.928   4.364
 2141SOL     OW 7321   6.781   3.269   3.112
 2141SOL    HW1 7322   6.778   3.305   3.205
 2141SOL    HW2 7323   6.795   3.170   3.115
 2142SOL     OW 7324   1.561   2.218   2.445
 2142SOL    HW1 7325   1.660   2.224   2.453
 2142SOL    HW2 7326   1.534   2.122   2.437
 2143SOL     OW 7327   0.782   4.735   6.169
 2143SOL    HW1 7328   0.837   4.654   6.191
 2143SOL    HW2 7329   0.826   4.785   6.094
 2144SOL     OW 7330   6.836   4.660   3.498
 2144SOL    HW1 7331   6.761   4.594   3.508
 2144SOL    HW2 7332   6.861   4.666   3.401
 2145SOL     OW 7333   4.264   1.416   3.382
 2145SOL    HW1 7334   4.178   1.385   3.342
 2145SOL    HW2 7335   4.333   1.344   3.376
 2146SOL     OW 7336   2.375   2.975   0.240
 2146SOL    HW1 7337   2.392   3.072   0.223
 2146SOL    HW2 7338   2.284   2.951   0.208
 2147SOL     OW 7339   5.952   6.685   3.925
 2147SOL    HW1 7340   6.014   6.692   4.003
 2147SOL    HW2 7341   5.897   6.768   3.917
 2148SOL     OW 7342   0.469   3.284   5.863
 2148SOL    HW1 7343   0.504   3.273   5.770
 2148SOL    HW2 7344   0.380   3.331   5.860
 2149SOL     OW 7345   0.987   0.393   0.153
 2149SOL    HW1 7346   0.990   0.327   0.078
 2149SOL    HW2 7347   0.947   0.479   0.120
 2150SOL     OW 7348   1.947   2.973   1.364
 2150SOL    HW1 7349   1.947   2.972   1.264
 2150SOL    HW2 7350   1.890   2.899   1.399
 2151SOL     OW 7351   0.777   5.185   0.782
 2151SOL    HW1 7352   0.761   5.122   0.857
 2151SOL    HW2 7353   0.708   5.258   0.784
 2152SOL     OW 7354   5.539   5.960   3.904
 2152SOL    HW1 7355   5.583   5.914   3.826
 2152SOL    HW2 7356   5.567   6.056   3.906
 2153SOL     OW 7357   5.411   0.390   4.167
 2153SOL    HW1 7358   5.509   0.392   4.186
 2153SOL    HW2 7359   5.388   0.459   4.099
 2154SOL     OW 7360   2.900   0.567   2.797
 2154SOL    HW1 7361   2.980   0.521   2.835
 2154SOL    HW2 7362   2.864   0.632   2.863
 2155SOL     OW 7363   3.804   0.890   1.085
 2155SOL    HW1 7364   3.841   0.807   1.125
 2155SOL    HW2 7365   3.829   0.895   0.988
 2156SOL     OW 7366   5.205   2.097   4.862
 2156SOL    HW1 7367   5.207   2.197   4.867
 2156SOL    HW2 7368   5.299   2.062   4.867
 2157SOL     OW 7369   3.783   6.313   4.098
 2157SOL    HW1 7370   3.779   6.410   4.076
 2157SOL    HW2 7371   3.834   6.265   4.026
 2158SOL     OW 7372   2.835   0.269   0.274
 2158SOL    HW1 7373   2.809   0.364   0.289
 2158SOL    HW2 7374   2.756   0.217   0.242
 2159SOL     OW 7375   0.932   0.711   5.369
 2159SOL    HW1 7376   1.005   0.644   5.382
 2159SOL    HW2 7377   0.917   0.762   5.454
 2160SOL     OW 7378   5.581   6.930   6.863
 2160SOL    HW1 7379   5.575   6.867   6.941
 2160SOL    HW2 7380   5.676   6.959   6.851
 2161SOL     OW 7381   1.636   2.960   1.254
 2161SOL    HW1 7382   1.599   2.904   1.180
 2161SOL    HW2 7383   1.715   3.011   1.221
 2162SOL     OW 7384   1.533   6.902   1.565
 2162SOL    HW1 7385   1.480   6.984   1.543
 2162SOL    HW2 7386   1.544   6.894   1.664
 2163SOL     OW 7387   1.473   3.202   3.192
 2163SOL    HW1 7388   1.447   3.289   3.151
 2163SOL    HW2 7389   1.563   3.210   3.234
 2164SOL     OW 7390   1.864   3.401   2.295
 2164SOL    HW1 7391   1.932   3.401   2.368
 2164SOL    HW2 7392   1.773   3.396   2.335
 2165SOL     OW 7393   6.597   1.231   4.710
 2165SOL    HW1 7394   6.567   1.308   4.655
 2165SOL    HW2 7395   6.572   1.246   4.806
 2166SOL     OW 7396   6.957   3.429   2.495
 2166SOL    HW1 7397   6.880   3.472   2.447
 2166SOL    HW2 7398   0.016   3.421   2.433
 2167SOL     OW 7399   2.053   1.472   2.939
 2167SOL    HW1 7400   1.989   1.526   2.885
 2167SOL    HW2 7401   2.048   1.376   2.912
 2168SOL     OW 7402   1.850   1.942   3.289
 2168SOL    HW1 7403   1.871   1.903   3.379
 2168SOL    HW2 7404   1.875   1.876   3.218
 2169SOL     OW 7405   6.964   6.964   1.436
 2169SOL    HW1 7406   6.868   6.982   1.457
 2169SOL    HW2 7407   7.012   6.936   1.519
 2170SOL     OW 7408   1.041   3.731   6.142
 2170SOL    HW1 7409   1.066   3.804   6.078
 2170SOL    HW2 7410   1.118   3.668   6.152
 2171SOL     OW 7411   6.784   6.325   0.927
 2171SOL    HW1 7412   6.772   6.416   0.968
 2171SOL    HW2 7413   6.698   6.295   0.886
 2172SOL     OW 7414   2.168   1.699   5.145
 2172SOL    HW1 7415   2.090   1.641   5.121
 2172SOL    HW2 7416   2.157   1.789   5.102
 2173SOL     OW 7417   5.175   0.930   5.005
 2173SOL    HW1 7418   5.262   0.882   5.020
 2173SOL    HW2 7419   5.169   1.008   5.067
 2174SOL     OW 7420   5.757   0.365   6.102
 2174SOL    HW1 7421   5.687   0.379   6.032
 2174SOL    HW2 7422   5.740   0.426   6.180
 2175SOL     OW 7423   2.646   3.910   5.285
 2175SOL    HW1 7424   2.626   3.863   5.370
 2175SOL    HW2 7425   2.561   3.933   5.238
 2176SOL     OW 7426   5.215   2.297   2.754
 2176SOL    HW1 7427   5.306   2.338   2.757
 2176SOL    HW2 7428   5.186   2.273   2.846
 2177SOL     OW 7429   0.940   0.848   4.766
 2177SOL    HW1 7430   1.020   0.816   4.715
 2177SOL    HW2 7431   0.957   0.941   4.799
 2178SOL     OW 7432   1.286   1.725   2.833
 2178SOL    HW1 7433   1.272   1.787   2.756
 2178SOL    HW2 7434   1.381   1.693   2.833
 2179SOL     OW 7435   2.077   4.207   6.698
 2179SOL    HW1 7436   2.174   4.223   6.677
 2179SOL    HW2 7437   2.033   4.295   6.717
 2180SOL     OW 7438   0.598   5.754   2.786
 2180SOL    HW1 7439   0.596   5.833   2.725
 2180SOL    HW2 7440   0.506   5.737   2.821
 2181SOL     OW 7441   4.088   4.870   4.890
 2181SOL    HW1 7442   4.122   4.952   4.935
 2181SOL    HW2 7443   4.022   4.824   4.949
 2182SOL     OW 7444   0.435   6.004   1.934
 2182SOL    HW1 7445   0.504   5.941   1.970
 2182SOL    HW2 7446   0.480   6.076   1.882
 2183SOL     OW 7447   2.919   3.309   6.377
 2183SOL    HW1 7448   2.847   3.245   6.401
 2183SOL    HW2 7449   2.981   3.321   6.455
 2184SOL     OW 7450   6.308   1.347   0.456
 2184SOL    HW1 7451   6.260   1.307   0.534
 2184SOL    HW2 7452   6.374   1.281   0.420
 2185SOL     OW 7453   0.814   0.379   6.380
 2185SOL    HW1 7454   0.869   0.431   6.447
 2185SOL    HW2 7455   0.721   0.370   6.414
 2186SOL     OW 7456   6.875   5.687   5.517
 2186SOL    HW1 7457   6.834   5.777   5.534
 2186SOL    HW2 7458   6.830   5.619   5.576
 2187SOL     OW 7459   6.640   5.340   1.750
 2187SOL    HW1 7460   6.646   5.439   1.759
 2187SOL    HW2 7461   6.731   5.300   1.763
 2188SOL     OW 7462   2.316   0.962   0.574
 2188SOL    HW1 7463   2.376   0.900   0.626
 2188SOL    HW2 7464   2.303   0.926   0.482
 2189SOL     OW 7465   2.099   1.377   1.636
 2189SOL    HW1 7466   2.005   1.403   1.657
 2189SOL    HW2 7467   2.099   1.300   1.572
 2190SOL     OW 7468   6.869   3.912   1.413
 2190SOL    HW1 7469   6.848   3.874   1.504
 2190SOL    HW2 7470   6.937   3.854   1.368
 2191SOL     OW 7471   3.167   0.518   6.425
 2191SOL    HW1 7472   3.151   0.462   6.344
 2191SOL    HW2 7473   3.191   0.459   6.502
 2192SOL     OW 7474   5.005   1.717   1.846
 2192SOL    HW1 7475   5.091   1.706   1.896
 2192SOL    HW2 7476   4.943   1.775   1.899
 2193SOL     OW 7477   2.293   0.033   5.365
 2193SOL    HW1 7478   2.347   0.097   5.420
 2193SOL    HW2 7479   2.207   0.077   5.338
 2194SOL     OW 7480   0.611   4.076   6.472
 2194SOL    HW1 7481   0.525   4.100   6.427
 2194SOL    HW2 7482   0.677   4.150   6.457
 2195SOL     OW 7483   0.545   3.733   4.814
 2195SOL    HW1 7484   0.606   3.714   4.737
 2195SOL    HW2 7485   0.583   3.692   4.898
 2196SOL     OW 7486   3.380   0.836   6.608
 2196SOL    HW1 7487   3.416   0.862   6.698
 2196SOL    HW2 7488   3.412   0.901   6.539
 2197SOL     OW 7489   3.637   5.678   6.000
 2197SOL    HW1 7490   3.634   5.752   6.068
 2197SOL    HW2 7491   3.718   5.621   6.016
 2198SOL     OW 7492   1.181   0.945   6.971
 2198SOL    HW1 7493   1.265   0.961   0.003
 2198SOL    HW2 7494   1.104   0.936   0.015
 2199SOL     OW 7495   4.093   0.043   3.930
 2199SOL    HW1 7496   4.071   0.094   3.847
 2199SOL    HW2 7497   4.042   6.976   3.931
 2200SOL     OW 7498   2.744   2.057   3.891
 2200SOL    HW1 7499   2.828   2.101   3.857
 2200SOL    HW2 7500   2.714   1.987   3.826
 2201SOL     OW 7501   5.745   3.994   5.048
 2201SOL    HW1 7502   5.809   3.958   4.981
 2201SOL    HW2 7503   5.716   4.086   5.020
 2202SOL     OW 7504   3.836   0.121   2.798
 2202SOL    HW1 7505   3.877   0.136   2.708
 2202SOL    HW2 7506   3.787   0.034   2.798
 2203SOL     OW 7507   1.623   4.954   1.102
 2203SOL    HW1 7508   1.580   4.940   1.192
 2203SOL    HW2 7509   1.610   5.049   1.074
 2204SOL     OW 7510   5.910   2.482   0.613
 2204SOL    HW1 7511   5.849   2.404   0.618
 2204SOL    HW2 7512   5.908   2.521   0.521
 2205SOL     OW 7513   6.858   5.314   0.920
 2205SOL    HW1 7514   6.903   5.401   0.943
 2205SOL    HW2 7515   6.822   5.273   1.004
 2206SOL     OW 7516   3.792   2.494   5.614
 2206SOL    HW1 7517   3.750   2.459   5.698
 2206SOL    HW2 7518   3.890   2.476   5.616
 2207SOL     OW 7519   4.800   6.006   1.222
 2207SOL    HW1 7520   4.894   6.028   1.198
 2207SOL    HW2 7521   4.743   6.003   1.140
 2208SOL     OW 7522   6.788   6.843   3.234
 2208SOL    HW1 7523   6.739   6.795   3.307
 2208SOL    HW2 7524   6.833   6.777   3.175
 2209SOL     OW 7525   2.969   6.059   4.060
 2209SOL    HW1 7526   2.959   6.111   3.975
 2209SOL    HW2 7527   2.889   6.000   4.073
 2210SOL     OW 7528   4.509   0.202   1.795
 2210SOL    HW1 7529   4.509   0.115   1.745
 2210SOL    HW2 7530   4.479   0.275   1.734
 2211SOL     OW 7531   1.257   1.754   1.136
 2211SOL    HW1 7532   1.200   1.711   1.065
 2211SOL    HW2 7533   1.228   1.849   1.148
 2212SOL     OW 7534   2.864   5.675   6.770
 2212SOL    HW1 7535   2.835   5.588   6.732
 2212SOL    HW2 7536   2.784   5.727   6.799
 2213SOL     OW 7537   3.672   1.762   4.615
 2213SOL    HW1 7538   3.692   1.860   4.619
 2213SOL    HW2 7539   3.671   1.732   4.520
 2214SOL     OW 7540   4.420   4.144   6.502
 2214SOL    HW1 7541   4.425   4.166   6.404
 2214SOL    HW2 7542   4.493   4.078   6.524
 2215SOL     OW 7543   3.722   6.896   0.393
 2215SOL    HW1 7544   3.704   6.857   0.302
 2215SOL    HW2 7545   3.706   6.827   0.463
 2216SOL     OW 7546   0.404   6.557   6.265
 2216SOL    HW1 7547   0.419   6.459   6.275
 2216SOL    HW2 7548   0.454   6.607   6.335
 2217SOL     OW 7549   4.423   1.527   3.587
 2217SOL    HW1 7550   4.403   1.514   3.684
 2217SOL    HW2 7551   4.361   1.470   3.532
 2218SOL     OW 7552   0.148   5.484   5.203
 2218SOL    HW1 7553   0.076   5.526   5.259
 2218SOL    HW2 7554   0.203   5.556   5.161
 2219SOL     OW 7555   5.216   1.191   0.978
 2219SOL    HW1 7556   5.315   1.183   0.967
 2219SOL    HW2 7557   5.190   1.155   1.068
 2220SOL     OW 7558   0.021   5.605   4.398
 2220SOL    HW1 7559   6.950   5.564   4.384
 2220SOL    HW2 7560   0.013   5.704   4.397
 2221SOL     OW 7561   6.255   1.166   4.473
 2221SOL    HW1 7562   6.218   1.086   4.520
 2221SOL    HW2 7563   6.337   1.140   4.423
 2222SOL     OW 7564   4.768   0.260   2.769
 2222SOL    HW1 7565   4.699   0.253   2.697
 2222SOL    HW2 7566   4.806   0.353   2.770
 2223SOL     OW 7567   0.964   6.580   5.206
 2223SOL    HW1 7568   1.062   6.591   5.187
 2223SOL    HW2 7569   0.911   6.614   5.130
 2224SOL     OW 7570   5.609   4.016   0.436
 2224SOL    HW1 7571   5.556   3.935   0.461
 2224SOL    HW2 7572   5.691   3.988   0.385
 2225SOL     OW 7573   0.020   6.396   1.955
 2225SOL    HW1 7574   0.018   6.495   1.951
 2225SOL    HW2 7575   0.095   6.362   1.898
 2226SOL     OW 7576   2.344   4.854   6.895
 2226SOL    HW1 7577   2.349   4.907   6.979
 2226SOL    HW2 7578   2.286   4.901   6.829
 2227SOL     OW 7579   3.960   1.800   1.722
 2227SOL    HW1 7580   3.999   1.873   1.777
 2227SOL    HW2 7581   3.960   1.715   1.773
 2228SOL     OW 7582   5.275   5.115   6.971
 2228SOL    HW1 7583   5.264   5.018   6.949
 2228SOL    HW2 7584   5.317   5.162   6.893
 2229SOL     OW 7585   3.188   3.023   4.187
 2229SOL    HW1 7586   3.217   3.002   4.094
 2229SOL    HW2 7587   3.264   3.009   4.250
 2230SOL     OW 7588   6.447   0.554   6.851
 2230SOL    HW1 7589   6.372   0.596   6.902
 2230SOL    HW2 7590   6.422   0.460   6.827
 2231SOL     OW 7591   0.854   6.867   6.316
 2231SOL    HW1 7592   0.829   6.964   6.311
 2231SOL    HW2 7593   0.925   6.854   6.386
 2232SOL     OW 7594   1.915   0.548   5.541
 2232SOL    HW1 7595   2.002   0.562   5.494
 2232SOL    HW2 7596   1.927   0.561   5.639
 2233SOL     OW 7597   2.733   4.574   0.667
 2233SOL    HW1 7598   2.786   4.637   0.723
 2233SOL    HW2 7599   2.778   4.484   0.666
 2234SOL     OW 7600   4.867   2.167   1.752
 2234SOL    HW1 7601   4.937   2.115   1.705
 2234SOL    HW2 7602   4.778   2.150   1.710
 2235SOL     OW 7603   0.817   1.799   3.240
 2235SOL    HW1 7604   0.883   1.812   3.314
 2235SOL    HW2 7605   0.748   1.731   3.268
 2236SOL     OW 7606   2.857   4.908   5.442
 2236SOL    HW1 7607   2.809   4.903   5.355
 2236SOL    HW2 7608   2.919   4.830   5.451
 2237SOL     OW 7609   6.275   6.049   5.989
 2237SOL    HW1 7610   6.307   5.963   5.949
 2237SOL    HW2 7611   6.328   6.125   5.951
 2238SOL     OW 7612   5.968   3.515   1.744
 2238SOL    HW1 7613   5.904   3.439   1.736
 2238SOL    HW2 7614   5.947   3.567   1.828
 2239SOL     OW 7615   5.019   6.537   3.073
 2239SOL    HW1 7616   4.978   6.607   3.014
 2239SOL    HW2 7617   4.972   6.450   3.058
 2240SOL     OW 7618   4.979   5.094   1.948
 2240SOL    HW1 7619   4.976   5.147   2.033
 2240SOL    HW2 7620   4.933   5.007   1.962
 2241SOL     OW 7621   0.568   1.587   2.518
 2241SOL    HW1 7622   0.595   1.668   2.466
 2241SOL    HW2 7623   0.469   1.588   2.534
 2242SOL     OW 7624   5.363   2.250   3.603
 2242SOL    HW1 7625   5.431   2.282   3.669
 2242SOL    HW2 7626   5.383   2.156   3.575
 2243SOL     OW 7627   2.386   6.979   0.744
 2243SOL    HW1 7628   2.353   6.998   0.837
 2243SOL    HW2 7629   2.344   0.025   0.681
 2244SOL     OW 7630   2.309   1.745   0.406
 2244SOL    HW1 7631   2.299   1.723   0.503
 2244SOL    HW2 7632   2.347   1.837   0.397
 2245SOL     OW 7633   0.424   0.829   0.263
 2245SOL    HW1 7634   0.363   0.756   0.291
 2245SOL    HW2 7635   0.498   0.792   0.207
 2246SOL     OW 7636   3.513   2.014   5.189
 2246SOL    HW1 7637   3.528   1.949   5.263
 2246SOL    HW2 7638   3.428   2.064   5.204
 2247SOL     OW 7639   3.144   2.996   2.759
 2247SOL    HW1 7640   3.047   3.018   2.747
 2247SOL    HW2 7641   3.162   2.984   2.857
 2248SOL     OW 7642   4.693   3.821   5.382
 2248SOL    HW1 7643   4.611   3.875   5.399
 2248SOL    HW2 7644   4.749   3.868   5.313
 2249SOL     OW 7645   1.728   6.621   2.977
 2249SOL    HW1 7646   1.774   6.636   3.065
 2249SOL    HW2 7647   1.686   6.706   2.946
 2250SOL     OW 7648   4.481   5.721   6.684
 2250SOL    HW1 7649   4.486   5.673   6.771
 2250SOL    HW2 7650   4.549   5.794   6.681
 2251SOL     OW 7651   4.821   6.169   4.856
 2251SOL    HW1 7652   4.761   6.248   4.864
 2251SOL    HW2 7653   4.772   6.094   4.811
 2252SOL     OW 7654   4.169   1.392   2.242
 2252SOL    HW1 7655   4.220   1.393   2.328
 2252SOL    HW2 7656   4.072   1.381   2.261
 2253SOL     OW 7657   0.504   3.351   0.954
 2253SOL    HW1 7658   0.488   3.376   1.050
 2253SOL    HW2 7659   0.505   3.434   0.898
 2254SOL     OW 7660   4.053   3.783   2.826
 2254SOL    HW1 7661   3.981   3.714   2.824
 2254SOL    HW2 7662   4.098   3.781   2.916
 2255SOL     OW 7663   2.179   3.627   6.222
 2255SOL    HW1 7664   2.228   3.714   6.235
 2255SOL    HW2 7665   2.162   3.585   6.311
 2256SOL     OW 7666   5.274   6.900   1.336
 2256SOL    HW1 7667   5.322   6.904   1.249
 2256SOL    HW2 7668   5.246   6.992   1.363
 2257SOL     OW 7669   6.801   0.803   5.308
 2257SOL    HW1 7670   6.897   0.828   5.314
 2257SOL    HW2 7671   6.774   0.754   5.391
 2258SOL     OW 7672   2.738   5.881   4.108
 2258SOL    HW1 7673   2.761   5.787   4.133
 2258SOL    HW2 7674   2.691   5.882   4.020
 2259SOL     OW 7675   6.307   2.428   5.123
 2259SOL    HW1 7676   6.375   2.383   5.181
 2259SOL    HW2 7677   6.259   2.499   5.175
 2260SOL     OW 7678   0.652   3.752   1.498
 2260SOL    HW1 7679   0.632   3.803   1.581
 2260SOL    HW2 7680   0.739   3.785   1.459
 2261SOL     OW 7681   5.396   4.035   6.876
 2261SOL    HW1 7682   5.337   3.962   6.911
 2261SOL    HW2 7683   5.340   4.110   6.843
 2262SOL     OW 7684   6.636   0.128   4.406
 2262SOL    HW1 7685   6.600   0.190   4.476
 2262SOL    HW2 7686   6.696   0.179   4.344
 2263SOL     OW 7687   2.217   4.339   6.090
 2263SOL    HW1 7688   2.202   4.393   6.007
 2263SOL    HW2 7689   2.145   4.270   6.098
 2264SOL     OW 7690   3.427   6.887   5.886
 2264SOL    HW1 7691   3.348   6.889   5.825
 2264SOL    HW2 7692   3.403   6.840   5.970
 2265SOL     OW 7693   6.860   6.443   4.422
 2265SOL    HW1 7694   6.785   6.503   4.448
 2265SOL    HW2 7695   6.902   6.475   4.337
 2266SOL     OW 7696   4.267   3.053   6.503
 2266SOL    HW1 7697   4.178   3.090   6.531
 2266SOL    HW2 7698   4.288   2.972   6.558
 2267SOL     OW 7699   5.296   3.025   4.229
 2267SOL    HW1 7700   5.232   3.032   4.153
 2267SOL    HW2 7701   5.285   2.936   4.274
 2268SOL     OW 7702   1.295   5.685   4.553
 2268SOL    HW1 7703   1.387   5.712   4.524
 2268SOL    HW2 7704   1.292   5.678   4.653
 2269SOL     OW 7705   1.747   2.113   5.366
 2269SOL    HW1 7706   1.662   2.138   5.318
 2269SOL    HW2 7707   1.812   2.075   5.300
 2270SOL     OW 7708   4.724   1.577   6.116
 2270SOL    HW1 7709   4.704   1.486   6.154
 2270SOL    HW2 7710   4.760   1.635   6.189
 2271SOL     OW 7711   4.680   5.376   5.341
 2271SOL    HW1 7712   4.663   5.474   5.348
 2271SOL    HW2 7713   4.604   5.326   5.380
 2272SOL     OW 7714   5.495   1.511   5.942
 2272SOL    HW1 7715   5.580   1.554   5.970
 2272SOL    HW2 7716   5.507   1.412   5.938
 2273SOL     OW 7717   0.933   2.346   3.215
 2273SOL    HW1 7718   1.015   2.403   3.211
 2273SOL    HW2 7719   0.902   2.325   3.122
 2274SOL     OW 7720   0.606   1.554   6.944
 2274SOL    HW1 7721   0.518   1.538   6.899
 2274SOL    HW2 7722   0.590   1.590   0.017
 2275SOL     OW 7723   5.707   4.052   2.831
 2275SOL    HW1 7724   5.619   4.015   2.799
 2275SOL    HW2 7725   5.777   4.035   2.761
 2276SOL     OW 7726   1.988   2.165   0.969
 2276SOL    HW1 7727   1.995   2.072   1.008
 2276SOL    HW2 7728   2.059   2.177   0.900
 2277SOL     OW 7729   3.752   3.251   3.774
 2277SOL    HW1 7730   3.715   3.322   3.714
 2277SOL    HW2 7731   3.801   3.183   3.720
 2278SOL     OW 7732   0.486   2.623   3.782
 2278SOL    HW1 7733   0.546   2.552   3.820
 2278SOL    HW2 7734   0.453   2.593   3.693
 2279SOL     OW 7735   0.584   5.900   5.309
 2279SOL    HW1 7736   0.611   5.806   5.288
 2279SOL    HW2 7737   0.550   5.944   5.225
 2280SOL     OW 7738   4.455   2.118   5.797
 2280SOL    HW1 7739   4.384   2.070   5.744
 2280SOL    HW2 7740   4.529   2.145   5.735
 2281SOL     OW 7741   5.844   6.826   2.543
 2281SOL    HW1 7742   5.831   6.737   2.499
 2281SOL    HW2 7743   5.936   6.860   2.521
 2282SOL     OW 7744   3.913   6.889   5.494
 2282SOL    HW1 7745   3.858   6.959   5.448
 2282SOL    HW2 7746   3.992   6.867   5.437
 2283SOL     OW 7747   0.208   0.581   3.946
 2283SOL    HW1 7748   0.195   0.606   4.042
 2283SOL    HW2 7749   0.122   0.543   3.910
 2284SOL     OW 7750   1.062   2.767   0.147
 2284SOL    HW1 7751   1.069   2.837   0.218
 2284SOL    HW2 7752   0.984   2.707   0.167
 2285SOL     OW 7753   1.778   4.300   6.263
 2285SOL    HW1 7754   1.776   4.382   6.321
 2285SOL    HW2 7755   1.687   4.257   6.263
 2286SOL     OW 7756   4.761   5.059   3.208
 2286SOL    HW1 7757   4.820   5.020   3.278
 2286SOL    HW2 7758   4.743   4.991   3.137
 2287SOL     OW 7759   1.154   1.125   3.257
 2287SOL    HW1 7760   1.170   1.192   3.186
 2287SOL    HW2 7761   1.069   1.075   3.238
 2288SOL     OW 7762   6.850   5.780   2.976
 2288SOL    HW1 7763   6.836   5.691   2.934
 2288SOL    HW2 7764   6.800   5.784   3.063
 2289SOL     OW 7765   0.316   5.612   0.883
 2289SOL    HW1 7766   0.337   5.710   0.883
 2289SOL    HW2 7767   0.303   5.581   0.978
 2290SOL     OW 7768   0.887   5.712   0.156
 2290SOL    HW1 7769   0.923   5.771   0.084
 2290SOL    HW2 7770   0.821   5.648   0.118
 2291SOL     OW 7771   2.195   1.534   0.092
 2291SOL    HW1 7772   2.132   1.602   0.128
 2291SOL    HW2 7773   2.145   1.469   0.034
 2292SOL     OW 7774   2.084   1.573   4.799
 2292SOL    HW1 7775   2.008   1.638   4.804
 2292SOL    HW2 7776   2.126   1.577   4.708
 2293SOL     OW 7777   5.325   4.334   2.745
 2293SOL    HW1 7778   5.380   4.268   2.795
 2293SOL    HW2 7779   5.246   4.362   2.801
 2294SOL     OW 7780   3.094   6.019   6.516
 2294SOL    HW1 7781   3.115   6.117   6.513
 2294SOL    HW2 7782   3.108   5.985   6.609
 2295SOL     OW 7783   0.794   2.269   1.327
 2295SOL    HW1 7784   0.785   2.187   1.384
 2295SOL    HW2 7785   0.873   2.322   1.357
 2296SOL     OW 7786   3.117   6.609   0.811
 2296SOL    HW1 7787   3.175   6.689   0.799
 2296SOL    HW2 7788   3.023   6.638   0.828
 2297SOL     OW 7789   4.007   6.327   6.317
 2297SOL    HW1 7790   3.988   6.401   6.382
 2297SOL    HW2 7791   3.931   6.320   6.252
 2298SOL     OW 7792   3.979   2.946   6.336
 2298SOL    HW1 7793   4.024   3.031   6.309
 2298SOL    HW2 7794   3.930   2.961   6.422
 2299SOL     OW 7795   4.114   6.610   0.209
 2299SOL    HW1 7796   4.195   6.635   0.262
 2299SOL    HW2 7797   4.049   6.562   0.268
 2300SOL     OW 7798   1.306   4.479   1.821
 2300SOL    HW1 7799   1.230   4.543   1.815
 2300SOL    HW2 7800   1.391   4.526   1.795
 2301SOL     OW 7801   4.124   3.595   1.933
 2301SOL    HW1 7802   4.116   3.587   2.033
 2301SOL    HW2 7803   4.205   3.546   1.902
 2302SOL     OW 7804   2.648   6.064   3.480
 2302SOL    HW1 7805   2.608   5.977   3.453
 2302SOL    HW2 7806   2.721   6.089   3.417
 2303SOL     OW 7807   0.725   3.119   4.879
 2303SOL    HW1 7808   0.799   3.167   4.926
 2303SOL    HW2 7809   0.691   3.046   4.937
 2304SOL     OW 7810   2.740   0.616   4.156
 2304SOL    HW1 7811   2.713   0.562   4.076
 2304SOL    HW2 7812   2.820   0.575   4.199
 2305SOL     OW 7813   3.742   5.236   1.626
 2305SOL    HW1 7814   3.694   5.323   1.616
 2305SOL    HW2 7815   3.707   5.171   1.559
 2306SOL     OW 7816   0.761   3.655   0.591
 2306SOL    HW1 7817   0.829   3.691   0.654
 2306SOL    HW2 7818   0.758   3.712   0.509
 2307SOL     OW 7819   0.222   2.263   2.878
 2307SOL    HW1 7820   0.182   2.355   2.878
 2307SOL    HW2 7821   0.283   2.253   2.799
 2308SOL     OW 7822   0.439   0.361   0.212
 2308SOL    HW1 7823   0.466   0.277   0.165
 2308SOL    HW2 7824   0.472   0.358   0.307
 2309SOL     OW 7825   3.569   5.227   6.092
 2309SOL    HW1 7826   3.557   5.293   6.167
 2309SOL    HW2 7827   3.648   5.168   6.112
 2310SOL     OW 7828   5.663   1.629   2.673
 2310SOL    HW1 7829   5.626   1.631   2.580
 2310SOL    HW2 7830   5.587   1.636   2.738
 2311SOL     OW 7831   2.756   0.189   2.807
 2311SOL    HW1 7832   2.843   0.233   2.782
 2311SOL    HW2 7833   2.697   0.256   2.852
 2312SOL     OW 7834   2.563   0.943   2.694
 2312SOL    HW1 7835   2.592   1.036   2.673
 2312SOL    HW2 7836   2.506   0.909   2.621
 2313SOL     OW 7837   5.532   4.264   1.702
 2313SOL    HW1 7838   5.444   4.233   1.738
 2313SOL    HW2 7839   5.591   4.185   1.683
 2314SOL     OW 7840   6.162   0.173   2.881
 2314SOL    HW1 7841   6.124   0.178   2.974
 2314SOL    HW2 7842   6.172   0.077   2.855
 2315SOL     OW 7843   4.246   5.751   5.444
 2315SOL    HW1 7844   4.152   5.785   5.440
 2315SOL    HW2 7845   4.297   5.785   5.365
 2316SOL     OW 7846   2.734   1.761   5.920
 2316SOL    HW1 7847   2.682   1.771   5.835
 2316SOL    HW2 7848   2.751   1.851   5.959
 2317SOL     OW 7849   0.018   5.954   3.550
 2317SOL    HW1 7850   0.020   5.982   3.646
 2317SOL    HW2 7851   0.103   5.983   3.506
 2318SOL     OW 7852   1.674   4.980   5.449
 2318SOL    HW1 7853   1.610   5.040   5.402
 2318SOL    HW2 7854   1.667   4.994   5.548
 2319SOL     OW 7855   2.532   4.714   3.714
 2319SOL    HW1 7856   2.541   4.615   3.706
 2319SOL    HW2 7857   2.485   4.737   3.799
 2320SOL     OW 7858   1.203   2.467   5.294
 2320SOL    HW1 7859   1.253   2.549   5.320
 2320SOL    HW2 7860   1.204   2.402   5.371
 2321SOL     OW 7861   2.486   4.604   5.975
 2321SOL    HW1 7862   2.521   4.650   5.894
 2321SOL    HW2 7863   2.558   4.547   6.015
 2322SOL     OW 7864   0.839   3.912   1.691
 2322SOL    HW1 7865   0.758   3.888   1.744
 2322SOL    HW2 7866   0.897   3.830   1.680
 2323SOL     OW 7867   2.318   5.042   1.579
 2323SOL    HW1 7868   2.253   4.981   1.625
 2323SOL    HW2 7869   2.406   5.039   1.628
 2324SOL     OW 7870   6.916   5.199   2.453
 2324SOL    HW1 7871   6.823   5.237   2.458
 2324SOL    HW2 7872   6.928   5.153   2.365
 2325SOL     OW 7873   0.117   5.484   1.805
 2325SOL    HW1 7874   0.094   5.388   1.820
 2325SOL    HW2 7875   0.131   5.501   1.708
 2326SOL     OW 7876   1.543   0.739   6.667
 2326SOL    HW1 7877   1.609   0.673   6.630
 2326SOL    HW2 7878   1.591   0.824   6.690
 2327SOL     OW 7879   6.809   0.197   2.644
 2327SOL    HW1 7880   6.726   0.232   2.601
 2327SOL    HW2 7881   6.888   0.250   2.613
 2328SOL     OW 7882   2.427   2.647   2.658
 2328SOL    HW1 7883   2.444   2.570   2.720
 2328SOL    HW2 7884   2.464   2.625   2.568
 2329SOL     OW 7885   0.581   5.067   3.313
 2329SOL    HW1 7886   0.574   4.977   3.358
 2329SOL    HW2 7887   0.498   5.120   3.332
 2330SOL     OW 7888   6.496   2.710   0.432
 2330SOL    HW1 7889   6.404   2.691   0.465
 2330SOL    HW2 7890   6.490   2.753   0.342
 2331SOL     OW 7891   3.844   6.376   0.615
 2331SOL    HW1 7892   3.770   6.317   0.648
 2331SOL    HW2 7893   3.898   6.408   0.693
 2332SOL     OW 7894   5.410   6.784   5.950
 2332SOL    HW1 7895   5.488   6.776   6.012
 2332SOL    HW2 7896   5.350   6.857   5.981
 2333SOL     OW 7897   6.971   4.585   2.685
 2333SOL    HW1 7898   6.933   4.500   2.722
 2333SOL    HW2 7899   6.896   4.643   2.652
 2334SOL     OW 7900   3.085   1.408   5.972
 2334SOL    HW1 7901   3.012   1.362   5.921
 2334SOL    HW2 7902   3.168   1.409   5.917
 2335SOL     OW 7903   6.368   1.306   3.352
 2335SOL    HW1 7904   6.368   1.274   3.447
 2335SOL    HW2 7905   6.434   1.381   3.343
 2336SOL     OW 7906   1.940   1.706   2.800
 2336SOL    HW1 7907   1.871   1.778   2.793
 2336SOL    HW2 7908   1.992   1.701   2.714
 2337SOL     OW 7909   4.456   1.898   1.316
 2337SOL    HW1 7910   4.546   1.859   1.335
 2337SOL    HW2 7911   4.387   1.827   1.324
 2338SOL     OW 7912   6.788   4.013   4.094
 2338SOL    HW1 7913   6.700   4.001   4.140
 2338SOL    HW2 7914   6.823   3.924   4.065
 2339SOL     OW 7915   3.919   2.984   2.819
 2339SOL    HW1 7916   3.850   2.940   2.762
 2339SOL    HW2 7917   3.908   3.083   2.815
 2340SOL     OW 7918   1.837   5.599   6.357
 2340SOL    HW1 7919   1.812   5.518   6.410
 2340SOL    HW2 7920   1.900   5.573   6.284
 2341SOL     OW 7921   2.466   4.390   3.633
 2341SOL    HW1 7922   2.552   4.339   3.626
 2341SOL    HW2 7923   2.462   4.436   3.721
 2342SOL     OW 7924   3.088   6.927   4.199
 2342SOL    HW1 7925   3.007   6.970   4.161
 2342SOL    HW2 7926   3.065   6.882   4.286
 2343SOL     OW 7927   1.493   6.737   2.232
 2343SOL    HW1 7928   1.398   6.769   2.235
 2343SOL    HW2 7929   1.518   6.699   2.322
 2344SOL     OW 7930   5.612   4.019   0.871
 2344SOL    HW1 7931   5.516   4.043   0.885
 2344SOL    HW2 7932   5.667   4.059   0.944
 2345SOL     OW 7933   2.924   5.840   4.949
 2345SOL    HW1 7934   2.829   5.822   4.923
 2345SOL    HW2 7935   2.958   5.764   5.004
 2346SOL     OW 7936   4.087   4.333   6.360
 2346SOL    HW1 7937   4.075   4.376   6.270
 2346SOL    HW2 7938   4.061   4.237   6.354
 2347SOL     OW 7939   0.947   2.238   2.090
 2347SOL    HW1 7940   0.871   2.284   2.136
 2347SOL    HW2 7941   0.969   2.286   2.005
 2348SOL     OW 7942   0.458   4.833   2.685
 2348SOL    HW1 7943   0.500   4.822   2.595
 2348SOL    HW2 7944   0.378   4.892   2.677
 2349SOL     OW 7945   0.494   4.476   6.498
 2349SOL    HW1 7946   0.507   4.572   6.473
 2349SOL    HW2 7947   0.494   4.419   6.416
 2350SOL     OW 7948   6.192   3.738   6.517
 2350SOL    HW1 7949   6.172   3.647   6.553
 2350SOL    HW2 7950   6.144   3.750   6.430
 2351SOL     OW 7951   2.681   5.288   3.005
 2351SOL    HW1 7952   2.728   5.336   3.079
 2351SOL    HW2 7953   2.653   5.197   3.037
 2352SOL     OW 7954   0.060   3.142   3.789
 2352SOL    HW1 7955   0.069   3.212   3.860
 2352SOL    HW2 7956   0.148   3.097   3.775
 2353SOL     OW 7957   3.719   5.744   5.123
 2353SOL    HW1 7958   3.698   5.651   5.093
 2353SOL    HW2 7959   3.818   5.756   5.129
 2354SOL     OW 7960   2.148   2.024   3.618
 2354SOL    HW1 7961   2.196   1.947   3.661
 2354SOL    HW2 7962   2.198   2.053   3.537
 2355SOL     OW 7963   2.373   5.937   5.212
 2355SOL    HW1 7964   2.346   5.977   5.124
 2355SOL    HW2 7965   2.453   5.879   5.199
 2356SOL     OW 7966   6.953   3.605   0.203
 2356SOL    HW1 7967   6.932   3.509   0.184
 2356SOL    HW2 7968   0.020   3.611   0.254
 2357SOL     OW 7969   2.659   6.746   2.428
 2357SOL    HW1 7970   2.650   6.821   2.493
 2357SOL    HW2 7971   2.755   6.721   2.419
 2358SOL     OW 7972   3.623   4.722   6.647
 2358SOL    HW1 7973   3.673   4.747   6.730
 2358SOL    HW2 7974   3.608   4.804   6.591
 2359SOL     OW 7975   1.631   0.151   4.723
 2359SOL    HW1 7976   1.531   0.150   4.719
 2359SOL    HW2 7977   1.665   0.236   4.682
 2360SOL     OW 7978   6.564   3.462   0.344
 2360SOL    HW1 7979   6.618   3.546   0.344
 2360SOL    HW2 7980   6.477   3.479   0.298
 2361SOL     OW 7981   3.663   1.793   6.315
 2361SOL    HW1 7982   3.628   1.699   6.320
 2361SOL    HW2 7983   3.762   1.791   6.308
 2362SOL     OW 7984   3.654   5.435   3.511
 2362SOL    HW1 7985   3.623   5.516   3.462
 2362SOL    HW2 7986   3.599   5.356   3.483
 2363SOL     OW 7987   3.628   1.375   4.026
 2363SOL    HW1 7988   3.655   1.425   3.944
 2363SOL    HW2 7989   3.673   1.286   4.028
 2364SOL     OW 7990   1.098   2.631   1.134
 2364SOL    HW1 7991   1.135   2.553   1.082
 2364SOL    HW2 7992   1.139   2.715   1.100
 2365SOL     OW 7993   5.645   2.281   6.466
 2365SOL    HW1 7994   5.587   2.201   6.458
 2365SOL    HW2 7995   5.594   2.363   6.439
 2366SOL     OW 7996   3.452   5.159   0.676
 2366SOL    HW1 7997   3.540   5.203   0.695
 2366SOL    HW2 7998   3.424   5.106   0.756
 2367SOL     OW 7999   2.305   2.963   6.762
 2367SOL    HW1 8000   2.217   3.003   6.788
 2367SOL    HW2 8001   2.308   2.868   6.792
 2368SOL     OW 8002   6.538   6.104   3.071
 2368SOL    HW1 8003   6.636   6.083   3.075
 2368SOL    HW2 8004   6.523   6.181   3.009
 2369SOL     OW 8005   2.552   0.342   3.434
 2369SOL    HW1 8006   2.572   0.383   3.523
 2369SOL    HW2 8007   2.616   0.378   3.366
 2370SOL     OW 8008   5.170   2.229   6.555
 2370SOL    HW1 8009   5.206   2.190   6.640
 2370SOL    HW2 8010   5.102   2.167   6.516
 2371SOL     OW 8011   2.312   6.746   1.924
 2371SOL    HW1 8012   2.323   6.702   2.013
 2371SOL    HW2 8013   2.391   6.804   1.905
 2372SOL     OW 8014   6.700   3.258   2.468
 2372SOL    HW1 8015   6.774   3.324   2.475
 2372SOL    HW2 8016   6.614   3.307   2.452
 2373SOL     OW 8017   2.361   3.551   6.621
 2373SOL    HW1 8018   2.287   3.591   6.567
 2373SOL    HW2 8019   2.322   3.492   6.692
 2374SOL     OW 8020   6.095   2.573   4.675
 2374SOL    HW1 8021   6.139   2.619   4.598
 2374SOL    HW2 8022   6.003   2.543   4.648
 2375SOL     OW 8023   3.509   5.527   4.809
 2375SOL    HW1 8024   3.490   5.607   4.752
 2375SOL    HW2 8025   3.434   5.462   4.800
 2376SOL     OW 8026   6.243   3.192   4.432
 2376SOL    HW1 8027   6.316   3.192   4.501
 2376SOL    HW2 8028   6.194   3.279   4.434
 2377SOL     OW 8029   2.926   3.391   4.022
 2377SOL    HW1 8030   2.938   3.320   3.952
 2377SOL    HW2 8031   3.004   3.454   4.019
 2378SOL     OW 8032   5.235   2.731   6.757
 2378SOL    HW1 8033   5.281   2.648   6.724
 2378SOL    HW2 8034   5.149   2.744   6.708
 2379SOL     OW 8035   6.346   0.121   0.835
 2379SOL    HW1 8036   6.379   0.177   0.911
 2379SOL    HW2 8037   6.366   0.166   0.748
 2380SOL     OW 8038   6.294   2.164   1.453
 2380SOL    HW1 8039   6.226   2.111   1.403
 2380SOL    HW2 8040   6.385   2.141   1.419
 2381SOL     OW 8041   1.655   6.467   3.536
 2381SOL    HW1 8042   1.754   6.483   3.543
 2381SOL    HW2 8043   1.637   6.399   3.465
 2382SOL     OW 8044   2.162   3.589   5.220
 2382SOL    HW1 8045   2.230   3.653   5.255
 2382SOL    HW2 8046   2.205   3.500   5.206
 2383SOL     OW 8047   6.095   6.147   0.931
 2383SOL    HW1 8048   6.173   6.200   0.966
 2383SOL    HW2 8049   6.112   6.118   0.837
 2384SOL     OW 8050   4.458   1.620   1.666
 2384SOL    HW1 8051   4.481   1.689   1.735
 2384SOL    HW2 8052   4.363   1.591   1.677
 2385SOL     OW 8053   0.713   1.901   6.208
 2385SOL    HW1 8054   0.741   1.991   6.241
 2385SOL    HW2 8055   0.658   1.911   6.125
 2386SOL     OW 8056   5.310   5.627   3.932
 2386SOL    HW1 8057   5.401   5.641   3.894
 2386SOL    HW2 8058   5.304   5.672   4.022
 2387SOL     OW 8059   1.771   1.502   3.541
 2387SOL    HW1 8060   1.681   1.496   3.499
 2387SOL    HW2 8061   1.819   1.583   3.507
 2388SOL     OW 8062   6.008   2.411   4.405
 2388SOL    HW1 8063   6.078   2.441   4.340
 2388SOL    HW2 8064   5.963   2.490   4.445
 2389SOL     OW 8065   4.090   5.083   2.860
 2389SOL    HW1 8066   4.013   5.143   2.881
 2389SOL    HW2 8067   4.175   5.126   2.889
 2390SOL     OW 8068   3.444   3.883   1.872
 2390SOL    HW1 8069   3.355   3.891   1.827
 2390SOL    HW2 8070   3.434   3.903   1.969
 2391SOL     OW 8071   4.395   5.386   5.980
 2391SOL    HW1 8072   4.374   5.481   5.955
 2391SOL    HW2 8073   4.330   5.325   5.936
 2392SOL     OW 8074   3.878   0.992   6.551
 2392SOL    HW1 8075   3.815   0.977   6.475
 2392SOL    HW2 8076   3.851   1.073   6.603
 2393SOL     OW 8077   4.266   4.549   5.981
 2393SOL    HW1 8078   4.364   4.547   6.003
 2393SOL    HW2 8079   4.230   4.641   6.000
 2394SOL     OW 8080   0.814   4.184   4.929
 2394SOL    HW1 8081   0.868   4.188   5.013
 2394SOL    HW2 8082   0.766   4.270   4.916
 2395SOL     OW 8083   3.764   6.857   5.969
 2395SOL    HW1 8084   3.708   6.918   5.913
 2395SOL    HW2 8085   3.817   6.796   5.911
 2396SOL     OW 8086   4.284   4.474   0.681
 2396SOL    HW1 8087   4.217   4.536   0.641
 2396SOL    HW2 8088   4.342   4.437   0.609
 2397SOL     OW 8089   0.173   3.973   4.770
 2397SOL    HW1 8090   0.176   3.907   4.845
 2397SOL    HW2 8091   0.079   4.004   4.756
 2398SOL     OW 8092   4.167   4.462   5.741
 2398SOL    HW1 8093   4.215   4.492   5.824
 2398SOL    HW2 8094   4.192   4.522   5.665
 2399SOL     OW 8095   4.233   2.114   1.583
 2399SOL    HW1 8096   4.328   2.129   1.609
 2399SOL    HW2 8097   4.227   2.038   1.518
 2400SOL     OW 8098   2.604   5.303   1.482
 2400SOL    HW1 8099   2.685   5.339   1.529
 2400SOL    HW2 8100   2.585   5.211   1.515
 2401SOL     OW 8101   6.519   6.667   5.730
 2401SOL    HW1 8102   6.591   6.644   5.796
 2401SOL    HW2 8103   6.560   6.687   5.642
 2402SOL     OW 8104   0.050   6.514   4.575
 2402SOL    HW1 8105   0.139   6.471   4.558
 2402SOL    HW2 8106   7.005   6.485   4.505
 2403SOL     OW 8107   0.601   1.811   5.456
 2403SOL    HW1 8108   0.575   1.907   5.453
 2403SOL    HW2 8109   0.632   1.782   5.365
 2404SOL     OW 8110   0.995   0.508   0.632
 2404SOL    HW1 8111   1.069   0.562   0.591
 2404SOL    HW2 8112   1.033   0.428   0.677
 2405SOL     OW 8113   2.603   3.893   1.672
 2405SOL    HW1 8114   2.700   3.915   1.679
 2405SOL    HW2 8115   2.590   3.795   1.681
 2406SOL     OW 8116   4.663   1.270   0.814
 2406SOL    HW1 8117   4.730   1.196   0.806
 2406SOL    HW2 8118   4.689   1.346   0.755
 2407SOL     OW 8119   5.454   0.897   3.421
 2407SOL    HW1 8120   5.481   0.801   3.433
 2407SOL    HW2 8121   5.527   0.956   3.456
 2408SOL     OW 8122   4.701   4.264   2.162
 2408SOL    HW1 8123   4.646   4.294   2.240
 2408SOL    HW2 8124   4.644   4.263   2.080
 2409SOL     OW 8125   1.909   4.373   0.300
 2409SOL    HW1 8126   1.973   4.404   0.371
 2409SOL    HW2 8127   1.903   4.273   0.302
 2410SOL     OW 8128   3.961   3.074   2.533
 2410SOL    HW1 8129   4.031   3.023   2.583
 2410SOL    HW2 8130   3.940   3.027   2.448
 2411SOL     OW 8131   5.299   0.178   4.352
 2411SOL    HW1 8132   5.298   0.224   4.264
 2411SOL    HW2 8133   5.207   0.144   4.373
 2412SOL     OW 8134   4.278   3.300   0.887
 2412SOL    HW1 8135   4.351   3.362   0.915
 2412SOL    HW2 8136   4.318   3.214   0.855
 2413SOL     OW 8137   4.789   0.267   2.365
 2413SOL    HW1 8138   4.871   0.318   2.388
 2413SOL    HW2 8139   4.763   0.285   2.270
 2414SOL     OW 8140   5.526   3.438   4.071
 2414SOL    HW1 8141   5.525   3.342   4.098
 2414SOL    HW2 8142   5.597   3.486   4.122
 2415SOL     OW 8143   4.648   1.314   3.620
 2415SOL    HW1 8144   4.603   1.319   3.531
 2415SOL    HW2 8145   4.735   1.266   3.611
 2416SOL     OW 8146   4.622   1.949   5.977
 2416SOL    HW1 8147   4.595   1.987   6.065
 2416SOL    HW2 8148   4.596   2.013   5.904
 2417SOL     OW 8149   2.933   3.518   4.275
 2417SOL    HW1 8150   2.971   3.604   4.240
 2417SOL    HW2 8151   2.911   3.457   4.198
 2418SOL     OW 8152   3.797   3.039   3.374
 2418SOL    HW1 8153   3.736   2.981   3.426
 2418SOL    HW2 8154   3.808   3.002   3.281
 2419SOL     OW 8155   0.237   0.041   2.968
 2419SOL    HW1 8156   0.141   0.018   2.955
 2419SOL    HW2 8157   0.264   0.019   3.062
 2420SOL     OW 8158   2.282   0.335   1.981
 2420SOL    HW1 8159   2.341   0.308   1.904
 2420SOL    HW2 8160   2.194   0.366   1.945
 2421SOL     OW 8161   2.986   2.180   3.833
 2421SOL    HW1 8162   3.056   2.182   3.904
 2421SOL    HW2 8163   3.030   2.168   3.744
 2422SOL     OW 8164   4.519   1.691   0.892
 2422SOL    HW1 8165   4.583   1.625   0.853
 2422SOL    HW2 8166   4.568   1.757   0.948
 2423SOL     OW 8167   2.226   4.997   2.736
 2423SOL    HW1 8168   2.305   5.044   2.775
 2423SOL    HW2 8169   2.184   5.053   2.665
 2424SOL     OW 8170   5.620   0.304   1.071
 2424SOL    HW1 8171   5.699   0.309   1.133
 2424SOL    HW2 8172   5.540   0.346   1.115
 2425SOL     OW 8173   6.451   6.785   4.412
 2425SOL    HW1 8174   6.511   6.843   4.357
 2425SOL    HW2 8175   6.365   6.770   4.363
 2426SOL     OW 8176   2.700   4.995   4.025
 2426SOL    HW1 8177   2.768   4.924   4.006
 2426SOL    HW2 8178   2.637   5.001   3.947
 2427SOL     OW 8179   6.134   0.064   5.486
 2427SOL    HW1 8180   6.196   0.087   5.560
 2427SOL    HW2 8181   6.185   0.020   5.412
 2428SOL     OW 8182   6.004   0.529   0.655
 2428SOL    HW1 8183   6.030   0.554   0.561
 2428SOL    HW2 8184   6.044   0.594   0.719
 2429SOL     OW 8185   4.748   5.484   2.116
 2429SOL    HW1 8186   4.842   5.514   2.096
 2429SOL    HW2 8187   4.727   5.500   2.212
 2430SOL     OW 8188   5.688   0.710   2.531
 2430SOL    HW1 8189   5.677   0.615   2.499
 2430SOL    HW2 8190   5.630   0.724   2.611
 2431SOL     OW 8191   4.266   0.552   2.364
 2431SOL    HW1 8192   4.173   0.529   2.338
 2431SOL    HW2 8193   4.269   0.645   2.401
 2432SOL     OW 8194   2.475   6.499   2.663
 2432SOL    HW1 8195   2.495   6.507   2.565
 2432SOL    HW2 8196   2.380   6.525   2.679
 2433SOL     OW 8197   3.911   0.386   0.533
 2433SOL    HW1 8198   3.957   0.347   0.453
 2433SOL    HW2 8199   3.813   0.394   0.515
 2434SOL     OW 8200   3.572   3.293   5.717
 2434SOL    HW1 8201   3.505   3.361   5.748
 2434SOL    HW2 8202   3.640   3.279   5.789
 2435SOL     OW 8203   6.077   5.983   5.400
 2435SOL    HW1 8204   6.120   5.911   5.346
 2435SOL    HW2 8205   6.133   6.004   5.480
 2436SOL     OW 8206   2.925   5.395   0.259
 2436SOL    HW1 8207   2.987   5.407   0.336
 2436SOL    HW2 8208   2.830   5.403   0.292
 2437SOL     OW 8209   6.596   0.444   6.161
 2437SOL    HW1 8210   6.553   0.354   6.154
 2437SOL    HW2 8211   6.546   0.509   6.105
 2438SOL     OW 8212   2.832   2.947   1.099
 2438SOL    HW1 8213   2.760   2.995   1.049
 2438SOL    HW2 8214   2.793   2.910   1.184
 2439SOL     OW 8215   6.122   4.362   4.778
 2439SOL    HW1 8216   6.024   4.363   4.796
 2439SOL    HW2 8217   6.143   4.288   4.713
 2440SOL     OW 8218   5.940   4.947   5.671
 2440SOL    HW1 8219   6.001   4.868   5.671
 2440SOL    HW2 8220   5.993   5.029   5.648
 2441SOL     OW 8221   6.359   1.923   0.795
 2441SOL    HW1 8222   6.289   1.857   0.769
 2441SOL    HW2 8223   6.322   1.987   0.862
 2442SOL     OW 8224   6.788   3.339   5.454
 2442SOL    HW1 8225   6.795   3.301   5.546
 2442SOL    HW2 8226   6.872   3.321   5.403
 2443SOL     OW 8227   2.706   4.938   5.649
 2443SOL    HW1 8228   2.763   4.946   5.568
 2443SOL    HW2 8229   2.640   5.013   5.653
 2444SOL     OW 8230   3.525   2.834   5.651
 2444SOL    HW1 8231   3.456   2.892   5.607
 2444SOL    HW2 8232   3.495   2.739   5.649
 2445SOL     OW 8233   0.614   7.017   0.635
 2445SOL    HW1 8234   0.632   7.010   0.537
 2445SOL    HW2 8235   0.573   0.086   0.656
 2446SOL     OW 8236   5.470   3.829   6.356
 2446SOL    HW1 8237   5.514   3.822   6.266
 2446SOL    HW2 8238   5.447   3.737   6.389
 2447SOL     OW 8239   0.540   2.713   6.506
 2447SOL    HW1 8240   0.520   2.808   6.531
 2447SOL    HW2 8241   0.525   2.654   6.586
 2448SOL     OW 8242   0.055   0.309   4.591
 2448SOL    HW1 8243   6.985   0.326   4.632
 2448SOL    HW2 8244   0.049   0.228   4.532
 2449SOL     OW 8245   0.740   2.753   4.631
 2449SOL    HW1 8246   0.712   2.840   4.591
 2449SOL    HW2 8247   0.697   2.678   4.581
 2450SOL     OW 8248   1.334   3.401   1.818
 2450SOL    HW1 8249   1.345   3.493   1.856
 2450SOL    HW2 8250   1.264   3.352   1.870
 2451SOL     OW 8251   2.547   6.569   4.685
 2451SOL    HW1 8252   2.568   6.475   4.659
 2451SOL    HW2 8253   2.593   6.632   4.623
 2452SOL     OW 8254   2.341   2.480   4.267
 2452SOL    HW1 8255   2.318   2.415   4.339
 2452SOL    HW2 8256   2.438   2.472   4.244
 2453SOL     OW 8257   0.329   3.414   1.707
 2453SOL    HW1 8258   0.369   3.334   1.752
 2453SOL    HW2 8259   0.270   3.462   1.772
 2454SOL     OW 8260   2.198   0.012   1.390
 2454SOL    HW1 8261   2.176   0.051   1.480
 2454SOL    HW2 8262   2.156   0.069   1.319
 2455SOL     OW 8263   5.088   3.627   1.154
 2455SOL    HW1 8264   5.074   3.571   1.236
 2455SOL    HW2 8265   5.056   3.577   1.074
 2456SOL     OW 8266   2.797   0.002   0.948
 2456SOL    HW1 8267   2.719   6.965   0.921
 2456SOL    HW2 8268   2.870   7.011   0.881
 2457SOL     OW 8269   5.853   5.842   1.322
 2457SOL    HW1 8270   5.894   5.931   1.301
 2457SOL    HW2 8271   5.765   5.856   1.367
 2458SOL     OW 8272   0.351   5.622   2.794
 2458SOL    HW1 8273   0.362   5.541   2.737
 2458SOL    HW2 8274   0.259   5.660   2.783
 2459SOL     OW 8275   0.438   1.423   0.297
 2459SOL    HW1 8276   0.399   1.495   0.355
 2459SOL    HW2 8277   0.365   1.380   0.244
 2460SOL     OW 8278   3.180   4.714   1.303
 2460SOL    HW1 8279   3.206   4.712   1.399
 2460SOL    HW2 8280   3.141   4.803   1.280
 2461SOL     OW 8281   4.984   1.660   3.352
 2461SOL    HW1 8282   4.983   1.599   3.431
 2461SOL    HW2 8283   5.032   1.615   3.276
 2462SOL     OW 8284   2.882   4.244   6.119
 2462SOL    HW1 8285   2.938   4.176   6.072
 2462SOL    HW2 8286   2.928   4.270   6.205
 2463SOL     OW 8287   0.441   2.170   4.706
 2463SOL    HW1 8288   0.382   2.154   4.627
 2463SOL    HW2 8289   0.486   2.259   4.697
 2464SOL     OW 8290   1.491   4.088   0.798
 2464SOL    HW1 8291   1.580   4.133   0.802
 2464SOL    HW2 8292   1.482   4.039   0.711
 2465SOL     OW 8293   5.779   5.188   2.505
 2465SOL    HW1 8294   5.863   5.145   2.536
 2465SOL    HW2 8295   5.702   5.125   2.517
 2466SOL     OW 8296   3.602   1.440   1.534
 2466SOL    HW1 8297   3.660   1.505   1.485
 2466SOL    HW2 8298   3.635   1.347   1.520
 2467SOL     OW 8299   0.168   1.421   5.244
 2467SOL    HW1 8300   0.170   1.485   5.167
 2467SOL    HW2 8301   0.257   1.377   5.254
 2468SOL     OW 8302   6.729   4.415   0.555
 2468SOL    HW1 8303   6.715   4.346   0.627
 2468SOL    HW2 8304   6.827   4.432   0.545
 2469SOL     OW 8305   2.844   2.754   5.786
 2469SOL    HW1 8306   2.805   2.779   5.698
 2469SOL    HW2 8307   2.907   2.825   5.817
 2470SOL     OW 8308   5.695   2.754   0.821
 2470SOL    HW1 8309   5.756   2.679   0.796
 2470SOL    HW2 8310   5.616   2.718   0.871
 2471SOL     OW 8311   0.316   1.245   3.670
 2471SOL    HW1 8312   0.324   1.154   3.712
 2471SOL    HW2 8313   0.247   1.242   3.597
 2472SOL     OW 8314   5.681   1.483   3.630
 2472SOL    HW1 8315   5.746   1.555   3.608
 2472SOL    HW2 8316   5.669   1.423   3.550
 2473SOL     OW 8317   0.550   6.458   5.331
 2473SOL    HW1 8318   0.612   6.533   5.310
 2473SOL    HW2 8319   0.603   6.376   5.353
 2474SOL     OW 8320   6.174   6.779   4.392
 2474SOL    HW1 8321   6.151   6.876   4.382
 2474SOL    HW2 8322   6.156   6.750   4.487
 2475SOL     OW 8323   4.350   2.183   6.058
 2475SOL    HW1 8324   4.389   2.151   5.971
 2475SOL    HW2 8325   4.270   2.127   6.081
 2476SOL     OW 8326   0.136   1.827   3.809
 2476SOL    HW1 8327   0.234   1.845   3.816
 2476SOL    HW2 8328   0.117   1.775   3.726
 2477SOL     OW 8329   4.374   5.135   1.985
 2477SOL    HW1 8330   4.455   5.194   1.984
 2477SOL    HW2 8331   4.320   5.154   2.067
 2478SOL     OW 8332   0.082   6.836   3.249
 2478SOL    HW1 8333   7.005   6.863   3.252
 2478SOL    HW2 8334   0.088   6.739   3.222
 2479SOL     OW 8335   0.445   2.097   6.861
 2479SOL    HW1 8336   0.457   2.174   6.924
 2479SOL    HW2 8337   0.456   2.129   6.767
 2480SOL     OW 8338   0.260   5.173   2.149
 2480SOL    HW1 8339   0.252   5.259   2.098
 2480SOL    HW2 8340   0.238   5.096   2.089
 2481SOL     OW 8341   3.904   4.911   2.301
 2481SOL    HW1 8342   3.922   5.004   2.270
 2481SOL    HW2 8343   3.870   4.856   2.224
 2482SOL     OW 8344   5.295   2.766   4.362
 2482SOL    HW1 8345   5.231   2.689   4.365
 2482SOL    HW2 8346   5.385   2.735   4.390
 2483SOL     OW 8347   0.673   2.896   6.952
 2483SOL    HW1 8348   0.704   2.922   0.025
 2483SOL    HW2 8349   0.714   2.957   6.885
 2484SOL     OW 8350   3.910   3.462   6.398
 2484SOL    HW1 8351   3.915   3.560   6.416
 2484SOL    HW2 8352   3.838   3.444   6.331
 2485SOL     OW 8353   0.393   6.332   0.367
 2485SOL    HW1 8354   0.313   6.356   0.422
 2485SOL    HW2 8355   0.470   6.312   0.428
 2486SOL     OW 8356   0.736   4.870   3.665
 2486SOL    HW1 8357   0.700   4.811   3.737
 2486SOL    HW2 8358   0.741   4.964   3.698
 2487SOL     OW 8359   3.337   1.455   1.450
 2487SOL    HW1 8360   3.356   1.389   1.377
 2487SOL    HW2 8361   3.418   1.463   1.509
 2488SOL     OW 8362   2.638   5.921   6.274
 2488SOL    HW1 8363   2.683   5.963   6.353
 2488SOL    HW2 8364   2.693   5.844   6.241
 2489SOL     OW 8365   0.092   6.119   4.328
 2489SOL    HW1 8366   0.036   6.125   4.245
 2489SOL    HW2 8367   0.185   6.150   4.307
 2490SOL     OW 8368   5.296   3.210   1.724
 2490SOL    HW1 8369   5.391   3.190   1.746
 2490SOL    HW2 8370   5.271   3.164   1.638
 2491SOL     OW 8371   6.998   4.341   2.805
 2491SOL    HW1 8372   6.940   4.307   2.731
 2491SOL    HW2 8373   6.961   4.310   2.893
 2492SOL     OW 8374   3.834   1.231   5.956
 2492SOL    HW1 8375   3.749   1.277   5.931
 2492SOL    HW2 8376   3.905   1.255   5.889
 2493SOL     OW 8377   6.649   0.996   4.996
 2493SOL    HW1 8378   6.713   1.071   5.006
 2493SOL    HW2 8379   6.683   0.931   4.927
 2494SOL     OW 8380   4.514   4.846   0.737
 2494SOL    HW1 8381   4.501   4.945   0.739
 2494SOL    HW2 8382   4.593   4.822   0.793
 2495SOL     OW 8383   6.832   0.970   2.935
 2495SOL    HW1 8384   6.748   0.919   2.916
 2495SOL    HW2 8385   6.855   0.961   3.032
 2496SOL     OW 8386   1.462   5.678   0.197
 2496SOL    HW1 8387   1.401   5.598   0.203
 2496SOL    HW2 8388   1.464   5.711   0.102
 2497SOL     OW 8389   5.474   0.289   6.838
 2497SOL    HW1 8390   5.459   0.280   6.936
 2497SOL    HW2 8391   5.516   0.378   6.819
 2498SOL     OW 8392   1.100   3.125   4.823
 2498SOL    HW1 8393   1.030   3.173   4.876
 2498SOL    HW2 8394   1.067   3.034   4.799
 2499SOL     OW 8395   5.056   0.608   6.887
 2499SOL    HW1 8396   5.125   0.597   6.816
 2499SOL    HW2 8397   5.044   0.521   6.935
 2500SOL     OW 8398   4.129   3.891   6.519
 2500SOL    HW1 8399   4.172   3.956   6.457
 2500SOL    HW2 8400   4.132   3.927   6.612
 2501SOL     OW 8401   6.381   4.829   1.189
 2501SOL    HW1 8402   6.376   4.929   1.178
 2501SOL    HW2 8403   6.291   4.794   1.214
 2502SOL     OW 8404   0.317   6.830   3.488
 2502SOL    HW1 8405   0.247   6.761   3.508
 2502SOL    HW2 8406   0.315   6.853   3.391
 2503SOL     OW 8407   5.402   6.830   4.090
 2503SOL    HW1 8408   5.351   6.814   4.005
 2503SOL    HW2 8409   5.342   6.873   4.157
 2504SOL     OW 8410   2.224   4.295   3.255
 2504SOL    HW1 8411   2.258   4.332   3.169
 2504SOL    HW2 8412   2.210   4.196   3.245
 2505SOL     OW 8413   4.939   4.352   4.826
 2505SOL    HW1 8414   4.983   4.275   4.780
 2505SOL    HW2 8415   4.958   4.348   4.924
 2506SOL     OW 8416   0.506   1.053   0.747
 2506SOL    HW1 8417   0.422   1.106   0.751
 2506SOL    HW2 8418   0.548   1.063   0.656
 2507SOL     OW 8419   6.409   6.821   6.899
 2507SOL    HW1 8420   6.319   6.861   6.883
 2507SOL    HW2 8421   6.418   6.737   6.846
 2508SOL     OW 8422   1.825   2.333   1.654
 2508SOL    HW1 8423   1.794   2.408   1.594
 2508SOL    HW2 8424   1.922   2.345   1.673
 2509SOL     OW 8425   6.096   1.279   3.307
 2509SOL    HW1 8426   6.084   1.218   3.386
 2509SOL    HW2 8427   6.191   1.309   3.303
 2510SOL     OW 8428   3.823   5.633   2.300
 2510SOL    HW1 8429   3.810   5.657   2.396
 2510SOL    HW2 8430   3.918   5.608   2.284
 2511SOL     OW 8431   1.154   6.823   3.442
 2511SOL    HW1 8432   1.201   6.743   3.406
 2511SOL    HW2 8433   1.059   6.801   3.462
 2512SOL     OW 8434   5.822   3.723   4.609
 2512SOL    HW1 8435   5.758   3.777   4.553
 2512SOL    HW2 8436   5.800   3.626   4.601
 2513SOL     OW 8437   6.952   4.456   0.696
 2513SOL    HW1 8438   0.016   4.423   0.652
 2513SOL    HW2 8439   6.949   4.424   0.791
 2514SOL     OW 8440   6.969   2.565   3.910
 2514SOL    HW1 8441   6.969   2.660   3.944
 2514SOL    HW2 8442   6.945   2.504   3.985
 2515SOL     OW 8443   1.043   4.675   0.126
 2515SOL    HW1 8444   1.032   4.749   0.193
 2515SOL    HW2 8445   1.140   4.658   0.109
 2516SOL     OW 8446   5.319   6.458   3.594
 2516SOL    HW1 8447   5.278   6.471   3.504
 2516SOL    HW2 8448   5.248   6.432   3.660
 2517SOL     OW 8449   1.743   5.556   0.980
 2517SOL    HW1 8450   1.769   5.483   0.916
 2517SOL    HW2 8451   1.813   5.566   1.050
 2518SOL     OW 8452   2.039   3.040   6.802
 2518SOL    HW1 8453   1.963   3.044   6.868
 2518SOL    HW2 8454   2.004   3.009   6.714
 2519SOL     OW 8455   6.003   4.452   5.147
 2519SOL    HW1 8456   5.937   4.480   5.217
 2519SOL    HW2 8457   5.955   4.434   5.061
 2520SOL     OW 8458   3.328   5.402   2.043
 2520SOL    HW1 8459   3.272   5.472   1.997
 2520SOL    HW2 8460   3.366   5.340   1.975
 2521SOL     OW 8461   5.280   6.604   5.778
 2521SOL    HW1 8462   5.302   6.529   5.841
 2521SOL    HW2 8463   5.325   6.688   5.809
 2522SOL     OW 8464   2.626   4.828   4.691
 2522SOL    HW1 8465   2.692   4.880   4.745
 2522SOL    HW2 8466   2.537   4.873   4.696
 2523SOL     OW 8467   0.871   2.099   5.261
 2523SOL    HW1 8468   0.942   2.125   5.326
 2523SOL    HW2 8469   0.898   2.016   5.213
 2524SOL     OW 8470   1.557   6.943   4.367
 2524SOL    HW1 8471   1.604   6.868   4.321
 2524SOL    HW2 8472   1.539   7.017   4.302
 2525SOL     OW 8473   2.377   4.669   2.615
 2525SOL    HW1 8474   2.473   4.668   2.642
 2525SOL    HW2 8475   2.350   4.576   2.588
 2526SOL     OW 8476   1.867   2.392   4.683
 2526SOL    HW1 8477   1.851   2.487   4.711
 2526SOL    HW2 8478   1.919   2.391   4.598
 2527SOL     OW 8479   6.849   0.209   4.209
 2527SOL    HW1 8480   6.784   0.138   4.181
 2527SOL    HW2 8481   6.934   0.166   4.238
 2528SOL     OW 8482   5.985   5.353   6.861
 2528SOL    HW1 8483   6.074   5.348   6.906
 2528SOL    HW2 8484   5.930   5.274   6.887
 2529SOL     OW 8485   5.082   3.935   5.328
 2529SOL    HW1 8486   5.112   3.842   5.350
 2529SOL    HW2 8487   4.996   3.931   5.277
 2530SOL     OW 8488   1.106   6.408   3.152
 2530SOL    HW1 8489   1.087   6.506   3.160
 2530SOL    HW2 8490   1.065   6.361   3.230
 2531SOL     OW 8491   4.932   1.346   6.824
 2531SOL    HW1 8492   5.026   1.344   6.788
 2531SOL    HW2 8493   4.888   1.431   6.796
 2532SOL     OW 8494   1.030   4.553   5.514
 2532SOL    HW1 8495   1.081   4.639   5.522
 2532SOL    HW2 8496   1.036   4.503   5.600
 2533SOL     OW 8497   5.613   0.151   5.503
 2533SOL    HW1 8498   5.688   0.098   5.464
 2533SOL    HW2 8499   5.647   0.209   5.577
 2534SOL     OW 8500   6.880   1.893   3.168
 2534SOL    HW1 8501   6.843   1.884   3.260
 2534SOL    HW2 8502   6.917   1.985   3.156
 2535SOL     OW 8503   2.879   1.257   2.764
 2535SOL    HW1 8504   2.862   1.349   2.799
 2535SOL    HW2 8505   2.849   1.189   2.831
 2536SOL     OW 8506   0.031   0.692   4.595
 2536SOL    HW1 8507   6.989   0.758   4.553
 2536SOL    HW2 8508   0.009   0.684   4.693
 2537SOL     OW 8509   3.805   6.309   2.421
 2537SOL    HW1 8510   3.785   6.233   2.482
 2537SOL    HW2 8511   3.741   6.310   2.345
 2538SOL     OW 8512   0.578   4.706   5.279
 2538SOL    HW1 8513   0.582   4.778   5.209
 2538SOL    HW2 8514   0.490   4.660   5.274
 2539SOL     OW 8515   2.215   0.524   5.527
 2539SOL    HW1 8516   2.222   0.440   5.580
 2539SOL    HW2 8517   2.203   0.602   5.590
 2540SOL     OW 8518   4.821   1.824   2.036
 2540SOL    HW1 8519   4.771   1.785   2.114
 2540SOL    HW2 8520   4.798   1.920   2.026
 2541SOL     OW 8521   1.116   1.300   6.294
 2541SOL    HW1 8522   1.101   1.318   6.391
 2541SOL    HW2 8523   1.211   1.318   6.271
 2542SOL     OW 8524   3.682   2.157   3.616
 2542SOL    HW1 8525   3.741   2.194   3.687
 2542SOL    HW2 8526   3.700   2.059   3.606
 2543SOL     OW 8527   6.500   1.221   5.017
 2543SOL    HW1 8528   6.565   1.253   5.085
 2543SOL    HW2 8529   6.529   1.131   4.983
 2544SOL     OW 8530   0.179   6.350   1.743
 2544SOL    HW1 8531   0.169   6.267   1.689
 2544SOL    HW2 8532   0.124   6.423   1.702
 2545SOL     OW 8533   6.835   1.404   0.266
 2545SOL    HW1 8534   6.852   1.474   0.335
 2545SOL    HW2 8535   6.737   1.398   0.247
 2546SOL     OW 8536   6.261   3.121   2.578
 2546SOL    HW1 8537   6.175   3.159   2.612
 2546SOL    HW2 8538   6.304   3.186   2.515
 2547SOL     OW 8539   5.902   3.962   0.910
 2547SOL    HW1 8540   5.951   3.968   0.823
 2547SOL    HW2 8541   5.967   3.978   0.985
 2548SOL     OW 8542   6.426   0.844   5.633
 2548SOL    HW1 8543   6.483   0.926   5.630
 2548SOL    HW2 8544   6.477   0.769   5.672
 2549SOL     OW 8545   2.659   5.217   0.571
 2549SOL    HW1 8546   2.574   5.206   0.520
 2549SOL    HW2 8547   2.651   5.171   0.660
 2550SOL     OW 8548   3.765   6.528   1.016
 2550SOL    HW1 8549   3.712   6.571   0.943
 2550SOL    HW2 8550   3.720   6.443   1.044
 2551SOL     OW 8551   3.395   4.868   1.115
 2551SOL    HW1 8552   3.474   4.812   1.138
 2551SOL    HW2 8553   3.317   4.840   1.170
 2552SOL     OW 8554   2.161   4.170   1.538
 2552SOL    HW1 8555   2.223   4.128   1.604
 2552SOL    HW2 8556   2.068   4.172   1.576
 2553SOL     OW 8557   4.611   0.929   6.882
 2553SOL    HW1 8558   4.605   0.896   6.976
 2553SOL    HW2 8559   4.583   0.855   6.820
 2554SOL     OW 8560   0.927   5.749   1.321
 2554SOL    HW1 8561   0.911   5.666   1.267
 2554SOL    HW2 8562   0.958   5.823   1.261
 2555SOL     OW 8563   0.317   6.404   5.223
 2555SOL    HW1 8564   0.323   6.305   5.230
 2555SOL    HW2 8565   0.386   6.446   5.281
 2556SOL     OW 8566   4.471   0.004   1.418
 2556SOL    HW1 8567   4.484   6.961   1.342
 2556SOL    HW2 8568   4.426   0.088   1.387
 2557SOL     OW 8569   2.787   1.052   0.177
 2557SOL    HW1 8570   2.772   1.066   0.079
 2557SOL    HW2 8571   2.749   0.964   0.204
 2558SOL     OW 8572   5.321   1.685   1.412
 2558SOL    HW1 8573   5.313   1.739   1.328
 2558SOL    HW2 8574   5.344   1.746   1.489
 2559SOL     OW 8575   6.631   5.432   3.513
 2559SOL    HW1 8576   6.554   5.465   3.567
 2559SOL    HW2 8577   6.712   5.487   3.534
 2560SOL     OW 8578   4.611   2.478   2.024
 2560SOL    HW1 8579   4.519   2.443   2.041
 2560SOL    HW2 8580   4.622   2.567   2.067
 2561SOL     OW 8581   3.197   0.000   4.660
 2561SOL    HW1 8582   3.131   0.068   4.693
 2561SOL    HW2 8583   3.238   0.032   4.575
 2562SOL     OW 8584   1.689   6.406   5.076
 2562SOL    HW1 8585   1.659   6.458   5.156
 2562SOL    HW2 8586   1.786   6.384   5.085
 2563SOL     OW 8587   3.575   2.862   6.509
 2563SOL    HW1 8588   3.504   2.890   6.573
 2563SOL    HW2 8589   3.532   2.835   6.422
 2564SOL     OW 8590   1.451   1.590   0.146
 2564SOL    HW1 8591   1.475   1.675   0.099
 2564SOL    HW2 8592   1.534   1.540   0.171
 2565SOL     OW 8593   0.635   0.855   0.897
 2565SOL    HW1 8594   0.597   0.932   0.845
 2565SOL    HW2 8595   0.709   0.813   0.845
 2566SOL     OW 8596   2.830   0.944   0.654
 2566SOL    HW1 8597   2.804   0.999   0.734
 2566SOL    HW2 8598   2.804   0.993   0.571
 2567SOL     OW 8599   2.018   0.527   6.498
 2567SOL    HW1 8600   1.990   0.619   6.469
 2567SOL    HW2 8601   2.072   0.485   6.425
 2568SOL     OW 8602   1.988   5.270   1.151
 2568SOL    HW1 8603   1.937   5.185   1.138
 2568SOL    HW2 8604   1.995   5.290   1.249
 2569SOL     OW 8605   1.846   6.298   6.731
 2569SOL    HW1 8606   1.762   6.333   6.772
 2569SOL    HW2 8607   1.823   6.239   6.653
 2570SOL     OW 8608   1.093   6.615   3.913
 2570SOL    HW1 8609   1.096   6.517   3.929
 2570SOL    HW2 8610   1.117   6.664   3.997
 2571SOL     OW 8611   3.623   4.081   3.053
 2571SOL    HW1 8612   3.718   4.077   3.021
 2571SOL    HW2 8613   3.563   4.102   2.976
 2572SOL     OW 8614   2.836   5.298   2.762
 2572SOL    HW1 8615   2.767   5.319   2.831
 2572SOL    HW2 8616   2.906   5.368   2.763
 2573SOL     OW 8617   6.580   1.095   3.224
 2573SOL    HW1 8618   6.556   1.131   3.314
 2573SOL    HW2 8619   6.668   1.133   3.195
 2574SOL     OW 8620   0.389   3.451   2.209
 2574SOL    HW1 8621   0.400   3.374   2.146
 2574SOL    HW2 8622   0.479   3.490   2.228
 2575SOL     OW 8623   5.010   3.527   5.589
 2575SOL    HW1 8624   4.939   3.596   5.606
 2575SOL    HW2 8625   5.047   3.495   5.676
 2576SOL     OW 8626   0.821   0.480   3.341
 2576SOL    HW1 8627   0.792   0.384   3.343
 2576SOL    HW2 8628   0.878   0.500   3.421
 2577SOL     OW 8629   1.522   4.662   1.750
 2577SOL    HW1 8630   1.602   4.693   1.698
 2577SOL    HW2 8631   1.465   4.740   1.775
 2578SOL     OW 8632   4.714   2.583   4.996
 2578SOL    HW1 8633   4.639   2.544   4.942
 2578SOL    HW2 8634   4.762   2.652   4.942
 2579SOL     OW 8635   0.384   1.299   6.529
 2579SOL    HW1 8636   0.398   1.367   6.601
 2579SOL    HW2 8637   0.440   1.322   6.449
 2580SOL     OW 8638   1.921   1.220   5.668
 2580SOL    HW1 8639   1.884   1.206   5.576
 2580SOL    HW2 8640   1.995   1.154   5.684
 2581SOL     OW 8641   6.197   6.448   4.426
 2581SOL    HW1 8642   6.237   6.360   4.453
 2581SOL    HW2 8643   6.255   6.490   4.356
 2582SOL     OW 8644   6.910   4.745   2.991
 2582SOL    HW1 8645   6.997   4.766   2.947
 2582SOL    HW2 8646   6.851   4.826   2.988
 2583SOL     OW 8647   3.048   1.092   6.771
 2583SOL    HW1 8648   3.144   1.098   6.801
 2583SOL    HW2 8649   3.025   1.174   6.718
 2584SOL     OW 8650   4.287   0.623   3.488
 2584SOL    HW1 8651   4.208   0.685   3.488
 2584SOL    HW2 8652   4.329   0.622   3.398
 2585SOL     OW 8653   4.061   1.169   2.097
 2585SOL    HW1 8654   4.097   1.247   2.149
 2585SOL    HW2 8655   3.997   1.203   2.028
 2586SOL     OW 8656   0.128   1.535   4.437
 2586SOL    HW1 8657   0.090   1.456   4.389
 2586SOL    HW2 8658   0.187   1.503   4.512
 2587SOL     OW 8659   6.915   5.288   2.817
 2587SOL    HW1 8660   7.003   5.336   2.821
 2587SOL    HW2 8661   6.890   5.257   2.909
 2588SOL     OW 8662   4.638   6.946   2.550
 2588SOL    HW1 8663   4.686   0.013   2.544
 2588SOL    HW2 8664   4.568   6.951   2.621
 2589SOL     OW 8665   4.449   6.537   1.318
 2589SOL    HW1 8666   4.396   6.621   1.333
 2589SOL    HW2 8667   4.438   6.477   1.397
 2590SOL     OW 8668   3.726   6.355   3.373
 2590SOL    HW1 8669   3.782   6.352   3.456
 2590SOL    HW2 8670   3.781   6.389   3.297
 2591SOL     OW 8671   6.031   0.674   0.940
 2591SOL    HW1 8672   5.958   0.720   0.990
 2591SOL    HW2 8673   6.118   0.719   0.956
 2592SOL     OW 8674   2.927   4.674   1.674
 2592SOL    HW1 8675   2.907   4.589   1.722
 2592SOL    HW2 8676   2.840   4.721   1.653
 2593SOL     OW 8677   3.478   6.854   3.250
 2593SOL    HW1 8678   3.568   6.811   3.250
 2593SOL    HW2 8679   3.476   6.928   3.317
 2594SOL     OW 8680   0.856   6.044   6.662
 2594SOL    HW1 8681   0.765   6.070   6.694
 2594SOL    HW2 8682   0.858   5.945   6.644
 2595SOL     OW 8683   6.682   2.792   3.975
 2595SOL    HW1 8684   6.663   2.730   3.899
 2595SOL    HW2 8685   6.780   2.792   3.995
 2596SOL     OW 8686   3.851   2.097   0.802
 2596SOL    HW1 8687   3.751   2.093   0.805
 2596SOL    HW2 8688   3.888   2.077   0.893
 2597SOL     OW 8689   2.154   2.429   6.548
 2597SOL    HW1 8690   2.119   2.488   6.475
 2597SOL    HW2 8691   2.227   2.371   6.511
 2598SOL     OW 8692   6.664   0.652   3.086
 2598SOL    HW1 8693   6.679   0.713   3.164
 2598SOL    HW2 8694   6.636   0.562   3.119
 2599SOL     OW 8695   4.902   5.692   6.679
 2599SOL    HW1 8696   4.971   5.658   6.742
 2599SOL    HW2 8697   4.827   5.733   6.730
 2600SOL     OW 8698   0.154   2.351   4.485
 2600SOL    HW1 8699   0.218   2.403   4.541
 2600SOL    HW2 8700   0.202   2.277   4.439
 2601SOL     OW 8701   3.931   4.043   5.117
 2601SOL    HW1 8702   4.007   4.103   5.090
 2601SOL    HW2 8703   3.845   4.080   5.081
 2602SOL     OW 8704   5.924   6.193   6.008
 2602SOL    HW1 8705   5.945   6.273   5.953
 2602SOL    HW2 8706   5.988   6.187   6.085
 2603SOL     OW 8707   1.193   2.235   6.602
 2603SOL    HW1 8708   1.201   2.143   6.563
 2603SOL    HW2 8709   1.141   2.294   6.540
 2604SOL     OW 8710   5.732   1.733   0.568
 2604SOL    HW1 8711   5.773   1.655   0.520
 2604SOL    HW2 8712   5.668   1.700   0.637
 2605SOL     OW 8713   6.112   3.447   4.391
 2605SOL    HW1 8714   6.070   3.411   4.308
 2605SOL    HW2 8715   6.118   3.547   4.385
 2606SOL     OW 8716   6.957   4.350   0.972
 2606SOL    HW1 8717   6.913   4.322   1.057
 2606SOL    HW2 8718   0.004   4.281   0.944
 2607SOL     OW 8719   1.370   1.477   4.309
 2607SOL    HW1 8720   1.286   1.528   4.326
 2607SOL    HW2 8721   1.373   1.396   4.368
 2608SOL     OW 8722   5.092   0.095   0.811
 2608SOL    HW1 8723   5.142   0.009   0.796
 2608SOL    HW2 8724   5.144   0.153   0.874
 2609SOL     OW 8725   0.649   2.676   3.181
 2609SOL    HW1 8726   0.746   2.680   3.159
 2609SOL    HW2 8727   0.622   2.582   3.200
 2610SOL     OW 8728   5.766   6.150   4.250
 2610SOL    HW1 8729   5.861   6.154   4.282
 2610SOL    HW2 8730   5.750   6.063   4.203
 2611SOL     OW 8731   2.694   5.130   1.899
 2611SOL    HW1 8732   2.667   5.226   1.909
 2611SOL    HW2 8733   2.643   5.074   1.965
 2612SOL     OW 8734   0.393   6.757   5.345
 2612SOL    HW1 8735   0.407   6.706   5.430
 2612SOL    HW2 8736   0.388   6.855   5.365
 2613SOL     OW 8737   3.584   0.874   0.685
 2613SOL    HW1 8738   3.588   0.775   0.690
 2613SOL    HW2 8739   3.635   0.905   0.605
 2614SOL     OW 8740   6.376   6.234   6.611
 2614SOL    HW1 8741   6.431   6.157   6.642
 2614SOL    HW2 8742   6.285   6.229   6.654
 2615SOL     OW 8743   5.760   4.426   1.423
 2615SOL    HW1 8744   5.778   4.332   1.451
 2615SOL    HW2 8745   5.662   4.443   1.426
 2616SOL     OW 8746   4.109   3.510   2.203
 2616SOL    HW1 8747   4.143   3.426   2.245
 2616SOL    HW2 8748   4.088   3.577   2.275
 2617SOL     OW 8749   2.625   6.813   0.893
 2617SOL    HW1 8750   2.584   6.881   0.954
 2617SOL    HW2 8751   2.552   6.765   0.843
 2618SOL     OW 8752   0.785   0.140   0.347
 2618SOL    HW1 8753   0.809   0.237   0.350
 2618SOL    HW2 8754   0.853   0.090   0.293
 2619SOL     OW 8755   6.184   1.783   1.720
 2619SOL    HW1 8756   6.151   1.739   1.804
 2619SOL    HW2 8757   6.253   1.851   1.744
 2620SOL     OW 8758   1.357   5.639   4.106
 2620SOL    HW1 8759   1.391   5.622   4.198
 2620SOL    HW2 8760   1.300   5.562   4.076
 2621SOL     OW 8761   0.612   5.175   4.017
 2621SOL    HW1 8762   0.536   5.210   3.962
 2621SOL    HW2 8763   0.587   5.087   4.057
 2622SOL     OW 8764   2.334   2.487   5.254
 2622SOL    HW1 8765   2.417   2.505   5.202
 2622SOL    HW2 8766   2.323   2.557   5.325
 2623SOL     OW 8767   3.541   0.146   6.554
 2623SOL    HW1 8768   3.498   0.222   6.604
 2623SOL    HW2 8769   3.471   0.079   6.530
 2624SOL     OW 8770   6.387   2.104   4.081
 2624SOL    HW1 8771   6.448   2.182   4.068
 2624SOL    HW2 8772   6.384   2.079   4.178
 2625SOL     OW 8773   3.852   0.086   5.858
 2625SOL    HW1 8774   3.938   0.090   5.908
 2625SOL    HW2 8775   3.870   0.063   5.763
 2626SOL     OW 8776   2.105   0.306   2.805
 2626SOL    HW1 8777   2.176   0.251   2.849
 2626SOL    HW2 8778   2.092   0.391   2.856
 2627SOL     OW 8779   0.567   0.630   4.948
 2627SOL    HW1 8780   0.658   0.613   4.910
 2627SOL    HW2 8781   0.568   0.715   5.001
 2628SOL     OW 8782   3.495   6.233   6.951
 2628SOL    HW1 8783   3.480   6.331   6.934
 2628SOL    HW2 8784   3.455   6.208   0.020
 2629SOL     OW 8785   2.898   3.656   1.506
 2629SOL    HW1 8786   2.909   3.754   1.527
 2629SOL    HW2 8787   2.969   3.628   1.443
 2630SOL     OW 8788   2.884   2.292   2.559
 2630SOL    HW1 8789   2.918   2.223   2.623
 2630SOL    HW2 8790   2.935   2.377   2.571
 2631SOL     OW 8791   4.181   5.912   4.763
 2631SOL    HW1 8792   4.101   5.875   4.716
 2631SOL    HW2 8793   4.263   5.896   4.708
 2632SOL     OW 8794   4.719   1.055   1.024
 2632SOL    HW1 8795   4.623   1.075   1.002
 2632SOL    HW2 8796   4.771   1.048   0.939
 2633SOL     OW 8797   6.867   2.663   6.932
 2633SOL    HW1 8798   6.810   2.586   6.904
 2633SOL    HW2 8799   6.828   2.748   6.897
 2634SOL     OW 8800   3.139   5.203   0.967
 2634SOL    HW1 8801   3.126   5.210   0.868
 2634SOL    HW2 8802   3.237   5.199   0.988
 2635SOL     OW 8803   6.357   4.481   3.661
 2635SOL    HW1 8804   6.378   4.469   3.564
 2635SOL    HW2 8805   6.257   4.482   3.673
 2636SOL     OW 8806   5.670   6.262   5.122
 2636SOL    HW1 8807   5.703   6.168   5.111
 2636SOL    HW2 8808   5.720   6.307   5.195
 2637SOL     OW 8809   5.206   6.314   2.355
 2637SOL    HW1 8810   5.142   6.269   2.418
 2637SOL    HW2 8811   5.287   6.256   2.344
 2638SOL     OW 8812   5.434   5.738   0.832
 2638SOL    HW1 8813   5.428   5.729   0.733
 2638SOL    HW2 8814   5.342   5.754   0.869
 2639SOL     OW 8815   6.736   6.388   6.238
 2639SOL    HW1 8816   6.804   6.442   6.188
 2639SOL    HW2 8817   6.736   6.416   6.334
 2640SOL     OW 8818   6.239   6.750   6.519
 2640SOL    HW1 8819   6.173   6.739   6.445
 2640SOL    HW2 8820   6.261   6.847   6.529
 2641SOL     OW 8821   6.121   5.565   0.317
 2641SOL    HW1 8822   6.206   5.615   0.336
 2641SOL    HW2 8823   6.139   5.467   0.323
 2642SOL     OW 8824   6.448   0.651   3.981
 2642SOL    HW1 8825   6.437   0.559   4.020
 2642SOL    HW2 8826   6.389   0.659   3.900
 2643SOL     OW 8827   2.481   0.296   2.163
 2643SOL    HW1 8828   2.413   0.320   2.093
 2643SOL    HW2 8829   2.462   0.347   2.247
 2644SOL     OW 8830   6.964   5.787   5.281
 2644SOL    HW1 8831   6.939   5.745   5.369
 2644SOL    HW2 8832   6.904   5.864   5.263
 2645SOL     OW 8833   5.990   5.792   5.918
 2645SOL    HW1 8834   6.024   5.877   5.879
 2645SOL    HW2 8835   6.031   5.715   5.870
 2646SOL     OW 8836   5.677   6.123   6.735
 2646SOL    HW1 8837   5.734   6.079   6.665
 2646SOL    HW2 8838   5.689   6.075   6.822
 2647SOL     OW 8839   3.006   3.393   0.112
 2647SOL    HW1 8840   3.095   3.369   0.151
 2647SOL    HW2 8841   3.011   3.388   0.012
 2648SOL     OW 8842   4.108   1.219   3.723
 2648SOL    HW1 8843   4.163   1.302   3.734
 2648SOL    HW2 8844   4.159   1.153   3.667
 2649SOL     OW 8845   3.025   3.168   5.379
 2649SOL    HW1 8846   2.989   3.175   5.286
 2649SOL    HW2 8847   2.966   3.218   5.442
 2650SOL     OW 8848   6.649   6.615   2.521
 2650SOL    HW1 8849   6.746   6.627   2.542
 2650SOL    HW2 8850   6.608   6.705   2.504
 2651SOL     OW 8851   0.570   0.145   3.725
 2651SOL    HW1 8852   0.551   0.210   3.651
 2651SOL    HW2 8853   0.512   0.165   3.803
 2652SOL     OW 8854   3.183   3.002   3.085
 2652SOL    HW1 8855   3.106   3.062   3.104
 2652SOL    HW2 8856   3.216   2.962   3.171
 2653SOL     OW 8857   6.894   6.069   0.200
 2653SOL    HW1 8858   6.878   6.168   0.199
 2653SOL    HW2 8859   6.860   6.031   0.286
 2654SOL     OW 8860   6.342   1.164   5.714
 2654SOL    HW1 8861   6.377   1.225   5.644
 2654SOL    HW2 8862   6.369   1.197   5.804
 2655SOL     OW 8863   5.004   5.507   4.769
 2655SOL    HW1 8864   5.007   5.605   4.789
 2655SOL    HW2 8865   4.978   5.493   4.673
 2656SOL     OW 8866   5.607   3.416   5.080
 2656SOL    HW1 8867   5.521   3.456   5.112
 2656SOL    HW2 8868   5.653   3.481   5.019
 2657SOL     OW 8869   3.196   2.057   5.948
 2657SOL    HW1 8870   3.193   2.074   5.850
 2657SOL    HW2 8871   3.206   2.144   5.997
 2658SOL     OW 8872   6.077   4.210   5.263
 2658SOL    HW1 8873   6.048   4.284   5.202
 2658SOL    HW2 8874   6.044   4.229   5.356
 2659SOL     OW 8875   6.530   1.452   3.840
 2659SOL    HW1 8876   6.473   1.513   3.784
 2659SOL    HW2 8877   6.550   1.369   3.788
 2660SOL     OW 8878   6.978   2.203   3.210
 2660SOL    HW1 8879   7.006   2.150   3.130
 2660SOL    HW2 8880   7.017   2.295   3.205
 2661SOL     OW 8881   3.617   6.948   2.456
 2661SOL    HW1 8882   3.585   6.860   2.421
 2661SOL    HW2 8883   3.674   6.993   2.387
 2662SOL     OW 8884   3.702   0.956   3.814
 2662SOL    HW1 8885   3.767   0.883   3.791
 2662SOL    HW2 8886   3.695   1.019   3.738
 2663SOL     OW 8887   0.519   4.182   2.776
 2663SOL    HW1 8888   0.426   4.159   2.803
 2663SOL    HW2 8889   0.563   4.102   2.734
 2664SOL     OW 8890   4.175   4.027   1.730
 2664SOL    HW1 8891   4.114   4.067   1.662
 2664SOL    HW2 8892   4.244   4.095   1.756
 2665SOL     OW 8893   4.867   0.489   4.547
 2665SOL    HW1 8894   4.868   0.475   4.448
 2665SOL    HW2 8895   4.950   0.537   4.575
 2666SOL     OW 8896   4.754   6.303   1.652
 2666SOL    HW1 8897   4.799   6.236   1.710
 2666SOL    HW2 8898   4.768   6.279   1.556
 2667SOL     OW 8899   2.128   5.234   3.060
 2667SOL    HW1 8900   2.150   5.267   3.151
 2667SOL    HW2 8901   2.032   5.254   3.039
 2668SOL     OW 8902   6.635   2.348   5.601
 2668SOL    HW1 8903   6.658   2.420   5.535
 2668SOL    HW2 8904   6.715   2.326   5.656
 2669SOL     OW 8905   4.356   5.599   5.152
 2669SOL    HW1 8906   4.387   5.649   5.072
 2669SOL    HW2 8907   4.373   5.653   5.235
 2670SOL     OW 8908   2.578   0.076   5.307
 2670SOL    HW1 8909   2.663   0.128   5.298
 2670SOL    HW2 8910   2.551   0.073   5.404
 2671SOL     OW 8911   3.179   4.477   6.258
 2671SOL    HW1 8912   3.168   4.379   6.273
 2671SOL    HW2 8913   3.163   4.498   6.161
 2672SOL     OW 8914   1.322   4.311   0.139
 2672SOL    HW1 8915   1.418   4.286   0.126
 2672SOL    HW2 8916   1.289   4.272   0.225
 2673SOL     OW 8917   4.246   2.289   3.588
 2673SOL    HW1 8918   4.160   2.242   3.612
 2673SOL    HW2 8919   4.237   2.329   3.497
 2674SOL     OW 8920   6.444   5.743   5.495
 2674SOL    HW1 8921   6.473   5.650   5.515
 2674SOL    HW2 8922   6.366   5.768   5.553
 2675SOL     OW 8923   0.726   4.405   5.173
 2675SOL    HW1 8924   0.757   4.486   5.224
 2675SOL    HW2 8925   0.672   4.347   5.233
 2676SOL     OW 8926   4.738   0.326   1.872
 2676SOL    HW1 8927   4.818   0.283   1.831
 2676SOL    HW2 8928   4.656   0.273   1.849
 2677SOL     OW 8929   2.573   4.557   2.324
 2677SOL    HW1 8930   2.641   4.629   2.335
 2677SOL    HW2 8931   2.519   4.574   2.241
 2678SOL     OW 8932   0.062   6.862   6.156
 2678SOL    HW1 8933   0.036   6.954   6.183
 2678SOL    HW2 8934   0.090   6.810   6.236
 2679SOL     OW 8935   2.706   5.014   1.340
 2679SOL    HW1 8936   2.783   5.056   1.387
 2679SOL    HW2 8937   2.712   5.035   1.242
 2680SOL     OW 8938   1.534   2.687   1.365
 2680SOL    HW1 8939   1.557   2.716   1.272
 2680SOL    HW2 8940   1.534   2.767   1.426
 2681SOL     OW 8941   1.867   1.824   2.189
 2681SOL    HW1 8942   1.827   1.861   2.274
 2681SOL    HW2 8943   1.804   1.841   2.113
 2682SOL     OW 8944   6.317   2.608   4.017
 2682SOL    HW1 8945   6.263   2.597   3.934
 2682SOL    HW2 8946   6.407   2.566   4.005
 2683SOL     OW 8947   1.583   0.388   0.590
 2683SOL    HW1 8948   1.593   0.420   0.495
 2683SOL    HW2 8949   1.492   0.349   0.603
 2684SOL     OW 8950   2.643   5.554   3.174
 2684SOL    HW1 8951   2.628   5.515   3.265
 2684SOL    HW2 8952   2.561   5.604   3.146
 2685SOL     OW 8953   5.352   6.190   5.259
 2685SOL    HW1 8954   5.447   6.218   5.246
 2685SOL    HW2 8955   5.325   6.129   5.185
 2686SOL     OW 8956   1.402   2.990   4.471
 2686SOL    HW1 8957   1.311   3.028   4.489
 2686SOL    HW2 8958   1.393   2.893   4.446
 2687SOL     OW 8959   4.785   4.601   3.071
 2687SOL    HW1 8960   4.687   4.619   3.065
 2687SOL    HW2 8961   4.835   4.687   3.061
 2688SOL     OW 8962   3.955   4.964   5.915
 2688SOL    HW1 8963   4.017   5.042   5.917
 2688SOL    HW2 8964   3.963   4.917   5.827
 2689SOL     OW 8965   6.907   3.238   4.336
 2689SOL    HW1 8966   6.910   3.331   4.372
 2689SOL    HW2 8967   6.979   3.184   4.380
 2690SOL     OW 8968   3.527   2.898   3.046
 2690SOL    HW1 8969   3.466   2.898   3.124
 2690SOL    HW2 8970   3.476   2.876   2.963
 2691SOL     OW 8971   1.260   5.739   1.748
 2691SOL    HW1 8972   1.231   5.767   1.657
 2691SOL    HW2 8973   1.204   5.786   1.817
 2692SOL     OW 8974   0.275   5.346   3.221
 2692SOL    HW1 8975   0.273   5.261   3.168
 2692SOL    HW2 8976   0.233   5.420   3.169
 2693SOL     OW 8977   1.840   3.481   2.928
 2693SOL    HW1 8978   1.753   3.517   2.962
 2693SOL    HW2 8979   1.916   3.535   2.966
 2694SOL     OW 8980   2.863   1.149   3.095
 2694SOL    HW1 8981   2.880   1.221   3.162
 2694SOL    HW2 8982   2.765   1.131   3.089
 2695SOL     OW 8983   4.046   2.091   2.370
 2695SOL    HW1 8984   4.089   2.148   2.440
 2695SOL    HW2 8985   3.948   2.085   2.387
 2696SOL     OW 8986   4.103   3.916   5.380
 2696SOL    HW1 8987   4.066   3.931   5.289
 2696SOL    HW2 8988   4.103   3.818   5.400
 2697SOL     OW 8989   2.763   1.928   4.565
 2697SOL    HW1 8990   2.721   1.840   4.542
 2697SOL    HW2 8991   2.730   1.960   4.654
 2698SOL     OW 8992   2.080   3.312   6.503
 2698SOL    HW1 8993   2.146   3.292   6.431
 2698SOL    HW2 8994   2.017   3.235   6.513
 2699SOL     OW 8995   2.730   6.086   2.866
 2699SOL    HW1 8996   2.719   6.031   2.949
 2699SOL    HW2 8997   2.718   6.029   2.785
 2700SOL     OW 8998   1.705   4.364   3.131
 2700SOL    HW1 8999   1.610   4.335   3.118
 2700SOL    HW2 9000   1.765   4.284   3.122
 2701SOL     OW 9001   3.676   0.306   5.248
 2701SOL    HW1 9002   3.773   0.327   5.236
 2701SOL    HW2 9003   3.643   0.347   5.333
 2702SOL     OW 9004   7.019   6.377   2.558
 2702SOL    HW1 9005   6.974   6.319   2.490
 2702SOL    HW2 9006   6.981   6.469   2.553
 2703SOL     OW 9007   1.635   1.836   3.077
 2703SOL    HW1 9008   1.727   1.875   3.072
 2703SOL    HW2 9009   1.604   1.813   2.985
 2704SOL     OW 9010   1.126   6.448   0.085
 2704SOL    HW1 9011   1.160   6.418   7.015
 2704SOL    HW2 9012   1.027   6.438   0.088
 2705SOL     OW 9013   0.165   3.855   2.880
 2705SOL    HW1 9014   0.218   3.872   2.797
 2705SOL    HW2 9015   0.073   3.892   2.869
 2706SOL     OW 9016   6.512   2.356   2.484
 2706SOL    HW1 9017   6.505   2.416   2.564
 2706SOL    HW2 9018   6.609   2.339   2.464
 2707SOL     OW 9019   2.305   1.485   5.910
 2707SOL    HW1 9020   2.376   1.430   5.866
 2707SOL    HW2 9021   2.288   1.451   6.002
 2708SOL     OW 9022   1.640   4.374   0.772
 2708SOL    HW1 9023   1.607   4.371   0.677
 2708SOL    HW2 9024   1.705   4.450   0.782
 2709SOL     OW 9025   4.180   6.645   1.520
 2709SOL    HW1 9026   4.088   6.670   1.550
 2709SOL    HW2 9027   4.245   6.665   1.593
 2710SOL     OW 9028   6.474   4.018   2.650
 2710SOL    HW1 9029   6.403   4.088   2.661
 2710SOL    HW2 9030   6.518   4.029   2.561
 2711SOL     OW 9031   1.209   6.751   2.206
 2711SOL    HW1 9032   1.189   6.676   2.269
 2711SOL    HW2 9033   1.207   6.716   2.112
 2712SOL     OW 9034   3.439   5.323   2.801
 2712SOL    HW1 9035   3.368   5.260   2.768
 2712SOL    HW2 9036   3.398   5.413   2.817
 2713SOL     OW 9037   2.316   2.381   4.986
 2713SOL    HW1 9038   2.270   2.417   5.067
 2713SOL    HW2 9039   2.390   2.443   4.960
 2714SOL     OW 9040   5.400   0.196   5.877
 2714SOL    HW1 9041   5.412   0.162   5.971
 2714SOL    HW2 9042   5.346   0.280   5.880
 2715SOL     OW 9043   5.894   6.855   0.286
 2715SOL    HW1 9044   5.819   6.822   0.343
 2715SOL    HW2 9045   5.861   6.930   0.228
 2716SOL     OW 9046   6.917   6.654   2.532
 2716SOL    HW1 9047   6.990   6.676   2.468
 2716SOL    HW2 9048   6.932   6.704   2.618
 2717SOL     OW 9049   0.800   6.941   3.275
 2717SOL    HW1 9050   0.826   6.857   3.322
 2717SOL    HW2 9051   0.882   6.990   3.246
 2718SOL     OW 9052   0.523   4.550   3.215
 2718SOL    HW1 9053   0.563   4.460   3.201
 2718SOL    HW2 9054   0.521   4.600   3.128
 2719SOL     OW 9055   4.319   4.600   2.909
 2719SOL    HW1 9056   4.391   4.592   2.978
 2719SOL    HW2 9057   4.312   4.514   2.858
 2720SOL     OW 9058   0.815   6.212   3.882
 2720SOL    HW1 9059   0.891   6.257   3.929
 2720SOL    HW2 9060   0.730   6.262   3.901
 2721SOL     OW 9061   5.205   6.301   4.138
 2721SOL    HW1 9062   5.205   6.280   4.236
 2721SOL    HW2 9063   5.122   6.352   4.114
 2722SOL     OW 9064   1.287   6.054   1.298
 2722SOL    HW1 9065   1.292   6.061   1.199
 2722SOL    HW2 9066   1.379   6.039   1.335
 2723SOL     OW 9067   2.201   1.886   4.536
 2723SOL    HW1 9068   2.130   1.940   4.581
 2723SOL    HW2 9069   2.269   1.947   4.495
 2724SOL     OW 9070   3.361   6.143   6.653
 2724SOL    HW1 9071   3.440   6.183   6.700
 2724SOL    HW2 9072   3.286   6.209   6.652
 2725SOL     OW 9073   2.654   4.773   3.470
 2725SOL    HW1 9074   2.639   4.746   3.565
 2725SOL    HW2 9075   2.613   4.705   3.410
 2726SOL     OW 9076   4.919   6.556   2.577
 2726SOL    HW1 9077   4.979   6.491   2.623
 2726SOL    HW2 9078   4.846   6.506   2.530
 2727SOL     OW 9079   2.115   5.862   3.429
 2727SOL    HW1 9080   2.125   5.947   3.481
 2727SOL    HW2 9081   2.026   5.821   3.451
 2728SOL     OW 9082   3.777   6.689   5.352
 2728SOL    HW1 9083   3.691   6.741   5.355
 2728SOL    HW2 9084   3.848   6.740   5.400
 2729SOL     OW 9085   6.893   4.706   2.422
 2729SOL    HW1 9086   6.915   4.755   2.338
 2729SOL    HW2 9087   6.884   4.771   2.497
 2730SOL     OW 9088   1.390   4.892   1.820
 2730SOL    HW1 9089   1.310   4.890   1.880
 2730SOL    HW2 9090   1.427   4.985   1.817
 2731SOL     OW 9091   3.133   3.616   1.039
 2731SOL    HW1 9092   3.205   3.598   0.973
 2731SOL    HW2 9093   3.086   3.531   1.062
 2732SOL     OW 9094   5.522   3.189   4.160
 2732SOL    HW1 9095   5.449   3.126   4.186
 2732SOL    HW2 9096   5.605   3.168   4.212
 2733SOL     OW 9097   2.491   0.483   5.920
 2733SOL    HW1 9098   2.588   0.475   5.897
 2733SOL    HW2 9099   2.444   0.399   5.892
 2734SOL     OW 9100   2.693   6.992   3.924
 2734SOL    HW1 9101   2.632   0.018   3.858
 2734SOL    HW2 9102   2.643   6.919   3.970
 2735SOL     OW 9103   1.375   5.192   1.265
 2735SOL    HW1 9104   1.342   5.243   1.185
 2735SOL    HW2 9105   1.440   5.123   1.235
 2736SOL     OW 9106   3.444   6.796   6.370
 2736SOL    HW1 9107   3.452   6.698   6.390
 2736SOL    HW2 9108   3.534   6.831   6.341
 2737SOL     OW 9109   4.569   2.924   5.684
 2737SOL    HW1 9110   4.639   2.881   5.628
 2737SOL    HW2 9111   4.536   3.007   5.639
 2738SOL     OW 9112   5.767   4.468   4.257
 2738SOL    HW1 9113   5.811   4.556   4.275
 2738SOL    HW2 9114   5.830   4.393   4.281
 2739SOL     OW 9115   5.218   4.048   0.338
 2739SOL    HW1 9116   5.219   3.953   0.369
 2739SOL    HW2 9117   5.126   4.072   0.305
 2740SOL     OW 9118   6.325   2.309   3.443
 2740SOL    HW1 9119   6.310   2.278   3.537
 2740SOL    HW2 9120   6.272   2.252   3.380
 2741SOL     OW 9121   1.741   2.932   4.879
 2741SOL    HW1 9122   1.796   3.000   4.928
 2741SOL    HW2 9123   1.694   2.977   4.803
 2742SOL     OW 9124   3.206   6.011   5.722
 2742SOL    HW1 9125   3.125   6.060   5.690
 2742SOL    HW2 9126   3.180   5.918   5.749
 2743SOL     OW 9127   6.008   4.701   0.481
 2743SOL    HW1 9128   6.011   4.801   0.488
 2743SOL    HW2 9129   5.982   4.662   0.569
 2744SOL     OW 9130   4.110   0.497   0.693
 2744SOL    HW1 9131   4.044   0.446   0.637
 2744SOL    HW2 9132   4.061   0.557   0.756
 2745SOL     OW 9133   2.164   5.845   1.173
 2745SOL    HW1 9134   2.107   5.902   1.114
 2745SOL    HW2 9135   2.153   5.873   1.268
 2746SOL     OW 9136   0.840   2.396   6.101
 2746SOL    HW1 9137   0.926   2.401   6.050
 2746SOL    HW2 9138   0.852   2.437   6.191
 2747SOL     OW 9139   5.489   5.654   3.752
 2747SOL    HW1 9140   5.560   5.722   3.731
 2747SOL    HW2 9141   5.416   5.660   3.683
 2748SOL     OW 9142   4.582   0.740   4.445
 2748SOL    HW1 9143   4.614   0.689   4.366
 2748SOL    HW2 9144   4.531   0.821   4.414
 2749SOL     OW 9145   5.068   4.268   3.617
 2749SOL    HW1 9146   4.998   4.199   3.595
 2749SOL    HW2 9147   5.023   4.354   3.641
 2750SOL     OW 9148   0.695   6.669   0.574
 2750SOL    HW1 9149   0.700   6.583   0.626
 2750SOL    HW2 9150   0.768   6.730   0.604
 2751SOL     OW 9151   1.992   0.160   6.864
 2751SOL    HW1 9152   2.023   0.234   6.805
 2751SOL    HW2 9153   1.941   0.197   6.941
 2752SOL     OW 9154   6.600   6.729   5.492
 2752SOL    HW1 9155   6.618   6.827   5.484
 2752SOL    HW2 9156   6.684   6.678   5.470
 2753SOL     OW 9157   3.518   5.189   5.270
 2753SOL    HW1 9158   3.546   5.109   5.216
 2753SOL    HW2 9159   3.586   5.262   5.259
 2754SOL     OW 9160   0.906   5.958   4.005
 2754SOL    HW1 9161   0.856   5.893   4.062
 2754SOL    HW2 9162   0.857   6.045   4.003
 2755SOL     OW 9163   4.422   5.715   2.504
 2755SOL    HW1 9164   4.363   5.791   2.479
 2755SOL    HW2 9165   4.512   5.750   2.530
 2756SOL     OW 9166   0.579   2.862   5.519
 2756SOL    HW1 9167   0.547   2.939   5.464
 2756SOL    HW2 9168   0.642   2.895   5.589
 2757SOL     OW 9169   4.651   3.545   6.779
 2757SOL    HW1 9170   4.696   3.628   6.746
 2757SOL    HW2 9171   4.622   3.558   6.874
 2758SOL     OW 9172   6.907   6.742   2.144
 2758SOL    HW1 9173   6.949   6.681   2.077
 2758SOL    HW2 9174   6.963   6.744   2.227
 2759SOL     OW 9175   2.832   3.450   5.222
 2759SOL    HW1 9176   2.902   3.429   5.290
 2759SOL    HW2 9177   2.826   3.549   5.210
 2760SOL     OW 9178   5.875   5.617   2.495
 2760SOL    HW1 9179   5.915   5.695   2.446
 2760SOL    HW2 9180   5.947   5.552   2.519
 2761SOL     OW 9181   1.468   3.488   3.338
 2761SOL    HW1 9182   1.558   3.502   3.297
 2761SOL    HW2 9183   1.470   3.406   3.395
 2762SOL     OW 9184   3.505   1.652   0.913
 2762SOL    HW1 9185   3.481   1.570   0.964
 2762SOL    HW2 9186   3.586   1.695   0.954
 2763SOL     OW 9187   6.072   1.609   3.718
 2763SOL    HW1 9188   6.063   1.620   3.817
 2763SOL    HW2 9189   5.987   1.639   3.673
 2764SOL     OW 9190   0.275   2.946   3.384
 2764SOL    HW1 9191   0.353   2.922   3.441
 2764SOL    HW2 9192   0.307   2.990   3.300
 2765SOL     OW 9193   6.140   6.375   5.888
 2765SOL    HW1 9194   6.140   6.475   5.897
 2765SOL    HW2 9195   6.234   6.343   5.884
 2766SOL     OW 9196   4.473   0.383   0.434
 2766SOL    HW1 9197   4.441   0.289   0.450
 2766SOL    HW2 9198   4.572   0.385   0.437
 2767SOL     OW 9199   0.558   5.256   6.365
 2767SOL    HW1 9200   0.649   5.250   6.324
 2767SOL    HW2 9201   0.537   5.170   6.412
 2768SOL     OW 9202   3.792   6.551   1.476
 2768SOL    HW1 9203   3.831   6.643   1.481
 2768SOL    HW2 9204   3.693   6.556   1.480
 2769SOL     OW 9205   0.429   4.510   5.490
 2769SOL    HW1 9206   0.500   4.512   5.560
 2769SOL    HW2 9207   0.340   4.490   5.532
 2770SOL     OW 9208   2.087   0.332   0.861
 2770SOL    HW1 9209   2.082   0.233   0.864
 2770SOL    HW2 9210   2.008   0.368   0.811
 2771SOL     OW 9211   4.578   6.757   5.535
 2771SOL    HW1 9212   4.530   6.753   5.447
 2771SOL    HW2 9213   4.675   6.776   5.519
 2772SOL     OW 9214   5.045   1.590   3.026
 2772SOL    HW1 9215   5.093   1.678   3.028
 2772SOL    HW2 9216   5.111   1.516   3.009
 2773SOL     OW 9217   6.050   2.626   5.693
 2773SOL    HW1 9218   6.044   2.550   5.757
 2773SOL    HW2 9219   6.012   2.709   5.735
 2774SOL     OW 9220   6.133   0.541   3.982
 2774SOL    HW1 9221   6.074   0.521   3.904
 2774SOL    HW2 9222   6.147   0.459   4.036
 2775SOL     OW 9223   0.086   2.691   4.767
 2775SOL    HW1 9224   0.090   2.787   4.738
 2775SOL    HW2 9225   0.064   2.687   4.864
 2776SOL     OW 9226   4.838   4.480   6.292
 2776SOL    HW1 9227   4.775   4.514   6.362
 2776SOL    HW2 9228   4.912   4.546   6.279
 2777SOL     OW 9229   2.022   2.191   6.492
 2777SOL    HW1 9230   1.926   2.202   6.468
 2777SOL    HW2 9231   2.056   2.276   6.534
 2778SOL     OW 9232   3.148   0.305   6.226
 2778SOL    HW1 9233   3.199   0.349   6.152
 2778SOL    HW2 9234   3.173   0.208   6.231
 2779SOL     OW 9235   5.097   1.443   1.666
 2779SOL    HW1 9236   5.077   1.353   1.705
 2779SOL    HW2 9237   5.012   1.495   1.659
 2780SOL     OW 9238   0.215   1.049   5.250
 2780SOL    HW1 9239   0.246   1.096   5.333
 2780SOL    HW2 9240   0.284   1.058   5.179
 2781SOL     OW 9241   6.964   0.356   3.334
 2781SOL    HW1 9242   6.986   0.322   3.425
 2781SOL    HW2 9243   0.025   0.399   3.293
 2782SOL     OW 9244   5.460   0.500   5.627
 2782SOL    HW1 9245   5.381   0.512   5.567
 2782SOL    HW2 9246   5.497   0.408   5.615
 2783SOL     OW 9247   5.645   2.840   1.626
 2783SOL    HW1 9248   5.657   2.940   1.622
 2783SOL    HW2 9249   5.700   2.804   1.701
 2784SOL     OW 9250   0.091   3.179   1.623
 2784SOL    HW1 9251   0.135   3.134   1.544
 2784SOL    HW2 9252   7.012   3.180   1.609
 2785SOL     OW 9253   5.215   3.689   2.844
 2785SOL    HW1 9254   5.196   3.674   2.747
 2785SOL    HW2 9255   5.134   3.665   2.898
 2786SOL     OW 9256   0.886   6.037   0.715
 2786SOL    HW1 9257   0.831   5.956   0.694
 2786SOL    HW2 9258   0.983   6.013   0.706
 2787SOL     OW 9259   0.497   5.748   6.492
 2787SOL    HW1 9260   0.432   5.798   6.435
 2787SOL    HW2 9261   0.590   5.762   6.458
 2788SOL     OW 9262   2.525   6.467   0.036
 2788SOL    HW1 9263   2.544   6.565   0.047
 2788SOL    HW2 9264   2.560   6.417   0.115
 2789SOL     OW 9265   1.666   2.089   4.275
 2789SOL    HW1 9266   1.705   2.170   4.232
 2789SOL    HW2 9267   1.657   2.016   4.208
 2790SOL     OW 9268   0.203   5.563   1.562
 2790SOL    HW1 9269   0.252   5.649   1.576
 2790SOL    HW2 9270   0.115   5.583   1.518
 2791SOL     OW 9271   0.708   3.434   4.738
 2791SOL    HW1 9272   0.725   3.339   4.766
 2791SOL    HW2 9273   0.788   3.470   4.690
 2792SOL     OW 9274   2.942   1.715   6.413
 2792SOL    HW1 9275   2.946   1.767   6.328
 2792SOL    HW2 9276   3.027   1.663   6.424
 2793SOL     OW 9277   3.456   3.700   6.774
 2793SOL    HW1 9278   3.415   3.696   6.865
 2793SOL    HW2 9279   3.553   3.678   6.780
 2794SOL     OW 9280   1.776   1.838   0.055
 2794SOL    HW1 9281   1.762   1.890   6.990
 2794SOL    HW2 9282   1.847   1.881   0.110
 2795SOL     OW 9283   1.166   6.437   1.058
 2795SOL    HW1 9284   1.124   6.514   1.010
 2795SOL    HW2 9285   1.265   6.452   1.064
 2796SOL     OW 9286   1.940   5.882   6.662
 2796SOL    HW1 9287   1.999   5.901   6.740
 2796SOL    HW2 9288   1.958   5.789   6.628
 2797SOL     OW 9289   4.802   4.138   4.215
 2797SOL    HW1 9290   4.882   4.193   4.193
 2797SOL    HW2 9291   4.778   4.150   4.312
 2798SOL     OW 9292   5.168   2.036   1.925
 2798SOL    HW1 9293   5.150   2.119   1.978
 2798SOL    HW2 9294   5.241   1.984   1.970
 2799SOL     OW 9295   3.608   6.441   5.272
 2799SOL    HW1 9296   3.631   6.522   5.326
 2799SOL    HW2 9297   3.595   6.467   5.176
 2800SOL     OW 9298   4.616   0.788   6.443
 2800SOL    HW1 9299   4.698   0.842   6.464
 2800SOL    HW2 9300   4.624   0.697   6.483
 2801SOL     OW 9301   0.345   4.402   3.678
 2801SOL    HW1 9302   0.421   4.353   3.722
 2801SOL    HW2 9303   0.276   4.336   3.647
 2802SOL     OW 9304   1.312   4.916   4.720
 2802SOL    HW1 9305   1.275   5.009   4.713
 2802SOL    HW2 9306   1.256   4.853   4.666
 2803SOL     OW 9307   3.584   2.076   6.840
 2803SOL    HW1 9308   3.577   2.174   6.861
 2803SOL    HW2 9309   3.499   2.030   6.867
 2804SOL     OW 9310   6.502   2.684   3.723
 2804SOL    HW1 9311   6.469   2.595   3.755
 2804SOL    HW2 9312   6.566   2.671   3.648
 2805SOL     OW 9313   4.075   4.618   0.534
 2805SOL    HW1 9314   4.098   4.712   0.507
 2805SOL    HW2 9315   3.989   4.618   0.584
 2806SOL     OW 9316   0.102   3.180   5.419
 2806SOL    HW1 9317   0.119   3.268   5.463
 2806SOL    HW2 9318   0.044   3.193   5.339
 2807SOL     OW 9319   4.786   1.224   4.080
 2807SOL    HW1 9320   4.742   1.254   4.165
 2807SOL    HW2 9321   4.720   1.171   4.025
 2808SOL     OW 9322   1.280   5.914   5.596
 2808SOL    HW1 9323   1.198   5.905   5.539
 2808SOL    HW2 9324   1.360   5.930   5.539
 2809SOL     OW 9325   0.744   5.980   1.222
 2809SOL    HW1 9326   0.689   6.001   1.141
 2809SOL    HW2 9327   0.835   5.949   1.193
 2810SOL     OW 9328   0.962   6.046   2.868
 2810SOL    HW1 9329   1.003   5.979   2.807
 2810SOL    HW2 9330   1.018   6.128   2.870
 2811SOL     OW 9331   0.769   1.148   0.848
 2811SOL    HW1 9332   0.786   1.207   0.769
 2811SOL    HW2 9333   0.671   1.131   0.857
 2812SOL     OW 9334   1.469   1.419   0.885
 2812SOL    HW1 9335   1.540   1.376   0.942
 2812SOL    HW2 9336   1.464   1.517   0.905
 2813SOL     OW 9337   0.139   2.542   1.137
 2813SOL    HW1 9338   0.153   2.442   1.136
 2813SOL    HW2 9339   0.169   2.579   1.224
 2814SOL     OW 9340   2.671   4.474   6.957
 2814SOL    HW1 9341   2.656   4.442   0.031
 2814SOL    HW2 9342   2.758   4.524   6.952
 2815SOL     OW 9343   0.051   5.318   4.230
 2815SOL    HW1 9344   0.078   5.298   4.325
 2815SOL    HW2 9345   0.122   5.285   4.168
 2816SOL     OW 9346   0.959   5.031   5.109
 2816SOL    HW1 9347   0.981   5.016   5.205
 2816SOL    HW2 9348   1.032   4.993   5.051
 2817SOL     OW 9349   2.708   1.023   2.444
 2817SOL    HW1 9350   2.658   1.108   2.463
 2817SOL    HW2 9351   2.785   1.014   2.507
 2818SOL     OW 9352   1.447   0.717   0.270
 2818SOL    HW1 9353   1.461   0.629   0.226
 2818SOL    HW2 9354   1.502   0.721   0.354
 2819SOL     OW 9355   0.594   0.440   6.558
 2819SOL    HW1 9356   0.666   0.457   6.626
 2819SOL    HW2 9357   0.547   0.526   6.537
 2820SOL     OW 9358   2.082   1.905   6.837
 2820SOL    HW1 9359   2.110   1.810   6.855
 2820SOL    HW2 9360   2.098   1.926   6.741
 2821SOL     OW 9361   3.104   2.817   6.151
 2821SOL    HW1 9362   3.172   2.775   6.212
 2821SOL    HW2 9363   3.036   2.748   6.126
 2822SOL     OW 9364   4.278   2.764   0.535
 2822SOL    HW1 9365   4.246   2.697   0.602
 2822SOL    HW2 9366   4.216   2.842   0.533
 2823SOL     OW 9367   5.526   3.686   1.912
 2823SOL    HW1 9368   5.471   3.689   1.995
 2823SOL    HW2 9369   5.615   3.646   1.932
 2824SOL     OW 9370   0.410   4.095   5.545
 2824SOL    HW1 9371   0.433   4.148   5.463
 2824SOL    HW2 9372   0.453   4.005   5.540
 2825SOL     OW 9373   5.331   2.166   5.697
 2825SOL    HW1 9374   5.362   2.184   5.790
 2825SOL    HW2 9375   5.281   2.246   5.662
 2826SOL     OW 9376   2.750   3.640   0.092
 2826SOL    HW1 9377   2.732   3.564   0.155
 2826SOL    HW2 9378   2.782   3.603   0.005
 2827SOL     OW 9379   5.677   1.751   6.863
 2827SOL    HW1 9380   5.775   1.770   6.865
 2827SOL    HW2 9381   5.662   1.654   6.845
 2828SOL     OW 9382   1.266   4.018   0.975
 2828SOL    HW1 9383   1.317   4.051   0.895
 2828SOL    HW2 9384   1.301   4.063   1.058
 2829SOL     OW 9385   3.443   3.551   1.768
 2829SOL    HW1 9386   3.501   3.473   1.790
 2829SOL    HW2 9387   3.495   3.636   1.783
 2830SOL     OW 9388   3.500   5.748   4.650
 2830SOL    HW1 9389   3.485   5.749   4.551
 2830SOL    HW2 9390   3.597   5.754   4.670
 2831SOL     OW 9391   6.865   1.743   2.082
 2831SOL    HW1 9392   6.787   1.681   2.078
 2831SOL    HW2 9393   6.949   1.690   2.097
 2832SOL     OW 9394   1.098   3.366   2.167
 2832SOL    HW1 9395   1.024   3.394   2.228
 2832SOL    HW2 9396   1.171   3.435   2.169
 2833SOL     OW 9397   6.731   2.717   2.694
 2833SOL    HW1 9398   6.808   2.712   2.632
 2833SOL    HW2 9399   6.678   2.632   2.689
 2834SOL     OW 9400   3.774   0.336   4.492
 2834SOL    HW1 9401   3.785   0.428   4.531
 2834SOL    HW2 9402   3.767   0.270   4.567
 2835SOL     OW 9403   6.781   0.968   6.875
 2835SOL    HW1 9404   6.845   0.920   6.816
 2835SOL    HW2 9405   6.764   0.913   6.957
 2836SOL     OW 9406   2.934   5.563   2.837
 2836SOL    HW1 9407   2.838   5.591   2.835
 2836SOL    HW2 9408   2.980   5.610   2.912
 2837SOL     OW 9409   5.252   4.191   2.088
 2837SOL    HW1 9410   5.245   4.260   2.160
 2837SOL    HW2 9411   5.266   4.101   2.130
 2838SOL     OW 9412   0.089   3.716   6.032
 2838SOL    HW1 9413   0.064   3.642   6.094
 2838SOL    HW2 9414   0.007   3.754   5.990
 2839SOL     OW 9415   6.277   2.713   6.038
 2839SOL    HW1 9416   6.344   2.787   6.040
 2839SOL    HW2 9417   6.184   2.751   6.039
 2840SOL     OW 9418   5.891   6.258   4.682
 2840SOL    HW1 9419   5.791   6.249   4.674
 2840SOL    HW2 9420   5.934   6.225   4.598
 2841SOL     OW 9421   5.476   3.685   2.364
 2841SOL    HW1 9422   5.401   3.718   2.306
 2841SOL    HW2 9423   5.560   3.736   2.343
 2842SOL     OW 9424   0.858   6.717   3.438
 2842SOL    HW1 9425   0.829   6.744   3.530
 2842SOL    HW2 9426   0.785   6.663   3.395
 2843SOL     OW 9427   2.346   2.753   4.237
 2843SOL    HW1 9428   2.397   2.745   4.323
 2843SOL    HW2 9429   2.393   2.702   4.165
 2844SOL     OW 9430   5.285   3.715   0.601
 2844SOL    HW1 9431   5.379   3.744   0.585
 2844SOL    HW2 9432   5.275   3.685   0.696
 2845SOL     OW 9433   3.126   1.905   1.649
 2845SOL    HW1 9434   3.073   1.951   1.577
 2845SOL    HW2 9435   3.109   1.950   1.737
 2846SOL     OW 9436   5.571   6.779   6.619
 2846SOL    HW1 9437   5.542   6.825   6.535
 2846SOL    HW2 9438   5.585   6.846   6.690
 2847SOL     OW 9439   5.069   4.835   0.881
 2847SOL    HW1 9440   5.102   4.854   0.974
 2847SOL    HW2 9441   5.045   4.921   0.837
 2848SOL     OW 9442   0.718   3.879   6.699
 2848SOL    HW1 9443   0.701   3.781   6.690
 2848SOL    HW2 9444   0.677   3.926   6.620
 2849SOL     OW 9445   5.105   0.568   1.521
 2849SOL    HW1 9446   5.050   0.509   1.462
 2849SOL    HW2 9447   5.045   0.618   1.583
 2850SOL     OW 9448   0.766   0.654   1.650
 2850SOL    HW1 9449   0.791   0.571   1.601
 2850SOL    HW2 9450   0.849   0.698   1.686
 2851SOL     OW 9451   3.673   3.116   1.775
 2851SOL    HW1 9452   3.649   3.109   1.678
 2851SOL    HW2 9453   3.656   3.028   1.820
 2852SOL     OW 9454   0.559   5.257   5.453
 2852SOL    HW1 9455   0.570   5.212   5.541
 2852SOL    HW2 9456   0.466   5.291   5.444
 2853SOL     OW 9457   0.312   4.258   5.173
 2853SOL    HW1 9458   0.370   4.261   5.092
 2853SOL    HW2 9459   0.218   4.280   5.147
 2854SOL     OW 9460   2.870   0.373   6.185
 2854SOL    HW1 9461   2.852   0.456   6.132
 2854SOL    HW2 9462   2.967   0.365   6.204
 2855SOL     OW 9463   2.076   1.516   4.220
 2855SOL    HW1 9464   2.157   1.564   4.186
 2855SOL    HW2 9465   2.008   1.582   4.251
 2856SOL     OW 9466   0.845   5.378   4.558
 2856SOL    HW1 9467   0.889   5.464   4.585
 2856SOL    HW2 9468   0.831   5.377   4.459
 2857SOL     OW 9469   6.611   4.049   1.023
 2857SOL    HW1 9470   6.585   3.957   0.993
 2857SOL    HW2 9471   6.696   4.045   1.074
 2858SOL     OW 9472   5.845   4.567   3.306
 2858SOL    HW1 9473   5.898   4.483   3.315
 2858SOL    HW2 9474   5.760   4.548   3.256
 2859SOL     OW 9475   6.148   5.046   1.320
 2859SOL    HW1 9476   6.162   5.145   1.318
 2859SOL    HW2 9477   6.214   5.005   1.383
 2860SOL     OW 9478   1.208   6.984   3.191
 2860SOL    HW1 9479   1.197   6.907   3.253
 2860SOL    HW2 9480   1.302   7.017   3.194
 2861SOL     OW 9481   5.242   4.271   5.701
 2861SOL    HW1 9482   5.174   4.257   5.628
 2861SOL    HW2 9483   5.211   4.226   5.784
 2862SOL     OW 9484   4.313   0.919   0.566
 2862SOL    HW1 9485   4.405   0.957   0.573
 2862SOL    HW2 9486   4.319   0.825   0.533
 2863SOL     OW 9487   5.954   2.486   5.477
 2863SOL    HW1 9488   5.978   2.530   5.564
 2863SOL    HW2 9489   6.005   2.400   5.469
 2864SOL     OW 9490   4.118   4.166   1.178
 2864SOL    HW1 9491   4.120   4.098   1.105
 2864SOL    HW2 9492   4.049   4.235   1.157
 2865SOL     OW 9493   5.621   5.268   5.557
 2865SOL    HW1 9494   5.720   5.283   5.554
 2865SOL    HW2 9495   5.573   5.356   5.555
 2866SOL     OW 9496   3.361   4.370   0.770
 2866SOL    HW1 9497   3.368   4.457   0.819
 2866SOL    HW2 9498   3.386   4.295   0.831
 2867SOL     OW 9499   6.730   6.292   2.623
 2867SOL    HW1 9500   6.729   6.204   2.576
 2867SOL    HW2 9501   6.698   6.363   2.561
 2868SOL     OW 9502   0.284   0.006   5.266
 2868SOL    HW1 9503   0.322   0.029   5.176
 2868SOL    HW2 9504   0.192   0.045   5.274
 2869SOL     OW 9505   6.026   4.716   4.696
 2869SOL    HW1 9506   6.033   4.656   4.617
 2869SOL    HW2 9507   5.971   4.672   4.767
 2870SOL     OW 9508   0.938   0.863   1.785
 2870SOL    HW1 9509   0.895   0.923   1.717
 2870SOL    HW2 9510   0.988   0.918   1.852
 2871SOL     OW 9511   4.698   1.474   3.320
 2871SOL    HW1 9512   4.667   1.552   3.266
 2871SOL    HW2 9513   4.795   1.486   3.344
 2872SOL     OW 9514   2.700   1.958   2.629
 2872SOL    HW1 9515   2.692   1.888   2.701
 2872SOL    HW2 9516   2.638   1.935   2.554
 2873SOL     OW 9517   1.152   0.418   2.330
 2873SOL    HW1 9518   1.188   0.402   2.238
 2873SOL    HW2 9519   1.057   0.384   2.335
 2874SOL     OW 9520   2.273   1.337   3.700
 2874SOL    HW1 9521   2.288   1.417   3.642
 2874SOL    HW2 9522   2.177   1.333   3.727
 2875SOL     OW 9523   2.508   0.105   3.314
 2875SOL    HW1 9524   2.506   0.028   3.378
 2875SOL    HW2 9525   2.530   0.189   3.364
 2876SOL     OW 9526   1.009   6.207   1.111
 2876SOL    HW1 9527   0.943   6.215   1.036
 2876SOL    HW2 9528   1.084   6.272   1.096
 2877SOL     OW 9529   1.921   3.133   4.929
 2877SOL    HW1 9530   1.925   3.199   4.854
 2877SOL    HW2 9531   1.991   3.155   4.997
 2878SOL     OW 9532   3.866   3.015   5.033
 2878SOL    HW1 9533   3.890   2.949   5.104
 2878SOL    HW2 9534   3.922   3.097   5.045
 2879SOL     OW 9535   5.043   5.149   0.082
 2879SOL    HW1 9536   4.978   5.213   0.041
 2879SOL    HW2 9537   5.126   5.145   0.026
 2880SOL     OW 9538   1.518   1.871   3.319
 2880SOL    HW1 9539   1.577   1.859   3.239
 2880SOL    HW2 9540   1.574   1.871   3.402
 2881SOL     OW 9541   5.353   5.134   0.903
 2881SOL    HW1 9542   5.267   5.141   0.851
 2881SOL    HW2 9543   5.342   5.180   0.991
 2882SOL     OW 9544   4.301   6.525   7.002
 2882SOL    HW1 9545   4.320   6.621   6.983
 2882SOL    HW2 9546   4.262   6.517   0.075
 2883SOL     OW 9547   5.789   6.326   3.638
 2883SOL    HW1 9548   5.831   6.411   3.606
 2883SOL    HW2 9549   5.695   6.321   3.605
 2884SOL     OW 9550   6.169   5.549   3.767
 2884SOL    HW1 9551   6.222   5.545   3.852
 2884SOL    HW2 9552   6.086   5.493   3.777
 2885SOL     OW 9553   0.521   2.999   4.019
 2885SOL    HW1 9554   0.569   2.946   3.950
 2885SOL    HW2 9555   0.584   3.024   4.093
 2886SOL     OW 9556   2.584   4.617   4.862
 2886SOL    HW1 9557   2.669   4.605   4.912
 2886SOL    HW2 9558   2.596   4.684   4.789
 2887SOL     OW 9559   6.784   5.559   2.834
 2887SOL    HW1 9560   6.807   5.462   2.840
 2887SOL    HW2 9561   6.699   5.569   2.783
 2888SOL     OW 9562   5.308   6.896   6.809
 2888SOL    HW1 9563   5.403   6.926   6.821
 2888SOL    HW2 9564   5.283   6.838   6.886
 2889SOL     OW 9565   4.620   6.525   4.538
 2889SOL    HW1 9566   4.636   6.615   4.578
 2889SOL    HW2 9567   4.549   6.478   4.591
 2890SOL     OW 9568   1.420   2.508   0.553
 2890SOL    HW1 9569   1.360   2.428   0.551
 2890SOL    HW2 9570   1.365   2.591   0.543
 2891SOL     OW 9571   0.963   1.441   5.528
 2891SOL    HW1 9572   0.944   1.387   5.446
 2891SOL    HW2 9573   1.060   1.465   5.530
 2892SOL     OW 9574   5.568   4.259   2.041
 2892SOL    HW1 9575   5.532   4.214   1.959
 2892SOL    HW2 9576   5.655   4.301   2.020
 2893SOL     OW 9577   6.624   5.428   4.861
 2893SOL    HW1 9578   6.679   5.512   4.863
 2893SOL    HW2 9579   6.528   5.451   4.875
 2894SOL     OW 9580   1.495   5.477   0.736
 2894SOL    HW1 9581   1.577   5.443   0.783
 2894SOL    HW2 9582   1.428   5.404   0.727
 2895SOL     OW 9583   4.510   6.842   6.244
 2895SOL    HW1 9584   4.581   6.799   6.187
 2895SOL    HW2 9585   4.520   6.812   6.338
 2896SOL     OW 9586   6.278   0.515   5.142
 2896SOL    HW1 9587   6.209   0.545   5.207
 2896SOL    HW2 9588   6.278   0.415   5.138
 2897SOL     OW 9589   3.469   5.263   3.431
 2897SOL    HW1 9590   3.487   5.194   3.501
 2897SOL    HW2 9591   3.370   5.273   3.420
 2898SOL     OW 9592   5.323   2.796   3.165
 2898SOL    HW1 9593   5.291   2.882   3.126
 2898SOL    HW2 9594   5.307   2.722   3.100
 2899SOL     OW 9595   6.200   3.214   0.653
 2899SOL    HW1 9596   6.244   3.147   0.713
 2899SOL    HW2 9597   6.232   3.306   0.675
 2900SOL     OW 9598   2.544   2.561   5.834
 2900SOL    HW1 9599   2.535   2.654   5.797
 2900SOL    HW2 9600   2.474   2.502   5.795
 2901SOL     OW 9601   1.107   3.870   2.370
 2901SOL    HW1 9602   1.102   3.770   2.372
 2901SOL    HW2 9603   1.108   3.905   2.463
 2902SOL     OW 9604   6.190   5.745   3.606
 2902SOL    HW1 9605   6.229   5.827   3.647
 2902SOL    HW2 9606   6.169   5.678   3.678
 2903SOL     OW 9607   6.939   4.943   0.361
 2903SOL    HW1 9608   6.985   4.881   0.424
 2903SOL    HW2 9609   6.993   4.952   0.277
 2904SOL     OW 9610   2.814   4.887   4.886
 2904SOL    HW1 9611   2.889   4.941   4.924
 2904SOL    HW2 9612   2.815   4.795   4.925
 2905SOL     OW 9613   1.064   5.302   1.146
 2905SOL    HW1 9614   1.104   5.289   1.055
 2905SOL    HW2 9615   1.018   5.218   1.174
 2906SOL     OW 9616   7.002   5.944   6.049
 2906SOL    HW1 9617   6.945   5.959   6.130
 2906SOL    HW2 9618   7.015   6.030   6.001
 2907SOL     OW 9619   0.391   0.763   5.661
 2907SOL    HW1 9620   0.445   0.749   5.578
 2907SOL    HW2 9621   0.430   0.710   5.735
 2908SOL     OW 9622   4.586   6.649   4.088
 2908SOL    HW1 9623   4.619   6.585   4.158
 2908SOL    HW2 9624   4.594   6.606   3.998
 2909SOL     OW 9625   6.925   0.188   1.983
 2909SOL    HW1 9626   6.906   0.287   1.982
 2909SOL    HW2 9627   6.887   0.149   2.067
 2910SOL     OW 9628   1.172   0.759   4.559
 2910SOL    HW1 9629   1.237   0.727   4.490
 2910SOL    HW2 9630   1.114   0.830   4.519
 2911SOL     OW 9631   0.480   3.813   5.524
 2911SOL    HW1 9632   0.479   3.808   5.424
 2911SOL    HW2 9633   0.567   3.777   5.558
 2912SOL     OW 9634   0.829   1.604   2.175
 2912SOL    HW1 9635   0.907   1.614   2.113
 2912SOL    HW2 9636   0.831   1.675   2.245
 2913SOL     OW 9637   1.039   6.671   2.843
 2913SOL    HW1 9638   1.001   6.742   2.784
 2913SOL    HW2 9639   1.121   6.706   2.889
 2914SOL     OW 9640   3.772   4.680   1.331
 2914SOL    HW1 9641   3.699   4.695   1.265
 2914SOL    HW2 9642   3.758   4.592   1.378
 2915SOL     OW 9643   2.236   0.724   3.899
 2915SOL    HW1 9644   2.281   0.716   3.988
 2915SOL    HW2 9645   2.199   0.816   3.889
 2916SOL     OW 9646   1.069   5.347   0.032
 2916SOL    HW1 9647   0.973   5.324   0.051
 2916SOL    HW2 9648   1.115   5.267   7.013
 2917SOL     OW 9649   2.577   0.065   3.060
 2917SOL    HW1 9650   2.671   0.039   3.039
 2917SOL    HW2 9651   2.562   0.057   3.159
 2918SOL     OW 9652   5.087   2.501   1.323
 2918SOL    HW1 9653   5.014   2.557   1.285
 2918SOL    HW2 9654   5.084   2.505   1.423
 2919SOL     OW 9655   0.532   6.080   5.089
 2919SOL    HW1 9656   0.496   6.045   5.003
 2919SOL    HW2 9657   0.590   6.159   5.072
 2920SOL     OW 9658   2.902   2.082   1.549
 2920SOL    HW1 9659   2.911   2.180   1.567
 2920SOL    HW2 9660   2.851   2.068   1.465
 2921SOL     OW 9661   1.034   6.529   3.588
 2921SOL    HW1 9662   1.036   6.568   3.681
 2921SOL    HW2 9663   1.125   6.538   3.547
 2922SOL     OW 9664   4.023   4.749   3.786
 2922SOL    HW1 9665   3.928   4.753   3.755
 2922SOL    HW2 9666   4.045   4.833   3.836
 2923SOL     OW 9667   1.052   5.554   4.238
 2923SOL    HW1 9668   1.100   5.467   4.229
 2923SOL    HW2 9669   1.110   5.619   4.287
 2924SOL     OW 9670   5.265   1.603   6.169
 2924SOL    HW1 9671   5.332   1.643   6.106
 2924SOL    HW2 9672   5.273   1.647   6.259
 2925SOL     OW 9673   5.463   6.762   4.587
 2925SOL    HW1 9674   5.528   6.837   4.596
 2925SOL    HW2 9675   5.497   6.682   4.637
 2926SOL     OW 9676   6.892   2.625   4.611
 2926SOL    HW1 9677   6.816   2.625   4.676
 2926SOL    HW2 9678   6.978   2.613   4.661
 2927SOL     OW 9679   1.392   1.707   2.208
 2927SOL    HW1 9680   1.298   1.693   2.239
 2927SOL    HW2 9681   1.455   1.690   2.284
 2928SOL     OW 9682   5.325   2.850   0.332
 2928SOL    HW1 9683   5.240   2.797   0.337
 2928SOL    HW2 9684   5.372   2.830   0.246
 2929SOL     OW 9685   2.502   1.404   3.207
 2929SOL    HW1 9686   2.421   1.422   3.262
 2929SOL    HW2 9687   2.574   1.364   3.264
 2930SOL     OW 9688   0.305   3.556   4.219
 2930SOL    HW1 9689   0.220   3.590   4.178
 2930SOL    HW2 9690   0.351   3.630   4.268
 2931SOL     OW 9691   5.710   4.730   5.793
 2931SOL    HW1 9692   5.683   4.764   5.884
 2931SOL    HW2 9693   5.702   4.804   5.726
 2932SOL     OW 9694   6.486   5.361   1.334
 2932SOL    HW1 9695   6.507   5.299   1.410
 2932SOL    HW2 9696   6.564   5.420   1.316
 2933SOL     OW 9697   1.175   0.088   0.157
 2933SOL    HW1 9698   1.180   0.028   0.077
 2933SOL    HW2 9699   1.242   0.161   0.149
 2934SOL     OW 9700   5.174   5.280   1.872
 2934SOL    HW1 9701   5.140   5.366   1.833
 2934SOL    HW2 9702   5.099   5.231   1.916
 2935SOL     OW 9703   0.944   3.252   5.561
 2935SOL    HW1 9704   1.034   3.287   5.535
 2935SOL    HW2 9705   0.890   3.236   5.479
 2936SOL     OW 9706   4.479   6.891   2.307
 2936SOL    HW1 9707   4.553   6.871   2.371
 2936SOL    HW2 9708   4.518   6.922   2.220
 2937SOL     OW 9709   6.046   3.588   3.113
 2937SOL    HW1 9710   6.069   3.649   3.036
 2937SOL    HW2 9711   6.082   3.497   3.095
 2938SOL     OW 9712   0.453   4.984   0.021
 2938SOL    HW1 9713   0.486   4.895   0.054
 2938SOL    HW2 9714   0.365   5.005   0.064
 2939SOL     OW 9715   6.881   6.145   1.619
 2939SOL    HW1 9716   6.819   6.101   1.554
 2939SOL    HW2 9717   6.971   6.103   1.613
 2940SOL     OW 9718   4.413   6.415   4.254
 2940SOL    HW1 9719   4.321   6.432   4.291
 2940SOL    HW2 9720   4.407   6.401   4.155
 2941SOL     OW 9721   2.843   5.061   3.280
 2941SOL    HW1 9722   2.807   5.077   3.188
 2941SOL    HW2 9723   2.867   4.964   3.290
 2942SOL     OW 9724   3.391   2.217   1.780
 2942SOL    HW1 9725   3.449   2.187   1.856
 2942SOL    HW2 9726   3.414   2.311   1.756
 2943SOL     OW 9727   6.526   3.485   3.697
 2943SOL    HW1 9728   6.495   3.391   3.704
 2943SOL    HW2 9729   6.624   3.490   3.719
 2944SOL     OW 9730   1.726   6.192   2.860
 2944SOL    HW1 9731   1.642   6.230   2.821
 2944SOL    HW2 9732   1.767   6.258   2.922
 2945SOL     OW 9733   5.776   3.784   1.682
 2945SOL    HW1 9734   5.758   3.760   1.586
 2945SOL    HW2 9735   5.714   3.858   1.710
 2946SOL     OW 9736   3.385   2.961   4.727
 2946SOL    HW1 9737   3.346   2.927   4.813
 2946SOL    HW2 9738   3.402   3.059   4.734
 2947SOL     OW 9739   6.305   4.955   0.593
 2947SOL    HW1 9740   6.355   4.908   0.666
 2947SOL    HW2 9741   6.311   5.054   0.608
 2948SOL     OW 9742   6.678   4.114   1.496
 2948SOL    HW1 9743   6.592   4.068   1.472
 2948SOL    HW2 9744   6.754   4.068   1.452
 2949SOL     OW 9745   1.365   6.596   0.701
 2949SOL    HW1 9746   1.372   6.547   0.614
 2949SOL    HW2 9747   1.269   6.604   0.728
 2950SOL     OW 9748   6.004   5.873   2.802
 2950SOL    HW1 9749   6.057   5.924   2.734
 2950SOL    HW2 9750   6.059   5.797   2.836
 2951SOL     OW 9751   0.638   2.511   1.299
 2951SOL    HW1 9752   0.592   2.459   1.227
 2951SOL    HW2 9753   0.694   2.450   1.354
 2952SOL     OW 9754   0.243   1.749   4.772
 2952SOL    HW1 9755   0.309   1.780   4.703
 2952SOL    HW2 9756   0.163   1.808   4.771
 2953SOL     OW 9757   1.924   6.240   3.297
 2953SOL    HW1 9758   2.016   6.268   3.270
 2953SOL    HW2 9759   1.857   6.280   3.235
 2954SOL     OW 9760   0.557   4.380   6.261
 2954SOL    HW1 9761   0.511   4.295   6.237
 2954SOL    HW2 9762   0.527   4.452   6.198
 2955SOL     OW 9763   1.925   4.660   6.375
 2955SOL    HW1 9764   2.003   4.627   6.321
 2955SOL    HW2 9765   1.956   4.730   6.439
 2956SOL     OW 9766   5.328   4.287   4.459
 2956SOL    HW1 9767   5.346   4.313   4.554
 2956SOL    HW2 9768   5.394   4.218   4.429
 2957SOL     OW 9769   2.422   5.418   1.797
 2957SOL    HW1 9770   2.399   5.515   1.793
 2957SOL    HW2 9771   2.358   5.367   1.740
 2958SOL     OW 9772   1.261   4.420   2.228
 2958SOL    HW1 9773   1.309   4.505   2.205
 2958SOL    HW2 9774   1.307   4.343   2.185
 2959SOL     OW 9775   0.201   4.005   4.047
 2959SOL    HW1 9776   0.288   4.051   4.059
 2959SOL    HW2 9777   0.129   4.056   4.093
 2960SOL     OW 9778   4.595   6.366   0.941
 2960SOL    HW1 9779   4.596   6.420   0.857
 2960SOL    HW2 9780   4.594   6.427   1.020
 2961SOL     OW 9781   5.102   2.519   1.620
 2961SOL    HW1 9782   5.121   2.606   1.666
 2961SOL    HW2 9783   5.187   2.468   1.607
 2962SOL     OW 9784   0.135   6.903   3.787
 2962SOL    HW1 9785   0.043   6.874   3.761
 2962SOL    HW2 9786   0.193   6.909   3.705
 2963SOL     OW 9787   1.880   0.757   4.897
 2963SOL    HW1 9788   1.969   0.755   4.943
 2963SOL    HW2 9789   1.894   0.783   4.801
 2964SOL     OW 9790   1.605   0.311   6.691
 2964SOL    HW1 9791   1.629   0.347   6.781
 2964SOL    HW2 9792   1.630   0.378   6.621
 2965SOL     OW 9793   5.980   0.575   5.948
 2965SOL    HW1 9794   5.949   0.654   5.895
 2965SOL    HW2 9795   5.944   0.581   6.041
 2966SOL     OW 9796   3.713   5.339   2.806
 2966SOL    HW1 9797   3.616   5.341   2.781
 2966SOL    HW2 9798   3.755   5.256   2.770
 2967SOL     OW 9799   5.627   0.109   4.980
 2967SOL    HW1 9800   5.656   0.112   4.885
 2967SOL    HW2 9801   5.548   0.048   4.989
 2968SOL     OW 9802   1.396   4.198   1.358
 2968SOL    HW1 9803   1.397   4.158   1.449
 2968SOL    HW2 9804   1.306   4.237   1.339
 2969SOL     OW 9805   4.707   2.727   4.427
 2969SOL    HW1 9806   4.654   2.693   4.350
 2969SOL    HW2 9807   4.667   2.693   4.512
 2970SOL     OW 9808   2.509   2.801   5.696
 2970SOL    HW1 9809   2.519   2.899   5.709
 2970SOL    HW2 9810   2.512   2.779   5.598
 2971SOL     OW 9811   4.604   3.610   0.027
 2971SOL    HW1 9812   4.543   3.546   0.073
 2971SOL    HW2 9813   4.678   3.636   0.089
 2972SOL     OW 9814   0.048   5.652   6.808
 2972SOL    HW1 9815   0.023   5.731   6.864
 2972SOL    HW2 9816   0.122   5.679   6.746
 2973SOL     OW 9817   5.698   1.133   4.296
 2973SOL    HW1 9818   5.751   1.084   4.227
 2973SOL    HW2 9819   5.647   1.067   4.352
 2974SOL     OW 9820   5.514   6.163   2.077
 2974SOL    HW1 9821   5.470   6.241   2.034
 2974SOL    HW2 9822   5.461   6.134   2.157
 2975SOL     OW 9823   6.783   3.452   4.817
 2975SOL    HW1 9824   6.821   3.385   4.754
 2975SOL    HW2 9825   6.724   3.405   4.883
 2976SOL     OW 9826   3.663   0.711   1.702
 2976SOL    HW1 9827   3.609   0.747   1.778
 2976SOL    HW2 9828   3.746   0.667   1.738
 2977SOL     OW 9829   1.531   1.260   1.788
 2977SOL    HW1 9830   1.460   1.301   1.730
 2977SOL    HW2 9831   1.620   1.293   1.759
 2978SOL     OW 9832   2.907   5.539   0.014
 2978SOL    HW1 9833   2.813   5.570   7.018
 2978SOL    HW2 9834   2.911   5.484   0.098
 2979SOL     OW 9835   2.868   0.918   5.342
 2979SOL    HW1 9836   2.875   0.980   5.264
 2979SOL    HW2 9837   2.773   0.885   5.350
 2980SOL     OW 9838   3.540   3.123   4.417
 2980SOL    HW1 9839   3.599   3.069   4.476
 2980SOL    HW2 9840   3.591   3.200   4.379
 2981SOL     OW 9841   2.851   1.632   1.959
 2981SOL    HW1 9842   2.763   1.657   2.000
 2981SOL    HW2 9843   2.912   1.711   1.963
 2982SOL     OW 9844   1.774   0.903   0.806
 2982SOL    HW1 9845   1.727   0.935   0.889
 2982SOL    HW2 9846   1.770   0.975   0.736
 2983SOL     OW 9847   6.678   2.956   6.071
 2983SOL    HW1 9848   6.683   3.020   5.994
 2983SOL    HW2 9849   6.735   2.988   6.146
 2984SOL     OW 9850   0.517   6.269   1.570
 2984SOL    HW1 9851   0.505   6.283   1.668
 2984SOL    HW2 9852   0.576   6.341   1.532
 2985SOL     OW 9853   6.525   0.807   6.274
 2985SOL    HW1 9854   6.439   0.846   6.307
 2985SOL    HW2 9855   6.596   0.878   6.274
 2986SOL     OW 9856   3.401   3.125   2.180
 2986SOL    HW1 9857   3.401   3.180   2.096
 2986SOL    HW2 9858   3.336   3.163   2.246
 2987SOL     OW 9859   2.238   5.686   4.905
 2987SOL    HW1 9860   2.331   5.660   4.933
 2987SOL    HW2 9861   2.175   5.611   4.926
 2988SOL     OW 9862   6.740   2.078   5.973
 2988SOL    HW1 9863   6.793   2.081   6.057
 2988SOL    HW2 9864   6.659   2.020   5.987
 2989SOL     OW 9865   5.790   3.508   5.399
 2989SOL    HW1 9866   5.747   3.598   5.401
 2989SOL    HW2 9867   5.885   3.516   5.430
 2990SOL     OW 9868   5.960   1.564   5.571
 2990SOL    HW1 9869   5.864   1.576   5.546
 2990SOL    HW2 9870   6.013   1.540   5.489
 2991SOL     OW 9871   6.714   3.729   0.362
 2991SOL    HW1 9872   6.702   3.778   0.276
 2991SOL    HW2 9873   6.811   3.709   0.375
 2992SOL     OW 9874   0.727   3.774   5.366
 2992SOL    HW1 9875   0.745   3.831   5.286
 2992SOL    HW2 9876   0.711   3.680   5.337
 2993SOL     OW 9877   2.913   4.769   0.764
 2993SOL    HW1 9878   2.934   4.781   0.667
 2993SOL    HW2 9879   2.926   4.855   0.813
 2994SOL     OW 9880   3.015   5.051   4.575
 2994SOL    HW1 9881   3.083   5.073   4.506
 2994SOL    HW2 9882   3.059   5.012   4.655
 2995SOL     OW 9883   4.708   0.821   1.730
 2995SOL    HW1 9884   4.707   0.859   1.637
 2995SOL    HW2 9885   4.616   0.828   1.768
 2996SOL     OW 9886   6.582   0.919   4.315
 2996SOL    HW1 9887   6.629   0.939   4.229
 2996SOL    HW2 9888   6.547   0.825   4.313
 2997SOL     OW 9889   4.739   5.920   4.375
 2997SOL    HW1 9890   4.673   5.940   4.302
 2997SOL    HW2 9891   4.831   5.937   4.341
 2998SOL     OW 9892   2.431   0.948   1.616
 2998SOL    HW1 9893   2.459   1.036   1.653
 2998SOL    HW2 9894   2.511   0.887   1.612
 2999SOL     OW 9895   1.700   4.710   0.188
 2999SOL    HW1 9896   1.649   4.632   0.224
 2999SOL    HW2 9897   1.795   4.703   0.218
 3000SOL     OW 9898   2.125   3.955   5.275
 3000SOL    HW1 9899   2.084   3.891   5.210
 3000SOL    HW2 9900   2.222   3.965   5.256
 3001SOL     OW 9901   4.025   0.936   6.306
 3001SOL    HW1 9902   4.117   0.900   6.292
 3001SOL    HW2 9903   4.003   0.932   6.403
 3002SOL     OW 9904   1.415   2.205   2.198
 3002SOL    HW1 9905   1.475   2.230   2.273
 3002SOL    HW2 9906   1.468   2.194   2.114
 3003SOL     OW 9907   1.160   5.971   0.694
 3003SOL    HW1 9908   1.192   5.881   0.664
 3003SOL    HW2 9909   1.194   6.041   0.632
 3004SOL     OW 9910   3.258   6.674   3.868
 3004SOL    HW1 9911   3.220   6.582   3.881
 3004SOL    HW2 9912   3.274   6.717   3.957
 3005SOL     OW 9913   2.509   1.809   0.678
 3005SOL    HW1 9914   2.542   1.829   0.586
 3005SOL    HW2 9915   2.509   1.710   0.692
 3006SOL     OW 9916   5.868   1.318   5.707
 3006SOL    HW1 9917   5.944   1.269   5.752
 3006SOL    HW2 9918   5.901   1.406   5.675
 3007SOL     OW 9919   6.227   5.795   5.617
 3007SOL    HW1 9920   6.166   5.866   5.652
 3007SOL    HW2 9921   6.210   5.710   5.666
 3008SOL     OW 9922   4.629   4.224   5.761
 3008SOL    HW1 9923   4.606   4.259   5.670
 3008SOL    HW2 9924   4.667   4.298   5.816
 3009SOL     OW 9925   5.537   3.154   1.852
 3009SOL    HW1 9926   5.617   3.212   1.865
 3009SOL    HW2 9927   5.561   3.058   1.870
 3010SOL     OW 9928   4.625   5.387   1.600
 3010SOL    HW1 9929   4.629   5.330   1.518
 3010SOL    HW2 9930   4.655   5.333   1.679
 3011SOL     OW 9931   5.415   6.882   0.630
 3011SOL    HW1 9932   5.501   6.859   0.676
 3011SOL    HW2 9933   5.382   6.802   0.581
 3012SOL     OW 9934   2.497   1.014   4.506
 3012SOL    HW1 9935   2.527   0.926   4.542
 3012SOL    HW2 9936   2.539   1.088   4.558
 3013SOL     OW 9937   1.052   5.000   5.605
 3013SOL    HW1 9938   1.096   5.056   5.675
 3013SOL    HW2 9939   0.981   4.944   5.647
 3014SOL     OW 9940   3.949   0.448   6.891
 3014SOL    HW1 9941   3.966   0.407   6.981
 3014SOL    HW2 9942   4.036   0.464   6.845
 3015SOL     OW 9943   2.701   7.006   5.922
 3015SOL    HW1 9944   2.755   6.924   5.909
 3015SOL    HW2 9945   2.706   0.016   6.018
 3016SOL     OW 9946   2.991   0.529   4.276
 3016SOL    HW1 9947   3.084   0.508   4.243
 3016SOL    HW2 9948   2.989   0.622   4.312
 3017SOL     OW 9949   0.977   6.093   0.155
 3017SOL    HW1 9950   0.904   6.108   0.222
 3017SOL    HW2 9951   0.960   6.149   0.074
 3018SOL     OW 9952   3.106   1.835   1.946
 3018SOL    HW1 9953   3.187   1.806   1.998
 3018SOL    HW2 9954   3.096   1.934   1.951
 3019SOL     OW 9955   1.250   0.538   5.502
 3019SOL    HW1 9956   1.201   0.543   5.589
 3019SOL    HW2 9957   1.184   0.525   5.428
 3020SOL     OW 9958   4.964   5.056   6.795
 3020SOL    HW1 9959   5.037   5.056   6.728
 3020SOL    HW2 9960   4.945   4.963   6.825
 3021SOL     OW 9961   5.056   0.138   4.453
 3021SOL    HW1 9962   4.997   0.130   4.372
 3021SOL    HW2 9963   5.026   0.072   4.522
 3022SOL     OW 9964   4.598   6.806   4.366
 3022SOL    HW1 9965   4.500   6.825   4.368
 3022SOL    HW2 9966   4.615   6.725   4.310
 3023SOL     OW 9967   5.420   4.482   5.081
 3023SOL    HW1 9968   5.382   4.396   5.046
 3023SOL    HW2 9969   5.355   4.523   5.146
 3024SOL     OW 9970   6.915   1.135   0.342
 3024SOL    HW1 9971   6.857   1.209   0.308
 3024SOL    HW2 9972   6.873   1.095   0.424
 3025SOL     OW 9973   4.176   5.320   0.749
 3025SOL    HW1 9974   4.105   5.369   0.801
 3025SOL    HW2 9975   4.219   5.252   0.809
 3026SOL     OW 9976   0.245   0.584   2.569
 3026SOL    HW1 9977   0.283   0.491   2.577
 3026SOL    HW2 9978   0.218   0.616   2.660
 3027SOL     OW 9979   4.038   6.782   0.557
 3027SOL    HW1 9980   3.990   6.699   0.528
 3027SOL    HW2 9981   4.012   6.858   0.497
 3028SOL     OW 9982   3.681   3.236   4.663
 3028SOL    HW1 9983   3.628   3.285   4.595
 3028SOL    HW2 9984   3.733   3.163   4.619
 3029SOL     OW 9985   0.341   2.846   5.167
 3029SOL    HW1 9986   0.371   2.776   5.103
 3029SOL    HW2 9987   0.324   2.805   5.256
 3030SOL     OW 9988   1.432   2.810   6.623
 3030SOL    HW1 9989   1.495   2.884   6.599
 3030SOL    HW2 9990   1.485   2.726   6.639
 3031SOL     OW 9991   0.677   5.534   0.122
 3031SOL    HW1 9992   0.714   5.450   0.161
 3031SOL    HW2 9993   0.693   5.536   0.023
 3032SOL     OW 9994   3.103   6.903   3.613
 3032SOL    HW1 9995   3.050   6.919   3.530
 3032SOL    HW2 9996   3.161   6.822   3.601
 3033SOL     OW 9997   1.594   1.314   6.315
 3033SOL    HW1 9998   1.583   1.232   6.371
 3033SOL    HW2 9999   1.658   1.377   6.361
 3034SOL     OW10000   5.209   3.515   3.469
 3034SOL    HW110001   5.302   3.544   3.493
 3034SOL    HW210002   5.179   3.562   3.386
 3035SOL     OW10003   6.867   3.648   6.963
 3035SOL    HW110004   6.951   3.635   6.910
 3035SOL    HW210005   6.887   3.630   0.041
 3036SOL     OW10006   3.208   2.349   5.909
 3036SOL    HW110007   3.292   2.348   5.853
 3036SOL    HW210008   3.186   2.442   5.935
 3037SOL     OW10009   0.987   4.766   6.701
 3037SOL    HW110010   0.969   4.704   6.777
 3037SOL    HW210011   0.903   4.813   6.675
 3038SOL     OW10012   6.278   4.844   5.316
 3038SOL    HW110013   6.328   4.894   5.386
 3038SOL    HW210014   6.336   4.772   5.278
 3039SOL     OW10015   5.664   3.587   6.059
 3039SOL    HW110016   5.752   3.577   6.012
 3039SOL    HW210017   5.663   3.529   6.140
 3040SOL     OW10018   3.830   6.037   6.138
 3040SOL    HW110019   3.807   6.133   6.154
 3040SOL    HW210020   3.928   6.023   6.149
 3041SOL     OW10021   1.715   5.372   6.472
 3041SOL    HW110022   1.633   5.410   6.515
 3041SOL    HW210023   1.688   5.318   6.392
 3042SOL     OW10024   0.243   4.870   4.273
 3042SOL    HW110025   0.170   4.874   4.205
 3042SOL    HW210026   0.253   4.959   4.318
 3043SOL     OW10027   3.148   4.420   1.645
 3043SOL    HW110028   3.093   4.489   1.598
 3043SOL    HW210029   3.241   4.456   1.658
 3044SOL     OW10030   4.114   3.423   4.807
 3044SOL    HW110031   4.122   3.513   4.849
 3044SOL    HW210032   4.141   3.430   4.711
 3045SOL     OW10033   5.531   1.235   2.563
 3045SOL    HW110034   5.481   1.311   2.519
 3045SOL    HW210035   5.564   1.265   2.652
 3046SOL     OW10036   5.754   5.464   1.555
 3046SOL    HW110037   5.779   5.500   1.465
 3046SOL    HW210038   5.794   5.522   1.626
 3047SOL     OW10039   6.019   1.955   4.099
 3047SOL    HW110040   5.943   1.891   4.100
 3047SOL    HW210041   5.989   2.044   4.134
 3048SOL     OW10042   4.204   4.979   1.483
 3048SOL    HW110043   4.263   5.045   1.437
 3048SOL    HW210044   4.139   4.942   1.417
 3049SOL     OW10045   0.408   2.256   2.188
 3049SOL    HW110046   0.449   2.304   2.265
 3049SOL    HW210047   0.315   2.289   2.172
 3050SOL     OW10048   3.463   2.340   6.823
 3050SOL    HW110049   3.439   2.323   6.727
 3050SOL    HW210050   3.429   2.430   6.850
 3051SOL     OW10051   2.553   4.994   5.921
 3051SOL    HW110052   2.511   5.012   5.832
 3051SOL    HW210053   2.594   4.903   5.922
 3052SOL     OW10054   6.365   6.298   3.320
 3052SOL    HW110055   6.345   6.242   3.400
 3052SOL    HW210056   6.282   6.347   3.292
 3053SOL     OW10057   0.790   4.185   6.982
 3053SOL    HW110058   0.757   4.190   6.887
 3053SOL    HW210059   0.746   4.108   0.008
 3054SOL     OW10060   5.766   0.088   3.168
 3054SOL    HW110061   5.716   0.144   3.102
 3054SOL    HW210062   5.704   0.060   3.241
 3055SOL     OW10063   4.771   6.605   0.401
 3055SOL    HW110064   4.724   6.528   0.357
 3055SOL    HW210065   4.716   6.640   0.476
 3056SOL     OW10066   4.668   1.802   0.556
 3056SOL    HW110067   4.706   1.728   0.501
 3056SOL    HW210068   4.672   1.888   0.504
 3057SOL     OW10069   6.320   3.895   3.670
 3057SOL    HW110070   6.403   3.926   3.716
 3057SOL    HW210071   6.289   3.808   3.710
 3058SOL     OW10072   0.616   5.042   6.077
 3058SOL    HW110073   0.524   5.037   6.115
 3058SOL    HW210074   0.681   5.066   6.149
 3059SOL     OW10075   1.151   2.122   2.240
 3059SOL    HW110076   1.091   2.171   2.177
 3059SOL    HW210077   1.240   2.166   2.243
 3060SOL     OW10078   5.650   3.867   3.323
 3060SOL    HW110079   5.603   3.883   3.409
 3060SOL    HW210080   5.745   3.900   3.330
 3061SOL     OW10081   5.765   6.593   2.858
 3061SOL    HW110082   5.669   6.597   2.887
 3061SOL    HW210083   5.805   6.684   2.864
 3062SOL     OW10084   3.987   5.142   1.069
 3062SOL    HW110085   3.948   5.108   1.155
 3062SOL    HW210086   4.066   5.201   1.089
 3063SOL     OW10087   6.643   4.735   0.726
 3063SOL    HW110088   6.613   4.648   0.687
 3063SOL    HW210089   6.654   4.802   0.653
 3064SOL     OW10090   4.875   1.758   6.250
 3064SOL    HW110091   4.931   1.825   6.201
 3064SOL    HW210092   4.786   1.798   6.271
 3065SOL     OW10093   5.609   1.262   6.281
 3065SOL    HW110094   5.591   1.183   6.340
 3065SOL    HW210095   5.568   1.246   6.191
 3066SOL     OW10096   5.048   0.239   5.778
 3066SOL    HW110097   5.079   0.306   5.844
 3066SOL    HW210098   4.949   0.246   5.767
 3067SOL     OW10099   1.271   1.546   4.701
 3067SOL    HW110100   1.291   1.539   4.799
 3067SOL    HW210101   1.329   1.616   4.660
 3068SOL     OW10102   5.872   0.051   0.807
 3068SOL    HW110103   5.865   0.139   0.854
 3068SOL    HW210104   5.962   0.043   0.764
 3069SOL     OW10105   5.695   6.216   3.870
 3069SOL    HW110106   5.694   6.250   3.776
 3069SOL    HW210107   5.764   6.265   3.922
 3070SOL     OW10108   2.410   1.494   1.005
 3070SOL    HW110109   2.315   1.461   1.011
 3070SOL    HW210110   2.467   1.442   1.069
 3071SOL     OW10111   5.631   4.675   5.183
 3071SOL    HW110112   5.543   4.628   5.182
 3071SOL    HW210113   5.617   4.772   5.167
 3072SOL     OW10114   1.483   6.951   5.537
 3072SOL    HW110115   1.488   0.004   5.469
 3072SOL    HW210116   1.574   6.936   5.577
 3073SOL     OW10117   6.848   5.521   2.358
 3073SOL    HW110118   6.910   5.519   2.280
 3073SOL    HW210119   6.801   5.433   2.365
 3074SOL     OW10120   3.318   2.689   1.848
 3074SOL    HW110121   3.352   2.758   1.913
 3074SOL    HW210122   3.365   2.701   1.760
 3075SOL     OW10123   3.934   4.978   1.804
 3075SOL    HW110124   3.892   5.054   1.854
 3075SOL    HW210125   3.863   4.922   1.762
 3076SOL     OW10126   1.990   1.407   3.702
 3076SOL    HW110127   1.959   1.400   3.796
 3076SOL    HW210128   1.914   1.434   3.643
 3077SOL     OW10129   0.251   3.515   1.970
 3077SOL    HW110130   0.197   3.440   1.933
 3077SOL    HW210131   0.274   3.496   2.065
 3078SOL     OW10132   0.042   3.691   1.921
 3078SOL    HW110133   0.026   3.715   1.825
 3078SOL    HW210134   0.126   3.637   1.928
 3079SOL     OW10135   1.432   4.099   4.246
 3079SOL    HW110136   1.353   4.158   4.267
 3079SOL    HW210137   1.423   4.064   4.153
 3080SOL     OW10138   4.005   4.734   1.588
 3080SOL    HW110139   4.006   4.759   1.491
 3080SOL    HW210140   3.919   4.763   1.630
 3081SOL     OW10141   2.213   2.973   6.030
 3081SOL    HW110142   2.118   3.001   6.042
 3081SOL    HW210143   2.254   3.026   5.956
 3082SOL     OW10144   5.319   4.060   5.216
 3082SOL    HW110145   5.389   3.993   5.192
 3082SOL    HW210146   5.238   4.012   5.252
 3083SOL     OW10147   3.922   5.725   1.031
 3083SOL    HW110148   3.989   5.759   1.096
 3083SOL    HW210149   3.832   5.765   1.052
 3084SOL     OW10150   0.030   4.983   4.038
 3084SOL    HW110151   6.983   5.037   3.988
 3084SOL    HW210152   0.058   4.904   3.983
 3085SOL     OW10153   6.170   5.934   6.924
 3085SOL    HW110154   6.193   6.031   6.932
 3085SOL    HW210155   6.090   5.923   6.865
 3086SOL     OW10156   6.102   6.438   6.248
 3086SOL    HW110157   6.130   6.352   6.205
 3086SOL    HW210158   6.090   6.508   6.178
 3087SOL     OW10159   3.397   0.182   2.193
 3087SOL    HW110160   3.351   0.270   2.184
 3087SOL    HW210161   3.405   0.158   2.290
 3088SOL     OW10162   2.345   3.736   5.331
 3088SOL    HW110163   2.360   3.805   5.260
 3088SOL    HW210164   2.396   3.763   5.414
 3089SOL     OW10165   4.169   6.125   6.407
 3089SOL    HW110166   4.267   6.148   6.408
 3089SOL    HW210167   4.116   6.210   6.403
 3090SOL     OW10168   0.834   2.801   1.908
 3090SOL    HW110169   0.744   2.758   1.909
 3090SOL    HW210170   0.904   2.730   1.897
 3091SOL     OW10171   0.945   2.301   0.190
 3091SOL    HW110172   0.932   2.398   0.210
 3091SOL    HW210173   1.041   2.276   0.205
 3092SOL     OW10174   5.952   1.318   2.340
 3092SOL    HW110175   5.931   1.362   2.427
 3092SOL    HW210176   5.878   1.254   2.316
 3093SOL     OW10177   6.095   5.225   6.628
 3093SOL    HW110178   6.109   5.311   6.579
 3093SOL    HW210179   6.008   5.229   6.677
 3094SOL     OW10180   2.230   1.397   6.187
 3094SOL    HW110181   2.131   1.380   6.194
 3094SOL    HW210182   2.279   1.331   6.243
 3095SOL     OW10183   1.606   3.847   4.716
 3095SOL    HW110184   1.524   3.901   4.734
 3095SOL    HW210185   1.669   3.901   4.660
 3096SOL     OW10186   1.832   3.217   4.606
 3096SOL    HW110187   1.801   3.238   4.699
 3096SOL    HW210188   1.783   3.276   4.542
 3097SOL     OW10189   5.421   3.268   5.537
 3097SOL    HW110190   5.519   3.284   5.532
 3097SOL    HW210191   5.381   3.323   5.611
 3098SOL     OW10192   1.585   3.331   2.171
 3098SOL    HW110193   1.657   3.295   2.111
 3098SOL    HW210194   1.578   3.273   2.252
 3099SOL     OW10195   0.817   6.511   5.438
 3099SOL    HW110196   0.880   6.528   5.362
 3099SOL    HW210197   0.842   6.569   5.516
 3100SOL     OW10198   5.819   4.544   2.173
 3100SOL    HW110199   5.776   4.515   2.258
 3100SOL    HW210200   5.918   4.552   2.187
 3101SOL     OW10201   5.017   0.348   4.749
 3101SOL    HW110202   5.082   0.416   4.783
 3101SOL    HW210203   5.006   0.360   4.650
 3102SOL     OW10204   5.911   5.038   2.127
 3102SOL    HW110205   5.909   5.109   2.197
 3102SOL    HW210206   5.840   5.056   2.059
 3103SOL     OW10207   1.544   2.074   1.977
 3103SOL    HW110208   1.566   2.169   1.953
 3103SOL    HW210209   1.624   2.016   1.961
 3104SOL     OW10210   5.712   2.475   5.324
 3104SOL    HW110211   5.798   2.499   5.369
 3104SOL    HW210212   5.645   2.546   5.342
 3105SOL     OW10213   5.343   4.277   0.747
 3105SOL    HW110214   5.250   4.262   0.781
 3105SOL    HW210215   5.355   4.229   0.661
 3106SOL     OW10216   5.521   2.192   5.485
 3106SOL    HW110217   5.612   2.193   5.526
 3106SOL    HW210218   5.452   2.193   5.558
 3107SOL     OW10219   3.847   2.158   4.826
 3107SOL    HW110220   3.830   2.119   4.917
 3107SOL    HW210221   3.903   2.241   4.836
 3108SOL     OW10222   1.911   4.214   3.421
 3108SOL    HW110223   1.988   4.161   3.459
 3108SOL    HW210224   1.944   4.304   3.391
 3109SOL     OW10225   6.801   6.160   3.290
 3109SOL    HW110226   6.784   6.085   3.354
 3109SOL    HW210227   6.847   6.124   3.208
 3110SOL     OW10228   1.249   5.384   3.720
 3110SOL    HW110229   1.169   5.328   3.698
 3110SOL    HW210230   1.237   5.476   3.683
 3111SOL     OW10231   6.541   4.020   3.774
 3111SOL    HW110232   6.483   4.052   3.849
 3111SOL    HW210233   6.604   4.093   3.748
 3112SOL     OW10234   4.004   1.197   0.172
 3112SOL    HW110235   3.917   1.156   0.200
 3112SOL    HW210236   4.079   1.146   0.212
 3113SOL     OW10237   1.632   6.981   3.212
 3113SOL    HW110238   1.573   6.905   3.184
 3113SOL    HW210239   1.722   6.946   3.237
 3114SOL     OW10240   4.404   6.308   5.960
 3114SOL    HW110241   4.322   6.339   6.008
 3114SOL    HW210242   4.447   6.387   5.915
 3115SOL     OW10243   4.580   5.149   4.309
 3115SOL    HW110244   4.490   5.151   4.265
 3115SOL    HW210245   4.593   5.235   4.360
 3116SOL     OW10246   1.178   1.828   6.094
 3116SOL    HW110247   1.102   1.871   6.046
 3116SOL    HW210248   1.153   1.735   6.121
 3117SOL     OW10249   3.879   6.832   1.402
 3117SOL    HW110250   3.923   6.922   1.394
 3117SOL    HW210251   3.780   6.844   1.396
 3118SOL     OW10252   1.037   1.933   3.599
 3118SOL    HW110253   1.039   1.857   3.534
 3118SOL    HW210254   0.983   1.907   3.679
 3119SOL     OW10255   5.072   5.656   4.170
 3119SOL    HW110256   5.170   5.670   4.180
 3119SOL    HW210257   5.025   5.744   4.172
 3120SOL     OW10258   2.425   5.801   0.058
 3120SOL    HW110259   2.477   5.731   0.010
 3120SOL    HW210260   2.452   5.891   0.025
 3121SOL     OW10261   4.224   2.270   3.964
 3121SOL    HW110262   4.204   2.274   4.062
 3121SOL    HW210263   4.288   2.195   3.947
 3122SOL     OW10264   5.431   4.711   5.880
 3122SOL    HW110265   5.497   4.724   5.954
 3122SOL    HW210266   5.454   4.628   5.828
 3123SOL     OW10267   1.680   2.121   2.811
 3123SOL    HW110268   1.712   2.195   2.871
 3123SOL    HW210269   1.648   2.160   2.725
 3124SOL     OW10270   5.117   6.898   5.512
 3124SOL    HW110271   5.182   6.855   5.449
 3124SOL    HW210272   5.166   6.960   5.572
 3125SOL     OW10273   1.266   1.004   5.520
 3125SOL    HW110274   1.309   1.069   5.583
 3125SOL    HW210275   1.319   0.920   5.517
 3126SOL     OW10276   4.976   4.671   5.818
 3126SOL    HW110277   5.053   4.634   5.870
 3126SOL    HW210278   4.933   4.745   5.869
 3127SOL     OW10279   6.700   1.575   5.435
 3127SOL    HW110280   6.790   1.614   5.453
 3127SOL    HW210281   6.685   1.494   5.492
 3128SOL     OW10282   3.564   0.483   0.965
 3128SOL    HW110283   3.607   0.551   0.906
 3128SOL    HW210284   3.507   0.530   1.033
 3129SOL     OW10285   4.367   4.207   0.053
 3129SOL    HW110286   4.409   4.119   0.076
 3129SOL    HW210287   4.397   4.277   0.117
 3130SOL     OW10288   0.695   5.906   1.837
 3130SOL    HW110289   0.665   5.810   1.837
 3130SOL    HW210290   0.693   5.941   1.744
 3131SOL     OW10291   6.868   3.619   2.875
 3131SOL    HW110292   6.954   3.638   2.922
 3131SOL    HW210293   6.844   3.522   2.888
 3132SOL     OW10294   5.107   4.421   6.847
 3132SOL    HW110295   5.194   4.378   6.822
 3132SOL    HW210296   5.073   4.381   6.932
 3133SOL     OW10297   5.610   6.819   3.577
 3133SOL    HW110298   5.565   6.755   3.640
 3133SOL    HW210299   5.708   6.815   3.591
 3134SOL     OW10300   5.499   4.753   2.917
 3134SOL    HW110301   5.407   4.743   2.880
 3134SOL    HW210302   5.501   4.719   3.011
 3135SOL     OW10303   3.556   6.786   6.757
 3135SOL    HW110304   3.561   6.834   6.844
 3135SOL    HW210305   3.466   6.742   6.748
 3136SOL     OW10306   6.795   0.281   2.930
 3136SOL    HW110307   6.698   0.287   2.956
 3136SOL    HW210308   6.805   0.297   2.832
 3137SOL     OW10309   4.154   5.729   0.124
 3137SOL    HW110310   4.113   5.644   0.158
 3137SOL    HW210311   4.201   5.711   0.038
 3138SOL     OW10312   6.637   6.722   4.941
 3138SOL    HW110313   6.656   6.672   5.025
 3138SOL    HW210314   6.598   6.811   4.964
 3139SOL     OW10315   1.735   5.267   1.796
 3139SOL    HW110316   1.713   5.364   1.794
 3139SOL    HW210317   1.705   5.227   1.882
 3140SOL     OW10318   5.813   5.976   6.974
 3140SOL    HW110319   5.724   5.932   6.967
 3140SOL    HW210320   5.876   5.936   6.906
 3141SOL     OW10321   5.795   1.549   6.585
 3141SOL    HW110322   5.752   1.512   6.668
 3141SOL    HW210323   5.728   1.549   6.511
 3142SOL     OW10324   4.568   1.007   3.960
 3142SOL    HW110325   4.652   0.953   3.958
 3142SOL    HW210326   4.542   1.032   3.867
 3143SOL     OW10327   6.734   1.222   1.023
 3143SOL    HW110328   6.770   1.151   1.084
 3143SOL    HW210329   6.684   1.290   1.076
 3144SOL     OW10330   3.708   4.835   6.871
 3144SOL    HW110331   3.650   4.827   6.953
 3144SOL    HW210332   3.793   4.881   6.895
 3145SOL     OW10333   0.736   5.508   6.842
 3145SOL    HW110334   0.767   5.418   6.810
 3145SOL    HW210335   0.646   5.528   6.805
 3146SOL     OW10336   6.574   2.342   4.811
 3146SOL    HW110337   6.595   2.270   4.745
 3146SOL    HW210338   6.476   2.359   4.811
 3147SOL     OW10339   4.245   0.065   0.013
 3147SOL    HW110340   4.292   0.084   6.947
 3147SOL    HW210341   4.163   0.011   7.014
 3148SOL     OW10342   6.778   4.689   0.958
 3148SOL    HW110343   6.778   4.778   1.003
 3148SOL    HW210344   6.743   4.698   0.865
 3149SOL     OW10345   3.803   3.351   0.307
 3149SOL    HW110346   3.898   3.371   0.284
 3149SOL    HW210347   3.749   3.341   0.224
 3150SOL     OW10348   0.225   0.038   5.623
 3150SOL    HW110349   0.193   6.973   5.667
 3150SOL    HW210350   0.162   0.063   5.550
 3151SOL     OW10351   0.114   0.544   5.748
 3151SOL    HW110352   0.062   0.476   5.696
 3151SOL    HW210353   0.178   0.591   5.687
 3152SOL     OW10354   2.169   2.626   5.513
 3152SOL    HW110355   2.174   2.554   5.583
 3152SOL    HW210356   2.138   2.711   5.555
 3153SOL     OW10357   5.454   5.556   1.976
 3153SOL    HW110358   5.402   5.491   2.032
 3153SOL    HW210359   5.477   5.513   1.888
 3154SOL     OW10360   3.480   2.328   0.790
 3154SOL    HW110361   3.526   2.389   0.855
 3154SOL    HW210362   3.476   2.236   0.827
 3155SOL     OW10363   0.662   4.751   6.879
 3155SOL    HW110364   0.646   4.800   6.965
 3155SOL    HW210365   0.735   4.683   6.894
 3156SOL     OW10366   3.916   4.335   1.044
 3156SOL    HW110367   3.908   4.434   1.027
 3156SOL    HW210368   3.898   4.285   0.960
 3157SOL     OW10369   1.558   0.947   4.352
 3157SOL    HW110370   1.542   1.006   4.274
 3157SOL    HW210371   1.498   0.973   4.427
 3158SOL     OW10372   2.780   0.560   5.907
 3158SOL    HW110373   2.858   0.611   5.943
 3158SOL    HW210374   2.755   0.597   5.817
 3159SOL     OW10375   4.909   6.977   1.404
 3159SOL    HW110376   4.837   6.912   1.426
 3159SOL    HW210377   4.941   0.002   1.487
 3160SOL     OW10378   2.033   0.880   5.428
 3160SOL    HW110379   1.937   0.858   5.411
 3160SOL    HW210380   2.062   0.840   5.515
 3161SOL     OW10381   1.795   2.586   2.276
 3161SOL    HW110382   1.773   2.560   2.370
 3161SOL    HW210383   1.819   2.504   2.224
 3162SOL     OW10384   1.203   5.828   1.457
 3162SOL    HW110385   1.116   5.780   1.461
 3162SOL    HW210386   1.210   5.878   1.371
 3163SOL     OW10387   4.761   4.478   0.889
 3163SOL    HW110388   4.716   4.520   0.969
 3163SOL    HW210389   4.795   4.550   0.829
 3164SOL     OW10390   2.487   6.907   4.388
 3164SOL    HW110391   2.444   6.922   4.298
 3164SOL    HW210392   2.585   6.926   4.382
 3165SOL     OW10393   0.591   6.600   6.029
 3165SOL    HW110394   0.684   6.630   6.050
 3165SOL    HW210395   0.534   6.610   6.110
 3166SOL     OW10396   4.437   1.439   4.228
 3166SOL    HW110397   4.344   1.415   4.201
 3166SOL    HW210398   4.450   1.538   4.218
 3167SOL     OW10399   5.741   2.817   1.343
 3167SOL    HW110400   5.664   2.813   1.407
 3167SOL    HW210401   5.729   2.894   1.281
 3168SOL     OW10402   5.042   1.136   0.536
 3168SOL    HW110403   4.956   1.104   0.497
 3168SOL    HW210404   5.118   1.097   0.484
 3169SOL     OW10405   1.049   4.531   2.367
 3169SOL    HW110406   1.017   4.499   2.456
 3169SOL    HW210407   1.128   4.476   2.338
 3170SOL     OW10408   2.030   4.059   3.746
 3170SOL    HW110409   2.041   4.147   3.791
 3170SOL    HW210410   2.064   4.063   3.653
 3171SOL     OW10411   5.167   1.668   4.313
 3171SOL    HW110412   5.236   1.630   4.374
 3171SOL    HW210413   5.100   1.598   4.290
 3172SOL     OW10414   5.788   4.378   0.938
 3172SOL    HW110415   5.742   4.465   0.921
 3172SOL    HW210416   5.734   4.324   1.002
 3173SOL     OW10417   5.293   2.641   0.578
 3173SOL    HW110418   5.215   2.661   0.519
 3173SOL    HW210419   5.272   2.563   0.636
 3174SOL     OW10420   3.615   2.542   6.592
 3174SOL    HW110421   3.580   2.449   6.606
 3174SOL    HW210422   3.553   2.608   6.635
 3175SOL     OW10423   5.752   6.817   5.232
 3175SOL    HW110424   5.661   6.776   5.241
 3175SOL    HW210425   5.809   6.789   5.309
 3176SOL     OW10426   0.317   4.665   3.781
 3176SOL    HW110427   0.323   4.567   3.761
 3176SOL    HW210428   0.397   4.694   3.833
 3177SOL     OW10429   5.189   3.400   3.724
 3177SOL    HW110430   5.100   3.375   3.763
 3177SOL    HW210431   5.176   3.427   3.628
 3178SOL     OW10432   0.742   0.420   2.962
 3178SOL    HW110433   0.673   0.386   3.025
 3178SOL    HW210434   0.803   0.346   2.935
 3179SOL     OW10435   0.688   2.974   2.448
 3179SOL    HW110436   0.654   3.038   2.379
 3179SOL    HW210437   0.785   2.994   2.466
 3180SOL     OW10438   6.815   6.627   6.462
 3180SOL    HW110439   6.840   6.659   6.371
 3180SOL    HW210440   6.745   6.687   6.500
 3181SOL     OW10441   0.360   5.723   5.385
 3181SOL    HW110442   0.368   5.689   5.291
 3181SOL    HW210443   0.323   5.816   5.383
 3182SOL     OW10444   1.910   6.725   1.341
 3182SOL    HW110445   1.835   6.791   1.334
 3182SOL    HW210446   1.896   6.651   1.275
 3183SOL     OW10447   4.004   3.580   0.961
 3183SOL    HW110448   3.960   3.495   0.935
 3183SOL    HW210449   4.065   3.611   0.888
 3184SOL     OW10450   6.404   1.593   4.350
 3184SOL    HW110451   6.427   1.551   4.262
 3184SOL    HW210452   6.306   1.613   4.353
 3185SOL     OW10453   0.576   6.325   6.473
 3185SOL    HW110454   0.663   6.374   6.483
 3185SOL    HW210455   0.505   6.372   6.525
 3186SOL     OW10456   0.104   3.054   6.666
 3186SOL    HW110457   0.040   3.122   6.701
 3186SOL    HW210458   0.123   2.986   6.737
 3187SOL     OW10459   5.210   6.952   2.773
 3187SOL    HW110460   5.201   6.871   2.832
 3187SOL    HW210461   5.281   7.012   2.809
 3188SOL     OW10462   1.604   6.567   0.838
 3188SOL    HW110463   1.619   6.628   0.915
 3188SOL    HW210464   1.508   6.571   0.810
 3189SOL     OW10465   2.648   1.540   6.054
 3189SOL    HW110466   2.665   1.619   5.994
 3189SOL    HW210467   2.645   1.571   6.149
 3190SOL     OW10468   6.322   6.016   3.602
 3190SOL    HW110469   6.342   6.066   3.687
 3190SOL    HW210470   6.258   6.070   3.547
 3191SOL     OW10471   3.578   5.438   1.468
 3191SOL    HW110472   3.519   5.508   1.430
 3191SOL    HW210473   3.542   5.409   1.557
 3192SOL     OW10474   5.465   0.799   2.676
 3192SOL    HW110475   5.398   0.725   2.683
 3192SOL    HW210476   5.440   0.859   2.600
 3193SOL     OW10477   3.594   5.511   5.076
 3193SOL    HW110478   3.551   5.509   4.986
 3193SOL    HW210479   3.646   5.427   5.090
 3194SOL     OW10480   1.534   6.905   6.045
 3194SOL    HW110481   1.457   6.955   6.083
 3194SOL    HW210482   1.620   6.942   6.081
 3195SOL     OW10483   1.093   0.243   0.738
 3195SOL    HW110484   1.097   0.235   0.838
 3195SOL    HW210485   1.013   0.193   0.705
 3196SOL     OW10486   6.077   6.981   2.429
 3196SOL    HW110487   6.164   6.969   2.476
 3196SOL    HW210488   6.092   6.986   2.330
 3197SOL     OW10489   2.749   0.817   6.475
 3197SOL    HW110490   2.789   0.850   6.561
 3197SOL    HW210491   2.782   0.873   6.399
 3198SOL     OW10492   5.669   2.581   3.747
 3198SOL    HW110493   5.675   2.606   3.844
 3198SOL    HW210494   5.716   2.494   3.732
 3199SOL     OW10495   4.904   3.970   3.124
 3199SOL    HW110496   4.936   4.007   3.212
 3199SOL    HW210497   4.905   3.870   3.128
 3200SOL     OW10498   5.500   3.451   4.583
 3200SOL    HW110499   5.441   3.405   4.518
 3200SOL    HW210500   5.474   3.426   4.676
 3201SOL     OW10501   6.398   4.369   2.003
 3201SOL    HW110502   6.299   4.381   1.999
 3201SOL    HW210503   6.441   4.419   1.927
 3202SOL     OW10504   2.577   3.258   6.265
 3202SOL    HW110505   2.526   3.340   6.241
 3202SOL    HW210506   2.549   3.226   6.355
 3203SOL     OW10507   3.216   6.656   1.740
 3203SOL    HW110508   3.156   6.650   1.661
 3203SOL    HW210509   3.192   6.584   1.806
 3204SOL     OW10510   4.189   0.435   4.252
 3204SOL    HW110511   4.140   0.522   4.252
 3204SOL    HW210512   4.234   0.423   4.341
 3205SOL     OW10513   4.957   3.105   5.814
 3205SOL    HW110514   4.988   3.051   5.736
 3205SOL    HW210515   4.875   3.062   5.853
 3206SOL     OW10516   2.457   4.260   1.168
 3206SOL    HW110517   2.524   4.290   1.100
 3206SOL    HW210518   2.453   4.327   1.242
 3207SOL     OW10519   2.191   5.725   4.143
 3207SOL    HW110520   2.250   5.801   4.116
 3207SOL    HW210521   2.241   5.663   4.204
 3208SOL     OW10522   6.782   4.862   6.242
 3208SOL    HW110523   6.866   4.811   6.223
 3208SOL    HW210524   6.704   4.812   6.203
 3209SOL     OW10525   5.317   6.626   6.387
 3209SOL    HW110526   5.246   6.679   6.434
 3209SOL    HW210527   5.327   6.537   6.432
 3210SOL     OW10528   4.988   5.627   1.435
 3210SOL    HW110529   4.966   5.549   1.375
 3210SOL    HW210530   4.942   5.614   1.524
 3211SOL     OW10531   1.852   6.103   6.511
 3211SOL    HW110532   1.895   6.021   6.549
 3211SOL    HW210533   1.822   6.084   6.417
 3212SOL     OW10534   3.265   6.668   3.594
 3212SOL    HW110535   3.356   6.658   3.554
 3212SOL    HW210536   3.271   6.665   3.694
 3213SOL     OW10537   1.534   0.087   5.783
 3213SOL    HW110538   1.483   0.086   5.869
 3213SOL    HW210539   1.485   0.141   5.715
 3214SOL     OW10540   3.969   0.511   2.574
 3214SOL    HW110541   3.908   0.585   2.603
 3214SOL    HW210542   4.054   0.514   2.627
 3215SOL     OW10543   2.166   3.047   1.990
 3215SOL    HW110544   2.111   3.100   2.055
 3215SOL    HW210545   2.193   2.960   2.031
 3216SOL     OW10546   6.166   5.241   0.854
 3216SOL    HW110547   6.137   5.328   0.893
 3216SOL    HW210548   6.262   5.225   0.875
 3217SOL     OW10549   7.015   5.045   3.617
 3217SOL    HW110550   6.926   4.999   3.628
 3217SOL    HW210551   0.069   4.978   3.623
 3218SOL     OW10552   5.895   1.607   3.069
 3218SOL    HW110553   5.802   1.637   3.088
 3218SOL    HW210554   5.923   1.637   2.978
 3219SOL     OW10555   5.580   1.836   4.997
 3219SOL    HW110556   5.676   1.827   4.970
 3219SOL    HW210557   5.568   1.797   5.089
 3220SOL     OW10558   0.261   3.686   5.583
 3220SOL    HW110559   0.277   3.660   5.678
 3220SOL    HW210560   0.342   3.731   5.546
 3221SOL     OW10561   3.583   1.618   2.109
 3221SOL    HW110562   3.551   1.706   2.144
 3221SOL    HW210563   3.531   1.593   2.027
 3222SOL     OW10564   3.588   1.299   3.271
 3222SOL    HW110565   3.514   1.362   3.246
 3222SOL    HW210566   3.549   1.214   3.306
 3223SOL     OW10567   1.542   5.192   0.661
 3223SOL    HW110568   1.443   5.189   0.671
 3223SOL    HW210569   1.567   5.172   0.566
 3224SOL     OW10570   4.608   2.352   4.415
 3224SOL    HW110571   4.541   2.277   4.412
 3224SOL    HW210572   4.692   2.323   4.370
 3225SOL     OW10573   4.551   0.976   4.875
 3225SOL    HW110574   4.622   1.045   4.878
 3225SOL    HW210575   4.464   1.018   4.849
 3226SOL     OW10576   5.657   0.746   0.591
 3226SOL    HW110577   5.669   0.803   0.672
 3226SOL    HW210578   5.733   0.760   0.527
 3227SOL     OW10579   5.588   4.055   5.589
 3227SOL    HW110580   5.564   4.086   5.496
 3227SOL    HW210581   5.684   4.077   5.607
 3228SOL     OW10582   2.497   4.579   0.390
 3228SOL    HW110583   2.464   4.511   0.455
 3228SOL    HW210584   2.553   4.647   0.437
 3229SOL     OW10585   1.669   2.091   0.478
 3229SOL    HW110586   1.744   2.027   0.493
 3229SOL    HW210587   1.701   2.184   0.492
 3230SOL     OW10588   3.575   5.940   5.229
 3230SOL    HW110589   3.613   5.874   5.164
 3230SOL    HW210590   3.649   5.995   5.267
 3231SOL     OW10591   1.876   2.651   2.545
 3231SOL    HW110592   1.975   2.649   2.562
 3231SOL    HW210593   1.835   2.724   2.600
 3232SOL     OW10594   3.354   4.898   3.527
 3232SOL    HW110595   3.258   4.901   3.500
 3232SOL    HW210596   3.412   4.921   3.449
 3233SOL     OW10597   2.206   7.017   6.941
 3233SOL    HW110598   2.116   0.040   6.931
 3233SOL    HW210599   2.199   6.936   6.999
 3234SOL     OW10600   2.979   3.221   0.812
 3234SOL    HW110601   2.915   3.161   0.764
 3234SOL    HW210602   3.051   3.166   0.853
 3235SOL     OW10603   0.454   1.360   3.085
 3235SOL    HW110604   0.545   1.322   3.069
 3235SOL    HW210605   0.397   1.292   3.131
 3236SOL     OW10606   4.433   0.216   1.009
 3236SOL    HW110607   4.472   0.241   0.920
 3236SOL    HW210608   4.370   0.139   0.997
 3237SOL     OW10609   5.926   1.330   5.316
 3237SOL    HW110610   5.837   1.299   5.282
 3237SOL    HW210611   5.969   1.256   5.368
 3238SOL     OW10612   6.086   4.572   1.605
 3238SOL    HW110613   6.025   4.543   1.679
 3238SOL    HW210614   6.143   4.495   1.576
 3239SOL     OW10615   6.121   0.593   4.908
 3239SOL    HW110616   6.207   0.548   4.936
 3239SOL    HW210617   6.120   0.686   4.944
 3240SOL     OW10618   0.105   1.191   6.958
 3240SOL    HW110619   0.148   1.141   0.013
 3240SOL    HW210620   0.044   1.261   6.996
 3241SOL     OW10621   6.737   3.316   5.047
 3241SOL    HW110622   6.651   3.326   5.096
 3241SOL    HW210623   6.812   3.311   5.112
 3242SOL     OW10624   6.924   3.923   4.727
 3242SOL    HW110625   6.865   3.989   4.772
 3242SOL    HW210626   6.881   3.833   4.729
 3243SOL     OW10627   6.139   5.043   4.002
 3243SOL    HW110628   6.144   5.139   4.031
 3243SOL    HW210629   6.132   5.039   3.902
 3244SOL     OW10630   4.668   6.884   0.461
 3244SOL    HW110631   4.763   6.886   0.490
 3244SOL    HW210632   4.652   6.956   0.393
 3245SOL     OW10633   3.594   6.749   4.339
 3245SOL    HW110634   3.501   6.783   4.324
 3245SOL    HW210635   3.590   6.653   4.368
 3246SOL     OW10636   6.633   6.526   2.871
 3246SOL    HW110637   6.681   6.438   2.868
 3246SOL    HW210638   6.559   6.526   2.804
 3247SOL     OW10639   1.686   4.278   3.627
 3247SOL    HW110640   1.707   4.349   3.694
 3247SOL    HW210641   1.769   4.228   3.604
 3248SOL     OW10642   5.541   2.816   3.327
 3248SOL    HW110643   5.573   2.722   3.315
 3248SOL    HW210644   5.449   2.825   3.287
 3249SOL     OW10645   3.093   3.183   3.470
 3249SOL    HW110646   3.053   3.274   3.486
 3249SOL    HW210647   3.047   3.140   3.392
 3250SOL     OW10648   4.474   5.942   2.937
 3250SOL    HW110649   4.512   5.853   2.914
 3250SOL    HW210650   4.491   5.962   3.033
 3251SOL     OW10651   2.954   2.089   2.716
 3251SOL    HW110652   2.934   2.090   2.814
 3251SOL    HW210653   2.882   2.039   2.668
 3252SOL     OW10654   2.414   1.534   3.465
 3252SOL    HW110655   2.438   1.565   3.557
 3252SOL    HW210656   2.351   1.600   3.423
 3253SOL     OW10657   6.770   3.369   0.193
 3253SOL    HW110658   6.718   3.379   0.108
 3253SOL    HW210659   6.712   3.396   0.270
 3254SOL     OW10660   6.434   6.630   1.246
 3254SOL    HW110661   6.397   6.579   1.323
 3254SOL    HW210662   6.486   6.709   1.279
 3255SOL     OW10663   3.782   5.805   2.035
 3255SOL    HW110664   3.844   5.757   2.097
 3255SOL    HW210665   3.710   5.743   2.006
 3256SOL     OW10666   5.239   2.596   1.063
 3256SOL    HW110667   5.150   2.640   1.052
 3256SOL    HW210668   5.232   2.527   1.135
 3257SOL     OW10669   3.162   1.366   3.144
 3257SOL    HW110670   3.225   1.434   3.181
 3257SOL    HW210671   3.163   1.372   3.044
 3258SOL     OW10672   1.663   5.539   4.133
 3258SOL    HW110673   1.733   5.469   4.121
 3258SOL    HW210674   1.607   5.517   4.213
 3259SOL     OW10675   5.577   4.179   4.392
 3259SOL    HW110676   5.570   4.201   4.295
 3259SOL    HW210677   5.628   4.251   4.439
 3260SOL     OW10678   1.688   4.895   3.204
 3260SOL    HW110679   1.702   4.988   3.238
 3260SOL    HW210680   1.730   4.830   3.267
 3261SOL     OW10681   5.669   0.436   4.178
 3261SOL    HW110682   5.738   0.364   4.173
 3261SOL    HW210683   5.711   0.525   4.162
 3262SOL     OW10684   3.424   1.467   3.493
 3262SOL    HW110685   3.430   1.393   3.559
 3262SOL    HW210686   3.481   1.544   3.523
 3263SOL     OW10687   0.103   1.006   1.547
 3263SOL    HW110688   0.189   0.956   1.545
 3263SOL    HW210689   0.054   0.986   1.632
 3264SOL     OW10690   1.588   4.742   6.756
 3264SOL    HW110691   1.577   4.808   6.682
 3264SOL    HW210692   1.684   4.715   6.763
 3265SOL     OW10693   0.192   5.117   6.340
 3265SOL    HW110694   0.152   5.200   6.380
 3265SOL    HW210695   0.222   5.056   6.413
 3266SOL     OW10696   3.950   4.880   6.181
 3266SOL    HW110697   3.925   4.902   6.087
 3266SOL    HW210698   4.008   4.953   6.218
 3267SOL     OW10699   3.323   6.437   0.754
 3267SOL    HW110700   3.365   6.457   0.666
 3267SOL    HW210701   3.234   6.482   0.760
 3268SOL     OW10702   5.549   5.228   2.019
 3268SOL    HW110703   5.644   5.241   1.988
 3268SOL    HW210704   5.533   5.131   2.035
 3269SOL     OW10705   1.747   5.136   2.091
 3269SOL    HW110706   1.810   5.064   2.120
 3269SOL    HW210707   1.768   5.220   2.141
 3270SOL     OW10708   1.228   2.723   5.619
 3270SOL    HW110709   1.172   2.730   5.702
 3270SOL    HW210710   1.290   2.802   5.614
 3271SOL     OW10711   1.256   3.707   1.566
 3271SOL    HW110712   1.225   3.716   1.472
 3271SOL    HW210713   1.326   3.777   1.585
 3272SOL     OW10714   4.399   6.185   1.042
 3272SOL    HW110715   4.488   6.219   1.013
 3272SOL    HW210716   4.349   6.257   1.089
 3273SOL     OW10717   3.860   4.099   6.628
 3273SOL    HW110718   3.808   4.125   6.709
 3273SOL    HW210719   3.945   4.054   6.655
 3274SOL     OW10720   5.127   6.785   2.270
 3274SOL    HW110721   5.072   6.863   2.238
 3274SOL    HW210722   5.117   6.776   2.369
 3275SOL     OW10723   4.965   0.666   1.202
 3275SOL    HW110724   4.961   0.735   1.130
 3275SOL    HW210725   4.878   0.664   1.251
 3276SOL     OW10726   5.961   5.866   6.771
 3276SOL    HW110727   5.979   5.768   6.768
 3276SOL    HW210728   5.925   5.895   6.682
 3277SOL     OW10729   3.297   2.116   2.401
 3277SOL    HW110730   3.291   2.052   2.477
 3277SOL    HW210731   3.205   2.148   2.377
 3278SOL     OW10732   5.171   1.150   6.443
 3278SOL    HW110733   5.158   1.223   6.510
 3278SOL    HW210734   5.241   1.086   6.476
 3279SOL     OW10735   3.911   6.798   1.988
 3279SOL    HW110736   3.912   6.728   2.060
 3279SOL    HW210737   3.835   6.781   1.926
 3280SOL     OW10738   6.943   3.254   4.013
 3280SOL    HW110739   6.977   3.251   4.107
 3280SOL    HW210740   6.922   3.348   3.988
 3281SOL     OW10741   5.963   1.959   1.587
 3281SOL    HW110742   6.017   1.986   1.667
 3281SOL    HW210743   5.971   1.861   1.573
 3282SOL     OW10744   0.025   4.812   4.842
 3282SOL    HW110745   0.064   4.856   4.761
 3282SOL    HW210746   0.092   4.747   4.880
 3283SOL     OW10747   2.875   1.932   6.974
 3283SOL    HW110748   2.775   1.927   6.976
 3283SOL    HW210749   2.905   1.946   6.879
 3284SOL     OW10750   2.073   6.764   4.943
 3284SOL    HW110751   2.099   6.668   4.959
 3284SOL    HW210752   1.976   6.769   4.920
 3285SOL     OW10753   3.981   2.199   4.411
 3285SOL    HW110754   3.911   2.269   4.426
 3285SOL    HW210755   3.996   2.147   4.495
 3286SOL     OW10756   1.782   3.027   3.075
 3286SOL    HW110757   1.742   3.044   2.985
 3286SOL    HW210758   1.752   3.098   3.139
 3287SOL     OW10759   2.626   0.615   0.910
 3287SOL    HW110760   2.662   0.623   0.817
 3287SOL    HW210761   2.615   0.706   0.950
 3288SOL     OW10762   2.779   5.846   2.024
 3288SOL    HW110763   2.697   5.825   1.971
 3288SOL    HW210764   2.810   5.939   2.004
 3289SOL     OW10765   3.867   0.822   6.767
 3289SOL    HW110766   3.859   0.904   6.710
 3289SOL    HW210767   3.948   0.830   6.826
 3290SOL     OW10768   0.599   5.872   0.036
 3290SOL    HW110769   0.693   5.844   0.015
 3290SOL    HW210770   0.601   5.952   0.096
 3291SOL     OW10771   5.000   6.822   4.921
 3291SOL    HW110772   5.059   6.754   4.878
 3291SOL    HW210773   5.012   6.818   5.021
 3292SOL     OW10774   0.190   2.226   0.095
 3292SOL    HW110775   0.189   2.159   0.170
 3292SOL    HW210776   0.154   2.184   0.012
 3293SOL     OW10777   6.776   5.009   3.346
 3293SOL    HW110778   6.851   4.986   3.284
 3293SOL    HW210779   6.771   5.108   3.358
 3294SOL     OW10780   4.759   2.859   5.480
 3294SOL    HW110781   4.854   2.878   5.505
 3294SOL    HW210782   4.738   2.903   5.393
 3295SOL     OW10783   1.345   2.468   2.838
 3295SOL    HW110784   1.326   2.555   2.793
 3295SOL    HW210785   1.263   2.410   2.835
 3296SOL     OW10786   2.407   0.601   6.293
 3296SOL    HW110787   2.467   0.614   6.372
 3296SOL    HW210788   2.442   0.655   6.216
 3297SOL     OW10789   4.301   1.560   5.159
 3297SOL    HW110790   4.266   1.628   5.094
 3297SOL    HW210791   4.393   1.532   5.131
 3298SOL     OW10792   3.495   4.086   5.422
 3298SOL    HW110793   3.468   4.041   5.507
 3298SOL    HW210794   3.594   4.077   5.410
 3299SOL     OW10795   2.821   5.965   3.647
 3299SOL    HW110796   2.876   6.027   3.703
 3299SOL    HW210797   2.754   6.017   3.594
 3300SOL     OW10798   2.104   0.899   4.108
 3300SOL    HW110799   2.203   0.901   4.124
 3300SOL    HW210800   2.063   0.829   4.167
 3301SOL     OW10801   0.865   1.046   3.289
 3301SOL    HW110802   0.878   0.989   3.370
 3301SOL    HW210803   0.785   1.014   3.239
 3302SOL     OW10804   1.110   5.369   5.200
 3302SOL    HW110805   1.019   5.338   5.229
 3302SOL    HW210806   1.160   5.293   5.158
 3303SOL     OW10807   3.734   3.666   6.749
 3303SOL    HW110808   3.818   3.612   6.758
 3303SOL    HW210809   3.710   3.674   6.652
 3304SOL     OW10810   2.075   4.085   0.120
 3304SOL    HW110811   2.138   4.138   0.178
 3304SOL    HW210812   2.064   3.993   0.158
 3305SOL     OW10813   3.231   2.732   0.044
 3305SOL    HW110814   3.134   2.714   0.059
 3305SOL    HW210815   3.285   2.655   0.079
 3306SOL     OW10816   2.182   0.478   6.919
 3306SOL    HW110817   2.134   0.390   6.930
 3306SOL    HW210818   2.258   0.467   6.856
 3307SOL     OW10819   1.862   5.859   4.569
 3307SOL    HW110820   1.910   5.803   4.636
 3307SOL    HW210821   1.918   5.869   4.486
 3308SOL     OW10822   4.401   4.820   1.314
 3308SOL    HW110823   4.347   4.739   1.290
 3308SOL    HW210824   4.428   4.868   1.231
 3309SOL     OW10825   5.185   3.749   3.305
 3309SOL    HW110826   5.192   3.844   3.334
 3309SOL    HW210827   5.274   3.718   3.272
 3310SOL     OW10828   6.540   4.719   6.192
 3310SOL    HW110829   6.606   4.664   6.140
 3310SOL    HW210830   6.475   4.658   6.237
 3311SOL     OW10831   2.221   3.529   0.742
 3311SOL    HW110832   2.261   3.569   0.661
 3311SOL    HW210833   2.173   3.599   0.795
 3312SOL     OW10834   4.733   2.861   6.475
 3312SOL    HW110835   4.791   2.918   6.416
 3312SOL    HW210836   4.699   2.783   6.422
 3313SOL     OW10837   0.266   6.950   4.567
 3313SOL    HW110838   0.202   6.873   4.574
 3313SOL    HW210839   0.215   0.016   4.556
 3314SOL     OW10840   3.705   5.708   1.588
 3314SOL    HW110841   3.671   5.657   1.668
 3314SOL    HW210842   3.678   5.659   1.505
 3315SOL     OW10843   1.165   5.634   3.692
 3315SOL    HW110844   1.113   5.703   3.641
 3315SOL    HW210845   1.162   5.654   3.789
 3316SOL     OW10846   4.006   2.652   0.119
 3316SOL    HW110847   4.015   2.732   0.177
 3316SOL    HW210848   4.071   2.582   0.148
 3317SOL     OW10849   5.273   2.807   2.064
 3317SOL    HW110850   5.268   2.763   2.154
 3317SOL    HW210851   5.338   2.757   2.007
 3318SOL     OW10852   3.344   3.098   0.528
 3318SOL    HW110853   3.349   3.191   0.564
 3318SOL    HW210854   3.433   3.072   0.491
 3319SOL     OW10855   6.649   6.024   4.129
 3319SOL    HW110856   6.701   6.083   4.192
 3319SOL    HW210857   6.678   6.042   4.035
 3320SOL     OW10858   6.434   6.611   1.986
 3320SOL    HW110859   6.463   6.698   1.948
 3320SOL    HW210860   6.406   6.549   1.912
 3321SOL     OW10861   4.921   2.107   6.938
 3321SOL    HW110862   4.995   2.069   6.883
 3321SOL    HW210863   4.951   2.114   0.014
 3322SOL     OW10864   6.298   2.985   0.830
 3322SOL    HW110865   6.349   2.913   0.879
 3322SOL    HW210866   6.200   2.973   0.847
 3323SOL     OW10867   1.627   1.490   1.451
 3323SOL    HW110868   1.696   1.527   1.390
 3323SOL    HW210869   1.536   1.500   1.409
 3324SOL     OW10870   5.225   5.302   5.605
 3324SOL    HW110871   5.135   5.331   5.573
 3324SOL    HW210872   5.291   5.376   5.593
 3325SOL     OW10873   2.570   5.034   5.027
 3325SOL    HW110874   2.646   5.080   5.074
 3325SOL    HW210875   2.603   4.996   4.940
 3326SOL     OW10876   3.533   2.101   2.239
 3326SOL    HW110877   3.555   2.153   2.157
 3326SOL    HW210878   3.439   2.120   2.266
 3327SOL     OW10879   1.040   5.575   6.041
 3327SOL    HW110880   1.056   5.671   6.064
 3327SOL    HW210881   0.941   5.557   6.040
 3328SOL     OW10882   4.881   2.390   5.103
 3328SOL    HW110883   4.858   2.473   5.052
 3328SOL    HW210884   4.979   2.387   5.120
 3329SOL     OW10885   6.574   6.367   5.641
 3329SOL    HW110886   6.609   6.360   5.548
 3329SOL    HW210887   6.543   6.460   5.658
 3330SOL     OW10888   6.695   3.824   3.385
 3330SOL    HW110889   6.747   3.820   3.300
 3330SOL    HW210890   6.669   3.731   3.413
 3331SOL     OW10891   2.056   3.352   0.467
 3331SOL    HW110892   1.975   3.359   0.525
 3331SOL    HW210893   2.121   3.289   0.509
 3332SOL     OW10894   0.050   4.075   1.331
 3332SOL    HW110895   7.005   4.021   1.386
 3332SOL    HW210896   0.140   4.074   1.374
 3333SOL     OW10897   2.984   5.593   6.022
 3333SOL    HW110898   3.081   5.573   6.011
 3333SOL    HW210899   2.935   5.568   5.938
 3334SOL     OW10900   1.751   3.595   1.837
 3334SOL    HW110901   1.706   3.677   1.872
 3334SOL    HW210902   1.803   3.552   1.911
 3335SOL     OW10903   5.909   4.261   4.463
 3335SOL    HW110904   5.907   4.189   4.393
 3335SOL    HW210905   5.894   4.220   4.553
 3336SOL     OW10906   3.322   5.883   6.023
 3336SOL    HW110907   3.412   5.864   5.982
 3336SOL    HW210908   3.308   5.822   6.101
 3337SOL     OW10909   3.201   1.975   0.943
 3337SOL    HW110910   3.144   1.994   1.023
 3337SOL    HW210911   3.297   1.971   0.970
 3338SOL     OW10912   0.205   5.073   0.547
 3338SOL    HW110913   0.174   5.155   0.594
 3338SOL    HW210914   0.136   5.002   0.555
 3339SOL     OW10915   0.902   5.949   6.366
 3339SOL    HW110916   0.924   5.937   6.269
 3339SOL    HW210917   0.863   6.040   6.380
 3340SOL     OW10918   3.830   0.256   2.026
 3340SOL    HW110919   3.745   0.214   2.059
 3340SOL    HW210920   3.886   0.186   1.981
 3341SOL     OW10921   0.097   6.832   1.626
 3341SOL    HW110922   0.180   6.853   1.573
 3341SOL    HW210923   0.110   6.861   1.721
 3342SOL     OW10924   2.849   0.514   5.243
 3342SOL    HW110925   2.917   0.441   5.232
 3342SOL    HW210926   2.857   0.554   5.334
 3343SOL     OW10927   0.218   2.278   1.140
 3343SOL    HW110928   0.140   2.244   1.192
 3343SOL    HW210929   0.226   2.228   1.054
 3344SOL     OW10930   0.066   2.612   6.106
 3344SOL    HW110931   0.013   2.530   6.125
 3344SOL    HW210932   0.014   2.672   6.044
 3345SOL     OW10933   2.137   3.336   5.447
 3345SOL    HW110934   2.163   3.380   5.532
 3345SOL    HW210935   2.066   3.389   5.401
 3346SOL     OW10936   2.064   5.921   2.270
 3346SOL    HW110937   1.990   5.969   2.317
 3346SOL    HW210938   2.073   5.957   2.177
 3347SOL     OW10939   5.957   4.284   4.112
 3347SOL    HW110940   5.927   4.200   4.156
 3347SOL    HW210941   5.897   4.303   4.034
 3348SOL     OW10942   3.745   3.655   3.233
 3348SOL    HW110943   3.776   3.584   3.170
 3348SOL    HW210944   3.787   3.742   3.207
 3349SOL     OW10945   5.961   3.590   6.383
 3349SOL    HW110946   5.913   3.575   6.470
 3349SOL    HW210947   6.024   3.514   6.367
 3350SOL     OW10948   1.614   2.087   0.860
 3350SOL    HW110949   1.589   2.055   0.951
 3350SOL    HW210950   1.676   2.165   0.867
 3351SOL     OW10951   5.085   2.251   0.546
 3351SOL    HW110952   5.138   2.298   0.617
 3351SOL    HW210953   5.010   2.311   0.516
 3352SOL     OW10954   0.792   3.437   0.455
 3352SOL    HW110955   0.778   3.517   0.513
 3352SOL    HW210956   0.712   3.423   0.397
 3353SOL     OW10957   1.693   6.457   6.044
 3353SOL    HW110958   1.713   6.507   5.960
 3353SOL    HW210959   1.698   6.520   6.122
 3354SOL     OW10960   1.157   1.047   1.894
 3354SOL    HW110961   1.151   1.073   1.798
 3354SOL    HW210962   1.249   1.068   1.928
 3355SOL     OW10963   6.512   1.350   3.021
 3355SOL    HW110964   6.481   1.336   3.115
 3355SOL    HW210965   6.522   1.261   2.976
 3356SOL     OW10966   1.689   3.237   5.449
 3356SOL    HW110967   1.728   3.306   5.510
 3356SOL    HW210968   1.693   3.270   5.355
 3357SOL     OW10969   2.446   5.347   2.369
 3357SOL    HW110970   2.480   5.253   2.365
 3357SOL    HW210971   2.350   5.349   2.340
 3358SOL     OW10972   0.136   4.210   3.668
 3358SOL    HW110973   0.084   4.292   3.644
 3358SOL    HW210974   0.089   4.161   3.741
 3359SOL     OW10975   1.377   1.123   2.028
 3359SOL    HW110976   1.400   1.211   1.986
 3359SOL    HW210977   1.438   1.053   1.992
 3360SOL     OW10978   2.171   0.480   6.235
 3360SOL    HW110979   2.262   0.521   6.243
 3360SOL    HW210980   2.170   0.392   6.283
 3361SOL     OW10981   4.021   0.710   3.417
 3361SOL    HW110982   4.018   0.810   3.412
 3361SOL    HW210983   4.049   0.673   3.329
 3362SOL     OW10984   2.478   1.942   4.950
 3362SOL    HW110985   2.401   1.980   4.899
 3362SOL    HW210986   2.459   1.846   4.972
 3363SOL     OW10987   0.040   0.789   5.833
 3363SOL    HW110988   0.051   0.853   5.758
 3363SOL    HW210989   0.078   0.700   5.807
 3364SOL     OW10990   2.093   4.911   6.228
 3364SOL    HW110991   2.014   4.972   6.223
 3364SOL    HW210992   2.132   4.914   6.319
 3365SOL     OW10993   5.947   2.009   5.738
 3365SOL    HW110994   5.917   1.914   5.735
 3365SOL    HW210995   6.047   2.013   5.737
 3366SOL     OW10996   5.233   0.719   6.520
 3366SOL    HW110997   5.214   0.701   6.423
 3366SOL    HW210998   5.149   0.746   6.566
 3367SOL     OW10999   2.155   0.441   1.621
 3367SOL    HW111000   2.164   0.539   1.607
 3367SOL    HW211001   2.240   0.404   1.659
 3368SOL     OW11002   6.620   1.007   5.866
 3368SOL    HW111003   6.628   1.011   5.767
 3368SOL    HW211004   6.542   1.062   5.895
 3369SOL     OW11005   3.515   6.213   6.021
 3369SOL    HW111006   3.557   6.176   5.938
 3369SOL    HW211007   3.415   6.213   6.011
 3370SOL     OW11008   5.365   0.048   5.375
 3370SOL    HW111009   5.443   0.106   5.396
 3370SOL    HW211010   5.288   0.071   5.435
 3371SOL     OW11011   6.545   4.795   1.498
 3371SOL    HW111012   6.584   4.718   1.549
 3371SOL    HW211013   6.595   4.806   1.412
 3372SOL     OW11014   0.404   2.188   2.696
 3372SOL    HW111015   0.410   2.092   2.669
 3372SOL    HW211016   0.480   2.238   2.656
 3373SOL     OW11017   0.570   2.281   6.363
 3373SOL    HW111018   0.507   2.266   6.287
 3373SOL    HW211019   0.601   2.376   6.362
 3374SOL     OW11020   3.957   5.680   5.359
 3374SOL    HW111021   3.899   5.715   5.432
 3374SOL    HW211022   3.950   5.740   5.279
 3375SOL     OW11023   3.770   4.182   4.968
 3375SOL    HW111024   3.801   4.273   4.939
 3375SOL    HW211025   3.670   4.182   4.975
 3376SOL     OW11026   2.876   3.169   1.885
 3376SOL    HW111027   2.972   3.141   1.881
 3376SOL    HW211028   2.853   3.195   1.979
 3377SOL     OW11029   2.867   5.699   5.286
 3377SOL    HW111030   2.938   5.731   5.349
 3377SOL    HW211031   2.901   5.704   5.192
 3378SOL     OW11032   0.054   0.820   0.603
 3378SOL    HW111033   0.045   0.872   0.518
 3378SOL    HW211034   0.151   0.802   0.621
 3379SOL     OW11035   0.349   4.988   5.721
 3379SOL    HW111036   0.346   5.057   5.792
 3379SOL    HW211037   0.272   5.001   5.658
 3380SOL     OW11038   0.856   3.979   5.542
 3380SOL    HW111039   0.812   3.891   5.528
 3380SOL    HW211040   0.862   4.027   5.454
 3381SOL     OW11041   3.279   2.885   1.497
 3381SOL    HW111042   3.336   2.817   1.544
 3381SOL    HW211043   3.253   2.957   1.562
 3382SOL     OW11044   6.768   6.863   6.854
 3382SOL    HW111045   6.725   6.898   6.937
 3382SOL    HW211046   6.701   6.813   6.800
 3383SOL     OW11047   0.658   3.963   2.685
 3383SOL    HW111048   0.702   3.882   2.722
 3383SOL    HW211049   0.693   3.982   2.594
 3384SOL     OW11050   3.141   3.179   4.867
 3384SOL    HW111051   3.191   3.262   4.894
 3384SOL    HW211052   3.136   3.174   4.767
 3385SOL     OW11053   6.936   3.704   3.566
 3385SOL    HW111054   0.005   3.750   3.566
 3385SOL    HW211055   6.863   3.771   3.571
 3386SOL     OW11056   5.979   3.685   5.167
 3386SOL    HW111057   5.895   3.664   5.117
 3386SOL    HW211058   5.988   3.784   5.177
 3387SOL     OW11059   3.338   2.107   2.828
 3387SOL    HW111060   3.338   2.076   2.924
 3387SOL    HW211061   3.292   2.039   2.772
 3388SOL     OW11062   5.186   3.310   1.987
 3388SOL    HW111063   5.229   3.283   1.900
 3388SOL    HW211064   5.133   3.233   2.023
 3389SOL     OW11065   4.520   4.560   3.095
 3389SOL    HW111066   4.562   4.478   3.133
 3389SOL    HW211067   4.519   4.632   3.164
 3390SOL     OW11068   4.902   2.433   5.974
 3390SOL    HW111069   4.949   2.486   6.044
 3390SOL    HW211070   4.967   2.406   5.903
 3391SOL     OW11071   3.982   2.165   3.910
 3391SOL    HW111072   3.982   2.137   4.006
 3391SOL    HW211073   4.061   2.224   3.893
 3392SOL     OW11074   5.293   5.994   3.280
 3392SOL    HW111075   5.252   6.016   3.369
 3392SOL    HW211076   5.294   5.895   3.268
 3393SOL     OW11077   6.716   0.578   0.162
 3393SOL    HW111078   6.684   0.644   0.229
 3393SOL    HW211079   6.760   0.625   0.086
 3394SOL     OW11080   5.495   1.222   1.813
 3394SOL    HW111081   5.446   1.223   1.727
 3394SOL    HW211082   5.547   1.307   1.823
 3395SOL     OW11083   1.459   3.670   5.211
 3395SOL    HW111084   1.557   3.680   5.194
 3395SOL    HW211085   1.445   3.615   5.294
 3396SOL     OW11086   6.712   4.003   4.519
 3396SOL    HW111087   6.766   3.921   4.540
 3396SOL    HW211088   6.769   4.069   4.470
 3397SOL     OW11089   2.811   6.463   5.850
 3397SOL    HW111090   2.905   6.429   5.841
 3397SOL    HW211091   2.747   6.394   5.817
 3398SOL     OW11092   0.385   0.326   4.197
 3398SOL    HW111093   0.299   0.353   4.240
 3398SOL    HW211094   0.424   0.248   4.247
 3399SOL     OW11095   4.411   5.444   4.266
 3399SOL    HW111096   4.399   5.416   4.361
 3399SOL    HW211097   4.333   5.501   4.238
 3400SOL     OW11098   4.992   2.651   6.607
 3400SOL    HW111099   4.974   2.746   6.579
 3400SOL    HW211100   4.945   2.589   6.544
 3401SOL     OW11101   6.725   4.829   6.533
 3401SOL    HW111102   6.746   4.806   6.438
 3401SOL    HW211103   6.788   4.781   6.594
 3402SOL     OW11104   5.230   5.323   2.467
 3402SOL    HW111105   5.153   5.272   2.504
 3402SOL    HW211106   5.310   5.263   2.460
 3403SOL     OW11107   3.228   2.003   4.989
 3403SOL    HW111108   3.190   2.095   4.982
 3403SOL    HW211109   3.184   1.955   5.066
 3404SOL     OW11110   4.158   0.598   1.340
 3404SOL    HW111111   4.073   0.552   1.365
 3404SOL    HW211112   4.209   0.542   1.275
 3405SOL     OW11113   5.757   3.502   0.798
 3405SOL    HW111114   5.768   3.596   0.768
 3405SOL    HW211115   5.796   3.440   0.729
 3406SOL     OW11116   1.037   4.581   1.817
 3406SOL    HW111117   0.971   4.649   1.849
 3406SOL    HW211118   0.989   4.511   1.764
 3407SOL     OW11119   1.827   5.512   2.914
 3407SOL    HW111120   1.842   5.459   2.997
 3407SOL    HW211121   1.744   5.479   2.868
 3408SOL     OW11122   5.368   4.141   2.943
 3408SOL    HW111123   5.311   4.059   2.953
 3408SOL    HW211124   5.432   4.147   3.019
 3409SOL     OW11125   3.029   0.616   6.055
 3409SOL    HW111126   3.078   0.703   6.055
 3409SOL    HW211127   3.095   0.541   6.056
 3410SOL     OW11128   0.005   0.674   6.983
 3410SOL    HW111129   6.977   0.729   0.033
 3410SOL    HW211130   0.063   0.607   0.009
 3411SOL     OW11131   4.729   2.458   2.312
 3411SOL    HW111132   4.792   2.381   2.320
 3411SOL    HW211133   4.780   2.542   2.296
 3412SOL     OW11134   4.006   4.929   6.664
 3412SOL    HW111135   4.078   4.987   6.625
 3412SOL    HW211136   3.941   4.906   6.592
 3413SOL     OW11137   4.067   1.563   1.983
 3413SOL    HW111138   4.105   1.620   2.055
 3413SOL    HW211139   3.973   1.592   1.963
 3414SOL     OW11140   3.778   1.265   5.284
 3414SOL    HW111141   3.679   1.273   5.278
 3414SOL    HW211142   3.804   1.235   5.376
 3415SOL     OW11143   0.714   5.277   4.267
 3415SOL    HW111144   0.693   5.257   4.171
 3415SOL    HW211145   0.657   5.219   4.326
 3416SOL     OW11146   2.269   5.173   5.823
 3416SOL    HW111147   2.242   5.085   5.862
 3416SOL    HW211148   2.190   5.215   5.778
 3417SOL     OW11149   5.781   0.519   1.353
 3417SOL    HW111150   5.856   0.530   1.288
 3417SOL    HW211151   5.726   0.440   1.328
 3418SOL     OW11152   3.220   2.061   6.338
 3418SOL    HW111153   3.188   2.061   6.243
 3418SOL    HW211154   3.147   2.028   6.397
 3419SOL     OW11155   4.462   3.721   0.508
 3419SOL    HW111156   4.465   3.659   0.587
 3419SOL    HW211157   4.389   3.789   0.522
 3420SOL     OW11158   3.993   2.173   3.593
 3420SOL    HW111159   3.972   2.183   3.691
 3420SOL    HW211160   3.983   2.077   3.567
 3421SOL     OW11161   0.737   6.632   3.990
 3421SOL    HW111162   0.642   6.649   3.963
 3421SOL    HW211163   0.799   6.672   3.922
 3422SOL     OW11164   3.008   1.821   2.390
 3422SOL    HW111165   2.921   1.808   2.343
 3422SOL    HW211166   3.024   1.919   2.403
 3423SOL     OW11167   2.754   0.989   1.932
 3423SOL    HW111168   2.732   0.951   2.022
 3423SOL    HW211169   2.841   1.038   1.938
 3424SOL     OW11170   4.262   0.948   2.197
 3424SOL    HW111171   4.324   1.013   2.241
 3424SOL    HW211172   4.181   0.997   2.164
 3425SOL     OW11173   5.201   4.372   1.694
 3425SOL    HW111174   5.144   4.303   1.737
 3425SOL    HW211175   5.229   4.440   1.763
 3426SOL     OW11176   4.427   3.390   0.567
 3426SOL    HW111177   4.419   3.445   0.650
 3426SOL    HW211178   4.349   3.409   0.507
 3427SOL     OW11179   0.792   1.270   0.604
 3427SOL    HW111180   0.745   1.358   0.612
 3427SOL    HW211181   0.890   1.283   0.610
 3428SOL     OW11182   4.458   4.821   3.251
 3428SOL    HW111183   4.523   4.808   3.326
 3428SOL    HW211184   4.428   4.917   3.249
 3429SOL     OW11185   0.464   3.291   6.791
 3429SOL    HW111186   0.413   3.322   6.872
 3429SOL    HW211187   0.558   3.271   6.816
 3430SOL     OW11188   0.804   6.367   6.696
 3430SOL    HW111189   0.870   6.442   6.700
 3430SOL    HW211190   0.843   6.290   6.646
 3431SOL     OW11191   0.846   6.133   6.949
 3431SOL    HW111192   0.830   6.180   6.862
 3431SOL    HW211193   0.759   6.112   6.992
 3432SOL     OW11194   2.990   2.056   6.517
 3432SOL    HW111195   2.893   2.078   6.503
 3432SOL    HW211196   3.029   2.116   6.587
 3433SOL     OW11197   4.364   0.683   4.583
 3433SOL    HW111198   4.348   0.716   4.676
 3433SOL    HW211199   4.456   0.707   4.555
 3434SOL     OW11200   4.806   2.140   3.022
 3434SOL    HW111201   4.761   2.169   2.938
 3434SOL    HW211202   4.770   2.051   3.050
 3435SOL     OW11203   0.520   1.565   6.627
 3435SOL    HW111204   0.592   1.512   6.670
 3435SOL    HW211205   0.535   1.662   6.644
 3436SOL     OW11206   4.561   6.858   3.334
 3436SOL    HW111207   4.484   6.828   3.391
 3436SOL    HW211208   4.530   6.867   3.240
 3437SOL     OW11209   4.235   0.623   6.218
 3437SOL    HW111210   4.297   0.559   6.172
 3437SOL    HW211211   4.223   0.705   6.162
 3438SOL     OW11212   1.441   4.067   6.492
 3438SOL    HW111213   1.403   4.140   6.548
 3438SOL    HW211214   1.385   3.985   6.502
 3439SOL     OW11215   2.759   6.661   3.707
 3439SOL    HW111216   2.807   6.748   3.716
 3439SOL    HW211217   2.662   6.677   3.688
 3440SOL     OW11218   3.594   2.066   0.846
 3440SOL    HW111219   3.602   2.014   0.761
 3440SOL    HW211220   3.544   2.012   0.914
 3441SOL     OW11221   3.776   0.703   4.296
 3441SOL    HW111222   3.742   0.745   4.212
 3441SOL    HW211223   3.709   0.637   4.330
 3442SOL     OW11224   1.548   4.787   2.985
 3442SOL    HW111225   1.622   4.742   2.935
 3442SOL    HW211226   1.581   4.814   3.075
 3443SOL     OW11227   5.915   0.845   3.827
 3443SOL    HW111228   5.887   0.937   3.802
 3443SOL    HW211229   6.011   0.847   3.857
 3444SOL     OW11230   4.196   5.131   0.553
 3444SOL    HW111231   4.167   5.192   0.479
 3444SOL    HW211232   4.192   5.180   0.640
 3445SOL     OW11233   5.855   5.035   4.751
 3445SOL    HW111234   5.913   4.955   4.735
 3445SOL    HW211235   5.842   5.085   4.666
 3446SOL     OW11236   2.982   6.518   2.735
 3446SOL    HW111237   3.059   6.537   2.796
 3446SOL    HW211238   2.929   6.601   2.722
 3447SOL     OW11239   6.210   5.018   6.102
 3447SOL    HW111240   6.263   5.083   6.048
 3447SOL    HW211241   6.113   5.044   6.101
 3448SOL     OW11242   3.566   2.045   1.213
 3448SOL    HW111243   3.662   2.042   1.241
 3448SOL    HW211244   3.509   2.062   1.294
 3449SOL     OW11245   6.104   6.169   3.033
 3449SOL    HW111246   6.085   6.104   2.960
 3449SOL    HW211247   6.119   6.120   3.119
 3450SOL     OW11248   0.825   2.229   1.689
 3450SOL    HW111249   0.784   2.320   1.687
 3450SOL    HW211250   0.820   2.188   1.597
 3451SOL     OW11251   1.334   5.362   3.982
 3451SOL    HW111252   1.300   5.376   3.889
 3451SOL    HW211253   1.417   5.306   3.978
 3452SOL     OW11254   6.460   2.444   0.262
 3452SOL    HW111255   6.468   2.392   0.177
 3452SOL    HW211256   6.542   2.499   0.276
 3453SOL     OW11257   6.412   6.254   5.887
 3453SOL    HW111258   6.476   6.277   5.813
 3453SOL    HW211259   6.454   6.274   5.975
 3454SOL     OW11260   0.637   1.332   0.112
 3454SOL    HW111261   0.588   1.373   0.189
 3454SOL    HW211262   0.634   1.394   0.034
 3455SOL     OW11263   2.144   2.426   4.529
 3455SOL    HW111264   2.114   2.521   4.519
 3455SOL    HW211265   2.073   2.365   4.495
 3456SOL     OW11266   6.464   0.220   1.269
 3456SOL    HW111267   6.509   0.135   1.242
 3456SOL    HW211268   6.531   0.293   1.274
 3457SOL     OW11269   2.382   5.595   3.897
 3457SOL    HW111270   2.462   5.559   3.946
 3457SOL    HW211271   2.312   5.622   3.963
 3458SOL     OW11272   5.314   5.270   1.128
 3458SOL    HW111273   5.307   5.369   1.145
 3458SOL    HW211274   5.224   5.228   1.139
 3459SOL     OW11275   6.570   6.634   3.364
 3459SOL    HW111276   6.575   6.658   3.267
 3459SOL    HW211277   6.571   6.535   3.373
 3460SOL     OW11278   3.946   3.400   6.006
 3460SOL    HW111279   3.861   3.364   5.967
 3460SOL    HW211280   4.021   3.384   5.942
 3461SOL     OW11281   3.300   5.557   2.572
 3461SOL    HW111282   3.241   5.631   2.603
 3461SOL    HW211283   3.248   5.494   2.515
 3462SOL     OW11284   4.916   3.176   2.958
 3462SOL    HW111285   4.871   3.089   2.941
 3462SOL    HW211286   4.995   3.162   3.018
 3463SOL     OW11287   2.249   2.835   0.886
 3463SOL    HW111288   2.316   2.800   0.951
 3463SOL    HW211289   2.177   2.767   0.873
 3464SOL     OW11290   4.642   2.601   6.356
 3464SOL    HW111291   4.605   2.560   6.439
 3464SOL    HW211292   4.618   2.544   6.277
 3465SOL     OW11293   1.790   4.072   1.980
 3465SOL    HW111294   1.805   4.165   2.012
 3465SOL    HW211295   1.852   4.052   1.904
 3466SOL     OW11296   6.447   4.509   3.918
 3466SOL    HW111297   6.407   4.500   3.827
 3466SOL    HW211298   6.387   4.466   3.986
 3467SOL     OW11299   3.053   2.738   1.065
 3467SOL    HW111300   3.051   2.706   0.970
 3467SOL    HW211301   2.964   2.775   1.090
 3468SOL     OW11302   3.391   1.862   0.728
 3468SOL    HW111303   3.414   1.816   0.814
 3468SOL    HW211304   3.305   1.912   0.740
 3469SOL     OW11305   3.758   5.924   5.905
 3469SOL    HW111306   3.741   5.827   5.923
 3469SOL    HW211307   3.778   5.971   5.991
 3470SOL     OW11308   1.252   3.409   1.505
 3470SOL    HW111309   1.266   3.504   1.475
 3470SOL    HW211310   1.256   3.405   1.605
 3471SOL     OW11311   5.208   3.599   4.472
 3471SOL    HW111312   5.156   3.518   4.498
 3471SOL    HW211313   5.306   3.577   4.470
 3472SOL     OW11314   4.209   1.845   2.719
 3472SOL    HW111315   4.163   1.857   2.631
 3472SOL    HW211316   4.158   1.895   2.790
 3473SOL     OW11317   6.719   4.625   1.611
 3473SOL    HW111318   6.721   4.630   1.711
 3473SOL    HW211319   6.812   4.612   1.577
 3474SOL     OW11320   5.501   4.833   4.273
 3474SOL    HW111321   5.561   4.825   4.353
 3474SOL    HW211322   5.406   4.840   4.303
 3475SOL     OW11323   7.009   4.700   4.179
 3475SOL    HW111324   7.014   4.702   4.079
 3475SOL    HW211325   0.066   4.646   4.215
 3476SOL     OW11326   1.699   0.957   3.751
 3476SOL    HW111327   1.667   1.009   3.829
 3476SOL    HW211328   1.745   1.018   3.686
 3477SOL     OW11329   0.724   4.091   2.046
 3477SOL    HW111330   0.797   4.026   2.064
 3477SOL    HW211331   0.690   4.127   2.133
 3478SOL     OW11332   2.213   1.101   1.541
 3478SOL    HW111333   2.267   1.040   1.600
 3478SOL    HW211334   2.248   1.094   1.447
 3479SOL     OW11335   1.182   4.935   4.976
 3479SOL    HW111336   1.243   4.948   4.898
 3479SOL    HW211337   1.127   4.853   4.961
 3480SOL     OW11338   1.238   4.878   6.979
 3480SOL    HW111339   1.149   4.843   7.007
 3480SOL    HW211340   1.301   4.802   6.962
 3481SOL     OW11341   6.425   1.061   5.383
 3481SOL    HW111342   6.336   1.018   5.398
 3481SOL    HW211343   6.487   0.995   5.341
 3482SOL     OW11344   5.922   3.685   5.674
 3482SOL    HW111345   5.850   3.747   5.708
 3482SOL    HW211346   5.949   3.714   5.582
 3483SOL     OW11347   5.554   3.013   5.061
 3483SOL    HW111348   5.486   2.960   5.111
 3483SOL    HW211349   5.605   3.070   5.125
 3484SOL     OW11350   1.770   3.615   5.203
 3484SOL    HW111351   1.832   3.584   5.275
 3484SOL    HW211352   1.746   3.538   5.145
 3485SOL     OW11353   6.695   2.741   6.588
 3485SOL    HW111354   6.767   2.735   6.657
 3485SOL    HW211355   6.698   2.831   6.544
 3486SOL     OW11356   2.340   6.147   4.978
 3486SOL    HW111357   2.281   6.181   4.905
 3486SOL    HW211358   2.435   6.146   4.947
 3487SOL     OW11359   4.778   1.213   6.268
 3487SOL    HW111360   4.693   1.245   6.227
 3487SOL    HW211361   4.837   1.173   6.198
 3488SOL     OW11362   5.655   0.597   4.947
 3488SOL    HW111363   5.566   0.551   4.955
 3488SOL    HW211364   5.724   0.530   4.919
 3489SOL     OW11365   2.933   6.231   0.769
 3489SOL    HW111366   2.966   6.326   0.774
 3489SOL    HW211367   2.893   6.205   0.857
 3490SOL     OW11368   3.433   6.695   0.088
 3490SOL    HW111369   3.485   6.765   0.039
 3490SOL    HW211370   3.482   6.669   0.171
 3491SOL     OW11371   4.612   4.811   6.141
 3491SOL    HW111372   4.537   4.866   6.105
 3491SOL    HW211373   4.634   4.841   6.233
 3492SOL     OW11374   6.042   4.329   2.278
 3492SOL    HW111375   6.006   4.306   2.369
 3492SOL    HW211376   6.133   4.370   2.289
 3493SOL     OW11377   6.600   3.011   5.345
 3493SOL    HW111378   6.684   2.965   5.319
 3493SOL    HW211379   6.542   3.024   5.264
 3494SOL     OW11380   4.460   1.716   2.251
 3494SOL    HW111381   4.428   1.643   2.190
 3494SOL    HW211382   4.414   1.709   2.339
 3495SOL     OW11383   0.990   2.951   2.681
 3495SOL    HW111384   0.979   2.978   2.586
 3495SOL    HW211385   0.960   2.856   2.692
 3496SOL     OW11386   6.123   5.444   1.073
 3496SOL    HW111387   6.119   5.535   1.115
 3496SOL    HW211388   6.031   5.415   1.047
 3497SOL     OW11389   3.203   6.520   2.318
 3497SOL    HW111390   3.172   6.582   2.246
 3497SOL    HW211391   3.124   6.485   2.368
 3498SOL     OW11392   2.180   2.689   1.443
 3498SOL    HW111393   2.208   2.766   1.386
 3498SOL    HW211394   2.150   2.723   1.533
 3499SOL     OW11395   6.127   5.863   4.994
 3499SOL    HW111396   6.076   5.948   4.979
 3499SOL    HW211397   6.178   5.869   5.080
 3500SOL     OW11398   1.987   2.060   4.613
 3500SOL    HW111399   1.985   2.108   4.701
 3500SOL    HW211400   1.906   2.002   4.605
 3501SOL     OW11401   1.837   0.470   4.915
 3501SOL    HW111402   1.877   0.560   4.934
 3501SOL    HW211403   1.778   0.443   4.992
 3502SOL     OW11404   4.893   2.692   2.279
 3502SOL    HW111405   4.903   2.791   2.292
 3502SOL    HW211406   4.983   2.648   2.289
 3503SOL     OW11407   6.075   6.236   6.685
 3503SOL    HW111408   6.043   6.277   6.599
 3503SOL    HW211409   6.038   6.288   6.762
 3504SOL     OW11410   1.130   0.874   0.412
 3504SOL    HW111411   1.199   0.929   0.460
 3504SOL    HW211412   1.120   0.908   0.318
 3505SOL     OW11413   5.285   4.933   6.230
 3505SOL    HW111414   5.321   4.842   6.251
 3505SOL    HW211415   5.191   4.924   6.196
 3506SOL     OW11416   4.636   4.961   4.948
 3506SOL    HW111417   4.651   4.906   4.866
 3506SOL    HW211418   4.582   5.042   4.926
 3507SOL     OW11419   2.881   0.345   0.796
 3507SOL    HW111420   2.968   0.386   0.823
 3507SOL    HW211421   2.815   0.352   0.872
 3508SOL     OW11422   3.104   1.914   5.228
 3508SOL    HW111423   3.045   1.944   5.303
 3508SOL    HW211424   3.114   1.815   5.232
 3509SOL     OW11425   3.366   5.662   6.510
 3509SOL    HW111426   3.365   5.762   6.517
 3509SOL    HW211427   3.415   5.635   6.428
 3510SOL     OW11428   2.280   1.640   0.677
 3510SOL    HW111429   2.371   1.606   0.702
 3510SOL    HW211430   2.222   1.564   0.647
 3511SOL     OW11431   2.916   4.292   1.675
 3511SOL    HW111432   2.888   4.351   1.751
 3511SOL    HW211433   3.010   4.313   1.650
 3512SOL     OW11434   0.382   5.198   5.882
 3512SOL    HW111435   0.429   5.286   5.883
 3512SOL    HW211436   0.373   5.165   5.976
 3513SOL     OW11437   6.030   1.638   0.382
 3513SOL    HW111438   6.079   1.725   0.386
 3513SOL    HW211439   6.033   1.594   0.472
 3514SOL     OW11440   3.654   1.345   2.107
 3514SOL    HW111441   3.719   1.336   2.031
 3514SOL    HW211442   3.617   1.437   2.108
 3515SOL     OW11443   0.268   5.570   4.287
 3515SOL    HW111444   0.178   5.536   4.316
 3515SOL    HW211445   0.329   5.492   4.273
 3516SOL     OW11446   4.309   0.220   1.391
 3516SOL    HW111447   4.288   0.292   1.325
 3516SOL    HW211448   4.231   0.158   1.399
 3517SOL     OW11449   5.727   0.250   1.381
 3517SOL    HW111450   5.819   0.215   1.395
 3517SOL    HW211451   5.669   0.177   1.344
 3518SOL     OW11452   4.847   0.976   5.355
 3518SOL    HW111453   4.907   1.044   5.398
 3518SOL    HW211454   4.883   0.884   5.373
 3519SOL     OW11455   3.386   0.561   1.158
 3519SOL    HW111456   3.380   0.659   1.137
 3519SOL    HW211457   3.357   0.545   1.252
 3520SOL     OW11458   2.691   6.319   4.633
 3520SOL    HW111459   2.775   6.279   4.671
 3520SOL    HW211460   2.693   6.312   4.533
 3521SOL     OW11461   2.360   3.204   0.472
 3521SOL    HW111462   2.293   3.131   0.487
 3521SOL    HW211463   2.357   3.232   0.376
 3522SOL     OW11464   0.444   5.490   6.533
 3522SOL    HW111465   0.478   5.583   6.519
 3522SOL    HW211466   0.457   5.437   6.449
 3523SOL     OW11467   1.914   5.508   0.048
 3523SOL    HW111468   1.877   5.475   6.980
 3523SOL    HW211469   1.900   5.607   0.054
 3524SOL     OW11470   5.261   1.106   3.445
 3524SOL    HW111471   5.251   1.135   3.540
 3524SOL    HW211472   5.335   1.039   3.439
 3525SOL     OW11473   6.523   3.773   3.012
 3525SOL    HW111474   6.574   3.713   3.073
 3525SOL    HW211475   6.429   3.783   3.047
 3526SOL     OW11476   0.701   6.586   3.241
 3526SOL    HW111477   0.748   6.610   3.156
 3526SOL    HW211478   0.614   6.541   3.220
 3527SOL     OW11479   0.320   2.579   6.184
 3527SOL    HW111480   0.231   2.608   6.150
 3527SOL    HW211481   0.309   2.528   6.269
 3528SOL     OW11482   2.510   5.920   4.774
 3528SOL    HW111483   2.478   5.884   4.687
 3528SOL    HW211484   2.453   5.998   4.800
 3529SOL     OW11485   4.500   5.100   0.729
 3529SOL    HW111486   4.534   5.160   0.657
 3529SOL    HW211487   4.436   5.152   0.787
 3530SOL     OW11488   7.013   6.656   1.877
 3530SOL    HW111489   6.944   6.676   1.807
 3530SOL    HW211490   0.049   6.737   1.893
 3531SOL     OW11491   5.521   1.777   0.251
 3531SOL    HW111492   5.595   1.722   0.290
 3531SOL    HW211493   5.524   1.771   0.152
 3532SOL     OW11494   2.224   1.408   1.890
 3532SOL    HW111495   2.142   1.382   1.940
 3532SOL    HW211496   2.208   1.398   1.792
 3533SOL     OW11497   0.809   1.389   2.841
 3533SOL    HW111498   0.822   1.486   2.818
 3533SOL    HW211499   0.744   1.382   2.918
 3534SOL     OW11500   0.207   1.630   0.886
 3534SOL    HW111501   0.271   1.598   0.955
 3534SOL    HW211502   0.254   1.691   0.822
 3535SOL     OW11503   2.960   5.869   4.507
 3535SOL    HW111504   3.027   5.936   4.540
 3535SOL    HW211505   2.985   5.838   4.415
 3536SOL     OW11506   3.856   2.111   2.719
 3536SOL    HW111507   3.833   2.130   2.623
 3536SOL    HW211508   3.774   2.112   2.774
 3537SOL     OW11509   2.058   6.441   3.182
 3537SOL    HW111510   2.143   6.460   3.132
 3537SOL    HW211511   2.068   6.471   3.277
 3538SOL     OW11512   3.472   5.204   3.864
 3538SOL    HW111513   3.493   5.185   3.768
 3538SOL    HW211514   3.535   5.153   3.922
 3539SOL     OW11515   3.590   3.380   4.404
 3539SOL    HW111516   3.681   3.411   4.376
 3539SOL    HW211517   3.524   3.403   4.333
 3540SOL     OW11518   1.761   2.231   3.286
 3540SOL    HW111519   1.821   2.157   3.258
 3540SOL    HW211520   1.675   2.194   3.322
 3541SOL     OW11521   3.646   4.171   4.495
 3541SOL    HW111522   3.745   4.165   4.485
 3541SOL    HW211523   3.619   4.128   4.582
 3542SOL     OW11524   0.365   5.339   1.546
 3542SOL    HW111525   0.307   5.420   1.546
 3542SOL    HW211526   0.350   5.287   1.462
 3543SOL     OW11527   6.418   2.813   4.767
 3543SOL    HW111528   6.320   2.814   4.788
 3543SOL    HW211529   6.464   2.747   4.826
 3544SOL     OW11530   2.047   5.902   6.907
 3544SOL    HW111531   2.109   5.909   6.986
 3544SOL    HW211532   1.957   5.872   6.938
 3545SOL     OW11533   2.802   5.269   6.921
 3545SOL    HW111534   2.888   5.220   6.907
 3545SOL    HW211535   2.803   5.354   6.868
 3546SOL     OW11536   6.299   4.349   2.774
 3546SOL    HW111537   6.363   4.333   2.849
 3546SOL    HW211538   6.212   4.382   2.812
 3547SOL     OW11539   4.785   4.684   4.158
 3547SOL    HW111540   4.713   4.753   4.165
 3547SOL    HW211541   4.751   4.596   4.193
 3548SOL     OW11542   4.657   3.034   5.229
 3548SOL    HW111543   4.708   3.020   5.144
 3548SOL    HW211544   4.661   3.131   5.255
 3549SOL     OW11545   6.028   3.758   2.309
 3549SOL    HW111546   6.028   3.693   2.384
 3549SOL    HW211547   6.096   3.829   2.327
 3550SOL     OW11548   5.870   1.967   2.592
 3550SOL    HW111549   5.851   1.912   2.510
 3550SOL    HW211550   5.965   1.999   2.588
 3551SOL     OW11551   2.456   6.806   2.918
 3551SOL    HW111552   2.422   6.824   3.011
 3551SOL    HW211553   2.517   6.727   2.920
 3552SOL     OW11554   6.884   4.355   3.322
 3552SOL    HW111555   6.937   4.272   3.304
 3552SOL    HW211556   6.928   4.433   3.279
 3553SOL     OW11557   5.816   2.325   3.227
 3553SOL    HW111558   5.873   2.407   3.221
 3553SOL    HW211559   5.783   2.302   3.135
 3554SOL     OW11560   3.697   5.405   6.878
 3554SOL    HW111561   3.775   5.428   6.937
 3554SOL    HW211562   3.669   5.486   6.827
 3555SOL     OW11563   0.641   2.839   3.775
 3555SOL    HW111564   0.737   2.811   3.770
 3555SOL    HW211565   0.583   2.758   3.779
 3556SOL     OW11566   3.894   0.709   6.162
 3556SOL    HW111567   3.920   0.792   6.211
 3556SOL    HW211568   3.926   0.715   6.067
 3557SOL     OW11569   0.919   0.922   4.456
 3557SOL    HW111570   0.901   0.883   4.546
 3557SOL    HW211571   0.872   1.009   4.446
 3558SOL     OW11572   6.729   5.623   1.550
 3558SOL    HW111573   6.656   5.607   1.616
 3558SOL    HW211574   6.693   5.616   1.457
 3559SOL     OW11575   0.692   1.055   5.636
 3559SOL    HW111576   0.694   1.119   5.712
 3559SOL    HW211577   0.634   1.091   5.563
 3560SOL     OW11578   6.780   6.362   1.781
 3560SOL    HW111579   6.806   6.308   1.700
 3560SOL    HW211580   6.861   6.377   1.838
 3561SOL     OW11581   4.334   4.598   4.186
 3561SOL    HW111582   4.405   4.557   4.129
 3561SOL    HW211583   4.324   4.546   4.270
 3562SOL     OW11584   4.557   2.596   3.013
 3562SOL    HW111585   4.531   2.504   2.986
 3562SOL    HW211586   4.573   2.599   3.112
 3563SOL     OW11587   4.561   0.490   1.129
 3563SOL    HW111588   4.490   0.457   1.191
 3563SOL    HW211589   4.617   0.413   1.097
 3564SOL     OW11590   6.925   3.919   2.823
 3564SOL    HW111591   6.973   3.980   2.759
 3564SOL    HW211592   6.880   3.846   2.771
 3565SOL     OW11593   2.370   0.273   4.864
 3565SOL    HW111594   2.416   0.341   4.922
 3565SOL    HW211595   2.272   0.295   4.860
 3566SOL     OW11596   1.119   3.960   5.983
 3566SOL    HW111597   1.034   3.995   5.944
 3566SOL    HW211598   1.195   3.978   5.921
 3567SOL     OW11599   0.256   2.898   0.981
 3567SOL    HW111600   0.285   2.993   0.989
 3567SOL    HW211601   0.181   2.880   1.045
 3568SOL     OW11602   5.239   3.848   3.578
 3568SOL    HW111603   5.253   3.897   3.664
 3568SOL    HW211604   5.180   3.769   3.593
 3569SOL     OW11605   3.489   3.395   4.135
 3569SOL    HW111606   3.397   3.403   4.174
 3569SOL    HW211607   3.504   3.302   4.104
 3570SOL     OW11608   0.257   2.476   5.588
 3570SOL    HW111609   0.349   2.469   5.626
 3570SOL    HW211610   0.260   2.527   5.501
 3571SOL     OW11611   2.291   6.661   4.570
 3571SOL    HW111612   2.268   6.574   4.527
 3571SOL    HW211613   2.379   6.654   4.617
 3572SOL     OW11614   4.984   4.654   1.760
 3572SOL    HW111615   5.073   4.615   1.786
 3572SOL    HW211616   4.953   4.716   1.832
 3573SOL     OW11617   0.402   3.840   3.332
 3573SOL    HW111618   0.432   3.936   3.335
 3573SOL    HW211619   0.344   3.826   3.252
 3574SOL     OW11620   1.829   1.480   5.426
 3574SOL    HW111621   1.901   1.527   5.477
 3574SOL    HW211622   1.865   1.446   5.340
 3575SOL     OW11623   5.262   0.140   6.715
 3575SOL    HW111624   5.253   0.046   6.747
 3575SOL    HW211625   5.344   0.181   6.754
 3576SOL     OW11626   1.143   2.543   0.809
 3576SOL    HW111627   1.148   2.643   0.801
 3576SOL    HW211628   1.207   2.513   0.881
 3577SOL     OW11629   2.020   2.753   5.124
 3577SOL    HW111630   1.996   2.673   5.179
 3577SOL    HW211631   2.105   2.734   5.074
 3578SOL     OW11632   3.395   2.788   6.339
 3578SOL    HW111633   3.341   2.733   6.403
 3578SOL    HW211634   3.420   2.731   6.261
 3579SOL     OW11635   0.680   3.675   2.021
 3579SOL    HW111636   0.649   3.745   1.957
 3579SOL    HW211637   0.672   3.585   1.978
 3580SOL     OW11638   0.353   4.287   2.143
 3580SOL    HW111639   0.276   4.242   2.099
 3580SOL    HW211640   0.320   4.363   2.199
 3581SOL     OW11641   1.341   0.476   2.976
 3581SOL    HW111642   1.358   0.571   2.947
 3581SOL    HW211643   1.262   0.473   3.036
 3582SOL     OW11644   4.370   5.387   6.569
 3582SOL    HW111645   4.360   5.486   6.560
 3582SOL    HW211646   4.387   5.347   6.479
 3583SOL     OW11647   0.958   5.036   1.277
 3583SOL    HW111648   1.028   4.982   1.230
 3583SOL    HW211649   0.987   5.052   1.371
 3584SOL     OW11650   6.597   4.886   4.800
 3584SOL    HW111651   6.650   4.801   4.806
 3584SOL    HW211652   6.658   4.965   4.808
 3585SOL     OW11653   3.454   1.329   3.743
 3585SOL    HW111654   3.540   1.362   3.782
 3585SOL    HW211655   3.377   1.367   3.794
 3586SOL     OW11656   0.096   2.075   5.108
 3586SOL    HW111657   0.109   1.979   5.130
 3586SOL    HW211658   0.155   2.100   5.031
 3587SOL     OW11659   3.260   0.047   6.251
 3587SOL    HW111660   3.246   6.975   6.212
 3587SOL    HW211661   3.275   0.038   6.350
 3588SOL     OW11662   6.219   4.868   4.571
 3588SOL    HW111663   6.226   4.851   4.472
 3588SOL    HW211664   6.140   4.818   4.607
 3589SOL     OW11665   0.251   0.120   5.949
 3589SOL    HW111666   0.206   0.085   5.866
 3589SOL    HW211667   0.184   0.124   6.023
 3590SOL     OW11668   0.183   5.390   6.162
 3590SOL    HW111669   0.250   5.316   6.155
 3590SOL    HW211670   0.146   5.392   6.255
 3591SOL     OW11671   5.890   1.233   6.672
 3591SOL    HW111672   5.792   1.237   6.695
 3591SOL    HW211673   5.937   1.312   6.712
 3592SOL     OW11674   1.063   6.433   1.320
 3592SOL    HW111675   1.079   6.410   1.224
 3592SOL    HW211676   1.005   6.515   1.325
 3593SOL     OW11677   4.268   3.066   5.388
 3593SOL    HW111678   4.211   3.125   5.331
 3593SOL    HW211679   4.251   2.970   5.363
 3594SOL     OW11680   4.648   4.535   5.150
 3594SOL    HW111681   4.638   4.457   5.089
 3594SOL    HW211682   4.733   4.584   5.128
 3595SOL     OW11683   5.594   6.155   4.479
 3595SOL    HW111684   5.511   6.199   4.443
 3595SOL    HW211685   5.670   6.172   4.416
 3596SOL     OW11686   4.163   1.970   3.211
 3596SOL    HW111687   4.134   2.009   3.299
 3596SOL    HW211688   4.240   1.907   3.227
 3597SOL     OW11689   3.010   3.289   5.656
 3597SOL    HW111690   3.045   3.338   5.735
 3597SOL    HW211691   2.910   3.288   5.658
 3598SOL     OW11692   0.299   5.516   4.857
 3598SOL    HW111693   0.277   5.516   4.760
 3598SOL    HW211694   0.282   5.425   4.895
 3599SOL     OW11695   2.772   1.460   4.964
 3599SOL    HW111696   2.679   1.426   4.948
 3599SOL    HW211697   2.811   1.412   5.043
 3600SOL     OW11698   2.999   3.806   6.938
 3600SOL    HW111699   3.005   3.802   0.019
 3600SOL    HW211700   2.915   3.852   6.911
 3601SOL     OW11701   4.695   1.012   5.143
 3601SOL    HW111702   4.744   0.982   5.225
 3601SOL    HW211703   4.597   0.995   5.154
 3602SOL     OW11704   1.761   1.823   1.576
 3602SOL    HW111705   1.805   1.759   1.513
 3602SOL    HW211706   1.817   1.906   1.583
 3603SOL     OW11707   2.435   0.228   5.540
 3603SOL    HW111708   2.428   0.300   5.471
 3603SOL    HW211709   2.388   0.257   5.623
 3604SOL     OW11710   0.088   0.337   3.623
 3604SOL    HW111711   0.044   0.323   3.711
 3604SOL    HW211712   0.131   0.252   3.593
 3605SOL     OW11713   0.988   6.560   4.473
 3605SOL    HW111714   0.895   6.524   4.469
 3605SOL    HW211715   1.006   6.597   4.564
 3606SOL     OW11716   2.048   0.326   2.202
 3606SOL    HW111717   1.986   0.397   2.235
 3606SOL    HW211718   2.104   0.293   2.278
 3607SOL     OW11719   6.082   1.856   3.180
 3607SOL    HW111720   6.059   1.762   3.156
 3607SOL    HW211721   6.073   1.914   3.098
 3608SOL     OW11722   2.933   1.543   5.707
 3608SOL    HW111723   2.911   1.634   5.672
 3608SOL    HW211724   3.023   1.546   5.751
 3609SOL     OW11725   3.687   0.768   5.101
 3609SOL    HW111726   3.605   0.817   5.132
 3609SOL    HW211727   3.768   0.820   5.126
 3610SOL     OW11728   1.644   0.542   5.869
 3610SOL    HW111729   1.556   0.591   5.866
 3610SOL    HW211730   1.649   0.478   5.793
 3611SOL     OW11731   5.557   4.384   2.608
 3611SOL    HW111732   5.578   4.289   2.583
 3611SOL    HW211733   5.471   4.388   2.658
 3612SOL     OW11734   5.341   1.093   0.125
 3612SOL    HW111735   5.426   1.089   0.073
 3612SOL    HW211736   5.356   1.147   0.208
 3613SOL     OW11737   4.154   6.593   2.468
 3613SOL    HW111738   4.202   6.561   2.387
 3613SOL    HW211739   4.056   6.597   2.449
 3614SOL     OW11740   3.641   5.641   0.116
 3614SOL    HW111741   3.614   5.700   0.040
 3614SOL    HW211742   3.559   5.612   0.166
 3615SOL     OW11743   5.656   2.492   5.674
 3615SOL    HW111744   5.570   2.504   5.623
 3615SOL    HW211745   5.718   2.434   5.621
 3616SOL     OW11746   1.213   2.333   0.637
 3616SOL    HW111747   1.192   2.421   0.679
 3616SOL    HW211748   1.128   2.287   0.611
 3617SOL     OW11749   4.000   5.947   5.797
 3617SOL    HW111750   3.907   5.921   5.824
 3617SOL    HW211751   3.997   5.994   5.709
 3618SOL     OW11752   0.661   4.928   4.161
 3618SOL    HW111753   0.669   4.992   4.237
 3618SOL    HW211754   0.740   4.937   4.100
 3619SOL     OW11755   5.807   2.735   1.812
 3619SOL    HW111756   5.883   2.767   1.868
 3619SOL    HW211757   5.791   2.638   1.828
 3620SOL     OW11758   5.545   5.906   4.843
 3620SOL    HW111759   5.526   5.853   4.926
 3620SOL    HW211760   5.502   5.861   4.765
 3621SOL     OW11761   3.597   3.145   4.102
 3621SOL    HW111762   3.599   3.163   4.004
 3621SOL    HW211763   3.554   3.056   4.118
 3622SOL     OW11764   1.591   6.162   6.113
 3622SOL    HW111765   1.632   6.252   6.097
 3622SOL    HW211766   1.516   6.171   6.179
 3623SOL     OW11767   1.063   5.852   6.102
 3623SOL    HW111768   1.044   5.927   6.038
 3623SOL    HW211769   1.158   5.857   6.131
 3624SOL     OW11770   2.256   2.057   2.046
 3624SOL    HW111771   2.320   2.132   2.028
 3624SOL    HW211772   2.301   1.987   2.101
 3625SOL     OW11773   6.744   2.481   0.648
 3625SOL    HW111774   6.684   2.438   0.716
 3625SOL    HW211775   6.737   2.580   0.655
 3626SOL     OW11776   1.602   2.969   5.434
 3626SOL    HW111777   1.681   2.917   5.466
 3626SOL    HW211778   1.619   3.067   5.446
 3627SOL     OW11779   3.491   1.886   1.922
 3627SOL    HW111780   3.463   1.872   2.017
 3627SOL    HW211781   3.587   1.914   1.919
 3628SOL     OW11782   6.459   1.790   1.987
 3628SOL    HW111783   6.462   1.821   1.892
 3628SOL    HW211784   6.503   1.859   2.045
 3629SOL     OW11785   1.595   1.337   4.565
 3629SOL    HW111786   1.691   1.362   4.563
 3629SOL    HW211787   1.570   1.306   4.657
 3630SOL     OW11788   6.799   2.010   2.120
 3630SOL    HW111789   6.813   1.912   2.109
 3630SOL    HW211790   6.882   2.060   2.096
 3631SOL     OW11791   2.177   6.195   2.223
 3631SOL    HW111792   2.157   6.136   2.301
 3631SOL    HW211793   2.137   6.285   2.238
 3632SOL     OW11794   4.804   3.717   1.911
 3632SOL    HW111795   4.759   3.758   1.832
 3632SOL    HW211796   4.753   3.741   1.994
 3633SOL     OW11797   4.048   4.188   6.962
 3633SOL    HW111798   4.132   4.214   7.010
 3633SOL    HW211799   3.989   4.136   0.004
 3634SOL     OW11800   2.788   5.278   6.412
 3634SOL    HW111801   2.743   5.189   6.405
 3634SOL    HW211802   2.794   5.320   6.321
 3635SOL     OW11803   0.956   6.494   2.015
 3635SOL    HW111804   1.011   6.415   1.986
 3635SOL    HW211805   0.936   6.551   1.936
 3636SOL     OW11806   0.496   5.437   5.886
 3636SOL    HW111807   0.422   5.505   5.894
 3636SOL    HW211808   0.574   5.479   5.841
 3637SOL     OW11809   5.736   2.942   0.160
 3637SOL    HW111810   5.693   2.875   0.099
 3637SOL    HW211811   5.666   2.993   0.209
 3638SOL     OW11812   6.777   3.285   3.403
 3638SOL    HW111813   6.713   3.213   3.376
 3638SOL    HW211814   6.823   3.259   3.487
 3639SOL     OW11815   4.137   3.304   4.258
 3639SOL    HW111816   4.165   3.222   4.208
 3639SOL    HW211817   4.138   3.383   4.196
 3640SOL     OW11818   3.879   1.934   1.501
 3640SOL    HW111819   3.907   1.861   1.564
 3640SOL    HW211820   3.827   2.003   1.551
 3641SOL     OW11821   6.094   3.805   2.028
 3641SOL    HW111822   6.074   3.781   2.123
 3641SOL    HW211823   6.164   3.745   1.991
 3642SOL     OW11824   5.158   3.331   6.548
 3642SOL    HW111825   5.091   3.284   6.607
 3642SOL    HW211826   5.116   3.412   6.509
 3643SOL     OW11827   4.117   6.045   5.322
 3643SOL    HW111828   4.193   5.990   5.287
 3643SOL    HW211829   4.031   6.009   5.287
 3644SOL     OW11830   2.991   0.545   1.659
 3644SOL    HW111831   3.002   0.625   1.601
 3644SOL    HW211832   2.929   0.567   1.734
 3645SOL     OW11833   1.213   3.743   3.703
 3645SOL    HW111834   1.278   3.682   3.748
 3645SOL    HW211835   1.167   3.694   3.629
 3646SOL     OW11836   1.622   5.192   6.282
 3646SOL    HW111837   1.526   5.202   6.307
 3646SOL    HW211838   1.650   5.097   6.296
 3647SOL     OW11839   2.906   6.777   6.981
 3647SOL    HW111840   2.998   6.743   6.999
 3647SOL    HW211841   2.883   6.762   6.885
 3648SOL     OW11842   4.598   5.498   3.167
 3648SOL    HW111843   4.533   5.555   3.218
 3648SOL    HW211844   4.568   5.403   3.170
 3649SOL     OW11845   5.549   2.298   0.186
 3649SOL    HW111846   5.485   2.361   0.142
 3649SOL    HW211847   5.501   2.244   0.255
 3650SOL     OW11848   5.252   5.774   6.103
 3650SOL    HW111849   5.332   5.716   6.119
 3650SOL    HW211850   5.174   5.738   6.155
 3651SOL     OW11851   1.053   2.110   5.743
 3651SOL    HW111852   1.005   2.127   5.829
 3651SOL    HW211853   1.075   2.013   5.737
 3652SOL     OW11854   4.414   1.913   2.043
 3652SOL    HW111855   4.336   1.975   2.051
 3652SOL    HW211856   4.415   1.851   2.121
 3653SOL     OW11857   1.783   1.679   0.692
 3653SOL    HW111858   1.776   1.580   0.700
 3653SOL    HW211859   1.839   1.702   0.612
 3654SOL     OW11860   4.515   6.952   1.669
 3654SOL    HW111861   4.491   6.982   1.576
 3654SOL    HW211862   4.610   6.922   1.671
 3655SOL     OW11863   0.912   0.444   3.974
 3655SOL    HW111864   0.905   0.517   3.906
 3655SOL    HW211865   0.838   0.453   4.041
 3656SOL     OW11866   0.249   0.184   1.505
 3656SOL    HW111867   0.205   0.123   1.440
 3656SOL    HW211868   0.194   0.191   1.588
 3657SOL     OW11869   5.647   5.306   6.075
 3657SOL    HW111870   5.671   5.213   6.102
 3657SOL    HW211871   5.681   5.324   5.983
 3658SOL     OW11872   1.840   4.764   5.477
 3658SOL    HW111873   1.781   4.845   5.472
 3658SOL    HW211874   1.850   4.724   5.386
 3659SOL     OW11875   0.463   2.961   6.594
 3659SOL    HW111876   0.397   2.968   6.519
 3659SOL    HW211877   0.467   3.048   6.643
 3660SOL     OW11878   4.444   5.529   5.535
 3660SOL    HW111879   4.480   5.577   5.615
 3660SOL    HW211880   4.359   5.571   5.505
 3661SOL     OW11881   0.271   1.477   4.703
 3661SOL    HW111882   0.367   1.457   4.685
 3661SOL    HW211883   0.262   1.571   4.738
 3662SOL     OW11884   2.924   1.774   5.529
 3662SOL    HW111885   2.871   1.858   5.518
 3662SOL    HW211886   3.017   1.796   5.557
 3663SOL     OW11887   2.493   2.738   6.642
 3663SOL    HW111888   2.475   2.766   6.548
 3663SOL    HW211889   2.407   2.710   6.685
 3664SOL     OW11890   2.979   1.801   0.862
 3664SOL    HW111891   3.064   1.852   0.854
 3664SOL    HW211892   2.936   1.794   0.771
 3665SOL     OW11893   0.101   5.255   5.421
 3665SOL    HW111894   0.189   5.301   5.428
 3665SOL    HW211895   0.035   5.316   5.378
 3666SOL     OW11896   2.156   3.441   4.242
 3666SOL    HW111897   2.177   3.443   4.339
 3666SOL    HW211898   2.142   3.347   4.212
 3667SOL     OW11899   1.827   6.923   0.894
 3667SOL    HW111900   1.772   6.950   0.974
 3667SOL    HW211901   1.770   6.871   0.831
 3668SOL     OW11902   5.991   1.196   0.848
 3668SOL    HW111903   6.012   1.099   0.860
 3668SOL    HW211904   5.999   1.242   0.937
 3669SOL     OW11905   0.553   0.681   2.945
 3669SOL    HW111906   0.540   0.654   3.040
 3669SOL    HW211907   0.651   0.685   2.925
 3670SOL     OW11908   2.370   0.266   1.728
 3670SOL    HW111909   2.379   0.168   1.743
 3670SOL    HW211910   2.459   0.305   1.704
 3671SOL     OW11911   6.875   0.800   4.858
 3671SOL    HW111912   6.912   0.887   4.826
 3671SOL    HW211913   6.946   0.749   4.905
 3672SOL     OW11914   4.057   6.802   3.870
 3672SOL    HW111915   4.021   6.838   3.784
 3672SOL    HW211916   4.032   6.706   3.879
 3673SOL     OW11917   3.319   0.370   1.707
 3673SOL    HW111918   3.290   0.396   1.799
 3673SOL    HW211919   3.243   0.328   1.659
 3674SOL     OW11920   0.794   4.307   6.454
 3674SOL    HW111921   0.889   4.284   6.432
 3674SOL    HW211922   0.763   4.379   6.392
 3675SOL     OW11923   0.108   0.655   4.264
 3675SOL    HW111924   0.183   0.689   4.321
 3675SOL    HW211925   0.043   0.729   4.246
 3676SOL     OW11926   3.538   0.984   5.202
 3676SOL    HW111927   3.481   1.002   5.283
 3676SOL    HW211928   3.533   1.062   5.140
 3677SOL     OW11929   1.641   1.305   4.279
 3677SOL    HW111930   1.732   1.263   4.275
 3677SOL    HW211931   1.608   1.304   4.373
 3678SOL     OW11932   2.056   1.058   3.430
 3678SOL    HW111933   2.146   1.054   3.474
 3678SOL    HW211934   2.058   1.002   3.347
 3679SOL     OW11935   3.431   0.130   2.456
 3679SOL    HW111936   3.498   0.061   2.484
 3679SOL    HW211937   3.446   0.215   2.507
 3680SOL     OW11938   3.194   2.169   4.467
 3680SOL    HW111939   3.294   2.171   4.460
 3680SOL    HW211940   3.154   2.175   4.375
 3681SOL     OW11941   0.972   6.690   4.191
 3681SOL    HW111942   0.940   6.647   4.275
 3681SOL    HW211943   0.901   6.750   4.155
 3682SOL     OW11944   4.814   2.075   0.748
 3682SOL    HW111945   4.751   2.014   0.700
 3682SOL    HW211946   4.775   2.166   0.753
 3683SOL     OW11947   6.588   1.402   0.657
 3683SOL    HW111948   6.576   1.303   0.659
 3683SOL    HW211949   6.540   1.443   0.735
 3684SOL     OW11950   2.911   6.055   5.500
 3684SOL    HW111951   2.843   6.055   5.573
 3684SOL    HW211952   2.927   6.149   5.469
 3685SOL     OW11953   2.049   5.901   4.357
 3685SOL    HW111954   2.133   5.847   4.349
 3685SOL    HW211955   2.011   5.918   4.266
 3686SOL     OW11956   0.135   4.046   0.607
 3686SOL    HW111957   0.052   4.036   0.553
 3686SOL    HW211958   0.177   3.956   0.619
 3687SOL     OW11959   5.872   4.720   4.352
 3687SOL    HW111960   5.921   4.793   4.303
 3687SOL    HW211961   5.794   4.760   4.400
 3688SOL     OW11962   6.708   2.919   1.285
 3688SOL    HW111963   6.637   2.962   1.341
 3688SOL    HW211964   6.795   2.923   1.334
 3689SOL     OW11965   0.980   1.067   6.231
 3689SOL    HW111966   1.032   1.145   6.265
 3689SOL    HW211967   1.043   0.998   6.194
 3690SOL     OW11968   5.696   4.813   1.781
 3690SOL    HW111969   5.748   4.766   1.710
 3690SOL    HW211970   5.653   4.895   1.742
 3691SOL     OW11971   1.679   2.534   0.636
 3691SOL    HW111972   1.728   2.458   0.594
 3691SOL    HW211973   1.583   2.532   0.608
 3692SOL     OW11974   1.264   3.354   5.310
 3692SOL    HW111975   1.269   3.350   5.210
 3692SOL    HW211976   1.332   3.418   5.344
 3693SOL     OW11977   0.121   1.452   2.655
 3693SOL    HW111978   0.073   1.536   2.682
 3693SOL    HW211979   0.089   1.376   2.712
 3694SOL     OW11980   6.620   6.938   2.444
 3694SOL    HW111981   6.558   6.982   2.379
 3694SOL    HW211982   6.714   6.961   2.420
 3695SOL     OW11983   5.922   3.696   3.405
 3695SOL    HW111984   5.959   3.722   3.494
 3695SOL    HW211985   5.921   3.776   3.345
 3696SOL     OW11986   4.406   0.449   4.437
 3696SOL    HW111987   4.462   0.495   4.369
 3696SOL    HW211988   4.364   0.517   4.497
 3697SOL     OW11989   6.536   5.514   2.725
 3697SOL    HW111990   6.568   5.422   2.705
 3697SOL    HW211991   6.485   5.514   2.811
 3698SOL     OW11992   2.169   6.908   3.760
 3698SOL    HW111993   2.168   6.968   3.841
 3698SOL    HW211994   2.216   6.823   3.783
 3699SOL     OW11995   2.569   2.569   3.512
 3699SOL    HW111996   2.665   2.539   3.515
 3699SOL    HW211997   2.540   2.580   3.417
 3700SOL     OW11998   0.916   4.771   4.937
 3700SOL    HW111999   0.978   4.730   5.004
 3700SOL    HW212000   0.826   4.783   4.977
 3701SOL     OW12001   0.294   1.091   2.499
 3701SOL    HW112002   0.200   1.058   2.509
 3701SOL    HW212003   0.356   1.013   2.493
 3702SOL     OW12004   6.726   4.223   3.699
 3702SOL    HW112005   6.705   4.309   3.653
 3702SOL    HW212006   6.755   4.155   3.631
 3703SOL     OW12007   1.538   1.582   3.423
 3703SOL    HW112008   1.517   1.657   3.485
 3703SOL    HW212009   1.454   1.545   3.384
 3704SOL     OW12010   5.884   0.343   0.871
 3704SOL    HW112011   5.891   0.398   0.954
 3704SOL    HW212012   5.895   0.402   0.791
 3705SOL     OW12013   5.884   4.071   3.632
 3705SOL    HW112014   5.952   4.107   3.569
 3705SOL    HW212015   5.926   4.055   3.722
 3706SOL     OW12016   1.086   5.056   6.372
 3706SOL    HW112017   1.001   5.005   6.357
 3706SOL    HW212018   1.109   5.108   6.289
 3707SOL     OW12019   1.047   4.498   3.316
 3707SOL    HW112020   1.089   4.487   3.226
 3707SOL    HW212021   0.977   4.569   3.312
 3708SOL     OW12022   1.791   6.445   0.653
 3708SOL    HW112023   1.718   6.495   0.699
 3708SOL    HW212024   1.849   6.510   0.603
 3709SOL     OW12025   1.048   1.539   2.006
 3709SOL    HW112026   1.066   1.619   1.949
 3709SOL    HW212027   1.081   1.457   1.959
 3710SOL     OW12028   1.693   3.928   5.060
 3710SOL    HW112029   1.753   3.959   5.134
 3710SOL    HW212030   1.707   3.831   5.044
 3711SOL     OW12031   1.472   5.497   4.812
 3711SOL    HW112032   1.374   5.512   4.803
 3711SOL    HW212033   1.501   5.423   4.752
 3712SOL     OW12034   2.958   5.306   4.358
 3712SOL    HW112035   3.049   5.269   4.380
 3712SOL    HW212036   2.913   5.335   4.442
 3713SOL     OW12037   5.945   0.433   5.102
 3713SOL    HW112038   6.013   0.494   5.143
 3713SOL    HW212039   5.937   0.349   5.156
 3714SOL     OW12040   0.259   4.567   0.041
 3714SOL    HW112041   0.202   4.502   7.010
 3714SOL    HW212042   0.329   4.604   6.999
 3715SOL     OW12043   6.077   4.473   3.797
 3715SOL    HW112044   6.137   4.472   3.877
 3715SOL    HW212045   5.995   4.419   3.816
 3716SOL     OW12046   5.665   5.761   5.544
 3716SOL    HW112047   5.633   5.813   5.623
 3716SOL    HW212048   5.682   5.823   5.467
 3717SOL     OW12049   4.223   0.630   1.008
 3717SOL    HW112050   4.271   0.710   0.973
 3717SOL    HW212051   4.141   0.614   0.952
 3718SOL     OW12052   6.045   6.639   6.057
 3718SOL    HW112053   6.088   6.687   5.980
 3718SOL    HW212054   5.948   6.626   6.037
 3719SOL     OW12055   2.880   4.336   0.660
 3719SOL    HW112056   2.971   4.367   0.632
 3719SOL    HW212057   2.888   4.245   0.700
 3720SOL     OW12058   0.065   2.838   1.183
 3720SOL    HW112059   6.986   2.823   1.188
 3720SOL    HW212060   0.093   2.902   1.256
 3721SOL     OW12061   6.088   0.558   5.334
 3721SOL    HW112062   6.092   0.484   5.401
 3721SOL    HW212063   6.038   0.636   5.372
 3722SOL     OW12064   5.354   6.368   1.973
 3722SOL    HW112065   5.267   6.389   2.018
 3722SOL    HW212066   5.418   6.444   1.987
 3723SOL     OW12067   4.758   3.731   6.612
 3723SOL    HW112068   4.855   3.758   6.616
 3723SOL    HW212069   4.710   3.792   6.549
 3724SOL     OW12070   0.161   4.085   4.399
 3724SOL    HW112071   0.101   4.117   4.326
 3724SOL    HW212072   0.250   4.060   4.360
 3725SOL     OW12073   1.503   5.786   6.972
 3725SOL    HW112074   1.464   5.877   6.981
 3725SOL    HW212075   1.512   5.762   6.875
 3726SOL     OW12076   6.297   3.904   5.641
 3726SOL    HW112077   6.301   3.841   5.719
 3726SOL    HW212078   6.225   3.875   5.578
 3727SOL     OW12079   6.584   2.320   4.097
 3727SOL    HW112080   6.635   2.273   4.025
 3727SOL    HW212081   6.603   2.418   4.092
 3728SOL     OW12082   2.074   4.304   0.765
 3728SOL    HW112083   2.048   4.214   0.802
 3728SOL    HW212084   2.167   4.300   0.730
 3729SOL     OW12085   0.160   6.760   5.649
 3729SOL    HW112086   0.103   6.737   5.569
 3729SOL    HW212087   0.251   6.720   5.638
 3730SOL     OW12088   4.835   5.115   4.733
 3730SOL    HW112089   4.811   5.020   4.756
 3730SOL    HW212090   4.926   5.117   4.689
 3731SOL     OW12091   0.303   2.319   0.762
 3731SOL    HW112092   0.303   2.404   0.815
 3731SOL    HW212093   0.210   2.285   0.754
 3732SOL     OW12094   3.796   2.995   6.543
 3732SOL    HW112095   3.779   3.077   6.487
 3732SOL    HW212096   3.719   2.932   6.533
 3733SOL     OW12097   1.315   0.760   3.601
 3733SOL    HW112098   1.334   0.814   3.520
 3733SOL    HW212099   1.251   0.687   3.578
 3734SOL     OW12100   3.647   6.871   1.644
 3734SOL    HW112101   3.556   6.874   1.686
 3734SOL    HW212102   3.646   6.925   1.560
 3735SOL     OW12103   4.516   0.532   2.952
 3735SOL    HW112104   4.469   0.445   2.967
 3735SOL    HW212105   4.533   0.543   2.854
 3736SOL     OW12106   0.219   1.301   0.219
 3736SOL    HW112107   0.165   1.344   0.148
 3736SOL    HW212108   0.161   1.279   0.297
 3737SOL     OW12109   5.794   2.014   2.989
 3737SOL    HW112110   5.888   1.989   2.965
 3737SOL    HW212111   5.788   2.113   3.001
 3738SOL     OW12112   0.530   0.621   0.983
 3738SOL    HW112113   0.552   0.714   0.956
 3738SOL    HW212114   0.504   0.620   1.080
 3739SOL     OW12115   2.946   4.240   6.854
 3739SOL    HW112116   2.936   4.179   6.932
 3739SOL    HW212117   2.969   4.332   6.886
 3740SOL     OW12118   5.294   6.039   6.698
 3740SOL    HW112119   5.363   5.973   6.669
 3740SOL    HW212120   5.220   5.992   6.745
 3741SOL     OW12121   5.206   3.776   0.339
 3741SOL    HW112122   5.166   3.694   0.297
 3741SOL    HW212123   5.235   3.755   0.432
 3742SOL     OW12124   4.658   5.613   1.041
 3742SOL    HW112125   4.660   5.529   0.987
 3742SOL    HW212126   4.715   5.682   0.997
 3743SOL     OW12127   2.921   3.784   0.899
 3743SOL    HW112128   2.900   3.803   0.995
 3743SOL    HW212129   2.904   3.688   0.879
 3744SOL     OW12130   6.633   6.039   2.559
 3744SOL    HW112131   6.534   6.046   2.570
 3744SOL    HW212132   6.671   5.986   2.635
 3745SOL     OW12133   4.813   2.466   2.828
 3745SOL    HW112134   4.724   2.507   2.848
 3745SOL    HW212135   4.809   2.419   2.740
 3746SOL     OW12136   5.757   0.199   4.491
 3746SOL    HW112137   5.688   0.151   4.437
 3746SOL    HW212138   5.769   0.151   4.578
 3747SOL     OW12139   3.266   5.851   5.258
 3747SOL    HW112140   3.337   5.920   5.268
 3747SOL    HW212141   3.187   5.891   5.211
 3748SOL     OW12142   5.253   2.202   3.970
 3748SOL    HW112143   5.230   2.119   3.920
 3748SOL    HW212144   5.194   2.277   3.940
 3749SOL     OW12145   6.856   6.452   2.225
 3749SOL    HW112146   6.856   6.549   2.250
 3749SOL    HW212147   6.797   6.439   2.145
 3750SOL     OW12148   5.592   4.002   1.199
 3750SOL    HW112149   5.571   4.003   1.297
 3750SOL    HW212150   5.598   4.095   1.165
 3751SOL     OW12151   0.851   4.337   1.967
 3751SOL    HW112152   0.784   4.272   2.002
 3751SOL    HW212153   0.870   4.406   2.037
 3752SOL     OW12154   0.316   6.830   6.053
 3752SOL    HW112155   0.232   6.849   6.104
 3752SOL    HW212156   0.395   6.844   6.113
 3753SOL     OW12157   0.085   0.636   4.915
 3753SOL    HW112158   0.178   0.666   4.896
 3753SOL    HW212159   0.086   0.541   4.948
 3754SOL     OW12160   6.238   5.918   1.394
 3754SOL    HW112161   6.294   5.925   1.477
 3754SOL    HW212162   6.267   5.837   1.342
 3755SOL     OW12163   4.661   2.710   2.555
 3755SOL    HW112164   4.682   2.643   2.484
 3755SOL    HW212165   4.707   2.796   2.534
 3756SOL     OW12166   3.114   0.065   6.817
 3756SOL    HW112167   3.097   0.103   6.908
 3756SOL    HW212168   3.086   0.132   6.748
 3757SOL     OW12169   3.895   4.580   6.446
 3757SOL    HW112170   3.836   4.648   6.490
 3757SOL    HW212171   3.847   4.492   6.440
 3758SOL     OW12172   6.988   0.388   2.615
 3758SOL    HW112173   0.062   0.358   2.597
 3758SOL    HW212174   6.989   0.482   2.649
 3759SOL     OW12175   5.069   5.392   0.903
 3759SOL    HW112176   5.101   5.417   0.995
 3759SOL    HW212177   4.973   5.367   0.907
 3760SOL     OW12178   2.070   1.960   5.450
 3760SOL    HW112179   2.051   2.016   5.531
 3760SOL    HW212180   2.089   1.866   5.478
 3761SOL     OW12181   0.275   6.359   4.555
 3761SOL    HW112182   0.346   6.425   4.579
 3761SOL    HW212183   0.311   6.295   4.488
 3762SOL     OW12184   0.706   3.334   6.900
 3762SOL    HW112185   0.805   3.347   6.895
 3762SOL    HW212186   0.660   3.422   6.907
 3763SOL     OW12187   6.866   3.837   5.797
 3763SOL    HW112188   6.910   3.828   5.708
 3763SOL    HW212189   6.767   3.840   5.786
 3764SOL     OW12190   2.979   6.673   4.317
 3764SOL    HW112191   2.915   6.701   4.246
 3764SOL    HW212192   2.928   6.636   4.395
 3765SOL     OW12193   6.320   1.532   3.627
 3765SOL    HW112194   6.223   1.531   3.653
 3765SOL    HW212195   6.335   1.602   3.557
 3766SOL     OW12196   2.083   0.405   4.800
 3766SOL    HW112197   2.091   0.310   4.770
 3766SOL    HW212198   1.992   0.420   4.840
 3767SOL     OW12199   1.125   4.473   0.376
 3767SOL    HW112200   1.199   4.413   0.347
 3767SOL    HW212201   1.043   4.453   0.323
 3768SOL     OW12202   4.238   6.745   1.268
 3768SOL    HW112203   4.162   6.720   1.208
 3768SOL    HW212204   4.207   6.740   1.364
 3769SOL     OW12205   4.563   6.760   4.901
 3769SOL    HW112206   4.611   6.732   4.817
 3769SOL    HW212207   4.468   6.782   4.879
 3770SOL     OW12208   2.325   2.408   0.277
 3770SOL    HW112209   2.300   2.490   0.225
 3770SOL    HW212210   2.386   2.351   0.222
 3771SOL     OW12211   4.598   1.687   5.332
 3771SOL    HW112212   4.540   1.617   5.374
 3771SOL    HW212213   4.648   1.736   5.403
 3772SOL     OW12214   4.908   0.565   2.456
 3772SOL    HW112215   4.981   0.497   2.463
 3772SOL    HW212216   4.896   0.592   2.361
 3773SOL     OW12217   6.594   2.068   0.756
 3773SOL    HW112218   6.589   2.163   0.788
 3773SOL    HW212219   6.509   2.021   0.779
 3774SOL     OW12220   0.586   2.191   2.400
 3774SOL    HW112221   0.646   2.172   2.477
 3774SOL    HW212222   0.563   2.105   2.353
 3775SOL     OW12223   5.639   3.278   3.530
 3775SOL    HW112224   5.735   3.307   3.535
 3775SOL    HW212225   5.635   3.179   3.521
 3776SOL     OW12226   2.823   3.108   6.552
 3776SOL    HW112227   2.746   3.045   6.564
 3776SOL    HW212228   2.871   3.119   6.639
 3777SOL     OW12229   1.131   3.845   3.072
 3777SOL    HW112230   1.201   3.774   3.065
 3777SOL    HW212231   1.132   3.884   3.163
 3778SOL     OW12232   2.549   6.620   1.641
 3778SOL    HW112233   2.515   6.598   1.550
 3778SOL    HW212234   2.590   6.539   1.682
 3779SOL     OW12235   1.942   4.757   6.998
 3779SOL    HW112236   1.950   4.746   0.077
 3779SOL    HW212237   1.988   4.680   6.952
 3780SOL     OW12238   2.931   0.259   4.282
 3780SOL    HW112239   2.942   0.357   4.268
 3780SOL    HW212240   2.889   0.243   4.372
 3781SOL     OW12241   2.688   5.748   4.850
 3781SOL    HW112242   2.628   5.807   4.796
 3781SOL    HW212243   2.644   5.726   4.937
 3782SOL     OW12244   2.542   1.113   3.017
 3782SOL    HW112245   2.475   1.098   2.945
 3782SOL    HW212246   2.569   1.210   3.018
 3783SOL     OW12247   4.905   5.917   5.637
 3783SOL    HW112248   4.938   5.931   5.730
 3783SOL    HW212249   4.952   5.840   5.596
 3784SOL     OW12250   4.884   2.110   4.035
 3784SOL    HW112251   4.939   2.155   4.105
 3784SOL    HW212252   4.811   2.058   4.078
 3785SOL     OW12253   1.144   1.767   1.855
 3785SOL    HW112254   1.231   1.809   1.881
 3785SOL    HW212255   1.069   1.812   1.903
 3786SOL     OW12256   3.345   6.269   2.756
 3786SOL    HW112257   3.405   6.192   2.735
 3786SOL    HW212258   3.389   6.354   2.728
 3787SOL     OW12259   4.438   1.265   3.980
 3787SOL    HW112260   4.454   1.312   4.066
 3787SOL    HW212261   4.442   1.166   3.995
 3788SOL     OW12262   6.347   3.309   2.374
 3788SOL    HW112263   6.337   3.333   2.277
 3788SOL    HW212264   6.341   3.392   2.430
 3789SOL     OW12265   1.620   5.592   2.572
 3789SOL    HW112266   1.698   5.532   2.559
 3789SOL    HW212267   1.567   5.562   2.652
 3790SOL     OW12268   2.077   3.035   3.193
 3790SOL    HW112269   2.141   2.964   3.165
 3790SOL    HW212270   1.984   3.003   3.183
 3791SOL     OW12271   6.393   0.698   2.344
 3791SOL    HW112272   6.309   0.751   2.339
 3791SOL    HW212273   6.463   0.741   2.286
 3792SOL     OW12274   0.068   0.158   6.150
 3792SOL    HW112275   6.994   0.153   6.187
 3792SOL    HW212276   0.133   0.156   6.226
 3793SOL     OW12277   1.418   6.559   2.987
 3793SOL    HW112278   1.504   6.546   2.938
 3793SOL    HW212279   1.373   6.471   3.000
 3794SOL     OW12280   4.050   6.641   3.238
 3794SOL    HW112281   4.072   6.647   3.140
 3794SOL    HW212282   4.031   6.546   3.262
 3795SOL     OW12283   5.523   0.158   0.862
 3795SOL    HW112284   5.573   0.161   0.775
 3795SOL    HW212285   5.574   0.209   0.931
 3796SOL     OW12286   1.204   3.322   0.808
 3796SOL    HW112287   1.296   3.320   0.768
 3796SOL    HW212288   1.211   3.331   0.907
 3797SOL     OW12289   0.117   5.374   2.499
 3797SOL    HW112290   0.074   5.285   2.516
 3797SOL    HW212291   0.046   5.442   2.479
 3798SOL     OW12292   0.821   4.110   1.266
 3798SOL    HW112293   0.886   4.090   1.193
 3798SOL    HW212294   0.794   4.025   1.311
 3799SOL     OW12295   1.339   0.465   4.883
 3799SOL    HW112296   1.354   0.542   4.822
 3799SOL    HW212297   1.361   0.492   4.977
 3800SOL     OW12298   5.374   2.589   5.239
 3800SOL    HW112299   5.337   2.509   5.286
 3800SOL    HW212300   5.451   2.626   5.290
 3801SOL     OW12301   0.167   0.015   6.570
 3801SOL    HW112302   0.111   0.088   6.609
 3801SOL    HW212303   0.127   7.004   6.483
 3802SOL     OW12304   1.323   2.196   5.346
 3802SOL    HW112305   1.359   2.172   5.436
 3802SOL    HW212306   1.398   2.218   5.284
 3803SOL     OW12307   3.883   1.301   1.319
 3803SOL    HW112308   3.869   1.287   1.417
 3803SOL    HW212309   3.931   1.222   1.281
 3804SOL     OW12310   4.830   2.962   5.038
 3804SOL    HW112311   4.832   2.897   5.114
 3804SOL    HW212312   4.918   3.010   5.033
 3805SOL     OW12313   1.916   3.503   2.040
 3805SOL    HW112314   2.002   3.478   1.995
 3805SOL    HW212315   1.915   3.466   2.132
 3806SOL     OW12316   3.286   1.332   0.737
 3806SOL    HW112317   3.329   1.242   0.734
 3806SOL    HW212318   3.211   1.330   0.803
 3807SOL     OW12319   1.855   0.193   2.773
 3807SOL    HW112320   1.950   0.224   2.765
 3807SOL    HW212321   1.801   0.231   2.697
 3808SOL     OW12322   2.878   0.508   0.555
 3808SOL    HW112323   2.879   0.442   0.630
 3808SOL    HW212324   2.963   0.501   0.503
 3809SOL     OW12325   4.226   0.504   6.784
 3809SOL    HW112326   4.223   0.566   6.863
 3809SOL    HW212327   4.170   0.542   6.710
 3810SOL     OW12328   2.433   3.459   6.188
 3810SOL    HW112329   2.357   3.525   6.190
 3810SOL    HW212330   2.518   3.507   6.169
 3811SOL     OW12331   1.185   0.895   6.138
 3811SOL    HW112332   1.210   0.823   6.074
 3811SOL    HW212333   1.242   0.976   6.122
 3812SOL     OW12334   5.509   1.202   5.933
 3812SOL    HW112335   5.540   1.161   5.848
 3812SOL    HW212336   5.481   1.130   5.997
 3813SOL     OW12337   3.870   4.843   2.041
 3813SOL    HW112338   3.770   4.839   2.044
 3813SOL    HW212339   3.899   4.869   1.949
 3814SOL     OW12340   1.720   0.223   2.254
 3814SOL    HW112341   1.622   0.211   2.240
 3814SOL    HW212342   1.761   0.259   2.170
 3815SOL     OW12343   5.417   1.941   1.500
 3815SOL    HW112344   5.501   1.992   1.518
 3815SOL    HW212345   5.344   1.974   1.560
 3816SOL     OW12346   0.124   6.548   1.262
 3816SOL    HW112347   0.129   6.452   1.290
 3816SOL    HW212348   0.211   6.592   1.282
 3817SOL     OW12349   4.809   1.546   5.597
 3817SOL    HW112350   4.742   1.612   5.629
 3817SOL    HW212351   4.886   1.544   5.661
 3818SOL     OW12352   4.591   5.681   2.897
 3818SOL    HW112353   4.631   5.653   2.809
 3818SOL    HW212354   4.665   5.696   2.963
 3819SOL     OW12355   6.083   4.533   6.354
 3819SOL    HW112356   6.143   4.457   6.331
 3819SOL    HW212357   6.060   4.584   6.271
 3820SOL     OW12358   5.168   6.134   3.507
 3820SOL    HW112359   5.248   6.132   3.567
 3820SOL    HW212360   5.166   6.221   3.457
 3821SOL     OW12361   0.308   4.411   1.389
 3821SOL    HW112362   0.229   4.358   1.357
 3821SOL    HW212363   0.381   4.348   1.416
 3822SOL     OW12364   0.809   4.846   1.661
 3822SOL    HW112365   0.834   4.849   1.758
 3822SOL    HW212366   0.711   4.829   1.653
 3823SOL     OW12367   2.510   3.115   5.680
 3823SOL    HW112368   2.589   3.145   5.733
 3823SOL    HW212369   2.530   3.126   5.582
 3824SOL     OW12370   6.856   2.322   6.520
 3824SOL    HW112371   6.924   2.260   6.482
 3824SOL    HW212372   6.793   2.270   6.578
 3825SOL     OW12373   6.266   6.641   5.839
 3825SOL    HW112374   6.365   6.653   5.832
 3825SOL    HW212375   6.221   6.730   5.837
 3826SOL     OW12376   6.880   2.046   0.976
 3826SOL    HW112377   6.791   2.072   0.938
 3826SOL    HW212378   6.901   1.952   0.951
 3827SOL     OW12379   5.547   2.358   1.041
 3827SOL    HW112380   5.536   2.367   1.139
 3827SOL    HW212381   5.460   2.332   0.999
 3828SOL     OW12382   4.314   1.315   1.371
 3828SOL    HW112383   4.363   1.397   1.341
 3828SOL    HW212384   4.220   1.340   1.394
 3829SOL     OW12385   0.968   4.836   3.541
 3829SOL    HW112386   0.958   4.769   3.468
 3829SOL    HW212387   0.885   4.837   3.597
 3830SOL     OW12388   3.354   0.174   5.519
 3830SOL    HW112389   3.423   0.122   5.569
 3830SOL    HW212390   3.304   0.113   5.458
 3831SOL     OW12391   4.726   1.650   2.285
 3831SOL    HW112392   4.794   1.707   2.333
 3831SOL    HW212393   4.640   1.699   2.280
 3832SOL     OW12394   5.480   0.132   2.373
 3832SOL    HW112395   5.579   0.125   2.358
 3832SOL    HW212396   5.443   0.205   2.317
 3833SOL     OW12397   1.969   6.304   1.358
 3833SOL    HW112398   2.001   6.349   1.442
 3833SOL    HW212399   1.883   6.257   1.376
 3834SOL     OW12400   2.450   2.535   0.583
 3834SOL    HW112401   2.532   2.532   0.527
 3834SOL    HW212402   2.372   2.565   0.528
 3835SOL     OW12403   3.509   5.604   3.869
 3835SOL    HW112404   3.569   5.536   3.911
 3835SOL    HW212405   3.535   5.617   3.773
 3836SOL     OW12406   1.451   2.915   5.224
 3836SOL    HW112407   1.517   2.943   5.294
 3836SOL    HW212408   1.498   2.859   5.155
 3837SOL     OW12409   3.049   3.416   6.610
 3837SOL    HW112410   2.989   3.493   6.630
 3837SOL    HW212411   3.141   3.449   6.594
 3838SOL     OW12412   5.930   3.229   4.919
 3838SOL    HW112413   5.923   3.245   5.017
 3838SOL    HW212414   6.025   3.210   4.895
 3839SOL     OW12415   0.032   6.189   6.227
 3839SOL    HW112416   0.015   6.205   6.130
 3839SOL    HW212417   6.968   6.151   6.269
 3840SOL     OW12418   2.514   0.644   3.581
 3840SOL    HW112419   2.494   0.681   3.490
 3840SOL    HW212420   2.556   0.715   3.638
 3841SOL     OW12421   1.037   3.993   4.864
 3841SOL    HW112422   0.973   4.070   4.855
 3841SOL    HW212423   0.987   3.908   4.850
 3842SOL     OW12424   1.547   5.349   0.020
 3842SOL    HW112425   1.605   5.402   6.978
 3842SOL    HW212426   1.510   5.408   0.091
 3843SOL     OW12427   5.825   4.160   0.259
 3843SOL    HW112428   5.782   4.153   0.169
 3843SOL    HW212429   5.790   4.241   0.306
 3844SOL     OW12430   2.515   4.308   5.642
 3844SOL    HW112431   2.452   4.380   5.613
 3844SOL    HW212432   2.515   4.234   5.575
 3845SOL     OW12433   3.428   3.221   3.674
 3845SOL    HW112434   3.521   3.259   3.681
 3845SOL    HW212435   3.361   3.291   3.698
 3846SOL     OW12436   6.751   4.477   4.231
 3846SOL    HW112437   6.688   4.428   4.292
 3846SOL    HW212438   6.729   4.575   4.234
 3847SOL     OW12439   0.860   6.957   0.944
 3847SOL    HW112440   0.877   0.035   0.928
 3847SOL    HW212441   0.802   6.945   1.024
 3848SOL     OW12442   2.685   5.340   1.207
 3848SOL    HW112443   2.650   5.320   1.299
 3848SOL    HW212444   2.719   5.255   1.166
 3849SOL     OW12445   2.293   1.748   5.854
 3849SOL    HW112446   2.332   1.737   5.763
 3849SOL    HW212447   2.288   1.659   5.899
 3850SOL     OW12448   1.992   3.754   1.343
 3850SOL    HW112449   2.020   3.663   1.374
 3850SOL    HW212450   1.961   3.808   1.422
 3851SOL     OW12451   2.439   2.488   1.084
 3851SOL    HW112452   2.442   2.462   1.180
 3851SOL    HW212453   2.501   2.429   1.031
 3852SOL     OW12454   4.403   1.282   5.002
 3852SOL    HW112455   4.352   1.297   4.917
 3852SOL    HW212456   4.478   1.347   5.009
 3853SOL     OW12457   1.471   3.029   1.901
 3853SOL    HW112458   1.447   2.975   1.820
 3853SOL    HW212459   1.500   3.120   1.873
 3854SOL     OW12460   1.705   3.353   4.812
 3854SOL    HW112461   1.650   3.316   4.887
 3854SOL    HW212462   1.645   3.376   4.736
 3855SOL     OW12463   6.920   1.654   5.163
 3855SOL    HW112464   6.948   1.573   5.112
 3855SOL    HW212465   6.823   1.671   5.147
 3856SOL     OW12466   0.886   6.370   5.696
 3856SOL    HW112467   0.858   6.362   5.792
 3856SOL    HW212468   0.833   6.441   5.651
 3857SOL     OW12469   0.964   0.413   6.688
 3857SOL    HW112470   0.884   0.451   6.734
 3857SOL    HW212471   1.015   0.487   6.644
 3858SOL     OW12472   2.519   5.214   6.860
 3858SOL    HW112473   2.455   5.215   6.937
 3858SOL    HW212474   2.581   5.292   6.867
 3859SOL     OW12475   6.207   2.663   1.846
 3859SOL    HW112476   6.164   2.585   1.800
 3859SOL    HW212477   6.256   2.719   1.779
 3860SOL     OW12478   2.320   6.310   5.244
 3860SOL    HW112479   2.420   6.316   5.249
 3860SOL    HW212480   2.294   6.248   5.170
 3861SOL     OW12481   3.961   4.234   0.321
 3861SOL    HW112482   3.958   4.179   0.404
 3861SOL    HW212483   3.970   4.175   0.241
 3862SOL     OW12484   0.616   5.690   5.563
 3862SOL    HW112485   0.662   5.614   5.519
 3862SOL    HW212486   0.547   5.728   5.501
 3863SOL     OW12487   2.901   3.674   0.601
 3863SOL    HW112488   2.934   3.751   0.656
 3863SOL    HW212489   2.979   3.629   0.557
 3864SOL     OW12490   2.926   1.596   0.573
 3864SOL    HW112491   2.846   1.538   0.591
 3864SOL    HW212492   2.900   1.692   0.577
 3865SOL     OW12493   4.174   0.826   2.432
 3865SOL    HW112494   4.097   0.890   2.428
 3865SOL    HW212495   4.227   0.830   2.348
 3866SOL     OW12496   2.668   6.335   6.412
 3866SOL    HW112497   2.708   6.243   6.410
 3866SOL    HW212498   2.595   6.342   6.344
 3867SOL     OW12499   1.816   4.738   3.377
 3867SOL    HW112500   1.852   4.762   3.468
 3867SOL    HW212501   1.776   4.646   3.380
 3868SOL     OW12502   2.685   5.686   2.854
 3868SOL    HW112503   2.689   5.754   2.928
 3868SOL    HW212504   2.608   5.624   2.870
 3869SOL     OW12505   0.236   1.402   3.948
 3869SOL    HW112506   0.272   1.330   3.889
 3869SOL    HW212507   0.306   1.472   3.962
 3870SOL     OW12508   3.824   4.598   0.674
 3870SOL    HW112509   3.768   4.654   0.613
 3870SOL    HW212510   3.794   4.503   0.669
 3871SOL     OW12511   3.155   1.352   5.163
 3871SOL    HW112512   3.203   1.359   5.075
 3871SOL    HW212513   3.206   1.401   5.233
 3872SOL     OW12514   4.406   3.821   1.099
 3872SOL    HW112515   4.334   3.753   1.107
 3872SOL    HW212516   4.370   3.902   1.052
 3873SOL     OW12517   5.680   4.740   2.059
 3873SOL    HW112518   5.691   4.753   1.961
 3873SOL    HW212519   5.736   4.663   2.089
 3874SOL     OW12520   4.559   5.700   5.749
 3874SOL    HW112521   4.646   5.651   5.751
 3874SOL    HW212522   4.573   5.793   5.782
 3875SOL     OW12523   2.255   4.206   0.276
 3875SOL    HW112524   2.286   4.145   0.349
 3875SOL    HW212525   2.306   4.292   0.281
 3876SOL     OW12526   5.733   3.688   2.234
 3876SOL    HW112527   5.808   3.636   2.275
 3876SOL    HW212528   5.755   3.710   2.139
 3877SOL     OW12529   4.550   1.796   1.833
 3877SOL    HW112530   4.489   1.798   1.912
 3877SOL    HW212531   4.634   1.747   1.857
 3878SOL     OW12532   4.592   5.797   4.751
 3878SOL    HW112533   4.597   5.880   4.806
 3878SOL    HW212534   4.497   5.778   4.727
 3879SOL     OW12535   2.778   6.104   0.966
 3879SOL    HW112536   2.842   6.037   1.004
 3879SOL    HW212537   2.696   6.057   0.935
 3880SOL     OW12538   5.957   2.193   4.215
 3880SOL    HW112539   5.945   2.242   4.129
 3880SOL    HW212540   6.026   2.240   4.271
 3881SOL     OW12541   0.356   5.869   0.253
 3881SOL    HW112542   0.318   5.958   0.226
 3881SOL    HW212543   0.426   5.841   0.187
 3882SOL     OW12544   0.147   6.404   6.428
 3882SOL    HW112545   0.140   6.344   6.508
 3882SOL    HW212546   0.143   6.350   6.344
 3883SOL     OW12547   3.683   1.859   6.954
 3883SOL    HW112548   3.773   1.828   6.924
 3883SOL    HW212549   3.656   1.940   6.902
 3884SOL     OW12550   2.066   5.380   5.767
 3884SOL    HW112551   2.123   5.455   5.732
 3884SOL    HW212552   1.991   5.418   5.820
 3885SOL     OW12553   6.959   1.031   4.723
 3885SOL    HW112554   0.032   1.043   4.686
 3885SOL    HW212555   6.906   1.114   4.705
 3886SOL     OW12556   0.137   5.961   5.338
 3886SOL    HW112557   0.061   5.903   5.308
 3886SOL    HW212558   0.135   5.969   5.438
 3887SOL     OW12559   5.977   2.812   4.988
 3887SOL    HW112560   5.909   2.866   4.939
 3887SOL    HW212561   5.934   2.768   5.067
 3888SOL     OW12562   5.548   1.681   2.429
 3888SOL    HW112563   5.470   1.737   2.398
 3888SOL    HW212564   5.633   1.731   2.413
 3889SOL     OW12565   6.284   5.831   6.672
 3889SOL    HW112566   6.230   5.862   6.749
 3889SOL    HW212567   6.377   5.809   6.702
 3890SOL     OW12568   6.382   3.247   3.135
 3890SOL    HW112569   6.470   3.212   3.105
 3890SOL    HW212570   6.345   3.309   3.065
 3891SOL     OW12571   4.787   5.308   5.785
 3891SOL    HW112572   4.692   5.282   5.767
 3891SOL    HW212573   4.812   5.280   5.877
 3892SOL     OW12574   5.660   5.882   4.138
 3892SOL    HW112575   5.707   5.797   4.116
 3892SOL    HW212576   5.604   5.910   4.060
 3893SOL     OW12577   2.925   6.219   4.708
 3893SOL    HW112578   2.903   6.171   4.793
 3893SOL    HW212579   2.978   6.159   4.649
 3894SOL     OW12580   5.419   5.103   6.556
 3894SOL    HW112581   5.426   5.158   6.640
 3894SOL    HW212582   5.509   5.067   6.533
 3895SOL     OW12583   1.756   2.034   5.746
 3895SOL    HW112584   1.839   2.067   5.700
 3895SOL    HW212585   1.734   2.094   5.822
 3896SOL     OW12586   6.208   3.690   0.547
 3896SOL    HW112587   6.260   3.774   0.530
 3896SOL    HW212588   6.196   3.640   0.461
 3897SOL     OW12589   3.533   6.642   3.533
 3897SOL    HW112590   3.512   6.545   3.520
 3897SOL    HW212591   3.632   6.656   3.526
 3898SOL     OW12592   3.253   3.403   4.249
 3898SOL    HW112593   3.195   3.322   4.257
 3898SOL    HW212594   3.199   3.485   4.268
 3899SOL     OW12595   4.164   1.980   6.149
 3899SOL    HW112596   4.112   1.975   6.063
 3899SOL    HW212597   4.113   2.034   6.216
 3900SOL     OW12598   0.554   2.645   4.186
 3900SOL    HW112599   0.488   2.710   4.148
 3900SOL    HW212600   0.543   2.641   4.286
 3901SOL     OW12601   3.324   5.330   5.863
 3901SOL    HW112602   3.359   5.305   5.773
 3901SOL    HW212603   3.313   5.247   5.918
 3902SOL     OW12604   3.825   5.415   3.051
 3902SOL    HW112605   3.829   5.342   3.119
 3902SOL    HW212606   3.764   5.388   2.976
 3903SOL     OW12607   3.903   3.664   6.165
 3903SOL    HW112608   3.849   3.734   6.119
 3903SOL    HW212609   3.892   3.576   6.118
 3904SOL     OW12610   2.126   6.394   6.764
 3904SOL    HW112611   2.146   6.462   6.693
 3904SOL    HW212612   2.027   6.386   6.775
 3905SOL     OW12613   4.605   0.058   5.869
 3905SOL    HW112614   4.689   0.011   5.843
 3905SOL    HW212615   4.543   0.061   5.790
 3906SOL     OW12616   6.760   5.717   4.580
 3906SOL    HW112617   6.839   5.749   4.633
 3906SOL    HW212618   6.701   5.794   4.557
 3907SOL     OW12619   0.401   1.822   4.581
 3907SOL    HW112620   0.466   1.898   4.576
 3907SOL    HW212621   0.415   1.760   4.504
 3908SOL     OW12622   2.277   0.546   4.454
 3908SOL    HW112623   2.362   0.569   4.406
 3908SOL    HW212624   2.296   0.478   4.525
 3909SOL     OW12625   5.559   3.950   1.827
 3909SOL    HW112626   5.469   3.992   1.838
 3909SOL    HW212627   5.552   3.851   1.837
 3910SOL     OW12628   2.742   2.721   1.444
 3910SOL    HW112629   2.793   2.768   1.516
 3910SOL    HW212630   2.679   2.785   1.400
 3911SOL     OW12631   0.190   1.321   1.016
 3911SOL    HW112632   0.155   1.292   1.105
 3911SOL    HW212633   0.153   1.262   0.945
 3912SOL     OW12634   4.491   4.345   0.524
 3912SOL    HW112635   4.586   4.360   0.554
 3912SOL    HW212636   4.464   4.251   0.547
 3913SOL     OW12637   4.237   5.336   1.129
 3913SOL    HW112638   4.314   5.391   1.161
 3913SOL    HW212639   4.167   5.332   1.200
 3914SOL     OW12640   6.860   1.211   0.777
 3914SOL    HW112641   6.796   1.226   0.852
 3914SOL    HW212642   6.924   1.288   0.772
 3915SOL     OW12643   5.628   0.585   5.271
 3915SOL    HW112644   5.697   0.542   5.330
 3915SOL    HW212645   5.627   0.684   5.288
 3916SOL     OW12646   1.840   2.173   2.380
 3916SOL    HW112647   1.865   2.227   2.461
 3916SOL    HW212648   1.841   2.232   2.300
 3917SOL     OW12649   4.393   5.434   2.151
 3917SOL    HW112650   4.409   5.426   2.053
 3917SOL    HW212651   4.387   5.530   2.177
 3918SOL     OW12652   4.280   0.011   0.898
 3918SOL    HW112653   4.199   7.002   0.950
 3918SOL    HW212654   4.254   0.029   0.803
 3919SOL     OW12655   5.256   5.724   3.270
 3919SOL    HW112656   5.248   5.676   3.183
 3919SOL    HW212657   5.274   5.658   3.343
 3920SOL     OW12658   3.640   2.179   5.474
 3920SOL    HW112659   3.565   2.242   5.450
 3920SOL    HW212660   3.718   2.197   5.414
 3921SOL     OW12661   1.427   3.077   5.844
 3921SOL    HW112662   1.415   3.168   5.884
 3921SOL    HW212663   1.424   3.008   5.916
 3922SOL     OW12664   5.005   2.723   4.081
 3922SOL    HW112665   5.096   2.764   4.069
 3922SOL    HW212666   5.014   2.626   4.100
 3923SOL     OW12667   5.445   0.782   1.597
 3923SOL    HW112668   5.434   0.683   1.591
 3923SOL    HW212669   5.395   0.817   1.676
 3924SOL     OW12670   5.229   4.964   4.264
 3924SOL    HW112671   5.271   5.049   4.298
 3924SOL    HW212672   5.174   4.984   4.184
 3925SOL     OW12673   4.012   5.450   1.610
 3925SOL    HW112674   3.978   5.356   1.614
 3925SOL    HW212675   3.937   5.514   1.629
 3926SOL     OW12676   1.494   5.834   5.394
 3926SOL    HW112677   1.475   5.801   5.301
 3926SOL    HW212678   1.528   5.758   5.449
 3927SOL     OW12679   5.954   0.225   5.282
 3927SOL    HW112680   5.902   0.157   5.230
 3927SOL    HW212681   6.025   0.178   5.335
 3928SOL     OW12682   4.674   6.399   2.771
 3928SOL    HW112683   4.688   6.493   2.803
 3928SOL    HW212684   4.647   6.342   2.848
 3929SOL     OW12685   1.459   0.742   5.806
 3929SOL    HW112686   1.435   0.757   5.710
 3929SOL    HW212687   1.431   0.822   5.860
 3930SOL     OW12688   2.097   5.723   4.670
 3930SOL    HW112689   2.123   5.737   4.766
 3930SOL    HW212690   2.171   5.753   4.610
 3931SOL     OW12691   0.745   2.565   0.442
 3931SOL    HW112692   0.684   2.631   0.487
 3931SOL    HW212693   0.793   2.512   0.512
 3932SOL     OW12694   2.189   3.919   2.930
 3932SOL    HW112695   2.282   3.883   2.922
 3932SOL    HW212696   2.163   3.962   2.843
 3933SOL     OW12697   2.047   6.494   1.535
 3933SOL    HW112698   2.114   6.535   1.597
 3933SOL    HW212699   1.994   6.566   1.489
 3934SOL     OW12700   2.120   6.452   1.906
 3934SOL    HW112701   2.164   6.502   1.831
 3934SOL    HW212702   2.055   6.386   1.868
 3935SOL     OW12703   0.536   2.154   5.052
 3935SOL    HW112704   0.620   2.205   5.033
 3935SOL    HW212705   0.457   2.216   5.047
 3936SOL     OW12706   6.438   4.123   4.010
 3936SOL    HW112707   6.512   4.188   3.992
 3936SOL    HW212708   6.453   4.078   4.098
 3937SOL     OW12709   0.829   6.459   0.390
 3937SOL    HW112710   0.877   6.536   0.433
 3937SOL    HW212711   0.854   6.374   0.436
 3938SOL     OW12712   0.678   3.914   7.013
 3938SOL    HW112713   0.754   3.882   6.956
 3938SOL    HW212714   0.670   3.856   0.075
 3939SOL     OW12715   1.853   6.839   4.061
 3939SOL    HW112716   1.940   6.793   4.047
 3939SOL    HW212717   1.869   6.931   4.096
 3940SOL     OW12718   2.307   6.111   6.180
 3940SOL    HW112719   2.221   6.153   6.150
 3940SOL    HW212720   2.291   6.015   6.202
 3941SOL     OW12721   5.378   5.487   2.624
 3941SOL    HW112722   5.326   5.427   2.563
 3941SOL    HW212723   5.380   5.580   2.586
 3942SOL     OW12724   6.488   6.676   6.408
 3942SOL    HW112725   6.459   6.618   6.332
 3942SOL    HW212726   6.407   6.718   6.450
 3943SOL     OW12727   1.769   4.183   0.061
 3943SOL    HW112728   1.717   4.268   0.071
 3943SOL    HW212729   1.774   4.158   6.984
 3944SOL     OW12730   4.675   3.296   6.660
 3944SOL    HW112731   4.651   3.375   6.716
 3944SOL    HW212732   4.592   3.257   6.620
 3945SOL     OW12733   6.772   0.768   3.364
 3945SOL    HW112734   6.712   0.829   3.415
 3945SOL    HW212735   6.771   0.676   3.405
 3946SOL     OW12736   6.296   2.377   0.934
 3946SOL    HW112737   6.238   2.365   1.014
 3946SOL    HW212738   6.239   2.398   0.854
 3947SOL     OW12739   5.816   6.813   2.227
 3947SOL    HW112740   5.806   6.798   2.129
 3947SOL    HW212741   5.766   6.742   2.277
 3948SOL     OW12742   2.278   0.948   4.802
 3948SOL    HW112743   2.373   0.916   4.804
 3948SOL    HW212744   2.238   0.929   4.712
 3949SOL     OW12745   6.022   7.006   2.146
 3949SOL    HW112746   5.972   6.922   2.167
 3949SOL    HW212747   5.959   0.052   2.104
 3950SOL     OW12748   2.657   4.832   1.532
 3950SOL    HW112749   2.675   4.891   1.453
 3950SOL    HW212750   2.642   4.738   1.500
 3951SOL     OW12751   6.657   2.635   3.494
 3951SOL    HW112752   6.694   2.727   3.479
 3951SOL    HW212753   6.715   2.586   3.559
 3952SOL     OW12754   5.988   4.739   6.576
 3952SOL    HW112755   6.061   4.692   6.626
 3952SOL    HW212756   6.012   4.743   6.479
 3953SOL     OW12757   3.521   3.688   5.692
 3953SOL    HW112758   3.451   3.631   5.734
 3953SOL    HW212759   3.574   3.634   5.627
 3954SOL     OW12760   1.298   3.355   5.009
 3954SOL    HW112761   1.367   3.286   5.029
 3954SOL    HW212762   1.343   3.440   4.983
 3955SOL     OW12763   5.852   3.521   0.216
 3955SOL    HW112764   5.892   3.599   0.168
 3955SOL    HW212765   5.836   3.545   0.312
 3956SOL     OW12766   0.055   2.899   5.092
 3956SOL    HW112767   0.042   2.995   5.066
 3956SOL    HW212768   0.151   2.884   5.115
 3957SOL     OW12769   0.696   2.518   1.994
 3957SOL    HW112770   0.784   2.518   2.042
 3957SOL    HW212771   0.679   2.427   1.958
 3958SOL     OW12772   5.629   6.164   1.273
 3958SOL    HW112773   5.713   6.215   1.292
 3958SOL    HW212774   5.626   6.082   1.330
 3959SOL     OW12775   2.902   5.105   1.730
 3959SOL    HW112776   2.815   5.120   1.775
 3959SOL    HW212777   2.961   5.050   1.788
 3960SOL     OW12778   5.969   2.614   0.348
 3960SOL    HW112779   6.052   2.598   0.294
 3960SOL    HW212780   5.894   2.558   0.312
 3961SOL     OW12781   0.048   1.243   1.227
 3961SOL    HW112782   0.091   1.185   1.296
 3961SOL    HW212783   6.973   1.213   1.214
 3962SOL     OW12784   6.862   0.508   6.191
 3962SOL    HW112785   6.778   0.477   6.147
 3962SOL    HW212786   6.940   0.459   6.153
 3963SOL     OW12787   5.058   4.229   4.114
 3963SOL    HW112788   5.116   4.160   4.158
 3963SOL    HW212789   5.106   4.317   4.113
 3964SOL     OW12790   5.699   4.778   0.301
 3964SOL    HW112791   5.689   4.790   0.400
 3964SOL    HW212792   5.610   4.757   0.261
 3965SOL     OW12793   3.311   3.844   0.988
 3965SOL    HW112794   3.382   3.889   1.041
 3965SOL    HW212795   3.242   3.806   1.050
 3966SOL     OW12796   6.476   3.455   5.937
 3966SOL    HW112797   6.550   3.465   6.005
 3966SOL    HW212798   6.514   3.417   5.853
 3967SOL     OW12799   2.273   6.777   0.023
 3967SOL    HW112800   2.271   6.787   0.122
 3967SOL    HW212801   2.232   6.689   7.016
 3968SOL     OW12802   4.642   2.401   0.791
 3968SOL    HW112803   4.593   2.313   0.793
 3968SOL    HW212804   4.580   2.473   0.763
 3969SOL     OW12805   0.087   6.387   0.907
 3969SOL    HW112806   0.111   6.395   1.004
 3969SOL    HW212807   0.135   6.458   0.855
 3970SOL     OW12808   5.692   4.559   3.731
 3970SOL    HW112809   5.683   4.628   3.803
 3970SOL    HW212810   5.747   4.596   3.656
 3971SOL     OW12811   0.775   5.733   3.798
 3971SOL    HW112812   0.849   5.798   3.815
 3971SOL    HW212813   0.707   5.776   3.739
 3972SOL     OW12814   1.308   0.056   5.964
 3972SOL    HW112815   1.233   0.118   5.940
 3972SOL    HW212816   1.273   6.982   5.971
 3973SOL     OW12817   4.092   3.311   2.688
 3973SOL    HW112818   3.995   3.289   2.680
 3973SOL    HW212819   4.146   3.238   2.647
 3974SOL     OW12820   4.986   0.832   6.602
 3974SOL    HW112821   4.979   0.889   6.520
 3974SOL    HW212822   4.936   0.747   6.587
 3975SOL     OW12823   0.264   6.687   4.357
 3975SOL    HW112824   0.319   6.767   4.333
 3975SOL    HW212825   0.168   6.704   4.336
 3976SOL     OW12826   0.955   2.912   6.005
 3976SOL    HW112827   0.999   2.999   5.984
 3976SOL    HW212828   1.025   2.842   6.022
 3977SOL     OW12829   3.263   5.059   5.326
 3977SOL    HW112830   3.275   4.968   5.286
 3977SOL    HW212831   3.343   5.116   5.307
 3978SOL     OW12832   5.543   3.051   6.382
 3978SOL    HW112833   5.555   3.014   6.290
 3978SOL    HW212834   5.455   3.098   6.387
 3979SOL     OW12835   1.155   5.943   3.087
 3979SOL    HW112836   1.087   5.994   3.034
 3979SOL    HW212837   1.140   5.958   3.185
 3980SOL     OW12838   5.093   4.181   4.470
 3980SOL    HW112839   5.098   4.108   4.401
 3980SOL    HW212840   5.174   4.239   4.463
 3981SOL     OW12841   0.079   1.326   6.444
 3981SOL    HW112842   0.061   1.362   6.536
 3981SOL    HW212843   0.121   1.397   6.388
 3982SOL     OW12844   2.215   3.093   4.523
 3982SOL    HW112845   2.233   3.065   4.618
 3982SOL    HW212846   2.172   3.183   4.523
 3983SOL     OW12847   3.472   0.613   4.042
 3983SOL    HW112848   3.384   0.635   3.999
 3983SOL    HW212849   3.456   0.560   4.126
 3984SOL     OW12850   1.644   5.561   2.284
 3984SOL    HW112851   1.700   5.479   2.273
 3984SOL    HW212852   1.643   5.587   2.381
 3985SOL     OW12853   1.948   2.529   1.325
 3985SOL    HW112854   1.979   2.434   1.321
 3985SOL    HW212855   2.012   2.582   1.380
 3986SOL     OW12856   0.128   2.468   2.457
 3986SOL    HW112857   0.221   2.491   2.486
 3986SOL    HW212858   0.090   2.398   2.517
 3987SOL     OW12859   1.211   4.379   5.047
 3987SOL    HW112860   1.175   4.285   5.048
 3987SOL    HW212861   1.236   4.404   4.954
 3988SOL     OW12862   4.866   6.959   2.036
 3988SOL    HW112863   4.837   6.895   2.107
 3988SOL    HW212864   4.966   6.959   2.030
 3989SOL     OW12865   4.029   1.309   5.778
 3989SOL    HW112866   4.040   1.384   5.713
 3989SOL    HW212867   4.081   1.229   5.746
 3990SOL     OW12868   6.134   1.276   4.113
 3990SOL    HW112869   6.089   1.308   4.196
 3990SOL    HW212870   6.223   1.322   4.103
 3991SOL     OW12871   0.190   1.896   3.435
 3991SOL    HW112872   0.266   1.906   3.498
 3991SOL    HW212873   0.146   1.807   3.450
 3992SOL     OW12874   5.262   3.648   6.717
 3992SOL    HW112875   5.348   3.686   6.750
 3992SOL    HW212876   5.278   3.556   6.682
 3993SOL     OW12877   1.406   0.724   3.862
 3993SOL    HW112878   1.375   0.728   3.768
 3993SOL    HW212879   1.505   0.708   3.864
 3994SOL     OW12880   3.487   1.886   3.440
 3994SOL    HW112881   3.487   1.847   3.532
 3994SOL    HW212882   3.558   1.842   3.385
 3995SOL     OW12883   1.391   3.753   2.504
 3995SOL    HW112884   1.327   3.696   2.556
 3995SOL    HW212885   1.353   3.771   2.413
 3996SOL     OW12886   6.523   6.585   4.747
 3996SOL    HW112887   6.563   6.618   4.833
 3996SOL    HW212888   6.446   6.526   4.767
 3997SOL     OW12889   5.627   3.910   4.483
 3997SOL    HW112890   5.660   3.997   4.446
 3997SOL    HW212891   5.529   3.903   4.470
 3998SOL     OW12892   5.084   2.413   3.930
 3998SOL    HW112893   5.014   2.356   3.888
 3998SOL    HW212894   5.117   2.481   3.865
 3999SOL     OW12895   4.817   2.822   0.663
 3999SOL    HW112896   4.731   2.819   0.715
 3999SOL    HW212897   4.881   2.882   0.710
 4000SOL     OW12898   2.178   4.787   3.538
 4000SOL    HW112899   2.162   4.774   3.440
 4000SOL    HW212900   2.260   4.843   3.550
 4001SOL     OW12901   0.675   6.087   4.345
 4001SOL    HW112902   0.640   5.998   4.375
 4001SOL    HW212903   0.640   6.159   4.405
 4002SOL     OW12904   3.805   3.721   4.943
 4002SOL    HW112905   3.901   3.730   4.919
 4002SOL    HW212906   3.756   3.676   4.869
 4003SOL     OW12907   2.549   0.862   4.833
 4003SOL    HW112908   2.545   0.865   4.933
 4003SOL    HW212909   2.641   0.888   4.803
 4004SOL     OW12910   2.080   4.455   4.710
 4004SOL    HW112911   1.988   4.493   4.721
 4004SOL    HW212912   2.136   4.483   4.788
 4005SOL     OW12913   4.919   2.913   0.409
 4005SOL    HW112914   4.871   2.905   0.496
 4005SOL    HW212915   4.881   2.991   0.358
 4006SOL     OW12916   6.844   5.305   2.029
 4006SOL    HW112917   6.923   5.352   2.067
 4006SOL    HW212918   6.861   5.284   1.932
 4007SOL     OW12919   0.755   1.155   1.991
 4007SOL    HW112920   0.788   1.216   1.919
 4007SOL    HW212921   0.760   1.203   2.079
 4008SOL     OW12922   3.569   0.982   1.212
 4008SOL    HW112923   3.636   0.932   1.157
 4008SOL    HW212924   3.546   1.068   1.166
 4009SOL     OW12925   3.813   2.594   0.866
 4009SOL    HW112926   3.828   2.673   0.807
 4009SOL    HW212927   3.825   2.510   0.813
 4010SOL     OW12928   1.635   4.643   1.325
 4010SOL    HW112929   1.675   4.640   1.234
 4010SOL    HW212930   1.705   4.623   1.394
 4011SOL     OW12931   6.110   6.861   5.831
 4011SOL    HW112932   6.053   6.932   5.873
 4011SOL    HW212933   6.186   6.904   5.783
 4012SOL     OW12934   5.876   5.325   2.277
 4012SOL    HW112935   5.802   5.388   2.254
 4012SOL    HW212936   5.857   5.283   2.366
 4013SOL     OW12937   6.845   1.826   6.914
 4013SOL    HW112938   6.763   1.809   6.968
 4013SOL    HW212939   6.888   1.738   6.890
 4014SOL     OW12940   3.775   5.729   2.566
 4014SOL    HW112941   3.872   5.747   2.583
 4014SOL    HW212942   3.731   5.703   2.652
 4015SOL     OW12943   4.619   5.499   6.270
 4015SOL    HW112944   4.670   5.490   6.355
 4015SOL    HW212945   4.682   5.526   6.197
 4016SOL     OW12946   5.127   5.064   4.610
 4016SOL    HW112947   5.164   4.976   4.580
 4016SOL    HW212948   5.194   5.136   4.595
 4017SOL     OW12949   1.701   6.351   5.574
 4017SOL    HW112950   1.667   6.286   5.505
 4017SOL    HW212951   1.797   6.330   5.595
 4018SOL     OW12952   4.391   5.585   1.074
 4018SOL    HW112953   4.490   5.594   1.069
 4018SOL    HW212954   4.352   5.586   0.982
 4019SOL     OW12955   6.922   3.513   2.082
 4019SOL    HW112956   6.831   3.478   2.057
 4019SOL    HW212957   6.966   3.550   2.000
 4020SOL     OW12958   6.767   5.594   4.335
 4020SOL    HW112959   6.742   5.614   4.430
 4020SOL    HW212960   6.703   5.640   4.273
 4021SOL     OW12961   4.640   4.849   6.455
 4021SOL    HW112962   4.607   4.781   6.521
 4021SOL    HW212963   4.715   4.902   6.496
 4022SOL     OW12964   2.985   6.562   1.201
 4022SOL    HW112965   2.993   6.552   1.102
 4022SOL    HW212966   2.890   6.579   1.226
 4023SOL     OW12967   0.646   1.853   4.362
 4023SOL    HW112968   0.589   1.872   4.282
 4023SOL    HW212969   0.686   1.762   4.354
 4024SOL     OW12970   0.133   6.421   5.568
 4024SOL    HW112971   0.069   6.466   5.505
 4024SOL    HW212972   0.216   6.395   5.519
 4025SOL     OW12973   0.089   4.718   3.923
 4025SOL    HW112974   0.014   4.653   3.915
 4025SOL    HW212975   0.160   4.696   3.856
 4026SOL     OW12976   0.467   6.494   4.108
 4026SOL    HW112977   0.469   6.573   4.046
 4026SOL    HW212978   0.541   6.502   4.174
 4027SOL     OW12979   3.819   5.037   5.116
 4027SOL    HW112980   3.873   4.954   5.100
 4027SOL    HW212981   3.726   5.011   5.142
 4028SOL     OW12982   4.998   1.473   3.950
 4028SOL    HW112983   4.900   1.468   3.933
 4028SOL    HW212984   5.046   1.486   3.863
 4029SOL     OW12985   1.115   6.687   0.766
 4029SOL    HW112986   1.152   6.774   0.734
 4029SOL    HW212987   1.038   6.704   0.828
 4030SOL     OW12988   0.349   1.630   1.909
 4030SOL    HW112989   0.445   1.652   1.893
 4030SOL    HW212990   0.310   1.592   1.825
 4031SOL     OW12991   5.706   5.902   0.250
 4031SOL    HW112992   5.659   5.980   0.292
 4031SOL    HW212993   5.670   5.888   0.157
 4032SOL     OW12994   5.262   1.173   3.000
 4032SOL    HW112995   5.279   1.270   2.982
 4032SOL    HW212996   5.336   1.118   2.960
 4033SOL     OW12997   2.221   2.835   3.083
 4033SOL    HW112998   2.195   2.774   3.158
 4033SOL    HW212999   2.214   2.785   2.996
 4034SOL     OW13000   1.713   2.535   5.080
 4034SOL    HW113001   1.802   2.496   5.104
 4034SOL    HW213002   1.657   2.466   5.035
 4035SOL     OW13003   4.621   2.117   1.984
 4035SOL    HW113004   4.554   2.192   1.983
 4035SOL    HW213005   4.574   2.031   2.000
 4036SOL     OW13006   3.376   6.000   3.421
 4036SOL    HW113007   3.417   6.076   3.371
 4036SOL    HW213008   3.341   5.932   3.356
 4037SOL     OW13009   1.820   1.900   6.400
 4037SOL    HW113010   1.850   1.853   6.483
 4037SOL    HW213011   1.817   1.999   6.418
 4038SOL     OW13012   3.291   4.793   5.946
 4038SOL    HW113013   3.377   4.746   5.963
 4038SOL    HW213014   3.297   4.887   5.979
 4039SOL     OW13015   5.838   4.682   1.557
 4039SOL    HW113016   5.936   4.664   1.555
 4039SOL    HW213017   5.788   4.600   1.531
 4040SOL     OW13018   3.546   0.603   4.935
 4040SOL    HW113019   3.595   0.665   4.997
 4040SOL    HW213020   3.509   0.526   4.988
 4041SOL     OW13021   1.474   5.297   2.080
 4041SOL    HW113022   1.522   5.271   2.164
 4041SOL    HW213023   1.495   5.392   2.056
 4042SOL     OW13024   0.056   1.689   3.162
 4042SOL    HW113025   0.113   1.699   3.080
 4042SOL    HW213026   7.013   1.767   3.168
 4043SOL     OW13027   5.020   2.878   6.102
 4043SOL    HW113028   4.996   2.969   6.135
 4043SOL    HW213029   4.971   2.859   6.017
 4044SOL     OW13030   4.752   4.175   3.015
 4044SOL    HW113031   4.762   4.102   3.084
 4044SOL    HW213032   4.839   4.187   2.967
 4045SOL     OW13033   4.501   1.278   5.400
 4045SOL    HW113034   4.445   1.222   5.340
 4045SOL    HW213035   4.585   1.305   5.352
 4046SOL     OW13036   5.543   1.751   3.845
 4046SOL    HW113037   5.557   1.725   3.940
 4046SOL    HW213038   5.561   1.849   3.833
 4047SOL     OW13039   3.335   2.587   6.787
 4047SOL    HW113040   3.401   2.649   6.829
 4047SOL    HW213041   3.295   2.630   6.706
 4048SOL     OW13042   4.907   1.874   2.693
 4048SOL    HW113043   5.003   1.845   2.691
 4048SOL    HW213044   4.852   1.805   2.738
 4049SOL     OW13045   4.153   3.954   0.979
 4049SOL    HW113046   4.147   3.869   1.031
 4049SOL    HW213047   4.134   3.936   0.883
 4050SOL     OW13048   0.261   5.014   2.663
 4050SOL    HW113049   0.169   5.053   2.669
 4050SOL    HW213050   0.305   5.047   2.579
 4051SOL     OW13051   5.395   0.702   5.143
 4051SOL    HW113052   5.456   0.627   5.167
 4051SOL    HW213053   5.392   0.768   5.218
 4052SOL     OW13054   5.311   1.992   3.748
 4052SOL    HW113055   5.239   1.957   3.809
 4052SOL    HW213056   5.400   1.977   3.791
 4053SOL     OW13057   1.010   4.671   3.939
 4053SOL    HW113058   1.109   4.681   3.929
 4053SOL    HW213059   0.991   4.626   4.026
 4054SOL     OW13060   4.573   4.146   1.330
 4054SOL    HW113061   4.492   4.126   1.384
 4054SOL    HW213062   4.647   4.084   1.356
 4055SOL     OW13063   0.336   4.661   0.547
 4055SOL    HW113064   0.305   4.619   0.633
 4055SOL    HW213065   0.408   4.727   0.567
 4056SOL     OW13066   5.382   3.168   6.942
 4056SOL    HW113067   5.381   3.072   6.971
 4056SOL    HW213068   5.357   3.174   6.846
 4057SOL     OW13069   0.209   3.901   0.216
 4057SOL    HW113070   0.155   3.892   0.300
 4057SOL    HW213071   0.149   3.886   0.137
 4058SOL     OW13072   3.041   0.430   4.677
 4058SOL    HW113073   2.995   0.509   4.637
 4058SOL    HW213074   3.127   0.459   4.719
 4059SOL     OW13075   0.564   1.560   3.781
 4059SOL    HW113076   0.647   1.530   3.735
 4059SOL    HW213077   0.487   1.555   3.718
 4060SOL     OW13078   0.020   5.882   4.442
 4060SOL    HW113079   0.064   5.967   4.414
 4060SOL    HW213080   6.969   5.901   4.509
 4061SOL     OW13081   0.991   5.027   1.561
 4061SOL    HW113082   0.944   4.952   1.608
 4061SOL    HW213083   1.089   5.008   1.558
 4062SOL     OW13084   1.617   3.772   0.799
 4062SOL    HW113085   1.546   3.813   0.857
 4062SOL    HW213086   1.680   3.844   0.768
 4063SOL     OW13087   3.853   0.419   0.796
 4063SOL    HW113088   3.885   0.398   0.703
 4063SOL    HW213089   3.806   0.340   0.834
 4064SOL     OW13090   1.927   0.889   5.757
 4064SOL    HW113091   1.849   0.890   5.694
 4064SOL    HW213092   1.924   0.806   5.813
 4065SOL     OW13093   2.063   0.554   1.160
 4065SOL    HW113094   2.095   0.508   1.077
 4065SOL    HW213095   2.064   0.489   1.236
 4066SOL     OW13096   0.625   3.635   3.791
 4066SOL    HW113097   0.721   3.615   3.812
 4066SOL    HW213098   0.577   3.550   3.771
 4067SOL     OW13099   5.738   5.153   0.827
 4067SOL    HW113100   5.684   5.118   0.750
 4067SOL    HW213101   5.832   5.118   0.820
 4068SOL     OW13102   2.308   2.758   4.963
 4068SOL    HW113103   2.287   2.852   4.989
 4068SOL    HW213104   2.234   2.722   4.907
 4069SOL     OW13105   4.955   6.272   6.209
 4069SOL    HW113106   4.954   6.220   6.294
 4069SOL    HW213107   5.028   6.341   6.212
 4070SOL     OW13108   1.546   3.791   4.328
 4070SOL    HW113109   1.536   3.886   4.299
 4070SOL    HW213110   1.605   3.742   4.264
 4071SOL     OW13111   1.577   0.766   5.343
 4071SOL    HW113112   1.668   0.800   5.318
 4071SOL    HW213113   1.508   0.812   5.287
 4072SOL     OW13114   2.900   6.189   2.507
 4072SOL    HW113115   2.873   6.243   2.586
 4072SOL    HW213116   2.824   6.132   2.477
 4073SOL     OW13117   4.389   4.972   6.756
 4073SOL    HW113118   4.383   4.979   6.657
 4073SOL    HW213119   4.391   5.064   6.796
 4074SOL     OW13120   2.130   5.921   2.926
 4074SOL    HW113121   2.139   5.924   2.827
 4074SOL    HW213122   2.150   5.828   2.958
 4075SOL     OW13123   6.275   0.434   0.378
 4075SOL    HW113124   6.363   0.437   0.332
 4075SOL    HW213125   6.212   0.377   0.326
 4076SOL     OW13126   2.158   5.397   4.068
 4076SOL    HW113127   2.115   5.423   3.982
 4076SOL    HW213128   2.093   5.409   4.143
 4077SOL     OW13129   3.069   0.825   1.911
 4077SOL    HW113130   3.146   0.795   1.856
 4077SOL    HW213131   3.075   0.783   2.002
 4078SOL     OW13132   3.581   4.943   2.204
 4078SOL    HW113133   3.536   4.886   2.273
 4078SOL    HW213134   3.599   4.888   2.122
 4079SOL     OW13135   6.987   2.243   3.743
 4079SOL    HW113136   7.005   2.185   3.822
 4079SOL    HW213137   0.002   2.199   3.661
 4080SOL     OW13138   6.873   2.051   5.334
 4080SOL    HW113139   6.925   2.024   5.252
 4080SOL    HW213140   6.935   2.057   5.412
 4081SOL     OW13141   0.588   3.285   3.912
 4081SOL    HW113142   0.553   3.298   3.819
 4081SOL    HW213143   0.528   3.223   3.962
 4082SOL     OW13144   0.492   3.901   0.528
 4082SOL    HW113145   0.441   3.963   0.588
 4082SOL    HW213146   0.585   3.935   0.516
 4083SOL     OW13147   6.710   2.844   4.979
 4083SOL    HW113148   6.628   2.859   5.035
 4083SOL    HW213149   6.716   2.915   4.909
 4084SOL     OW13150   6.452   1.165   4.271
 4084SOL    HW113151   6.496   1.076   4.286
 4084SOL    HW213152   6.507   1.220   4.208
 4085SOL     OW13153   2.516   6.559   0.407
 4085SOL    HW113154   2.417   6.549   0.397
 4085SOL    HW213155   2.556   6.472   0.433
 4086SOL     OW13156   1.007   4.066   1.023
 4086SOL    HW113157   1.087   4.025   0.980
 4086SOL    HW213158   0.924   4.022   0.989
 4087SOL     OW13159   2.331   1.585   2.594
 4087SOL    HW113160   2.414   1.553   2.549
 4087SOL    HW213161   2.349   1.673   2.638
 4088SOL     OW13162   6.432   1.639   0.465
 4088SOL    HW113163   6.373   1.695   0.407
 4088SOL    HW213164   6.386   1.553   0.485
 4089SOL     OW13165   1.237   1.397   5.505
 4089SOL    HW113166   1.282   1.315   5.543
 4089SOL    HW213167   1.236   1.391   5.406
 4090SOL     OW13168   2.318   4.754   6.135
 4090SOL    HW113169   2.358   4.846   6.141
 4090SOL    HW213170   2.377   4.696   6.078
 4091SOL     OW13171   3.768   0.035   0.684
 4091SOL    HW113172   3.719   0.016   0.599
 4091SOL    HW213173   3.773   0.133   0.699
 4092SOL     OW13174   0.029   2.011   4.682
 4092SOL    HW113175   6.961   1.974   4.715
 4092SOL    HW213176   0.016   2.046   4.589
 4093SOL     OW13177   5.708   6.891   4.554
 4093SOL    HW113178   5.655   6.960   4.505
 4093SOL    HW213179   5.799   6.927   4.574
 4094SOL     OW13180   3.151   4.505   5.331
 4094SOL    HW113181   3.089   4.521   5.255
 4094SOL    HW213182   3.246   4.505   5.299
 4095SOL     OW13183   1.795   3.428   5.694
 4095SOL    HW113184   1.771   3.489   5.770
 4095SOL    HW213185   1.876   3.375   5.718
 4096SOL     OW13186   4.402   4.797   2.288
 4096SOL    HW113187   4.314   4.814   2.245
 4096SOL    HW213188   4.468   4.769   2.219
 4097SOL     OW13189   3.030   3.813   3.847
 4097SOL    HW113190   3.040   3.846   3.753
 4097SOL    HW213191   3.076   3.877   3.910
 4098SOL     OW13192   0.330   3.061   2.390
 4098SOL    HW113193   0.383   3.107   2.319
 4098SOL    HW213194   0.295   2.974   2.353
 4099SOL     OW13195   2.737   6.437   1.770
 4099SOL    HW113196   2.772   6.429   1.863
 4099SOL    HW213197   2.696   6.350   1.742
 4100SOL     OW13198   3.924   6.393   3.188
 4100SOL    HW113199   4.006   6.336   3.195
 4100SOL    HW213200   3.852   6.343   3.140
 4101SOL     OW13201   4.454   1.133   6.797
 4101SOL    HW113202   4.514   1.056   6.821
 4101SOL    HW213203   4.511   1.211   6.769
 4102SOL     OW13204   5.200   1.000   0.383
 4102SOL    HW113205   5.286   1.008   0.433
 4102SOL    HW213206   5.207   0.925   0.318
 4103SOL     OW13207   0.199   0.284   2.239
 4103SOL    HW113208   0.204   0.204   2.179
 4103SOL    HW213209   0.282   0.339   2.228
 4104SOL     OW13210   1.761   4.828   2.602
 4104SOL    HW113211   1.752   4.765   2.679
 4104SOL    HW213212   1.840   4.803   2.547
 4105SOL     OW13213   5.584   5.074   0.594
 4105SOL    HW113214   5.484   5.075   0.592
 4105SOL    HW213215   5.619   5.092   0.502
 4106SOL     OW13216   0.218   3.754   5.005
 4106SOL    HW113217   0.131   3.767   5.053
 4106SOL    HW213218   0.226   3.660   4.973
 4107SOL     OW13219   6.622   0.773   0.709
 4107SOL    HW113220   6.714   0.784   0.747
 4107SOL    HW213221   6.561   0.840   0.750
 4108SOL     OW13222   6.860   2.867   5.256
 4108SOL    HW113223   6.811   2.872   5.169
 4108SOL    HW213224   6.951   2.828   5.241
 4109SOL     OW13225   2.978   6.572   3.562
 4109SOL    HW113226   2.913   6.602   3.632
 4109SOL    HW213227   3.063   6.623   3.572
 4110SOL     OW13228   4.422   3.168   5.586
 4110SOL    HW113229   4.413   3.267   5.582
 4110SOL    HW213230   4.388   3.128   5.500
 4111SOL     OW13231   4.130   3.478   6.602
 4111SOL    HW113232   4.186   3.560   6.614
 4111SOL    HW213233   4.130   3.451   6.506
 4112SOL     OW13234   3.781   0.806   4.595
 4112SOL    HW113235   3.829   0.891   4.616
 4112SOL    HW213236   3.764   0.801   4.496
 4113SOL     OW13237   4.018   5.691   4.628
 4113SOL    HW113238   3.972   5.622   4.684
 4113SOL    HW213239   4.010   5.666   4.531
 4114SOL     OW13240   3.486   2.094   2.605
 4114SOL    HW113241   3.456   2.149   2.683
 4114SOL    HW213242   3.458   2.140   2.520
 4115SOL     OW13243   5.417   4.593   2.424
 4115SOL    HW113244   5.435   4.509   2.475
 4115SOL    HW213245   5.501   4.645   2.416
 4116SOL     OW13246   3.581   1.055   2.662
 4116SOL    HW113247   3.485   1.034   2.684
 4116SOL    HW213248   3.608   1.139   2.710
 4117SOL     OW13249   0.599   5.693   2.068
 4117SOL    HW113250   0.674   5.627   2.072
 4117SOL    HW213251   0.544   5.678   1.986
 4118SOL     OW13252   2.666   6.974   0.636
 4118SOL    HW113253   2.574   6.967   0.675
 4118SOL    HW213254   2.677   6.906   0.564
 4119SOL     OW13255   4.694   0.857   3.240
 4119SOL    HW113256   4.748   0.938   3.262
 4119SOL    HW213257   4.660   0.865   3.146
 4120SOL     OW13258   3.970   1.052   2.487
 4120SOL    HW113259   3.872   1.057   2.464
 4120SOL    HW213260   3.989   1.110   2.566
 4121SOL     OW13261   6.978   2.609   4.998
 4121SOL    HW113262   6.980   2.581   5.094
 4121SOL    HW213263   6.901   2.670   4.982
 4122SOL     OW13264   1.564   5.666   6.700
 4122SOL    HW113265   1.509   5.609   6.640
 4122SOL    HW213266   1.589   5.750   6.653
 4123SOL     OW13267   4.742   4.310   6.073
 4123SOL    HW113268   4.792   4.369   6.136
 4123SOL    HW213269   4.668   4.363   6.030
 4124SOL     OW13270   4.983   6.372   3.964
 4124SOL    HW113271   4.967   6.470   3.977
 4124SOL    HW213272   5.062   6.359   3.905
 4125SOL     OW13273   5.251   0.894   0.966
 4125SOL    HW113274   5.172   0.916   1.024
 4125SOL    HW213275   5.252   0.956   0.888
 4126SOL     OW13276   2.232   5.289   4.587
 4126SOL    HW113277   2.208   5.195   4.563
 4126SOL    HW213278   2.164   5.352   4.549
 4127SOL     OW13279   6.076   3.937   5.137
 4127SOL    HW113280   6.158   3.921   5.082
 4127SOL    HW213281   6.065   4.036   5.152
 4128SOL     OW13282   0.955   1.919   1.972
 4128SOL    HW113283   0.879   1.937   1.910
 4128SOL    HW213284   1.008   2.002   1.986
 4129SOL     OW13285   5.921   2.216   6.396
 4129SOL    HW113286   5.825   2.241   6.412
 4129SOL    HW213287   5.950   2.252   6.307
 4130SOL     OW13288   6.039   3.260   1.391
 4130SOL    HW113289   6.064   3.240   1.297
 4130SOL    HW213290   6.018   3.358   1.400
 4131SOL     OW13291   6.805   4.037   3.523
 4131SOL    HW113292   6.887   4.026   3.579
 4131SOL    HW213293   6.765   3.947   3.504
 4132SOL     OW13294   4.967   2.078   4.319
 4132SOL    HW113295   4.956   2.133   4.402
 4132SOL    HW213296   4.880   2.034   4.297
 4133SOL     OW13297   2.700   2.172   1.208
 4133SOL    HW113298   2.735   2.248   1.262
 4133SOL    HW213299   2.727   2.085   1.250
 4134SOL     OW13300   1.372   2.042   6.990
 4134SOL    HW113301   1.390   1.954   0.016
 4134SOL    HW213302   1.274   2.060   6.991
 4135SOL     OW13303   1.297   0.703   1.189
 4135SOL    HW113304   1.297   0.603   1.196
 4135SOL    HW213305   1.230   0.732   1.121
 4136SOL     OW13306   1.044   1.744   3.376
 4136SOL    HW113307   1.078   1.650   3.383
 4136SOL    HW213308   1.090   1.791   3.300
 4137SOL     OW13309   3.948   3.843   5.663
 4137SOL    HW113310   3.953   3.943   5.661
 4137SOL    HW213311   3.989   3.806   5.580
 4138SOL     OW13312   3.937   5.459   2.705
 4138SOL    HW113313   4.004   5.507   2.761
 4138SOL    HW213314   3.853   5.445   2.757
 4139SOL     OW13315   2.318   0.882   0.269
 4139SOL    HW113316   2.312   0.972   0.226
 4139SOL    HW213317   2.407   0.841   0.247
 4140SOL     OW13318   4.359   1.857   5.290
 4140SOL    HW113319   4.445   1.806   5.294
 4140SOL    HW213320   4.285   1.800   5.327
 4141SOL     OW13321   5.459   5.407   0.658
 4141SOL    HW113322   5.485   5.418   0.754
 4141SOL    HW213323   5.456   5.309   0.635
 4142SOL     OW13324   6.756   2.595   1.367
 4142SOL    HW113325   6.840   2.588   1.313
 4142SOL    HW213326   6.680   2.618   1.306
 4143SOL     OW13327   0.745   2.491   1.700
 4143SOL    HW113328   0.737   2.512   1.798
 4143SOL    HW213329   0.721   2.573   1.647
 4144SOL     OW13330   4.692   0.363   2.135
 4144SOL    HW113331   4.711   0.355   2.037
 4144SOL    HW213332   4.593   0.370   2.149
 4145SOL     OW13333   3.653   6.966   2.728
 4145SOL    HW113334   3.684   6.951   2.635
 4145SOL    HW213335   3.554   6.977   2.729
 4146SOL     OW13336   4.993   5.530   0.268
 4146SOL    HW113337   4.933   5.458   0.235
 4146SOL    HW213338   5.085   5.516   0.231
 4147SOL     OW13339   2.737   2.496   5.624
 4147SOL    HW113340   2.739   2.544   5.537
 4147SOL    HW213341   2.777   2.553   5.695
 4148SOL     OW13342   5.985   0.469   2.992
 4148SOL    HW113343   5.897   0.513   3.012
 4148SOL    HW213344   5.972   0.370   2.984
 4149SOL     OW13345   5.334   4.683   1.359
 4149SOL    HW113346   5.254   4.633   1.390
 4149SOL    HW213347   5.322   4.781   1.379
 4150SOL     OW13348   4.902   0.539   5.801
 4150SOL    HW113349   4.850   0.454   5.807
 4150SOL    HW213350   4.851   0.605   5.746
 4151SOL     OW13351   0.572   5.561   0.386
 4151SOL    HW113352   0.481   5.522   0.386
 4151SOL    HW213353   0.610   5.560   0.294
 4152SOL     OW13354   3.696   4.305   1.422
 4152SOL    HW113355   3.744   4.358   1.492
 4152SOL    HW213356   3.729   4.211   1.423
 4153SOL     OW13357   6.104   5.579   5.766
 4153SOL    HW113358   6.125   5.485   5.792
 4153SOL    HW213359   6.032   5.579   5.697
 4154SOL     OW13360   4.702   2.583   5.694
 4154SOL    HW113361   4.724   2.677   5.668
 4154SOL    HW213362   4.672   2.532   5.614
 4155SOL     OW13363   1.562   3.298   1.082
 4155SOL    HW113364   1.572   3.385   1.035
 4155SOL    HW213365   1.492   3.305   1.152
 4156SOL     OW13366   6.187   7.014   5.108
 4156SOL    HW113367   6.088   0.009   5.119
 4156SOL    HW213368   6.205   6.974   5.018
 4157SOL     OW13369   3.156   0.964   4.267
 4157SOL    HW113370   3.116   1.055   4.280
 4157SOL    HW213371   3.255   0.972   4.253
 4158SOL     OW13372   0.653   0.453   4.162
 4158SOL    HW113373   0.701   0.443   4.249
 4158SOL    HW213374   0.555   0.438   4.176
 4159SOL     OW13375   0.700   3.509   5.264
 4159SOL    HW113376   0.797   3.512   5.288
 4159SOL    HW213377   0.688   3.539   5.169
 4160SOL     OW13378   1.430   1.014   0.864
 4160SOL    HW113379   1.515   1.027   0.916
 4160SOL    HW213380   1.451   0.973   0.776
 4161SOL     OW13381   6.235   1.834   0.401
 4161SOL    HW113382   6.261   1.852   0.496
 4161SOL    HW213383   6.225   1.921   0.352
 4162SOL     OW13384   0.218   6.721   4.868
 4162SOL    HW113385   0.171   6.634   4.882
 4162SOL    HW213386   0.311   6.715   4.904
 4163SOL     OW13387   6.263   0.841   4.412
 4163SOL    HW113388   6.339   0.795   4.366
 4163SOL    HW213389   6.199   0.773   4.447
 4164SOL     OW13390   2.704   6.751   6.119
 4164SOL    HW113391   2.722   6.831   6.176
 4164SOL    HW213392   2.756   6.758   6.034
 4165SOL     OW13393   2.643   5.870   2.631
 4165SOL    HW113394   2.642   5.788   2.688
 4165SOL    HW213395   2.647   5.844   2.535
 4166SOL     OW13396   6.121   2.473   1.160
 4166SOL    HW113397   6.024   2.458   1.142
 4166SOL    HW213398   6.151   2.555   1.112
 4167SOL     OW13399   2.238   2.898   1.279
 4167SOL    HW113400   2.224   2.913   1.181
 4167SOL    HW213401   2.220   2.982   1.329
 4168SOL     OW13402   1.432   4.346   0.979
 4168SOL    HW113403   1.490   4.352   0.898
 4168SOL    HW213404   1.483   4.302   1.053
 4169SOL     OW13405   6.212   3.735   4.861
 4169SOL    HW113406   6.272   3.783   4.924
 4169SOL    HW213407   6.210   3.638   4.885
 4170SOL     OW13408   4.212   2.006   5.082
 4170SOL    HW113409   4.128   1.962   5.112
 4170SOL    HW213410   4.271   2.024   5.161
 4171SOL     OW13411   5.503   3.521   1.477
 4171SOL    HW113412   5.454   3.440   1.445
 4171SOL    HW213413   5.569   3.494   1.547
 4172SOL     OW13414   2.741   0.951   6.930
 4172SOL    HW113415   2.685   1.019   6.883
 4172SOL    HW213416   2.822   0.931   6.874
 4173SOL     OW13417   5.521   3.793   5.943
 4173SOL    HW113418   5.478   3.866   5.995
 4173SOL    HW213419   5.570   3.732   6.006
 4174SOL     OW13420   5.158   0.813   4.235
 4174SOL    HW113421   5.172   0.715   4.227
 4174SOL    HW213422   5.188   0.858   4.151
 4175SOL     OW13423   3.619   1.633   3.551
 4175SOL    HW113424   3.567   1.705   3.597
 4175SOL    HW213425   3.705   1.669   3.518
 4176SOL     OW13426   5.932   5.247   3.062
 4176SOL    HW113427   5.834   5.250   3.081
 4176SOL    HW213428   5.974   5.174   3.116
 4177SOL     OW13429   6.500   4.933   3.027
 4177SOL    HW113430   6.512   4.867   3.101
 4177SOL    HW213431   6.412   4.979   3.037
 4178SOL     OW13432   3.952   3.106   5.956
 4178SOL    HW113433   3.958   3.015   5.999
 4178SOL    HW213434   4.043   3.146   5.951
 4179SOL     OW13435   6.421   2.846   6.641
 4179SOL    HW113436   6.505   2.798   6.665
 4179SOL    HW213437   6.418   2.860   6.542
 4180SOL     OW13438   4.393   3.594   1.622
 4180SOL    HW113439   4.322   3.666   1.627
 4180SOL    HW213440   4.390   3.551   1.532
 4181SOL     OW13441   6.803   1.049   0.573
 4181SOL    HW113442   6.822   1.118   0.643
 4181SOL    HW213443   6.840   0.961   0.601
 4182SOL     OW13444   5.251   1.179   3.715
 4182SOL    HW113445   5.217   1.269   3.742
 4182SOL    HW213446   5.348   1.172   3.740
 4183SOL     OW13447   2.034   1.835   1.486
 4183SOL    HW113448   2.090   1.795   1.559
 4183SOL    HW213449   2.089   1.900   1.434
 4184SOL     OW13450   3.964   4.920   6.939
 4184SOL    HW113451   3.978   4.932   6.840
 4184SOL    HW213452   4.052   4.913   6.985
 4185SOL     OW13453   6.899   6.561   4.187
 4185SOL    HW113454   6.860   6.520   4.105
 4185SOL    HW213455   6.998   6.547   4.187
 4186SOL     OW13456   3.573   4.202   1.783
 4186SOL    HW113457   3.531   4.218   1.872
 4186SOL    HW213458   3.628   4.119   1.786
 4187SOL     OW13459   4.374   4.949   6.481
 4187SOL    HW113460   4.472   4.949   6.463
 4187SOL    HW213461   4.339   4.855   6.471
 4188SOL     OW13462   5.357   6.297   4.403
 4188SOL    HW113463   5.369   6.394   4.426
 4188SOL    HW213464   5.265   6.268   4.431
 4189SOL     OW13465   1.758   3.554   3.289
 4189SOL    HW113466   1.848   3.534   3.326
 4189SOL    HW213467   1.762   3.636   3.232
 4190SOL     OW13468   2.628   0.072   1.490
 4190SOL    HW113469   2.548   0.131   1.476
 4190SOL    HW213470   2.661   0.082   1.584
 4191SOL     OW13471   0.909   2.827   2.223
 4191SOL    HW113472   0.922   2.903   2.286
 4191SOL    HW213473   0.869   2.861   2.138
 4192SOL     OW13474   6.129   0.938   2.868
 4192SOL    HW113475   6.049   0.888   2.835
 4192SOL    HW213476   6.124   0.947   2.968
 4193SOL     OW13477   2.206   6.686   2.396
 4193SOL    HW113478   2.210   6.619   2.321
 4193SOL    HW213479   2.228   6.777   2.361
 4194SOL     OW13480   6.278   0.917   3.680
 4194SOL    HW113481   6.350   0.860   3.640
 4194SOL    HW213482   6.267   0.892   3.777
 4195SOL     OW13483   5.314   0.814   3.122
 4195SOL    HW113484   5.219   0.840   3.108
 4195SOL    HW213485   5.360   0.882   3.178
 4196SOL     OW13486   4.611   2.433   3.581
 4196SOL    HW113487   4.618   2.509   3.645
 4196SOL    HW213488   4.516   2.401   3.578
 4197SOL     OW13489   4.976   4.133   4.680
 4197SOL    HW113490   4.990   4.038   4.707
 4197SOL    HW213491   5.018   4.150   4.591
 4198SOL     OW13492   5.911   4.167   6.155
 4198SOL    HW113493   5.917   4.163   6.254
 4198SOL    HW213494   5.958   4.088   6.115
 4199SOL     OW13495   3.366   3.822   5.317
 4199SOL    HW113496   3.272   3.794   5.336
 4199SOL    HW213497   3.386   3.908   5.365
 4200SOL     OW13498   2.446   0.178   6.268
 4200SOL    HW113499   2.483   0.198   6.359
 4200SOL    HW213500   2.354   0.217   6.260
 4201SOL     OW13501   5.954   6.951   4.613
 4201SOL    HW113502   5.993   6.864   4.645
 4201SOL    HW213503   6.002   6.980   4.530
 4202SOL     OW13504   5.534   3.872   5.175
 4202SOL    HW113505   5.494   3.801   5.117
 4202SOL    HW213506   5.607   3.919   5.126
 4203SOL     OW13507   4.751   5.287   3.934
 4203SOL    HW113508   4.772   5.383   3.950
 4203SOL    HW213509   4.782   5.233   4.012
 4204SOL     OW13510   1.884   4.481   0.873
 4204SOL    HW113511   1.951   4.416   0.837
 4204SOL    HW213512   1.902   4.572   0.837
 4205SOL     OW13513   2.840   6.188   3.345
 4205SOL    HW113514   2.810   6.281   3.323
 4205SOL    HW213515   2.934   6.175   3.312
 4206SOL     OW13516   5.443   6.349   3.909
 4206SOL    HW113517   5.434   6.362   4.008
 4206SOL    HW213518   5.532   6.308   3.889
 4207SOL     OW13519   0.876   0.789   0.507
 4207SOL    HW113520   0.887   0.761   0.603
 4207SOL    HW213521   0.965   0.818   0.471
 4208SOL     OW13522   1.175   2.808   0.774
 4208SOL    HW113523   1.077   2.826   0.761
 4208SOL    HW213524   1.219   2.803   0.684
 4209SOL     OW13525   3.101   0.905   4.924
 4209SOL    HW113526   3.117   0.818   4.970
 4209SOL    HW213527   3.121   0.980   4.987
 4210SOL     OW13528   4.636   2.592   0.259
 4210SOL    HW113529   4.662   2.518   0.196
 4210SOL    HW213530   4.621   2.554   0.350
 4211SOL     OW13531   5.219   3.709   3.832
 4211SOL    HW113532   5.191   3.755   3.916
 4211SOL    HW213533   5.268   3.625   3.855
 4212SOL     OW13534   6.310   6.245   2.293
 4212SOL    HW113535   6.319   6.181   2.217
 4212SOL    HW213536   6.396   6.295   2.304
 4213SOL     OW13537   0.737   6.883   1.460
 4213SOL    HW113538   0.673   6.822   1.507
 4213SOL    HW213539   0.825   6.882   1.508
 4214SOL     OW13540   3.111   5.162   5.006
 4214SOL    HW113541   3.079   5.095   5.073
 4214SOL    HW213542   3.204   5.191   5.031
 4215SOL     OW13543   1.034   5.969   5.443
 4215SOL    HW113544   0.934   5.961   5.440
 4215SOL    HW213545   1.058   6.059   5.479
 4216SOL     OW13546   2.730   2.997   5.299
 4216SOL    HW113547   2.631   3.004   5.293
 4216SOL    HW213548   2.772   3.047   5.223
 4217SOL     OW13549   6.953   1.050   3.556
 4217SOL    HW113550   6.875   0.997   3.589
 4217SOL    HW213551   6.939   1.147   3.576
 4218SOL     OW13552   3.439   6.093   2.249
 4218SOL    HW113553   3.419   6.062   2.156
 4218SOL    HW213554   3.450   6.014   2.309
 4219SOL     OW13555   5.171   0.044   3.098
 4219SOL    HW113556   5.073   0.051   3.115
 4219SOL    HW213557   5.207   6.981   3.143
 4220SOL     OW13558   0.749   3.804   3.249
 4220SOL    HW113559   0.732   3.827   3.154
 4220SOL    HW213560   0.740   3.886   3.306
 4221SOL     OW13561   5.476   6.110   5.601
 4221SOL    HW113562   5.384   6.126   5.568
 4221SOL    HW213563   5.481   6.019   5.642
 4222SOL     OW13564   3.046   3.090   6.825
 4222SOL    HW113565   3.066   3.183   6.855
 4222SOL    HW213566   2.966   3.056   6.874
 4223SOL     OW13567   2.863   3.573   2.808
 4223SOL    HW113568   2.778   3.614   2.775
 4223SOL    HW213569   2.941   3.628   2.778
 4224SOL     OW13570   3.785   2.098   5.694
 4224SOL    HW113571   3.753   2.137   5.608
 4224SOL    HW213572   3.711   2.097   5.761
 4225SOL     OW13573   5.205   0.530   4.274
 4225SOL    HW113574   5.279   0.495   4.217
 4225SOL    HW213575   5.216   0.496   4.367
 4226SOL     OW13576   1.341   1.461   3.253
 4226SOL    HW113577   1.295   1.493   3.171
 4226SOL    HW213578   1.395   1.379   3.231
 4227SOL     OW13579   5.599   3.855   6.758
 4227SOL    HW113580   5.530   3.924   6.779
 4227SOL    HW213581   5.609   3.793   6.837
 4228SOL     OW13582   5.317   5.393   3.290
 4228SOL    HW113583   5.220   5.387   3.268
 4228SOL    HW213584   5.363   5.307   3.264
 4229SOL     OW13585   4.437   4.777   5.504
 4229SOL    HW113586   4.440   4.782   5.604
 4229SOL    HW213587   4.343   4.759   5.475
 4230SOL     OW13588   3.260   0.595   5.246
 4230SOL    HW113589   3.244   0.591   5.345
 4230SOL    HW213590   3.326   0.524   5.221
 4231SOL     OW13591   3.850   6.593   6.091
 4231SOL    HW113592   3.907   6.633   6.163
 4231SOL    HW213593   3.903   6.585   6.007
 4232SOL     OW13594   2.469   4.425   1.382
 4232SOL    HW113595   2.467   4.388   1.475
 4232SOL    HW213596   2.545   4.489   1.373
 4233SOL     OW13597   5.445   6.375   1.204
 4233SOL    HW113598   5.372   6.372   1.273
 4233SOL    HW213599   5.514   6.306   1.225
 4234SOL     OW13600   3.656   3.830   5.345
 4234SOL    HW113601   3.560   3.804   5.338
 4234SOL    HW213602   3.712   3.748   5.358
 4235SOL     OW13603   0.534   3.969   5.062
 4235SOL    HW113604   0.492   3.912   4.992
 4235SOL    HW213605   0.558   4.058   5.023
 4236SOL     OW13606   0.940   3.731   4.830
 4236SOL    HW113607   0.987   3.649   4.795
 4236SOL    HW213608   0.852   3.741   4.784
 4237SOL     OW13609   5.848   4.151   5.732
 4237SOL    HW113610   5.906   4.177   5.655
 4237SOL    HW213611   5.799   4.231   5.766
 4238SOL     OW13612   4.468   4.452   4.463
 4238SOL    HW113613   4.442   4.382   4.531
 4238SOL    HW213614   4.455   4.543   4.502
 4239SOL     OW13615   5.260   5.850   5.612
 4239SOL    HW113616   5.193   5.808   5.673
 4239SOL    HW213617   5.221   5.932   5.570
 4240SOL     OW13618   2.641   5.046   6.393
 4240SOL    HW113619   2.572   5.037   6.321
 4240SOL    HW213620   2.647   4.961   6.445
 4241SOL     OW13621   4.251   1.769   0.475
 4241SOL    HW113622   4.172   1.762   0.537
 4241SOL    HW213623   4.333   1.791   0.528
 4242SOL     OW13624   1.579   0.479   2.604
 4242SOL    HW113625   1.564   0.383   2.629
 4242SOL    HW213626   1.515   0.505   2.533
 4243SOL     OW13627   1.268   2.725   2.756
 4243SOL    HW113628   1.254   2.733   2.657
 4243SOL    HW213629   1.310   2.808   2.791
 4244SOL     OW13630   3.340   0.372   0.812
 4244SOL    HW113631   3.252   0.420   0.824
 4244SOL    HW213632   3.410   0.417   0.868
 4245SOL     OW13633   6.771   1.662   1.016
 4245SOL    HW113634   6.737   1.589   1.075
 4245SOL    HW213635   6.733   1.650   0.924
 4246SOL     OW13636   4.741   2.870   3.656
 4246SOL    HW113637   4.745   2.846   3.559
 4246SOL    HW213638   4.805   2.812   3.707
 4247SOL     OW13639   1.798   5.156   6.575
 4247SOL    HW113640   1.739   5.235   6.558
 4247SOL    HW213641   1.888   5.173   6.535
 4248SOL     OW13642   2.458   0.796   3.374
 4248SOL    HW113643   2.486   0.868   3.311
 4248SOL    HW213644   2.359   0.783   3.367
 4249SOL     OW13645   5.602   0.464   5.912
 4249SOL    HW113646   5.505   0.446   5.929
 4249SOL    HW213647   5.618   0.563   5.909
 4250SOL     OW13648   0.135   5.881   5.027
 4250SOL    HW113649   0.059   5.862   5.090
 4250SOL    HW213650   0.109   5.852   4.935
 4251SOL     OW13651   4.803   2.150   5.433
 4251SOL    HW113652   4.754   2.212   5.372
 4251SOL    HW213653   4.868   2.202   5.488
 4252SOL     OW13654   7.000   0.180   6.691
 4252SOL    HW113655   6.975   0.252   6.757
 4252SOL    HW213656   6.946   0.098   6.709
 4253SOL     OW13657   4.391   6.382   2.884
 4253SOL    HW113658   4.413   6.344   2.794
 4253SOL    HW213659   4.339   6.466   2.873
 4254SOL     OW13660   1.302   2.006   5.916
 4254SOL    HW113661   1.259   1.957   5.991
 4254SOL    HW213662   1.242   2.081   5.886
 4255SOL     OW13663   0.923   2.703   3.184
 4255SOL    HW113664   0.993   2.714   3.254
 4255SOL    HW213665   0.966   2.685   3.096
 4256SOL     OW13666   6.388   5.993   0.988
 4256SOL    HW113667   6.365   5.970   0.893
 4256SOL    HW213668   6.356   6.085   1.010
 4257SOL     OW13669   6.330   0.887   3.306
 4257SOL    HW113670   6.394   0.916   3.235
 4257SOL    HW213671   6.238   0.878   3.267
 4258SOL     OW13672   3.034   5.799   0.804
 4258SOL    HW113673   3.039   5.883   0.750
 4258SOL    HW213674   3.001   5.724   0.747
 4259SOL     OW13675   1.120   0.026   0.462
 4259SOL    HW113676   1.119   0.007   0.363
 4259SOL    HW213677   1.063   0.106   0.481
 4260SOL     OW13678   5.960   0.358   4.838
 4260SOL    HW113679   5.941   0.383   4.933
 4260SOL    HW213680   5.974   0.441   4.784
 4261SOL     OW13681   2.270   6.132   3.709
 4261SOL    HW113682   2.219   6.086   3.636
 4261SOL    HW213683   2.368   6.120   3.694
 4262SOL     OW13684   1.814   5.048   5.223
 4262SOL    HW113685   1.750   5.102   5.168
 4262SOL    HW213686   1.765   5.010   5.302
 4263SOL     OW13687   2.802   1.532   3.033
 4263SOL    HW113688   2.723   1.480   3.001
 4263SOL    HW213689   2.852   1.480   3.101
 4264SOL     OW13690   4.793   1.994   6.549
 4264SOL    HW113691   4.747   2.003   6.461
 4264SOL    HW213692   4.806   2.084   6.590
 4265SOL     OW13693   2.800   6.050   6.461
 4265SOL    HW113694   2.785   5.995   6.544
 4265SOL    HW213695   2.897   6.048   6.437
 4266SOL     OW13696   1.382   5.174   1.841
 4266SOL    HW113697   1.391   5.222   1.929
 4266SOL    HW213698   1.325   5.228   1.779
 4267SOL     OW13699   0.996   3.548   4.078
 4267SOL    HW113700   1.032   3.556   4.171
 4267SOL    HW213701   0.920   3.483   4.077
 4268SOL     OW13702   1.071   4.470   5.998
 4268SOL    HW113703   1.033   4.436   5.911
 4268SOL    HW213704   1.170   4.457   5.998
 4269SOL     OW13705   2.974   1.273   4.075
 4269SOL    HW113706   2.876   1.294   4.083
 4269SOL    HW213707   3.013   1.258   4.166
 4270SOL     OW13708   4.421   4.086   0.584
 4270SOL    HW113709   4.498   4.043   0.632
 4270SOL    HW213710   4.351   4.113   0.650
 4271SOL     OW13711   6.712   0.948   1.424
 4271SOL    HW113712   6.624   0.901   1.411
 4271SOL    HW213713   6.701   1.020   1.493
 4272SOL     OW13714   0.035   1.608   5.760
 4272SOL    HW113715   6.964   1.580   5.727
 4272SOL    HW213716   0.104   1.587   5.691
 4273SOL     OW13717   2.930   6.175   3.794
 4273SOL    HW113718   3.008   6.178   3.731
 4273SOL    HW213719   2.896   6.268   3.809
 4274SOL     OW13720   0.579   1.357   1.777
 4274SOL    HW113721   0.551   1.334   1.870
 4274SOL    HW213722   0.523   1.433   1.744
 4275SOL     OW13723   6.726   2.262   3.837
 4275SOL    HW113724   6.811   2.278   3.788
 4275SOL    HW213725   6.697   2.167   3.825
 4276SOL     OW13726   1.194   6.522   2.663
 4276SOL    HW113727   1.239   6.606   2.635
 4276SOL    HW213728   1.128   6.542   2.736
 4277SOL     OW13729   6.770   5.281   3.332
 4277SOL    HW113730   6.854   5.326   3.363
 4277SOL    HW213731   6.693   5.309   3.389
 4278SOL     OW13732   0.407   6.956   1.212
 4278SOL    HW113733   0.359   6.960   1.124
 4278SOL    HW213734   0.491   7.008   1.207
 4279SOL     OW13735   0.834   2.238   3.461
 4279SOL    HW113736   0.824   2.139   3.453
 4279SOL    HW213737   0.873   2.274   3.376
 4280SOL     OW13738   1.817   6.529   6.566
 4280SOL    HW113739   1.726   6.510   6.603
 4280SOL    HW213740   1.865   6.592   6.626
 4281SOL     OW13741   6.343   5.924   3.094
 4281SOL    HW113742   6.421   5.986   3.089
 4281SOL    HW213743   6.271   5.966   3.149
 4282SOL     OW13744   5.409   5.208   1.785
 4282SOL    HW113745   5.314   5.223   1.811
 4282SOL    HW213746   5.468   5.227   1.864
 4283SOL     OW13747   6.123   1.237   4.786
 4283SOL    HW113748   6.120   1.312   4.720
 4283SOL    HW213749   6.156   1.154   4.741
 4284SOL     OW13750   4.839   6.151   6.497
 4284SOL    HW113751   4.938   6.161   6.511
 4284SOL    HW213752   4.822   6.091   6.419
 4285SOL     OW13753   3.155   1.563   6.519
 4285SOL    HW113754   3.238   1.564   6.462
 4285SOL    HW213755   3.159   1.486   6.583
 4286SOL     OW13756   5.162   6.710   0.238
 4286SOL    HW113757   5.063   6.696   0.234
 4286SOL    HW213758   5.194   6.695   0.331
 4287SOL     OW13759   3.166   0.725   1.344
 4287SOL    HW113760   3.112   0.783   1.405
 4287SOL    HW213761   3.229   0.669   1.399
 4288SOL     OW13762   6.953   5.663   2.032
 4288SOL    HW113763   6.925   5.723   1.957
 4288SOL    HW213764   7.008   5.715   2.097
 4289SOL     OW13765   0.192   4.636   4.952
 4289SOL    HW113766   0.232   4.574   4.884
 4289SOL    HW213767   0.236   4.621   5.041
 4290SOL     OW13768   6.804   1.624   3.703
 4290SOL    HW113769   6.780   1.615   3.800
 4290SOL    HW213770   6.723   1.652   3.651
 4291SOL     OW13771   4.120   4.662   6.710
 4291SOL    HW113772   4.073   4.749   6.693
 4291SOL    HW213773   4.137   4.653   6.808
 4292SOL     OW13774   6.376   0.712   1.836
 4292SOL    HW113775   6.470   0.724   1.865
 4292SOL    HW213776   6.336   0.634   1.884
 4293SOL     OW13777   3.723   2.913   6.817
 4293SOL    HW113778   3.681   2.978   6.881
 4293SOL    HW213779   3.738   2.958   6.729
 4294SOL     OW13780   3.075   1.902   6.758
 4294SOL    HW113781   3.023   1.943   6.683
 4294SOL    HW213782   3.058   1.803   6.759
 4295SOL     OW13783   4.920   6.287   2.722
 4295SOL    HW113784   4.954   6.294   2.816
 4295SOL    HW213785   4.821   6.293   2.722
 4296SOL     OW13786   2.208   5.643   2.316
 4296SOL    HW113787   2.302   5.631   2.282
 4296SOL    HW213788   2.175   5.735   2.292
 4297SOL     OW13789   4.800   5.134   0.314
 4297SOL    HW113790   4.876   5.097   0.366
 4297SOL    HW213791   4.749   5.060   0.270
 4298SOL     OW13792   1.675   0.048   0.633
 4298SOL    HW113793   1.611   6.999   0.598
 4298SOL    HW213794   1.641   0.085   0.720
 4299SOL     OW13795   0.901   3.147   6.261
 4299SOL    HW113796   0.908   3.228   6.203
 4299SOL    HW213797   0.823   3.092   6.232
 4300SOL     OW13798   2.996   0.392   2.173
 4300SOL    HW113799   3.044   0.467   2.128
 4300SOL    HW213800   2.990   0.409   2.271
 4301SOL     OW13801   1.926   6.055   5.365
 4301SOL    HW113802   1.835   6.087   5.341
 4301SOL    HW213803   1.991   6.079   5.292
 4302SOL     OW13804   3.561   4.963   6.511
 4302SOL    HW113805   3.613   5.027   6.567
 4302SOL    HW213806   3.506   5.014   6.445
 4303SOL     OW13807   4.570   5.410   3.642
 4303SOL    HW113808   4.558   5.325   3.590
 4303SOL    HW213809   4.649   5.402   3.702
 4304SOL     OW13810   2.865   4.016   1.708
 4304SOL    HW113811   2.887   4.010   1.610
 4304SOL    HW213812   2.895   4.104   1.743
 4305SOL     OW13813   0.761   6.347   5.948
 4305SOL    HW113814   0.803   6.398   6.024
 4305SOL    HW213815   0.682   6.398   5.913
 4306SOL     OW13816   5.987   3.349   5.189
 4306SOL    HW113817   6.063   3.342   5.254
 4306SOL    HW213818   5.922   3.418   5.220
 4307SOL     OW13819   6.918   1.393   5.520
 4307SOL    HW113820   6.950   1.484   5.496
 4307SOL    HW213821   6.918   1.335   5.438
 4308SOL     OW13822   4.021   5.397   6.632
 4308SOL    HW113823   3.935   5.385   6.581
 4308SOL    HW213824   4.054   5.491   6.620
 4309SOL     OW13825   2.490   1.953   0.911
 4309SOL    HW113826   2.504   2.045   0.875
 4309SOL    HW213827   2.512   1.886   0.841
 4310SOL     OW13828   6.226   2.162   3.648
 4310SOL    HW113829   6.247   2.110   3.731
 4310SOL    HW213830   6.147   2.121   3.603
 4311SOL     OW13831   0.348   6.910   1.516
 4311SOL    HW113832   0.382   6.983   1.575
 4311SOL    HW213833   0.394   6.915   1.427
 4312SOL     OW13834   0.014   3.694   2.266
 4312SOL    HW113835   6.980   3.738   2.339
 4312SOL    HW213836   6.972   3.640   2.208
 4313SOL     OW13837   1.129   3.739   0.369
 4313SOL    HW113838   1.144   3.741   0.468
 4313SOL    HW213839   1.124   3.643   0.338
 4314SOL     OW13840   1.605   1.435   5.552
 4314SOL    HW113841   1.570   1.526   5.573
 4314SOL    HW213842   1.687   1.444   5.495
 4315SOL     OW13843   2.591   2.291   5.499
 4315SOL    HW113844   2.636   2.380   5.505
 4315SOL    HW213845   2.655   2.223   5.465
 4316SOL     OW13846   4.256   5.465   1.807
 4316SOL    HW113847   4.243   5.502   1.715
 4316SOL    HW213848   4.349   5.429   1.816
 4317SOL     OW13849   4.987   0.711   5.045
 4317SOL    HW113850   5.026   0.799   5.019
 4317SOL    HW213851   4.893   0.704   5.009
 4318SOL     OW13852   1.766   6.032   4.029
 4318SOL    HW113853   1.744   5.935   4.037
 4318SOL    HW213854   1.682   6.086   4.041
 4319SOL     OW13855   1.650   4.620   2.356
 4319SOL    HW113856   1.649   4.520   2.369
 4319SOL    HW213857   1.647   4.664   2.446
 4320SOL     OW13858   3.419   0.101   0.921
 4320SOL    HW113859   3.359   0.166   0.875
 4320SOL    HW213860   3.440   0.134   1.013
 4321SOL     OW13861   6.949   6.067   3.059
 4321SOL    HW113862   6.903   5.979   3.050
 4321SOL    HW213863   0.021   6.062   3.017
 4322SOL     OW13864   2.501   2.403   3.723
 4322SOL    HW113865   2.411   2.363   3.704
 4322SOL    HW213866   2.530   2.458   3.644
 4323SOL     OW13867   4.718   4.829   0.926
 4323SOL    HW113868   4.765   4.812   1.012
 4323SOL    HW213869   4.764   4.781   0.852
 4324SOL     OW13870   0.150   4.491   6.052
 4324SOL    HW113871   0.193   4.408   6.016
 4324SOL    HW213872   0.203   4.571   6.022
 4325SOL     OW13873   1.442   0.004   1.052
 4325SOL    HW113874   1.525   0.057   1.033
 4325SOL    HW213875   1.451   6.932   1.010
 4326SOL     OW13876   4.538   2.474   2.658
 4326SOL    HW113877   4.488   2.470   2.744
 4326SOL    HW213878   4.563   2.568   2.638
 4327SOL     OW13879   2.851   6.442   3.865
 4327SOL    HW113880   2.870   6.491   3.950
 4327SOL    HW213881   2.838   6.508   3.790
 4328SOL     OW13882   6.000   0.178   3.095
 4328SOL    HW113883   5.912   0.130   3.102
 4328SOL    HW213884   6.041   0.185   3.186
 4329SOL     OW13885   5.991   3.706   0.102
 4329SOL    HW113886   6.027   3.798   0.119
 4329SOL    HW213887   5.953   3.702   0.010
 4330SOL     OW13888   2.398   4.969   4.698
 4330SOL    HW113889   2.331   4.899   4.724
 4330SOL    HW213890   2.385   4.992   4.601
 4331SOL     OW13891   5.779   1.791   2.353
 4331SOL    HW113892   5.744   1.733   2.279
 4331SOL    HW213893   5.800   1.882   2.318
 4332SOL     OW13894   0.018   5.550   0.984
 4332SOL    HW113895   0.018   5.613   0.906
 4332SOL    HW213896   7.006   5.597   1.066
 4333SOL     OW13897   3.679   2.866   6.242
 4333SOL    HW113898   3.709   2.957   6.271
 4333SOL    HW213899   3.739   2.797   6.281
 4334SOL     OW13900   0.118   3.030   4.221
 4334SOL    HW113901   0.146   3.081   4.140
 4334SOL    HW213902   0.185   2.958   4.240
 4335SOL     OW13903   2.559   4.201   1.613
 4335SOL    HW113904   2.634   4.209   1.548
 4335SOL    HW213905   2.530   4.106   1.619
 4336SOL     OW13906   2.791   5.253   5.222
 4336SOL    HW113907   2.867   5.189   5.236
 4336SOL    HW213908   2.827   5.343   5.197
 4337SOL     OW13909   0.008   4.428   3.587
 4337SOL    HW113910   6.955   4.497   3.589
 4337SOL    HW213911   0.081   4.458   3.526
 4338SOL     OW13912   3.123   2.435   6.349
 4338SOL    HW113913   3.054   2.479   6.291
 4338SOL    HW213914   3.086   2.352   6.389
 4339SOL     OW13915   4.169   4.678   5.397
 4339SOL    HW113916   4.074   4.662   5.370
 4339SOL    HW213917   4.225   4.599   5.369
 4340SOL     OW13918   0.114   4.172   0.895
 4340SOL    HW113919   0.196   4.169   0.952
 4340SOL    HW213920   0.094   4.079   0.861
 4341SOL     OW13921   6.022   5.654   1.472
 4341SOL    HW113922   5.979   5.699   1.551
 4341SOL    HW213923   5.974   5.680   1.389
 4342SOL     OW13924   5.223   3.065   2.526
 4342SOL    HW113925   5.203   3.032   2.434
 4342SOL    HW213926   5.216   3.164   2.530
 4343SOL     OW13927   3.701   0.433   6.484
 4343SOL    HW113928   3.715   0.344   6.527
 4343SOL    HW213929   3.701   0.422   6.385
 4344SOL     OW13930   1.048   3.949   2.628
 4344SOL    HW113931   0.999   4.036   2.634
 4344SOL    HW213932   1.027   3.893   2.708
 4345SOL     OW13933   3.906   3.578   2.864
 4345SOL    HW113934   3.811   3.548   2.872
 4345SOL    HW213935   3.964   3.525   2.926
 4346SOL     OW13936   0.686   3.085   2.703
 4346SOL    HW113937   0.721   3.043   2.619
 4346SOL    HW213938   0.602   3.135   2.683
 4347SOL     OW13939   6.262   5.275   0.595
 4347SOL    HW113940   6.311   5.361   0.578
 4347SOL    HW213941   6.220   5.279   0.685
 4348SOL     OW13942   5.941   4.653   5.891
 4348SOL    HW113943   5.867   4.691   5.837
 4348SOL    HW213944   5.918   4.559   5.919
 4349SOL     OW13945   0.753   3.804   4.111
 4349SOL    HW113946   0.701   3.759   4.038
 4349SOL    HW213947   0.749   3.903   4.099
 4350SOL     OW13948   4.377   0.743   4.204
 4350SOL    HW113949   4.408   0.828   4.245
 4350SOL    HW213950   4.287   0.756   4.162
 4351SOL     OW13951   0.426   5.626   1.161
 4351SOL    HW113952   0.507   5.638   1.104
 4351SOL    HW213953   0.442   5.666   1.251
 4352SOL     OW13954   3.495   4.989   1.842
 4352SOL    HW113955   3.557   4.913   1.859
 4352SOL    HW213956   3.520   5.067   1.900
 4353SOL     OW13957   2.465   3.841   0.703
 4353SOL    HW113958   2.519   3.764   0.670
 4353SOL    HW213959   2.379   3.845   0.652
 4354SOL     OW13960   5.614   5.543   2.394
 4354SOL    HW113961   5.705   5.576   2.420
 4354SOL    HW213962   5.586   5.471   2.458
 4355SOL     OW13963   2.353   5.024   3.249
 4355SOL    HW113964   2.401   5.020   3.337
 4355SOL    HW213965   2.375   4.942   3.196
 4356SOL     OW13966   6.097   3.008   5.386
 4356SOL    HW113967   6.017   2.950   5.401
 4356SOL    HW213968   6.127   2.999   5.291
 4357SOL     OW13969   5.833   6.268   2.269
 4357SOL    HW113970   5.869   6.329   2.340
 4357SOL    HW213971   5.782   6.321   2.201
 4358SOL     OW13972   2.656   1.070   0.478
 4358SOL    HW113973   2.684   1.158   0.441
 4358SOL    HW213974   2.599   1.083   0.559
 4359SOL     OW13975   2.584   2.202   1.710
 4359SOL    HW113976   2.578   2.282   1.770
 4359SOL    HW213977   2.672   2.202   1.663
 4360SOL     OW13978   2.391   5.894   4.080
 4360SOL    HW113979   2.463   5.846   4.030
 4360SOL    HW213980   2.432   5.970   4.132
 4361SOL     OW13981   1.015   1.703   0.296
 4361SOL    HW113982   1.101   1.753   0.307
 4361SOL    HW213983   0.945   1.765   0.260
 4362SOL     OW13984   0.992   5.159   3.067
 4362SOL    HW113985   1.039   5.162   3.155
 4362SOL    HW213986   0.904   5.114   3.077
 4363SOL     OW13987   3.726   0.767   1.993
 4363SOL    HW113988   3.627   0.762   1.982
 4363SOL    HW213989   3.770   0.705   1.928
 4364SOL     OW13990   3.233   3.877   2.926
 4364SOL    HW113991   3.233   3.950   2.858
 4364SOL    HW213992   3.216   3.790   2.882
 4365SOL     OW13993   2.255   1.159   0.976
 4365SOL    HW113994   2.261   1.178   0.878
 4365SOL    HW213995   2.195   1.226   1.020
 4366SOL     OW13996   4.863   5.852   4.679
 4366SOL    HW113997   4.768   5.826   4.692
 4366SOL    HW213998   4.868   5.928   4.614
 4367SOL     OW13999   2.672   6.020   2.232
 4367SOL    HW114000   2.720   6.072   2.161
 4367SOL    HW214001   2.628   6.084   2.295
 4368SOL     OW14002   4.833   3.879   4.302
 4368SOL    HW114003   4.809   3.822   4.223
 4368SOL    HW214004   4.815   3.975   4.279
 4369SOL     OW14005   5.711   4.146   3.394
 4369SOL    HW114006   5.752   4.108   3.477
 4369SOL    HW214007   5.667   4.233   3.415
 4370SOL     OW14008   3.896   5.071   0.573
 4370SOL    HW114009   3.862   5.145   0.514
 4370SOL    HW214010   3.925   5.109   0.661
 4371SOL     OW14011   3.656   1.286   2.799
 4371SOL    HW114012   3.616   1.357   2.741
 4371SOL    HW214013   3.719   1.328   2.865
 4372SOL     OW14014   2.038   4.786   4.532
 4372SOL    HW114015   1.961   4.731   4.565
 4372SOL    HW214016   2.064   4.756   4.440
 4373SOL     OW14017   4.376   0.617   0.536
 4373SOL    HW114018   4.306   0.614   0.607
 4373SOL    HW214019   4.407   0.525   0.515
 4374SOL     OW14020   2.638   6.898   0.331
 4374SOL    HW114021   2.548   6.854   0.325
 4374SOL    HW214022   2.635   6.986   0.284
 4375SOL     OW14023   3.813   1.578   5.543
 4375SOL    HW114024   3.761   1.590   5.459
 4375SOL    HW214025   3.830   1.666   5.586
 4376SOL     OW14026   2.176   5.905   0.132
 4376SOL    HW114027   2.147   5.813   0.157
 4376SOL    HW214028   2.274   5.905   0.113
 4377SOL     OW14029   5.089   5.926   6.834
 4377SOL    HW114030   5.029   6.001   6.806
 4377SOL    HW214031   5.046   5.875   6.909
 4378SOL     OW14032   3.003   4.862   2.611
 4378SOL    HW114033   3.017   4.838   2.707
 4378SOL    HW214034   3.015   4.960   2.599
 4379SOL     OW14035   0.144   6.711   0.994
 4379SOL    HW114036   0.183   6.649   0.926
 4379SOL    HW214037   0.091   6.658   1.060
 4380SOL     OW14038   1.965   5.699   3.922
 4380SOL    HW114039   2.036   5.726   3.986
 4380SOL    HW214040   1.877   5.738   3.950
 4381SOL     OW14041   4.621   5.643   5.350
 4381SOL    HW114042   4.543   5.600   5.395
 4381SOL    HW214043   4.642   5.730   5.395
 4382SOL     OW14044   5.490   3.849   2.994
 4382SOL    HW114045   5.480   3.874   2.898
 4382SOL    HW214046   5.411   3.797   3.024
 4383SOL     OW14047   1.079   1.329   0.318
 4383SOL    HW114048   1.171   1.356   0.291
 4383SOL    HW214049   1.062   1.357   0.412
 4384SOL     OW14050   3.888   6.482   1.821
 4384SOL    HW114051   3.852   6.409   1.762
 4384SOL    HW214052   3.813   6.539   1.853
 4385SOL     OW14053   5.902   2.394   2.489
 4385SOL    HW114054   5.972   2.407   2.559
 4385SOL    HW214055   5.940   2.340   2.414
 4386SOL     OW14056   2.100   3.995   6.885
 4386SOL    HW114057   2.105   4.028   6.979
 4386SOL    HW214058   2.075   4.070   6.825
 4387SOL     OW14059   6.661   2.588   1.626
 4387SOL    HW114060   6.700   2.501   1.658
 4387SOL    HW214061   6.650   2.585   1.527
 4388SOL     OW14062   3.204   1.811   5.578
 4388SOL    HW114063   3.227   1.771   5.489
 4388SOL    HW214064   3.257   1.766   5.650
 4389SOL     OW14065   6.090   2.137   2.504
 4389SOL    HW114066   6.165   2.157   2.567
 4389SOL    HW214067   6.126   2.092   2.422
 4390SOL     OW14068   4.062   2.819   1.030
 4390SOL    HW114069   4.060   2.796   0.932
 4390SOL    HW214070   3.980   2.870   1.053
 4391SOL     OW14071   0.503   6.523   0.200
 4391SOL    HW114072   0.475   6.461   0.274
 4391SOL    HW214073   0.526   6.470   0.119
 4392SOL     OW14074   5.025   4.384   5.106
 4392SOL    HW114075   5.008   4.477   5.073
 4392SOL    HW214076   5.116   4.355   5.077
 4393SOL     OW14077   5.422   6.205   3.179
 4393SOL    HW114078   5.377   6.120   3.208
 4393SOL    HW214079   5.355   6.263   3.133
 4394SOL     OW14080   4.678   0.721   2.468
 4394SOL    HW114081   4.763   0.670   2.455
 4394SOL    HW214082   4.649   0.760   2.381
 4395SOL     OW14083   5.272   1.832   1.171
 4395SOL    HW114084   5.220   1.777   1.107
 4395SOL    HW214085   5.219   1.914   1.195
 4396SOL     OW14086   1.530   1.275   3.754
 4396SOL    HW114087   1.572   1.261   3.844
 4396SOL    HW214088   1.601   1.275   3.684
 4397SOL     OW14089   5.410   0.110   6.193
 4397SOL    HW114090   5.510   0.122   6.194
 4397SOL    HW214091   5.377   0.102   6.287
 4398SOL     OW14092   0.439   5.358   4.235
 4398SOL    HW114093   0.450   5.279   4.175
 4398SOL    HW214094   0.528   5.385   4.272
 4399SOL     OW14095   3.279   1.320   2.575
 4399SOL    HW114096   3.274   1.395   2.641
 4399SOL    HW214097   3.355   1.336   2.512
 4400SOL     OW14098   4.038   5.722   3.483
 4400SOL    HW114099   4.054   5.677   3.570
 4400SOL    HW214100   4.001   5.657   3.417
 4401SOL     OW14101   5.821   5.879   4.793
 4401SOL    HW114102   5.862   5.810   4.852
 4401SOL    HW214103   5.724   5.890   4.817
 4402SOL     OW14104   6.912   6.225   2.363
 4402SOL    HW114105   6.882   6.131   2.344
 4402SOL    HW214106   6.873   6.287   2.295
 4403SOL     OW14107   0.308   0.822   2.914
 4403SOL    HW114108   0.399   0.793   2.942
 4403SOL    HW214109   0.302   0.922   2.918
 4404SOL     OW14110   2.297   4.764   2.868
 4404SOL    HW114111   2.264   4.849   2.826
 4404SOL    HW214112   2.334   4.704   2.797
 4405SOL     OW14113   2.687   3.825   5.858
 4405SOL    HW114114   2.716   3.913   5.896
 4405SOL    HW214115   2.610   3.789   5.911
 4406SOL     OW14116   5.748   3.312   1.930
 4406SOL    HW114117   5.825   3.271   1.980
 4406SOL    HW214118   5.690   3.362   1.994
 4407SOL     OW14119   6.932   0.773   6.744
 4407SOL    HW114120   6.974   0.725   6.667
 4407SOL    HW214121   6.960   0.729   6.830
 4408SOL     OW14122   3.982   6.221   0.901
 4408SOL    HW114123   4.033   6.173   0.830
 4408SOL    HW214124   4.020   6.312   0.914
 4409SOL     OW14125   2.680   1.689   2.747
 4409SOL    HW114126   2.591   1.710   2.789
 4409SOL    HW214127   2.665   1.631   2.667
 4410SOL     OW14128   1.965   5.600   1.166
 4410SOL    HW114129   2.053   5.647   1.156
 4410SOL    HW214130   1.971   5.533   1.240
 4411SOL     OW14131   4.093   3.597   2.612
 4411SOL    HW114132   4.104   3.665   2.685
 4411SOL    HW214133   4.104   3.505   2.650
 4412SOL     OW14134   3.277   1.795   5.916
 4412SOL    HW114135   3.260   1.893   5.930
 4412SOL    HW214136   3.313   1.755   6.000
 4413SOL     OW14137   4.468   5.170   3.584
 4413SOL    HW114138   4.397   5.202   3.646
 4413SOL    HW214139   4.472   5.070   3.587
 4414SOL     OW14140   3.268   5.215   1.539
 4414SOL    HW114141   3.234   5.211   1.633
 4414SOL    HW214142   3.201   5.261   1.481
 4415SOL     OW14143   4.679   1.459   1.065
 4415SOL    HW114144   4.723   1.400   0.998
 4415SOL    HW214145   4.711   1.553   1.054
 4416SOL     OW14146   2.367   2.276   4.612
 4416SOL    HW114147   2.446   2.332   4.637
 4416SOL    HW214148   2.286   2.334   4.605
 4417SOL     OW14149   6.070   0.003   1.133
 4417SOL    HW114150   6.124   6.939   1.119
 4417SOL    HW214151   6.119   0.065   1.194
 4418SOL     OW14152   4.842   1.152   3.547
 4418SOL    HW114153   4.848   1.080   3.616
 4418SOL    HW214154   4.840   1.110   3.456
 4419SOL     OW14155   6.514   5.382   6.277
 4419SOL    HW114156   6.553   5.433   6.354
 4419SOL    HW214157   6.478   5.446   6.209
 4420SOL     OW14158   4.215   1.065   0.316
 4420SOL    HW114159   4.269   1.004   0.258
 4420SOL    HW214160   4.238   1.051   0.412
 4421SOL     OW14161   0.607   1.650   3.483
 4421SOL    HW114162   0.522   1.609   3.517
 4421SOL    HW214163   0.667   1.579   3.448
 4422SOL     OW14164   1.842   4.812   5.982
 4422SOL    HW114165   1.767   4.799   6.047
 4422SOL    HW214166   1.906   4.736   5.990
 4423SOL     OW14167   0.084   1.713   6.494
 4423SOL    HW114168   7.017   1.754   6.466
 4423SOL    HW214169   0.101   1.631   6.440
 4424SOL     OW14170   1.069   6.001   3.332
 4424SOL    HW114171   1.062   5.951   3.418
 4424SOL    HW214172   1.028   6.092   3.342
 4425SOL     OW14173   5.041   4.350   0.588
 4425SOL    HW114174   5.026   4.418   0.516
 4425SOL    HW214175   5.098   4.390   0.660
 4426SOL     OW14176   0.845   0.489   6.115
 4426SOL    HW114177   0.807   0.474   6.207
 4426SOL    HW214178   0.939   0.457   6.113
 4427SOL     OW14179   1.372   5.804   3.384
 4427SOL    HW114180   1.293   5.790   3.445
 4427SOL    HW214181   1.358   5.755   3.299
 4428SOL     OW14182   1.870   6.756   3.192
 4428SOL    HW114183   1.917   6.776   3.278
 4428SOL    HW214184   1.932   6.772   3.115
 4429SOL     OW14185   3.283   0.327   3.138
 4429SOL    HW114186   3.306   0.274   3.220
 4429SOL    HW214187   3.220   0.274   3.081
 4430SOL     OW14188   1.309   0.422   2.065
 4430SOL    HW114189   1.289   0.520   2.059
 4430SOL    HW214190   1.295   0.380   1.975
 4431SOL     OW14191   2.622   1.806   3.409
 4431SOL    HW114192   2.630   1.720   3.459
 4431SOL    HW214193   2.661   1.795   3.318
 4432SOL     OW14194   3.091   3.181   3.783
 4432SOL    HW114195   3.042   3.193   3.697
 4432SOL    HW214196   3.157   3.255   3.795
 4433SOL     OW14197   6.297   0.372   3.191
 4433SOL    HW114198   6.216   0.315   3.205
 4433SOL    HW214199   6.269   0.464   3.165
 4434SOL     OW14200   5.069   2.616   4.575
 4434SOL    HW114201   5.073   2.716   4.586
 4434SOL    HW214202   4.985   2.582   4.618
 4435SOL     OW14203   3.687   3.156   2.174
 4435SOL    HW114204   3.588   3.145   2.177
 4435SOL    HW214205   3.711   3.223   2.104
 4436SOL     OW14206   5.264   0.233   0.958
 4436SOL    HW114207   5.267   0.191   1.049
 4436SOL    HW214208   5.350   0.215   0.911
 4437SOL     OW14209   3.462   0.400   5.102
 4437SOL    HW114210   3.400   0.322   5.097
 4437SOL    HW214211   3.548   0.372   5.146
 4438SOL     OW14212   4.032   3.207   6.237
 4438SOL    HW114213   4.036   3.237   6.142
 4438SOL    HW214214   4.045   3.285   6.297
 4439SOL     OW14215   2.201   4.802   2.460
 4439SOL    HW114216   2.254   4.779   2.541
 4439SOL    HW214217   2.194   4.902   2.452
 4440SOL     OW14218   6.125   0.992   0.617
 4440SOL    HW114219   6.162   0.945   0.537
 4440SOL    HW214220   6.032   1.023   0.598
 4441SOL     OW14221   6.092   1.050   3.516
 4441SOL    HW114222   6.169   1.007   3.564
 4441SOL    HW214223   6.051   0.985   3.453
 4442SOL     OW14224   1.724   5.757   1.771
 4442SOL    HW114225   1.773   5.801   1.846
 4442SOL    HW214226   1.630   5.790   1.769
 4443SOL     OW14227   2.520   1.447   6.742
 4443SOL    HW114228   2.486   1.462   6.649
 4443SOL    HW214229   2.605   1.498   6.755
 4444SOL     OW14230   4.719   1.217   3.129
 4444SOL    HW114231   4.773   1.157   3.069
 4444SOL    HW214232   4.623   1.193   3.122
 4445SOL     OW14233   1.179   0.834   6.413
 4445SOL    HW114234   1.200   0.838   6.315
 4445SOL    HW214235   1.085   0.865   6.428
 4446SOL     OW14236   5.320   4.872   3.814
 4446SOL    HW114237   5.253   4.804   3.844
 4446SOL    HW214238   5.364   4.913   3.893
 4447SOL     OW14239   5.356   2.887   5.188
 4447SOL    HW114240   5.304   2.928   5.263
 4447SOL    HW214241   5.323   2.794   5.171
 4448SOL     OW14242   2.033   3.516   6.755
 4448SOL    HW114243   1.934   3.504   6.762
 4448SOL    HW214244   2.078   3.428   6.766
 4449SOL     OW14245   0.517   1.321   5.255
 4449SOL    HW114246   0.577   1.327   5.175
 4449SOL    HW214247   0.502   1.412   5.292
 4450SOL     OW14248   3.376   3.552   2.357
 4450SOL    HW114249   3.446   3.542   2.286
 4450SOL    HW214250   3.287   3.571   2.314
 4451SOL     OW14251   0.100   3.834   1.039
 4451SOL    HW114252   0.143   3.757   0.992
 4451SOL    HW214253   0.001   3.832   1.025
 4452SOL     OW14254   6.531   3.749   6.166
 4452SOL    HW114255   6.542   3.787   6.074
 4452SOL    HW214256   6.558   3.652   6.165
 4453SOL     OW14257   5.002   1.585   0.534
 4453SOL    HW114258   4.924   1.571   0.473
 4453SOL    HW214259   5.024   1.682   0.538
 4454SOL     OW14260   4.823   2.782   1.597
 4454SOL    HW114261   4.787   2.803   1.688
 4454SOL    HW214262   4.817   2.683   1.581
 4455SOL     OW14263   4.206   2.088   2.144
 4455SOL    HW114264   4.148   2.088   2.225
 4455SOL    HW214265   4.210   2.180   2.105
 4456SOL     OW14266   1.286   5.638   2.730
 4456SOL    HW114267   1.200   5.587   2.730
 4456SOL    HW214268   1.327   5.634   2.639
 4457SOL     OW14269   4.621   1.467   6.933
 4457SOL    HW114270   4.624   1.416   6.847
 4457SOL    HW214271   4.570   1.552   6.920
 4458SOL     OW14272   4.042   1.746   0.622
 4458SOL    HW114273   3.955   1.704   0.648
 4458SOL    HW214274   4.053   1.833   0.670
 4459SOL     OW14275   5.414   6.672   5.038
 4459SOL    HW114276   5.495   6.694   5.093
 4459SOL    HW214277   5.371   6.589   5.073
 4460SOL     OW14278   1.322   1.481   6.753
 4460SOL    HW114279   1.254   1.428   6.804
 4460SOL    HW214280   1.282   1.510   6.666
 4461SOL     OW14281   1.950   6.687   2.227
 4461SOL    HW114282   1.937   6.611   2.291
 4461SOL    HW214283   1.993   6.764   2.276
 4462SOL     OW14284   0.075   4.857   0.574
 4462SOL    HW114285   0.167   4.821   0.562
 4462SOL    HW214286   0.040   4.830   0.664
 4463SOL     OW14287   1.194   4.047   6.241
 4463SOL    HW114288   1.261   3.973   6.237
 4463SOL    HW214289   1.143   4.051   6.155
 4464SOL     OW14290   6.517   2.820   0.171
 4464SOL    HW114291   6.450   2.809   0.098
 4464SOL    HW214292   6.594   2.876   0.139
 4465SOL     OW14293   0.653   5.842   0.419
 4465SOL    HW114294   0.636   5.745   0.405
 4465SOL    HW214295   0.737   5.868   0.371
 4466SOL     OW14296   6.799   3.002   3.143
 4466SOL    HW114297   6.812   2.906   3.167
 4466SOL    HW214298   6.790   3.010   3.044
 4467SOL     OW14299   1.435   0.134   3.160
 4467SOL    HW114300   1.514   0.074   3.173
 4467SOL    HW214301   1.455   0.224   3.199
 4468SOL     OW14302   1.905   2.389   0.687
 4468SOL    HW114303   1.998   2.365   0.713
 4468SOL    HW214304   1.844   2.374   0.765
 4469SOL     OW14305   4.600   0.070   0.277
 4469SOL    HW114306   4.700   0.076   0.276
 4469SOL    HW214307   4.565   0.084   0.184
 4470SOL     OW14308   4.749   4.953   1.316
 4470SOL    HW114309   4.760   4.866   1.268
 4470SOL    HW214310   4.652   4.976   1.322
 4471SOL     OW14311   6.141   2.409   0.727
 4471SOL    HW114312   6.183   2.378   0.642
 4471SOL    HW214313   6.051   2.447   0.708
 4472SOL     OW14314   1.804   4.556   1.573
 4472SOL    HW114315   1.818   4.536   1.670
 4472SOL    HW214316   1.881   4.609   1.538
 4473SOL     OW14317   0.013   0.625   6.569
 4473SOL    HW114318   6.957   0.559   6.569
 4473SOL    HW214319   0.051   0.632   6.477
 4474SOL     OW14320   5.933   0.412   4.451
 4474SOL    HW114321   5.867   0.487   4.445
 4474SOL    HW214322   5.886   0.329   4.481
 4475SOL     OW14323   1.767   4.157   0.853
 4475SOL    HW114324   1.746   4.248   0.817
 4475SOL    HW214325   1.785   4.163   0.951
 4476SOL     OW14326   5.080   6.766   2.529
 4476SOL    HW114327   5.022   6.685   2.538
 4476SOL    HW214328   5.160   6.756   2.589
 4477SOL     OW14329   1.140   1.812   0.878
 4477SOL    HW114330   1.166   1.907   0.891
 4477SOL    HW214331   1.201   1.769   0.811
 4478SOL     OW14332   1.432   4.627   2.192
 4478SOL    HW114333   1.371   4.705   2.182
 4478SOL    HW214334   1.489   4.638   2.273
 4479SOL     OW14335   0.942   0.084   6.110
 4479SOL    HW114336   0.962   0.101   6.207
 4479SOL    HW214337   1.011   0.023   6.071
 4480SOL     OW14338   0.001   3.985   3.818
 4480SOL    HW114339   0.045   3.970   3.906
 4480SOL    HW214340   6.923   3.964   3.825
 4481SOL     OW14341   0.593   0.709   4.063
 4481SOL    HW114342   0.615   0.763   4.144
 4481SOL    HW214343   0.609   0.612   4.083
 4482SOL     OW14344   1.125   3.922   3.359
 4482SOL    HW114345   1.062   3.924   3.436
 4482SOL    HW214346   1.196   3.853   3.376
 4483SOL     OW14347   5.673   3.014   1.158
 4483SOL    HW114348   5.673   3.098   1.213
 4483SOL    HW214349   5.582   2.997   1.121
 4484SOL     OW14350   3.454   3.642   6.096
 4484SOL    HW114351   3.536   3.619   6.045
 4484SOL    HW214352   3.423   3.562   6.147
 4485SOL     OW14353   4.596   0.466   0.040
 4485SOL    HW114354   4.674   0.428   0.091
 4485SOL    HW214355   4.511   0.447   0.089
 4486SOL     OW14356   5.624   3.261   3.809
 4486SOL    HW114357   5.624   3.262   3.709
 4486SOL    HW214358   5.575   3.341   3.844
 4487SOL     OW14359   2.974   2.994   5.797
 4487SOL    HW114360   3.017   3.036   5.876
 4487SOL    HW214361   3.039   2.989   5.721
 4488SOL     OW14362   6.829   1.515   6.442
 4488SOL    HW114363   6.757   1.521   6.512
 4488SOL    HW214364   6.890   1.439   6.464
 4489SOL     OW14365   0.240   1.124   2.988
 4489SOL    HW114366   0.205   1.165   3.073
 4489SOL    HW214367   0.328   1.165   2.965
 4490SOL     OW14368   6.628   2.031   3.717
 4490SOL    HW114369   6.588   1.940   3.709
 4490SOL    HW214370   6.613   2.081   3.631
 4491SOL     OW14371   1.890   3.686   2.641
 4491SOL    HW114372   1.801   3.649   2.616
 4491SOL    HW214373   1.924   3.744   2.566
 4492SOL     OW14374   5.063   4.850   6.112
 4492SOL    HW114375   5.103   4.760   6.091
 4492SOL    HW214376   5.065   4.907   6.031
 4493SOL     OW14377   5.859   4.763   3.910
 4493SOL    HW114378   5.828   4.855   3.888
 4493SOL    HW214379   5.946   4.745   3.865
 4494SOL     OW14380   5.861   2.951   3.171
 4494SOL    HW114381   5.791   2.884   3.146
 4494SOL    HW214382   5.852   2.974   3.268
 4495SOL     OW14383   4.686   6.173   2.117
 4495SOL    HW114384   4.710   6.145   2.023
 4495SOL    HW214385   4.750   6.131   2.181
 4496SOL     OW14386   5.582   4.312   6.014
 4496SOL    HW114387   5.674   4.346   5.990
 4496SOL    HW214388   5.558   4.238   5.951
 4497SOL     OW14389   6.452   5.250   0.877
 4497SOL    HW114390   6.526   5.312   0.849
 4497SOL    HW214391   6.480   5.155   0.860
 4498SOL     OW14392   0.997   4.078   0.136
 4498SOL    HW114393   0.945   4.083   0.051
 4498SOL    HW214394   0.973   4.156   0.194
 4499SOL     OW14395   5.319   3.237   6.336
 4499SOL    HW114396   5.285   3.285   6.417
 4499SOL    HW214397   5.331   3.302   6.261
 4500SOL     OW14398   3.271   4.055   3.379
 4500SOL    HW114399   3.366   4.034   3.355
 4500SOL    HW214400   3.209   3.997   3.327
 4501SOL     OW14401   1.591   4.948   4.794
 4501SOL    HW114402   1.584   4.848   4.798
 4501SOL    HW214403   1.501   4.988   4.808
 4502SOL     OW14404   6.537   3.110   6.947
 4502SOL    HW114405   6.514   3.014   6.934
 4502SOL    HW214406   6.467   3.154   7.003
 4503SOL     OW14407   1.755   3.363   2.702
 4503SOL    HW114408   1.781   3.391   2.794
 4503SOL    HW214409   1.739   3.444   2.645
 4504SOL     OW14410   4.425   2.476   3.969
 4504SOL    HW114411   4.451   2.543   3.900
 4504SOL    HW214412   4.332   2.445   3.953
 4505SOL     OW14413   1.555   5.076   6.985
 4505SOL    HW114414   1.554   5.176   6.986
 4505SOL    HW214415   1.513   5.043   6.900
 4506SOL     OW14416   4.314   6.853   4.827
 4506SOL    HW114417   4.271   6.827   4.913
 4506SOL    HW214418   4.256   6.919   4.780
 4507SOL     OW14419   6.368   3.422   1.970
 4507SOL    HW114420   6.345   3.423   1.872
 4507SOL    HW214421   6.368   3.327   2.003
 4508SOL     OW14422   2.351   3.881   6.957
 4508SOL    HW114423   2.256   3.911   6.945
 4508SOL    HW214424   2.413   3.947   6.913
 4509SOL     OW14425   0.405   1.977   3.589
 4509SOL    HW114426   0.412   2.066   3.633
 4509SOL    HW214427   0.433   1.905   3.653
 4510SOL     OW14428   3.706   6.382   5.693
 4510SOL    HW114429   3.701   6.286   5.720
 4510SOL    HW214430   3.615   6.414   5.665
 4511SOL     OW14431   6.300   2.030   6.280
 4511SOL    HW114432   6.203   2.018   6.302
 4511SOL    HW214433   6.315   2.123   6.247
 4512SOL     OW14434   2.594   4.737   6.699
 4512SOL    HW114435   2.561   4.729   6.605
 4512SOL    HW214436   2.679   4.791   6.700
 4513SOL     OW14437   5.775   1.355   2.097
 4513SOL    HW114438   5.833   1.378   2.176
 4513SOL    HW214439   5.748   1.259   2.101
 4514SOL     OW14440   3.543   0.982   6.076
 4514SOL    HW114441   3.616   0.926   6.038
 4514SOL    HW214442   3.525   1.060   6.016
 4515SOL     OW14443   6.375   4.902   0.877
 4515SOL    HW114444   6.327   4.915   0.963
 4515SOL    HW214445   6.346   4.816   0.835
 4516SOL     OW14446   0.626   6.946   3.928
 4516SOL    HW114447   0.706   6.936   3.987
 4516SOL    HW214448   0.653   6.990   3.842
 4517SOL     OW14449   3.815   0.340   6.193
 4517SOL    HW114450   3.866   0.376   6.115
 4517SOL    HW214451   3.771   0.254   6.168
 4518SOL     OW14452   1.371   0.286   3.540
 4518SOL    HW114453   1.344   0.191   3.531
 4518SOL    HW214454   1.457   0.292   3.592
 4519SOL     OW14455   6.422   2.689   5.016
 4519SOL    HW114456   6.449   2.603   5.059
 4519SOL    HW214457   6.333   2.678   4.971
 4520SOL     OW14458   0.126   4.073   2.640
 4520SOL    HW114459   0.058   4.074   2.567
 4520SOL    HW214460   0.217   4.071   2.600
 4521SOL     OW14461   5.045   1.543   6.317
 4521SOL    HW114462   4.979   1.615   6.292
 4521SOL    HW214463   5.117   1.539   6.248
 4522SOL     OW14464   5.784   0.483   3.279
 4522SOL    HW114465   5.752   0.390   3.259
 4522SOL    HW214466   5.771   0.502   3.376
 4523SOL     OW14467   4.867   3.046   6.327
 4523SOL    HW114468   4.809   3.121   6.356
 4523SOL    HW214469   4.942   3.082   6.271
 4524SOL     OW14470   5.888   0.646   4.770
 4524SOL    HW114471   5.974   0.638   4.819
 4524SOL    HW214472   5.823   0.699   4.824
 4525SOL     OW14473   6.283   2.130   5.318
 4525SOL    HW114474   6.354   2.193   5.287
 4525SOL    HW214475   6.306   2.097   5.409
 4526SOL     OW14476   3.308   0.900   1.171
 4526SOL    HW114477   3.250   0.858   1.241
 4526SOL    HW214478   3.395   0.928   1.212
 4527SOL     OW14479   4.368   6.431   3.679
 4527SOL    HW114480   4.316   6.350   3.703
 4527SOL    HW214481   4.380   6.435   3.579
 4528SOL     OW14482   4.880   6.976   5.801
 4528SOL    HW114483   4.941   6.896   5.800
 4528SOL    HW214484   4.899   0.013   5.881
 4529SOL     OW14485   3.840   0.219   3.679
 4529SOL    HW114486   3.804   0.126   3.692
 4529SOL    HW214487   3.849   0.264   3.768
 4530SOL     OW14488   0.593   2.936   5.054
 4530SOL    HW114489   0.515   2.981   5.098
 4530SOL    HW214490   0.590   2.838   5.074
 4531SOL     OW14491   0.080   3.934   3.558
 4531SOL    HW114492   0.057   3.962   3.652
 4531SOL    HW214493   0.179   3.937   3.546
 4532SOL     OW14494   6.925   1.635   0.403
 4532SOL    HW114495   7.007   1.584   0.428
 4532SOL    HW214496   6.950   1.729   0.380
 4533SOL     OW14497   3.410   5.869   2.435
 4533SOL    HW114498   3.379   5.817   2.514
 4533SOL    HW214499   3.506   5.894   2.448
 4534SOL     OW14500   0.151   4.138   5.629
 4534SOL    HW114501   0.136   4.051   5.675
 4534SOL    HW214502   0.234   4.133   5.573
 4535SOL     OW14503   4.979   2.754   3.078
 4535SOL    HW114504   4.948   2.813   3.004
 4535SOL    HW214505   4.987   2.660   3.045
 4536SOL     OW14506   6.746   0.496   4.483
 4536SOL    HW114507   6.769   0.452   4.570
 4536SOL    HW214508   6.826   0.545   4.448
 4537SOL     OW14509   4.640   3.243   6.321
 4537SOL    HW114510   4.553   3.195   6.335
 4537SOL    HW214511   4.655   3.259   6.224
 4538SOL     OW14512   3.398   1.913   1.666
 4538SOL    HW114513   3.427   1.899   1.761
 4538SOL    HW214514   3.300   1.894   1.658
 4539SOL     OW14515   2.330   2.330   2.572
 4539SOL    HW114516   2.421   2.302   2.600
 4539SOL    HW214517   2.270   2.335   2.651
 4540SOL     OW14518   3.241   3.209   5.186
 4540SOL    HW114519   3.220   3.235   5.281
 4540SOL    HW214520   3.207   3.280   5.124
 4541SOL     OW14521   6.081   1.230   1.602
 4541SOL    HW114522   6.039   1.240   1.692
 4541SOL    HW214523   6.124   1.140   1.595
 4542SOL     OW14524   4.781   6.961   3.048
 4542SOL    HW114525   4.815   6.987   2.957
 4542SOL    HW214526   4.682   6.951   3.045
 4543SOL     OW14527   5.712   1.737   1.444
 4543SOL    HW114528   5.810   1.718   1.453
 4543SOL    HW214529   5.693   1.764   1.350
 4544SOL     OW14530   4.235   4.846   6.965
 4544SOL    HW114531   4.276   4.931   6.930
 4544SOL    HW214532   4.300   4.771   6.953
 4545SOL     OW14533   4.271   3.823   6.032
 4545SOL    HW114534   4.220   3.890   5.979
 4545SOL    HW214535   4.212   3.784   6.103
 4546SOL     OW14536   0.090   6.407   0.047
 4546SOL    HW114537   0.001   6.387   0.087
 4546SOL    HW214538   0.104   6.506   0.043
 4547SOL     OW14539   4.229   1.520   1.772
 4547SOL    HW114540   4.267   1.428   1.777
 4547SOL    HW214541   4.166   1.534   1.849
 4548SOL     OW14542   0.880   3.626   3.842
 4548SOL    HW114543   0.935   3.626   3.925
 4548SOL    HW214544   0.899   3.545   3.788
 4549SOL     OW14545   4.330   1.547   2.092
 4549SOL    HW114546   4.256   1.493   2.132
 4549SOL    HW214547   4.310   1.563   1.995
 4550SOL     OW14548   1.567   5.813   4.522
 4550SOL    HW114549   1.543   5.882   4.454
 4550SOL    HW214550   1.665   5.818   4.542
 4551SOL     OW14551   6.986   2.778   0.266
 4551SOL    HW114552   0.055   2.797   0.310
 4551SOL    HW214553   6.981   2.681   0.241
 4552SOL     OW14554   6.304   3.267   4.137
 4552SOL    HW114555   6.300   3.257   4.236
 4552SOL    HW214556   6.400   3.273   4.108
 4553SOL     OW14557   5.429   4.982   0.206
 4553SOL    HW114558   5.515   5.031   0.217
 4553SOL    HW214559   5.447   4.884   0.202
 4554SOL     OW14560   5.907   0.128   3.497
 4554SOL    HW114561   5.844   0.131   3.419
 4554SOL    HW214562   5.854   0.118   3.582
 4555SOL     OW14563   3.956   2.580   6.403
 4555SOL    HW114564   4.038   2.625   6.439
 4555SOL    HW214565   3.955   2.588   6.303
 4556SOL     OW14566   4.901   0.666   5.372
 4556SOL    HW114567   4.981   0.710   5.333
 4556SOL    HW214568   4.899   0.569   5.345
 4557SOL     OW14569   5.382   0.680   4.873
 4557SOL    HW114570   5.367   0.719   4.964
 4557SOL    HW214571   5.355   0.584   4.873
 4558SOL     OW14572   6.037   3.406   5.779
 4558SOL    HW114573   6.047   3.381   5.875
 4558SOL    HW214574   6.013   3.503   5.773
 4559SOL     OW14575   0.784   6.244   1.261
 4559SOL    HW114576   0.863   6.254   1.201
 4559SOL    HW214577   0.760   6.148   1.270
 4560SOL     OW14578   5.338   2.273   2.408
 4560SOL    HW114579   5.336   2.337   2.486
 4560SOL    HW214580   5.406   2.202   2.426
 4561SOL     OW14581   3.228   0.792   6.350
 4561SOL    HW114582   3.310   0.827   6.393
 4561SOL    HW214583   3.215   0.696   6.375
 4562SOL     OW14584   2.188   4.595   5.298
 4562SOL    HW114585   2.117   4.562   5.361
 4562SOL    HW214586   2.217   4.687   5.325
 4563SOL     OW14587   5.455   2.495   6.402
 4563SOL    HW114588   5.400   2.508   6.319
 4563SOL    HW214589   5.531   2.560   6.403
 4564SOL     OW14590   0.767   5.278   6.687
 4564SOL    HW114591   0.824   5.215   6.740
 4564SOL    HW214592   0.674   5.241   6.681
 4565SOL     OW14593   2.770   0.873   4.056
 4565SOL    HW114594   2.796   0.783   4.091
 4565SOL    HW214595   2.702   0.914   4.116
 4566SOL     OW14596   1.695   1.382   0.707
 4566SOL    HW114597   1.605   1.391   0.749
 4566SOL    HW214598   1.764   1.369   0.779
 4567SOL     OW14599   5.859   0.951   1.286
 4567SOL    HW114600   5.825   0.880   1.348
 4567SOL    HW214601   5.865   1.038   1.335
 4568SOL     OW14602   3.766   4.867   4.058
 4568SOL    HW114603   3.810   4.820   3.980
 4568SOL    HW214604   3.836   4.895   4.123
 4569SOL     OW14605   0.235   2.048   3.184
 4569SOL    HW114606   0.172   2.041   3.106
 4569SOL    HW214607   0.201   1.992   3.260
 4570SOL     OW14608   5.853   5.675   4.432
 4570SOL    HW114609   5.862   5.774   4.445
 4570SOL    HW214610   5.847   5.630   4.521
 4571SOL     OW14611   3.641   2.925   4.598
 4571SOL    HW114612   3.703   2.915   4.676
 4571SOL    HW214613   3.550   2.890   4.624
 4572SOL     OW14614   2.273   5.231   2.038
 4572SOL    HW114615   2.222   5.225   1.952
 4572SOL    HW214616   2.371   5.231   2.019
 4573SOL     OW14617   4.833   0.017   0.886
 4573SOL    HW114618   4.815   0.028   0.984
 4573SOL    HW214619   4.928   0.043   0.867
 4574SOL     OW14620   0.278   4.053   1.513
 4574SOL    HW114621   0.358   4.112   1.506
 4574SOL    HW214622   0.272   4.017   1.606
 4575SOL     OW14623   0.142   6.508   2.188
 4575SOL    HW114624   0.216   6.472   2.131
 4575SOL    HW214625   0.056   6.465   2.163
 4576SOL     OW14626   3.714   6.216   3.690
 4576SOL    HW114627   3.634   6.275   3.681
 4576SOL    HW214628   3.684   6.122   3.710
 4577SOL     OW14629   1.511   2.635   3.968
 4577SOL    HW114630   1.480   2.721   4.010
 4577SOL    HW214631   1.443   2.564   3.985
 4578SOL     OW14632   0.617   4.786   3.880
 4578SOL    HW114633   0.570   4.843   3.947
 4578SOL    HW214634   0.637   4.696   3.919
 4579SOL     OW14635   5.463   1.846   4.610
 4579SOL    HW114636   5.525   1.768   4.621
 4579SOL    HW214637   5.369   1.817   4.628
 4580SOL     OW14638   0.056   5.563   0.103
 4580SOL    HW114639   0.076   5.468   0.126
 4580SOL    HW214640   0.113   5.591   0.026
 4581SOL     OW14641   3.297   6.251   3.592
 4581SOL    HW114642   3.203   6.271   3.565
 4581SOL    HW214643   3.360   6.307   3.537
 4582SOL     OW14644   5.032   6.663   3.313
 4582SOL    HW114645   4.940   6.702   3.320
 4582SOL    HW214646   5.048   6.633   3.219
 4583SOL     OW14647   3.641   1.317   5.708
 4583SOL    HW114648   3.555   1.329   5.659
 4583SOL    HW214649   3.711   1.377   5.668
 4584SOL     OW14650   1.261   5.195   6.147
 4584SOL    HW114651   1.221   5.107   6.122
 4584SOL    HW214652   1.248   5.260   6.072
 4585SOL     OW14653   3.114   6.438   1.985
 4585SOL    HW114654   3.137   6.523   2.032
 4585SOL    HW214655   3.081   6.371   2.051
 4586SOL     OW14656   3.004   6.035   1.876
 4586SOL    HW114657   3.077   5.968   1.891
 4586SOL    HW214658   3.027   6.092   1.797
 4587SOL     OW14659   2.984   4.834   0.503
 4587SOL    HW114660   3.026   4.776   0.434
 4587SOL    HW214661   2.914   4.891   0.461
 4588SOL     OW14662   3.841   4.291   5.245
 4588SOL    HW114663   3.938   4.314   5.235
 4588SOL    HW214664   3.832   4.208   5.300
 4589SOL     OW14665   0.961   1.686   3.041
 4589SOL    HW114666   0.956   1.710   2.944
 4589SOL    HW214667   0.892   1.737   3.091
 4590SOL     OW14668   4.255   6.269   3.085
 4590SOL    HW114669   4.285   6.311   2.999
 4590SOL    HW214670   4.335   6.233   3.134
 4591SOL     OW14671   6.365   6.776   5.171
 4591SOL    HW114672   6.284   6.746   5.121
 4591SOL    HW214673   6.414   6.695   5.205
 4592SOL     OW14674   3.367   1.392   5.899
 4592SOL    HW114675   3.453   1.423   5.938
 4592SOL    HW214676   3.374   1.295   5.875
 4593SOL     OW14677   4.569   6.093   1.427
 4593SOL    HW114678   4.613   6.038   1.497
 4593SOL    HW214679   4.606   6.069   1.337
 4594SOL     OW14680   3.482   1.831   2.490
 4594SOL    HW114681   3.394   1.784   2.496
 4594SOL    HW214682   3.480   1.913   2.547
 4595SOL     OW14683   4.990   3.482   6.412
 4595SOL    HW114684   4.996   3.569   6.461
 4595SOL    HW214685   4.894   3.461   6.391
 4596SOL     OW14686   5.321   0.554   2.364
 4596SOL    HW114687   5.305   0.575   2.460
 4596SOL    HW214688   5.417   0.529   2.351
 4597SOL     OW14689   6.541   4.808   5.902
 4597SOL    HW114690   6.523   4.747   5.979
 4597SOL    HW214691   6.454   4.839   5.863
 4598SOL     OW14692   3.328   3.825   0.699
 4598SOL    HW114693   3.324   3.812   0.797
 4598SOL    HW214694   3.393   3.898   0.677
 4599SOL     OW14695   2.102   5.397   0.400
 4599SOL    HW114696   2.017   5.363   0.440
 4599SOL    HW214697   2.147   5.458   0.465
 4600SOL     OW14698   3.516   4.497   1.409
 4600SOL    HW114699   3.476   4.506   1.500
 4600SOL    HW214700   3.582   4.422   1.409
 4601SOL     OW14701   1.545   5.948   4.283
 4601SOL    HW114702   1.543   5.877   4.213
 4601SOL    HW214703   1.595   6.028   4.249
 4602SOL     OW14704   1.548   0.812   1.178
 4602SOL    HW114705   1.602   0.741   1.133
 4602SOL    HW214706   1.451   0.787   1.174
 4603SOL     OW14707   2.951   1.380   1.909
 4603SOL    HW114708   2.925   1.477   1.914
 4603SOL    HW214709   2.894   1.333   1.842
 4604SOL     OW14710   1.643   0.656   2.088
 4604SOL    HW114711   1.576   0.582   2.079
 4604SOL    HW214712   1.644   0.710   2.003
 4605SOL     OW14713   4.844   6.502   5.780
 4605SOL    HW114714   4.925   6.539   5.824
 4605SOL    HW214715   4.866   6.472   5.687
 4606SOL     OW14716   6.619   6.149   5.171
 4606SOL    HW114717   6.587   6.202   5.093
 4606SOL    HW214718   6.703   6.101   5.146
 4607SOL     OW14719   2.783   2.415   1.350
 4607SOL    HW114720   2.719   2.490   1.365
 4607SOL    HW214721   2.873   2.452   1.326
 4608SOL     OW14722   1.707   3.680   4.917
 4608SOL    HW114723   1.661   3.747   4.860
 4608SOL    HW214724   1.793   3.653   4.873
 4609SOL     OW14725   3.238   0.188   0.129
 4609SOL    HW114726   3.181   0.127   0.184
 4609SOL    HW214727   3.187   0.219   0.049
 4610SOL     OW14728   6.935   2.985   0.089
 4610SOL    HW114729   7.002   3.057   0.107
 4610SOL    HW214730   6.946   2.911   0.156
 4611SOL     OW14731   1.295   3.643   6.850
 4611SOL    HW114732   1.252   3.730   6.877
 4611SOL    HW214733   1.286   3.578   6.925
 4612SOL     OW14734   2.566   0.172   6.513
 4612SOL    HW114735   2.629   0.244   6.485
 4612SOL    HW214736   2.589   0.141   6.605
 4613SOL     OW14737   3.340   4.954   1.598
 4613SOL    HW114738   3.398   4.971   1.678
 4613SOL    HW214739   3.324   5.041   1.550
 4614SOL     OW14740   2.406   5.016   0.075
 4614SOL    HW114741   2.457   5.008   0.160
 4614SOL    HW214742   2.312   5.044   0.095
 4615SOL     OW14743   6.853   3.253   0.423
 4615SOL    HW114744   6.785   3.184   0.447
 4615SOL    HW214745   6.833   3.290   0.332
 4616SOL     OW14746   5.845   0.319   0.561
 4616SOL    HW114747   5.882   0.250   0.499
 4616SOL    HW214748   5.914   0.390   0.576
 4617SOL     OW14749   0.220   3.870   2.051
 4617SOL    HW114750   0.164   3.793   2.019
 4617SOL    HW214751   0.223   3.870   2.151
 4618SOL     OW14752   0.656   3.022   6.197
 4618SOL    HW114753   0.628   3.100   6.142
 4618SOL    HW214754   0.590   2.948   6.186
 4619SOL     OW14755   3.559   0.427   3.667
 4619SOL    HW114756   3.508   0.353   3.711
 4619SOL    HW214757   3.621   0.389   3.599
 4620SOL     OW14758   2.463   5.538   6.155
 4620SOL    HW114759   2.561   5.527   6.140
 4620SOL    HW214760   2.413   5.507   6.074
 4621SOL     OW14761   0.252   0.126   6.330
 4621SOL    HW114762   0.263   0.087   6.421
 4621SOL    HW214763   0.318   0.201   6.318
 4622SOL     OW14764   2.205   3.298   1.065
 4622SOL    HW114765   2.248   3.318   1.153
 4622SOL    HW214766   2.263   3.331   0.991
 4623SOL     OW14767   5.604   4.995   2.508
 4623SOL    HW114768   5.536   5.024   2.440
 4623SOL    HW214769   5.644   4.908   2.480
 4624SOL     OW14770   4.709   0.112   5.486
 4624SOL    HW114771   4.699   0.018   5.518
 4624SOL    HW214772   4.658   0.125   5.401
 4625SOL     OW14773   1.490   3.914   6.170
 4625SOL    HW114774   1.488   3.848   6.246
 4625SOL    HW214775   1.524   3.869   6.088
 4626SOL     OW14776   5.689   5.524   2.142
 4626SOL    HW114777   5.633   5.564   2.069
 4626SOL    HW214778   5.633   5.512   2.223
 4627SOL     OW14779   1.829   0.154   5.549
 4627SOL    HW114780   1.807   0.096   5.628
 4627SOL    HW214781   1.778   0.121   5.469
 4628SOL     OW14782   0.145   2.901   1.970
 4628SOL    HW114783   0.127   2.841   1.892
 4628SOL    HW214784   0.065   2.958   1.988
 4629SOL     OW14785   4.155   4.777   4.564
 4629SOL    HW114786   4.111   4.743   4.647
 4629SOL    HW214787   4.255   4.773   4.574
 4630SOL     OW14788   1.478   6.830   2.503
 4630SOL    HW114789   1.554   6.893   2.491
 4630SOL    HW214790   1.513   6.740   2.531
 4631SOL     OW14791   2.085   0.581   2.865
 4631SOL    HW114792   2.024   0.609   2.938
 4631SOL    HW214793   2.154   0.652   2.850
 4632SOL     OW14794   6.020   5.761   4.192
 4632SOL    HW114795   6.077   5.824   4.244
 4632SOL    HW214796   5.962   5.709   4.255
 4633SOL     OW14797   5.395   2.520   5.569
 4633SOL    HW114798   5.312   2.498   5.518
 4633SOL    HW214799   5.373   2.532   5.665
 4634SOL     OW14800   3.532   4.826   0.720
 4634SOL    HW114801   3.573   4.858   0.635
 4634SOL    HW214802   3.436   4.803   0.704
 4635SOL     OW14803   5.202   3.441   1.586
 4635SOL    HW114804   5.253   3.515   1.629
 4635SOL    HW214805   5.228   3.353   1.627
 4636SOL     OW14806   0.864   5.786   1.585
 4636SOL    HW114807   0.802   5.864   1.578
 4636SOL    HW214808   0.883   5.751   1.493
 4637SOL     OW14809   1.401   0.667   4.455
 4637SOL    HW114810   1.423   0.576   4.490
 4637SOL    HW214811   1.459   0.688   4.377
 4638SOL     OW14812   4.502   4.469   6.293
 4638SOL    HW114813   4.447   4.389   6.265
 4638SOL    HW214814   4.517   4.528   6.213
 4639SOL     OW14815   0.171   2.441   4.939
 4639SOL    HW114816   0.087   2.488   4.965
 4639SOL    HW214817   0.162   2.403   4.847
 4640SOL     OW14818   6.298   4.573   2.551
 4640SOL    HW114819   6.323   4.502   2.616
 4640SOL    HW214820   6.295   4.661   2.598
 4641SOL     OW14821   2.893   3.737   5.476
 4641SOL    HW114822   2.896   3.826   5.521
 4641SOL    HW214823   2.905   3.749   5.377
 4642SOL     OW14824   6.750   6.044   3.873
 4642SOL    HW114825   6.760   5.952   3.833
 4642SOL    HW214826   6.792   6.111   3.812
 4643SOL     OW14827   3.889   2.849   0.747
 4643SOL    HW114828   3.809   2.890   0.704
 4643SOL    HW214829   3.949   2.921   0.783
 4644SOL     OW14830   3.295   4.824   5.182
 4644SOL    HW114831   3.328   4.733   5.205
 4644SOL    HW214832   3.204   4.817   5.141
 4645SOL     OW14833   1.653   6.295   4.809
 4645SOL    HW114834   1.650   6.384   4.763
 4645SOL    HW214835   1.672   6.308   4.906
 4646SOL     OW14836   3.614   0.690   1.438
 4646SOL    HW114837   3.624   0.681   1.537
 4646SOL    HW214838   3.704   0.697   1.396
 4647SOL     OW14839   6.802   0.507   5.275
 4647SOL    HW114840   6.710   0.471   5.285
 4647SOL    HW214841   6.798   0.602   5.244
 4648SOL     OW14842   1.819   5.218   2.670
 4648SOL    HW114843   1.802   5.133   2.621
 4648SOL    HW214844   1.776   5.213   2.761
 4649SOL     OW14845   5.534   6.329   5.863
 4649SOL    HW114846   5.436   6.342   5.879
 4649SOL    HW214847   5.547   6.268   5.785
 4650SOL     OW14848   0.025   4.473   1.583
 4650SOL    HW114849   0.049   4.415   1.505
 4650SOL    HW214850   0.095   4.463   1.654
 4651SOL     OW14851   6.040   2.296   2.270
 4651SOL    HW114852   6.056   2.203   2.304
 4651SOL    HW214853   6.128   2.342   2.257
 4652SOL     OW14854   7.007   6.084   5.606
 4652SOL    HW114855   0.074   6.033   5.609
 4652SOL    HW214856   6.957   6.069   5.691
 4653SOL     OW14857   0.483   5.591   6.780
 4653SOL    HW114858   0.459   5.562   6.687
 4653SOL    HW214859   0.453   5.685   6.795
 4654SOL     OW14860   1.154   1.599   6.294
 4654SOL    HW114861   1.108   1.513   6.273
 4654SOL    HW214862   1.224   1.583   6.363
 4655SOL     OW14863   0.422   5.269   3.441
 4655SOL    HW114864   0.387   5.326   3.366
 4655SOL    HW214865   0.519   5.290   3.456
 4656SOL     OW14866   2.318   6.854   3.163
 4656SOL    HW114867   2.281   6.930   3.217
 4656SOL    HW214868   2.244   6.790   3.142
 4657SOL     OW14869   6.148   0.513   6.558
 4657SOL    HW114870   6.060   0.517   6.606
 4657SOL    HW214871   6.135   0.479   6.465
 4658SOL     OW14872   4.885   0.887   3.657
 4658SOL    HW114873   4.853   0.875   3.751
 4658SOL    HW214874   4.875   0.801   3.607
 4659SOL     OW14875   2.057   2.705   4.482
 4659SOL    HW114876   2.143   2.739   4.518
 4659SOL    HW214877   1.980   2.750   4.528
 4660SOL     OW14878   6.940   1.048   5.629
 4660SOL    HW114879   0.018   1.027   5.617
 4660SOL    HW214880   6.931   1.125   5.693
 4661SOL     OW14881   4.079   3.257   3.595
 4661SOL    HW114882   4.091   3.328   3.664
 4661SOL    HW214883   4.027   3.181   3.634
 4662SOL     OW14884   5.621   0.432   3.689
 4662SOL    HW114885   5.528   0.394   3.692
 4662SOL    HW214886   5.633   0.495   3.765
 4663SOL     OW14887   0.729   1.969   1.799
 4663SOL    HW114888   0.767   2.053   1.761
 4663SOL    HW214889   0.664   1.929   1.735
 4664SOL     OW14890   3.714   3.935   0.265
 4664SOL    HW114891   3.691   3.904   0.357
 4664SOL    HW214892   3.707   3.859   0.201
 4665SOL     OW14893   5.259   0.506   6.728
 4665SOL    HW114894   5.272   0.584   6.667
 4665SOL    HW214895   5.347   0.462   6.745
 4666SOL     OW14896   2.102   1.762   0.228
 4666SOL    HW114897   2.073   1.849   0.188
 4666SOL    HW214898   2.188   1.775   0.278
 4667SOL     OW14899   0.375   5.196   4.608
 4667SOL    HW114900   0.363   5.296   4.603
 4667SOL    HW214901   0.429   5.173   4.688
 4668SOL     OW14902   5.403   1.128   5.438
 4668SOL    HW114903   5.366   1.219   5.454
 4668SOL    HW214904   5.483   1.113   5.496
 4669SOL     OW14905   2.635   0.688   1.303
 4669SOL    HW114906   2.627   0.775   1.351
 4669SOL    HW214907   2.716   0.640   1.334
 4670SOL     OW14908   2.335   1.669   4.634
 4670SOL    HW114909   2.267   1.737   4.607
 4670SOL    HW214910   2.383   1.700   4.716
 4671SOL     OW14911   5.489   2.343   1.304
 4671SOL    HW114912   5.394   2.347   1.272
 4671SOL    HW214913   5.491   2.297   1.393
 4672SOL     OW14914   2.828   2.858   5.531
 4672SOL    HW114915   2.926   2.841   5.537
 4672SOL    HW214916   2.810   2.923   5.456
 4673SOL     OW14917   4.344   0.822   2.661
 4673SOL    HW114918   4.407   0.744   2.652
 4673SOL    HW214919   4.282   0.823   2.583
 4674SOL     OW14920   5.251   6.454   5.102
 4674SOL    HW114921   5.204   6.405   5.028
 4674SOL    HW214922   5.287   6.389   5.168
 4675SOL     OW14923   1.041   4.247   6.354
 4675SOL    HW114924   1.110   4.177   6.339
 4675SOL    HW214925   1.079   4.337   6.330
 4676SOL     OW14926   0.646   4.523   3.947
 4676SOL    HW114927   0.724   4.531   3.885
 4676SOL    HW214928   0.604   4.433   3.937
 4677SOL     OW14929   1.462   3.393   0.710
 4677SOL    HW114930   1.536   3.357   0.653
 4677SOL    HW214931   1.501   3.429   0.795
 4678SOL     OW14932   0.846   4.558   2.173
 4678SOL    HW114933   0.911   4.531   2.244
 4678SOL    HW214934   0.889   4.624   2.112
 4679SOL     OW14935   4.288   6.941   1.814
 4679SOL    HW114936   4.373   6.958   1.765
 4679SOL    HW214937   4.294   6.978   1.907
 4680SOL     OW14938   2.095   0.344   6.690
 4680SOL    HW114939   2.178   0.298   6.657
 4680SOL    HW214940   2.063   0.408   6.620
 4681SOL     OW14941   5.322   5.635   2.294
 4681SOL    HW114942   5.403   5.692   2.302
 4681SOL    HW214943   5.347   5.546   2.256
 4682SOL     OW14944   3.547   3.824   6.268
 4682SOL    HW114945   3.503   3.771   6.195
 4682SOL    HW214946   3.624   3.875   6.230
 4683SOL     OW14947   5.842   4.680   3.563
 4683SOL    HW114948   5.926   4.734   3.573
 4683SOL    HW214949   5.841   4.637   3.473
 4684SOL     OW14950   5.292   6.371   6.428
 4684SOL    HW114951   5.211   6.323   6.462
 4684SOL    HW214952   5.373   6.339   6.477
 4685SOL     OW14953   3.250   3.981   4.247
 4685SOL    HW114954   3.323   4.035   4.287
 4685SOL    HW214955   3.165   3.997   4.298
 4686SOL     OW14956   1.415   6.825   0.057
 4686SOL    HW114957   1.429   6.835   0.156
 4686SOL    HW214958   1.323   6.790   0.041
 4687SOL     OW14959   2.412   0.308   2.898
 4687SOL    HW114960   2.494   0.348   2.856
 4687SOL    HW214961   2.386   0.226   2.848
 4688SOL     OW14962   5.190   2.318   5.985
 4688SOL    HW114963   5.197   2.314   6.084
 4688SOL    HW214964   5.124   2.250   5.953
 4689SOL     OW14965   6.669   1.131   1.615
 4689SOL    HW114966   6.659   1.076   1.697
 4689SOL    HW214967   6.732   1.207   1.633
 4690SOL     OW14968   2.639   2.327   0.978
 4690SOL    HW114969   2.676   2.281   1.059
 4690SOL    HW214970   2.706   2.391   0.942
 4691SOL     OW14971   6.431   3.887   2.105
 4691SOL    HW114972   6.409   3.823   2.031
 4691SOL    HW214973   6.377   3.970   2.094
 4692SOL     OW14974   5.198   2.984   2.786
 4692SOL    HW114975   5.189   2.885   2.793
 4692SOL    HW214976   5.188   3.011   2.690
 4693SOL     OW14977   1.061   0.871   2.502
 4693SOL    HW114978   1.108   0.797   2.550
 4693SOL    HW214979   1.128   0.937   2.468
 4694SOL     OW14980   2.211   0.257   6.366
 4694SOL    HW114981   2.276   0.239   6.439
 4694SOL    HW214982   2.120   0.225   6.394
 4695SOL     OW14983   2.434   5.184   2.808
 4695SOL    HW114984   2.430   5.186   2.908
 4695SOL    HW214985   2.520   5.143   2.779
 4696SOL     OW14986   1.290   6.181   6.172
 4696SOL    HW114987   1.287   6.082   6.189
 4696SOL    HW214988   1.257   6.200   6.080
 4697SOL     OW14989   4.308   5.735   1.275
 4697SOL    HW114990   4.327   5.656   1.216
 4697SOL    HW214991   4.394   5.771   1.312
 4698SOL     OW14992   5.762   1.162   4.782
 4698SOL    HW114993   5.711   1.150   4.867
 4698SOL    HW214994   5.832   1.091   4.774
 4699SOL     OW14995   1.864   0.700   2.980
 4699SOL    HW114996   1.807   0.664   2.907
 4699SOL    HW214997   1.810   0.706   3.064
 4700SOL     OW14998   6.120   1.782   2.707
 4700SOL    HW114999   6.032   1.737   2.726
 4700SOL    HW215000   6.174   1.725   2.645
 4701SOL     OW15001   3.104   2.493   1.662
 4701SOL    HW115002   3.073   2.427   1.730
 4701SOL    HW215003   3.183   2.542   1.697
 4702SOL     OW15004   5.766   5.265   6.574
 4702SOL    HW115005   5.711   5.346   6.551
 4702SOL    HW215006   5.765   5.251   6.673
 4703SOL     OW15007   0.837   4.790   3.039
 4703SOL    HW115008   0.794   4.877   3.016
 4703SOL    HW215009   0.820   4.724   2.965
 4704SOL     OW15010   1.098   5.062   4.221
 4704SOL    HW115011   1.040   5.041   4.141
 4704SOL    HW215012   1.152   4.981   4.244
 4705SOL     OW15013   3.657   1.818   1.658
 4705SOL    HW115014   3.709   1.875   1.721
 4705SOL    HW215015   3.559   1.838   1.668
 4706SOL     OW15016   2.416   0.591   1.429
 4706SOL    HW115017   2.335   0.647   1.413
 4706SOL    HW215018   2.490   0.620   1.369
 4707SOL     OW15019   1.585   5.201   2.346
 4707SOL    HW115020   1.676   5.229   2.313
 4707SOL    HW215021   1.585   5.103   2.366
 4708SOL     OW15022   1.612   2.790   5.053
 4708SOL    HW115023   1.656   2.839   4.978
 4708SOL    HW215024   1.658   2.703   5.068
 4709SOL     OW15025   5.703   4.438   5.729
 4709SOL    HW115026   5.751   4.526   5.725
 4709SOL    HW215027   5.605   4.454   5.740
 4710SOL     OW15028   5.812   5.992   5.120
 4710SOL    HW115029   5.765   5.927   5.061
 4710SOL    HW215030   5.884   6.039   5.069
 4711SOL     OW15031   4.855   4.486   2.262
 4711SOL    HW115032   4.812   4.403   2.228
 4711SOL    HW215033   4.943   4.500   2.216
 4712SOL     OW15034   4.693   3.930   5.767
 4712SOL    HW115035   4.675   4.028   5.760
 4712SOL    HW215036   4.618   3.886   5.816
 4713SOL     OW15037   5.388   4.136   0.998
 4713SOL    HW115038   5.374   4.196   0.919
 4713SOL    HW215039   5.392   4.191   1.081
 4714SOL     OW15040   4.335   2.439   6.588
 4714SOL    HW115041   4.375   2.386   6.512
 4714SOL    HW215042   4.274   2.509   6.551
 4715SOL     OW15043   6.541   1.393   1.483
 4715SOL    HW115044   6.478   1.469   1.496
 4715SOL    HW215045   6.528   1.327   1.557
 4716SOL     OW15046   3.709   4.684   5.888
 4716SOL    HW115047   3.686   4.601   5.837
 4716SOL    HW215048   3.647   4.757   5.863
 4717SOL     OW15049   2.079   4.695   5.560
 4717SOL    HW115050   2.071   4.598   5.585
 4717SOL    HW215051   1.988   4.734   5.549
 4718SOL     OW15052   4.836   4.731   1.154
 4718SOL    HW115053   4.756   4.673   1.142
 4718SOL    HW215054   4.907   4.681   1.204
 4719SOL     OW15055   6.675   4.269   3.977
 4719SOL    HW115056   6.722   4.212   4.044
 4719SOL    HW215057   6.720   4.261   3.889
 4720SOL     OW15058   2.320   3.426   6.873
 4720SOL    HW115059   2.405   3.383   6.844
 4720SOL    HW215060   2.252   3.356   6.896
 4721SOL     OW15061   0.442   2.565   3.450
 4721SOL    HW115062   0.455   2.636   3.380
 4721SOL    HW215063   0.354   2.520   3.435
 4722SOL     OW15064   0.704   5.764   6.705
 4722SOL    HW115065   0.609   5.786   6.682
 4722SOL    HW215066   0.708   5.675   6.749
 4723SOL     OW15067   3.207   4.651   6.753
 4723SOL    HW115068   3.111   4.622   6.753
 4723SOL    HW215069   3.224   4.709   6.674
 4724SOL     OW15070   0.737   0.098   4.438
 4724SOL    HW115071   0.734   0.116   4.536
 4724SOL    HW215072   0.822   0.050   4.416
 4725SOL     OW15073   5.784   5.527   1.291
 4725SOL    HW115074   5.822   5.521   1.199
 4725SOL    HW215075   5.704   5.468   1.299
 4726SOL     OW15076   2.061   2.822   5.639
 4726SOL    HW115077   2.119   2.800   5.718
 4726SOL    HW215078   2.083   2.913   5.606
 4727SOL     OW15079   6.815   4.381   1.237
 4727SOL    HW115080   6.773   4.445   1.173
 4727SOL    HW215081   6.744   4.342   1.296
 4728SOL     OW15082   5.857   2.039   4.540
 4728SOL    HW115083   5.943   2.085   4.563
 4728SOL    HW215084   5.787   2.108   4.521
 4729SOL     OW15085   5.660   1.417   1.861
 4729SOL    HW115086   5.639   1.514   1.868
 4729SOL    HW215087   5.710   1.388   1.943
 4730SOL     OW15088   3.734   0.361   3.480
 4730SOL    HW115089   3.777   0.450   3.466
 4730SOL    HW215090   3.791   0.305   3.540
 4731SOL     OW15091   2.840   6.605   0.957
 4731SOL    HW115092   2.758   6.549   0.971
 4731SOL    HW215093   2.813   6.697   0.927
 4732SOL     OW15094   0.285   4.916   5.068
 4732SOL    HW115095   0.314   4.835   5.120
 4732SOL    HW215096   0.234   4.977   5.129
 4733SOL     OW15097   1.798   4.126   2.764
 4733SOL    HW115098   1.843   4.138   2.676
 4733SOL    HW215099   1.718   4.068   2.754
 4734SOL     OW15100   4.693   4.169   0.020
 4734SOL    HW115101   4.656   4.194   6.950
 4734SOL    HW215102   4.760   4.237   0.049
 4735SOL     OW15103   0.685   0.323   4.976
 4735SOL    HW115104   0.726   0.280   4.895
 4735SOL    HW215105   0.586   0.324   4.967
 4736SOL     OW15106   6.691   1.647   4.004
 4736SOL    HW115107   6.714   1.617   4.097
 4736SOL    HW215108   6.624   1.584   3.965
 4737SOL     OW15109   1.854   4.863   6.758
 4737SOL    HW115110   1.862   4.843   6.855
 4737SOL    HW215111   1.778   4.926   6.743
 4738SOL     OW15112   0.863   5.472   3.832
 4738SOL    HW115113   0.837   5.568   3.821
 4738SOL    HW215114   0.868   5.449   3.929
 4739SOL     OW15115   5.919   3.323   2.962
 4739SOL    HW115116   5.839   3.378   2.938
 4739SOL    HW215117   5.908   3.231   2.924
 4740SOL     OW15118   1.350   0.270   0.658
 4740SOL    HW115119   1.267   0.249   0.710
 4740SOL    HW215120   1.330   0.270   0.560
 4741SOL     OW15121   5.539   4.624   1.185
 4741SOL    HW115122   5.600   4.699   1.161
 4741SOL    HW215123   5.480   4.652   1.261
 4742SOL     OW15124   2.459   5.587   2.224
 4742SOL    HW115125   2.539   5.646   2.224
 4742SOL    HW215126   2.471   5.515   2.292
 4743SOL     OW15127   2.613   3.639   0.598
 4743SOL    HW115128   2.562   3.618   0.514
 4743SOL    HW215129   2.709   3.656   0.575
 4744SOL     OW15130   2.531   2.043   5.212
 4744SOL    HW115131   2.455   2.014   5.269
 4744SOL    HW215132   2.505   2.034   5.116
 4745SOL     OW15133   4.181   4.918   5.207
 4745SOL    HW115134   4.215   5.012   5.199
 4745SOL    HW215135   4.252   4.855   5.176
 4746SOL     OW15136   5.848   1.160   1.453
 4746SOL    HW115137   5.941   1.167   1.489
 4746SOL    HW215138   5.792   1.233   1.492
 4747SOL     OW15139   0.512   2.868   1.914
 4747SOL    HW115140   0.472   2.784   1.949
 4747SOL    HW215141   0.456   2.904   1.839
 4748SOL     OW15142   1.702   0.624   1.018
 4748SOL    HW115143   1.798   0.645   1.000
 4748SOL    HW215144   1.651   0.626   0.932
 4749SOL     OW15145   2.845   6.945   6.245
 4749SOL    HW115146   2.910   6.965   6.318
 4749SOL    HW215147   2.799   0.009   6.217
 4750SOL     OW15148   0.904   1.555   4.578
 4750SOL    HW115149   0.940   1.648   4.583
 4750SOL    HW215150   0.969   1.492   4.620
 4751SOL     OW15151   1.137   3.912   5.440
 4751SOL    HW115152   1.084   3.996   5.429
 4751SOL    HW215153   1.090   3.850   5.502
 4752SOL     OW15154   1.794   6.073   1.241
 4752SOL    HW115155   1.780   5.979   1.273
 4752SOL    HW215156   1.872   6.076   1.179
 4753SOL     OW15157   0.531   6.419   5.825
 4753SOL    HW115158   0.516   6.489   5.895
 4753SOL    HW215159   0.485   6.446   5.740
 4754SOL     OW15160   1.115   1.277   6.577
 4754SOL    HW115161   1.083   1.204   6.637
 4754SOL    HW215162   1.097   1.365   6.619
 4755SOL     OW15163   2.817   0.482   1.418
 4755SOL    HW115164   2.887   0.508   1.351
 4755SOL    HW215165   2.855   0.491   1.510
 4756SOL     OW15166   5.007   2.979   1.614
 4756SOL    HW115167   4.939   2.910   1.590
 4756SOL    HW215168   5.039   2.962   1.707
 4757SOL     OW15169   2.411   1.557   1.362
 4757SOL    HW115170   2.505   1.543   1.333
 4757SOL    HW215171   2.408   1.618   1.441
 4758SOL     OW15172   5.524   3.790   5.640
 4758SOL    HW115173   5.527   3.889   5.627
 4758SOL    HW215174   5.501   3.769   5.735
 4759SOL     OW15175   6.140   4.048   6.312
 4759SOL    HW115176   6.194   3.971   6.279
 4759SOL    HW215177   6.060   4.014   6.363
 4760SOL     OW15178   1.769   3.035   0.434
 4760SOL    HW115179   1.700   2.963   0.428
 4760SOL    HW215180   1.819   3.025   0.520
 4761SOL     OW15181   1.459   5.755   5.745
 4761SOL    HW115182   1.378   5.798   5.706
 4761SOL    HW215183   1.500   5.816   5.813
 4762SOL     OW15184   3.991   6.912   2.414
 4762SOL    HW115185   3.938   6.827   2.410
 4762SOL    HW215186   4.083   6.896   2.380
 4763SOL     OW15187   5.822   5.239   4.937
 4763SOL    HW115188   5.841   5.171   4.866
 4763SOL    HW215189   5.747   5.298   4.907
 4764SOL     OW15190   3.778   3.808   4.286
 4764SOL    HW115191   3.803   3.781   4.379
 4764SOL    HW215192   3.806   3.902   4.270
 4765SOL     OW15193   6.898   4.898   5.680
 4765SOL    HW115194   6.813   4.872   5.634
 4765SOL    HW215195   6.878   4.916   5.777
 4766SOL     OW15196   3.554   0.559   3.355
 4766SOL    HW115197   3.586   0.579   3.448
 4766SOL    HW215198   3.583   0.467   3.329
 4767SOL     OW15199   3.948   6.496   6.771
 4767SOL    HW115200   3.881   6.422   6.756
 4767SOL    HW215201   3.920   6.577   6.720
 4768SOL     OW15202   1.079   0.906   5.191
 4768SOL    HW115203   1.051   0.979   5.253
 4768SOL    HW215204   1.015   0.829   5.199
 4769SOL     OW15205   3.488   0.971   1.543
 4769SOL    HW115206   3.558   0.904   1.522
 4769SOL    HW215207   3.528   1.063   1.544
 4770SOL     OW15208   2.051   0.397   3.978
 4770SOL    HW115209   2.022   0.483   3.937
 4770SOL    HW215210   1.985   0.368   4.046
 4771SOL     OW15211   4.109   4.391   5.348
 4771SOL    HW115212   4.173   4.394   5.272
 4771SOL    HW215213   4.119   4.303   5.396
 4772SOL     OW15214   2.116   3.255   6.921
 4772SOL    HW115215   2.125   3.230   7.018
 4772SOL    HW215216   2.089   3.174   6.868
 4773SOL     OW15217   0.234   5.182   4.064
 4773SOL    HW115218   0.274   5.219   3.980
 4773SOL    HW215219   0.159   5.120   4.041
 4774SOL     OW15220   1.822   4.385   6.648
 4774SOL    HW115221   1.724   4.393   6.635
 4774SOL    HW215222   1.858   4.313   6.588
 4775SOL     OW15223   2.084   1.688   2.568
 4775SOL    HW115224   2.110   1.716   2.475
 4775SOL    HW215225   2.151   1.622   2.602
 4776SOL     OW15226   4.255   4.604   2.093
 4776SOL    HW115227   4.222   4.698   2.096
 4776SOL    HW215228   4.182   4.542   2.123
 4777SOL     OW15229   2.911   3.931   1.458
 4777SOL    HW115230   2.974   3.906   1.384
 4777SOL    HW215231   2.834   3.982   1.420
 4778SOL     OW15232   5.181   3.934   2.981
 4778SOL    HW115233   5.101   3.940   3.041
 4778SOL    HW215234   5.194   3.839   2.952
 4779SOL     OW15235   5.099   0.833   2.758
 4779SOL    HW115236   5.182   0.885   2.740
 4779SOL    HW215237   5.070   0.847   2.853
 4780SOL     OW15238   1.603   0.101   5.344
 4780SOL    HW115239   1.590   0.198   5.366
 4780SOL    HW215240   1.546   0.077   5.265
 4781SOL     OW15241   2.738   5.859   3.042
 4781SOL    HW115242   2.659   5.833   3.098
 4781SOL    HW215243   2.822   5.838   3.091
 4782SOL     OW15244   5.837   5.658   0.307
 4782SOL    HW115245   5.934   5.681   0.297
 4782SOL    HW215246   5.784   5.742   0.316
 4783SOL     OW15247   6.246   3.974   2.379
 4783SOL    HW115248   6.270   4.021   2.294
 4783SOL    HW215249   6.211   4.041   2.445
 4784SOL     OW15250   5.656   4.271   5.020
 4784SOL    HW115251   5.698   4.268   5.110
 4784SOL    HW215252   5.569   4.320   5.026
 4785SOL     OW15253   5.954   6.638   0.595
 4785SOL    HW115254   5.861   6.664   0.571
 4785SOL    HW215255   6.012   6.640   0.514
 4786SOL     OW15256   1.414   2.892   2.153
 4786SOL    HW115257   1.453   2.937   2.073
 4786SOL    HW215258   1.331   2.843   2.127
 4787SOL     OW15259   4.436   2.359   2.906
 4787SOL    HW115260   4.497   2.280   2.902
 4787SOL    HW215261   4.352   2.334   2.954
 4788SOL     OW15262   1.922   6.547   5.289
 4788SOL    HW115263   1.985   6.521   5.362
 4788SOL    HW215264   1.952   6.506   5.203
 4789SOL     OW15265   5.709   6.736   0.440
 4789SOL    HW115266   5.659   6.667   0.492
 4789SOL    HW215267   5.646   6.785   0.380
 4790SOL     OW15268   5.424   0.356   6.425
 4790SOL    HW115269   5.490   0.390   6.492
 4790SOL    HW215270   5.422   0.256   6.429
 4791SOL     OW15271   4.578   1.650   3.150
 4791SOL    HW115272   4.588   1.563   3.101
 4791SOL    HW215273   4.631   1.721   3.104
 4792SOL     OW15274   3.217   2.545   1.204
 4792SOL    HW115275   3.143   2.573   1.264
 4792SOL    HW215276   3.265   2.626   1.169
 4793SOL     OW15277   0.757   0.567   6.781
 4793SOL    HW115278   0.662   0.563   6.809
 4793SOL    HW215279   0.771   0.646   6.721
 4794SOL     OW15280   4.658   1.165   1.725
 4794SOL    HW115281   4.679   1.254   1.765
 4794SOL    HW215282   4.593   1.177   1.650
 4795SOL     OW15283   5.713   3.045   4.320
 4795SOL    HW115284   5.639   2.978   4.326
 4795SOL    HW215285   5.733   3.081   4.411
 4796SOL     OW15286   5.765   3.765   0.748
 4796SOL    HW115287   5.740   3.838   0.813
 4796SOL    HW215288   5.862   3.775   0.723
 4797SOL     OW15289   0.428   4.918   4.805
 4797SOL    HW115290   0.464   5.005   4.839
 4797SOL    HW215291   0.362   4.881   4.870
 4798SOL     OW15292   6.927   4.546   5.608
 4798SOL    HW115293   6.935   4.506   5.699
 4798SOL    HW215294   6.837   4.588   5.597
 4799SOL     OW15295   4.147   1.136   4.982
 4799SOL    HW115296   4.219   1.149   5.050
 4799SOL    HW215297   4.063   1.182   5.012
 4800SOL     OW15298   1.931   2.198   3.641
 4800SOL    HW115299   2.006   2.138   3.612
 4800SOL    HW215300   1.844   2.158   3.614
 4801SOL     OW15301   0.917   2.796   0.692
 4801SOL    HW115302   0.922   2.839   0.601
 4801SOL    HW215303   0.838   2.833   0.741
 4802SOL     OW15304   1.918   0.304   1.726
 4802SOL    HW115305   1.997   0.357   1.695
 4802SOL    HW215306   1.945   0.246   1.803
 4803SOL     OW15307   0.627   0.250   1.101
 4803SOL    HW115308   0.659   0.321   1.164
 4803SOL    HW215309   0.529   0.260   1.085
 4804SOL     OW15310   3.913   5.364   0.108
 4804SOL    HW115311   3.935   5.461   0.122
 4804SOL    HW215312   3.893   5.321   0.197
 4805SOL     OW15313   0.273   0.937   1.046
 4805SOL    HW115314   0.220   0.985   0.976
 4805SOL    HW215315   0.339   1.000   1.087
 4806SOL     OW15316   0.055   2.705   3.333
 4806SOL    HW115317   0.076   2.624   3.388
 4806SOL    HW215318   0.123   2.776   3.350
 4807SOL     OW15319   0.500   6.273   1.837
 4807SOL    HW115320   0.596   6.300   1.833
 4807SOL    HW215321   0.450   6.336   1.897
 4808SOL     OW15322   5.293   2.869   0.824
 4808SOL    HW115323   5.349   2.787   0.840
 4808SOL    HW215324   5.292   2.890   0.726
 4809SOL     OW15325   4.136   6.727   6.649
 4809SOL    HW115326   4.227   6.694   6.674
 4809SOL    HW215327   4.098   6.780   6.725
 4810SOL     OW15328   1.161   0.428   0.984
 4810SOL    HW115329   1.067   0.463   0.977
 4810SOL    HW215330   1.158   0.329   0.998
 4811SOL     OW15331   5.283   5.293   2.985
 4811SOL    HW115332   5.308   5.275   3.080
 4811SOL    HW215333   5.359   5.337   2.938
 4812SOL     OW15334   6.551   5.150   4.186
 4812SOL    HW115335   6.634   5.124   4.236
 4812SOL    HW215336   6.572   5.225   4.124
 4813SOL     OW15337   5.670   3.434   2.903
 4813SOL    HW115338   5.646   3.518   2.854
 4813SOL    HW215339   5.614   3.358   2.870
 4814SOL     OW15340   6.266   3.663   1.544
 4814SOL    HW115341   6.272   3.577   1.595
 4814SOL    HW215342   6.317   3.734   1.592
 4815SOL     OW15343   4.341   0.305   3.058
 4815SOL    HW115344   4.327   0.247   3.138
 4815SOL    HW215345   4.401   0.258   2.993
 4816SOL     OW15346   5.242   4.568   3.173
 4816SOL    HW115347   5.216   4.471   3.166
 4816SOL    HW215348   5.165   4.620   3.211
 4817SOL     OW15349   7.011   1.438   0.076
 4817SOL    HW115350   6.967   1.489   0.002
 4817SOL    HW215351   6.945   1.420   0.148
 4818SOL     OW15352   0.793   6.033   3.671
 4818SOL    HW115353   0.813   6.097   3.745
 4818SOL    HW215354   0.711   5.981   3.693
 4819SOL     OW15355   1.953   3.358   0.940
 4819SOL    HW115356   2.041   3.331   0.980
 4819SOL    HW215357   1.914   3.432   0.995
 4820SOL     OW15358   0.352   2.958   2.825
 4820SOL    HW115359   0.379   2.990   2.916
 4820SOL    HW215360   0.301   3.030   2.778
 4821SOL     OW15361   0.636   5.464   3.684
 4821SOL    HW115362   0.703   5.490   3.753
 4821SOL    HW215363   0.648   5.368   3.659
 4822SOL     OW15364   2.441   4.429   4.354
 4822SOL    HW115365   2.390   4.366   4.412
 4822SOL    HW215366   2.484   4.500   4.410
 4823SOL     OW15367   1.785   3.098   1.063
 4823SOL    HW115368   1.789   3.197   1.046
 4823SOL    HW215369   1.765   3.050   0.978
 4824SOL     OW15370   5.983   1.286   0.059
 4824SOL    HW115371   5.989   1.212   7.012
 4824SOL    HW215372   6.008   1.252   0.150
 4825SOL     OW15373   1.537   6.936   3.596
 4825SOL    HW115374   1.598   7.014   3.580
 4825SOL    HW215375   1.570   6.882   3.673
 4826SOL     OW15376   3.601   6.264   1.020
 4826SOL    HW115377   3.513   6.269   0.973
 4826SOL    HW215378   3.632   6.168   1.023
 4827SOL     OW15379   6.780   1.547   1.439
 4827SOL    HW115380   6.781   1.472   1.372
 4827SOL    HW215381   6.732   1.517   1.521
 4828SOL     OW15382   5.171   1.519   5.738
 4828SOL    HW115383   5.119   1.601   5.761
 4828SOL    HW215384   5.194   1.470   5.823
 4829SOL     OW15385   4.211   6.301   5.404
 4829SOL    HW115386   4.172   6.375   5.349
 4829SOL    HW215387   4.171   6.214   5.375
 4830SOL     OW15388   1.909   6.524   3.564
 4830SOL    HW115389   1.938   6.550   3.656
 4830SOL    HW215390   1.971   6.454   3.529
 4831SOL     OW15391   3.089   4.752   5.436
 4831SOL    HW115392   3.103   4.657   5.408
 4831SOL    HW215393   3.110   4.761   5.534
 4832SOL     OW15394   4.164   3.402   4.511
 4832SOL    HW115395   4.155   3.501   4.508
 4832SOL    HW215396   4.164   3.365   4.418
 4833SOL     OW15397   6.276   2.353   5.541
 4833SOL    HW115398   6.354   2.330   5.482
 4833SOL    HW215399   6.193   2.311   5.504
 4834SOL     OW15400   1.149   5.316   1.714
 4834SOL    HW115401   1.218   5.296   1.644
 4834SOL    HW215402   1.058   5.318   1.671
 4835SOL     OW15403   0.284   3.252   6.580
 4835SOL    HW115404   0.359   3.257   6.646
 4835SOL    HW215405   0.230   3.169   6.597
 4836SOL     OW15406   4.206   2.002   5.711
 4836SOL    HW115407   4.238   2.050   5.630
 4836SOL    HW215408   4.198   1.904   5.691
 4837SOL     OW15409   1.111   3.536   4.333
 4837SOL    HW115410   1.156   3.605   4.390
 4837SOL    HW215411   1.180   3.488   4.279
 4838SOL     OW15412   1.810   3.919   6.103
 4838SOL    HW115413   1.833   3.824   6.121
 4838SOL    HW215414   1.763   3.958   6.182
 4839SOL     OW15415   2.827   0.960   1.049
 4839SOL    HW115416   2.841   1.036   0.985
 4839SOL    HW215417   2.729   0.943   1.060
 4840SOL     OW15418   5.092   3.275   5.216
 4840SOL    HW115419   5.082   3.210   5.141
 4840SOL    HW215420   5.033   3.354   5.199
 4841SOL     OW15421   2.818   6.756   3.076
 4841SOL    HW115422   2.867   6.836   3.110
 4841SOL    HW215423   2.839   6.742   2.979
 4842SOL     OW15424   3.621   5.667   3.354
 4842SOL    HW115425   3.590   5.607   3.280
 4842SOL    HW215426   3.631   5.760   3.319
 4843SOL     OW15427   6.205   1.272   0.686
 4843SOL    HW115428   6.167   1.180   0.697
 4843SOL    HW215429   6.215   1.315   0.775
 4844SOL     OW15430   1.238   5.637   6.548
 4844SOL    HW115431   1.157   5.642   6.489
 4844SOL    HW215432   1.212   5.662   6.641
 4845SOL     OW15433   4.847   3.888   5.150
 4845SOL    HW115434   4.843   3.956   5.077
 4845SOL    HW215435   4.842   3.796   5.111
 4846SOL     OW15436   6.506   3.536   4.892
 4846SOL    HW115437   6.425   3.488   4.857
 4846SOL    HW215438   6.575   3.542   4.820
 4847SOL     OW15439   2.763   0.044   6.956
 4847SOL    HW115440   2.802   0.133   6.934
 4847SOL    HW215441   2.834   6.993   6.950
 4848SOL     OW15442   4.601   1.744   3.533
 4848SOL    HW115443   4.637   1.766   3.442
 4848SOL    HW215444   4.551   1.657   3.529
 4849SOL     OW15445   2.204   6.641   1.703
 4849SOL    HW115446   2.238   6.682   1.788
 4849SOL    HW215447   2.238   6.694   1.625
 4850SOL     OW15448   3.444   6.503   1.846
 4850SOL    HW115449   3.412   6.410   1.859
 4850SOL    HW215450   3.371   6.558   1.805
 4851SOL     OW15451   4.096   4.537   6.986
 4851SOL    HW115452   4.139   4.566   0.052
 4851SOL    HW215453   3.997   4.534   6.997
 4852SOL     OW15454   5.039   5.020   5.906
 4852SOL    HW115455   5.048   5.026   5.807
 4852SOL    HW215456   4.944   4.998   5.929
 4853SOL     OW15457   4.050   0.470   2.908
 4853SOL    HW115458   4.117   0.487   2.836
 4853SOL    HW215459   4.074   0.386   2.957
 4854SOL     OW15460   4.596   6.683   2.605
 4854SOL    HW115461   4.640   6.766   2.572
 4854SOL    HW215462   4.648   6.603   2.575
 4855SOL     OW15463   4.950   5.379   5.536
 4855SOL    HW115464   4.909   5.352   5.624
 4855SOL    HW215465   4.911   5.322   5.463
 4856SOL     OW15466   0.101   3.117   3.125
 4856SOL    HW115467   0.067   3.052   3.057
 4856SOL    HW215468   0.062   3.095   3.214
 4857SOL     OW15469   2.107   2.643   4.831
 4857SOL    HW115470   2.138   2.549   4.816
 4857SOL    HW215471   2.015   2.654   4.793
 4858SOL     OW15472   1.306   5.952   4.792
 4858SOL    HW115473   1.405   5.941   4.781
 4858SOL    HW215474   1.285   6.048   4.813
 4859SOL     OW15475   6.792   5.935   3.443
 4859SOL    HW115476   6.721   5.934   3.514
 4859SOL    HW215477   6.882   5.925   3.485
 4860SOL     OW15478   3.484   5.616   1.798
 4860SOL    HW115479   3.500   5.523   1.765
 4860SOL    HW215480   3.477   5.616   1.897
 4861SOL     OW15481   0.205   4.473   5.638
 4861SOL    HW115482   0.182   4.559   5.684
 4861SOL    HW215483   0.254   4.413   5.702
 4862SOL     OW15484   1.938   6.214   4.448
 4862SOL    HW115485   1.989   6.129   4.444
 4862SOL    HW215486   1.855   6.200   4.503
 4863SOL     OW15487   5.666   1.710   1.843
 4863SOL    HW115488   5.615   1.693   1.758
 4863SOL    HW215489   5.684   1.808   1.852
 4864SOL     OW15490   2.262   2.201   1.299
 4864SOL    HW115491   2.267   2.117   1.244
 4864SOL    HW215492   2.330   2.266   1.266
 4865SOL     OW15493   3.880   6.528   4.811
 4865SOL    HW115494   3.884   6.431   4.787
 4865SOL    HW215495   3.934   6.543   4.894
 4866SOL     OW15496   0.577   5.499   1.650
 4866SOL    HW115497   0.502   5.445   1.611
 4866SOL    HW215498   0.644   5.520   1.579
 4867SOL     OW15499   5.463   4.912   4.921
 4867SOL    HW115500   5.477   4.905   5.020
 4867SOL    HW215501   5.497   4.829   4.877
 4868SOL     OW15502   1.594   5.495   1.882
 4868SOL    HW115503   1.655   5.571   1.861
 4868SOL    HW215504   1.499   5.529   1.887
 4869SOL     OW15505   6.622   1.158   2.052
 4869SOL    HW115506   6.546   1.202   2.098
 4869SOL    HW215507   6.690   1.129   2.119
 4870SOL     OW15508   5.900   0.910   1.014
 4870SOL    HW115509   5.991   0.944   0.990
 4870SOL    HW215510   5.867   0.958   1.095
 4871SOL     OW15511   1.588   3.634   4.542
 4871SOL    HW115512   1.557   3.693   4.467
 4871SOL    HW215513   1.612   3.691   4.621
 4872SOL     OW15514   1.306   1.457   4.035
 4872SOL    HW115515   1.365   1.478   3.956
 4872SOL    HW215516   1.358   1.471   4.119
 4873SOL     OW15517   1.249   6.551   5.221
 4873SOL    HW115518   1.344   6.571   5.196
 4873SOL    HW215519   1.241   6.552   5.321
 4874SOL     OW15520   6.196   2.583   3.027
 4874SOL    HW115521   6.293   2.608   3.023
 4874SOL    HW215522   6.151   2.610   2.942
 4875SOL     OW15523   0.059   2.820   6.304
 4875SOL    HW115524   0.068   2.745   6.239
 4875SOL    HW215525   6.986   2.859   6.297
 4876SOL     OW15526   6.920   1.545   6.824
 4876SOL    HW115527   6.991   1.515   6.760
 4876SOL    HW215528   6.830   1.534   6.781
 4877SOL     OW15529   5.710   1.356   1.585
 4877SOL    HW115530   5.725   1.373   1.683
 4877SOL    HW215531   5.611   1.355   1.567
 4878SOL     OW15532   0.617   3.152   1.573
 4878SOL    HW115533   0.642   3.201   1.489
 4878SOL    HW215534   0.700   3.113   1.614
 4879SOL     OW15535   4.487   5.964   3.210
 4879SOL    HW115536   4.566   5.956   3.272
 4879SOL    HW215537   4.411   5.911   3.247
 4880SOL     OW15538   6.061   1.849   5.475
 4880SOL    HW115539   5.961   1.849   5.481
 4880SOL    HW215540   6.091   1.784   5.405
 4881SOL     OW15541   2.915   5.837   5.773
 4881SOL    HW115542   3.007   5.797   5.773
 4881SOL    HW215543   2.854   5.779   5.719
 4882SOL     OW15544   5.034   6.204   0.185
 4882SOL    HW115545   4.978   6.286   0.170
 4882SOL    HW215546   4.978   6.122   0.167
 4883SOL     OW15547   6.425   5.172   6.406
 4883SOL    HW115548   6.433   5.261   6.360
 4883SOL    HW215549   6.432   5.099   6.338
 4884SOL     OW15550   4.202   6.668   2.037
 4884SOL    HW115551   4.224   6.587   1.982
 4884SOL    HW215552   4.113   6.703   2.009
 4885SOL     OW15553   1.935   0.115   2.412
 4885SOL    HW115554   1.883   0.166   2.344
 4885SOL    HW215555   2.026   0.156   2.423
 4886SOL     OW15556   5.874   0.808   5.671
 4886SOL    HW115557   5.973   0.796   5.675
 4886SOL    HW215558   5.843   0.860   5.751
 4887SOL     OW15559   0.623   1.732   5.184
 4887SOL    HW115560   0.712   1.735   5.139
 4887SOL    HW215561   0.555   1.778   5.127
 4888SOL     OW15562   3.390   6.031   1.982
 4888SOL    HW115563   3.325   6.101   1.952
 4888SOL    HW215564   3.438   5.993   1.903
 4889SOL     OW15565   1.431   3.426   6.731
 4889SOL    HW115566   1.412   3.515   6.771
 4889SOL    HW215567   1.402   3.426   6.635
 4890SOL     OW15568   0.124   0.398   4.337
 4890SOL    HW115569   0.109   0.389   4.435
 4890SOL    HW215570   0.106   0.493   4.309
 4891SOL     OW15571   1.213   4.337   0.810
 4891SOL    HW115572   1.263   4.324   0.896
 4891SOL    HW215573   1.240   4.424   0.769
 4892SOL     OW15574   2.191   5.345   2.310
 4892SOL    HW115575   2.179   5.338   2.211
 4892SOL    HW215576   2.167   5.437   2.340
 4893SOL     OW15577   0.438   3.882   6.884
 4893SOL    HW115578   0.506   3.927   6.942
 4893SOL    HW215579   0.385   3.818   6.940
 4894SOL     OW15580   0.973   0.242   2.911
 4894SOL    HW115581   0.946   0.218   2.817
 4894SOL    HW215582   0.959   0.164   2.971
 4895SOL     OW15583   5.731   4.315   6.888
 4895SOL    HW115584   5.822   4.293   6.923
 4895SOL    HW215585   5.703   4.245   6.823
 4896SOL     OW15586   4.352   6.391   3.998
 4896SOL    HW115587   4.393   6.462   3.941
 4896SOL    HW215588   4.279   6.346   3.947
 4897SOL     OW15589   2.366   5.807   6.750
 4897SOL    HW115590   2.292   5.843   6.807
 4897SOL    HW215591   2.333   5.790   6.658
 4898SOL     OW15592   5.917   1.939   5.004
 4898SOL    HW115593   5.946   1.872   4.936
 4898SOL    HW215594   5.936   2.031   4.971
 4899SOL     OW15595   5.167   4.823   4.511
 4899SOL    HW115596   5.153   4.725   4.525
 4899SOL    HW215597   5.165   4.842   4.413
 4900SOL     OW15598   0.782   6.257   4.637
 4900SOL    HW115599   0.764   6.329   4.570
 4900SOL    HW215600   0.807   6.299   4.725
 4901SOL     OW15601   0.096   6.604   3.087
 4901SOL    HW115602   0.158   6.529   3.065
 4901SOL    HW215603   0.012   6.595   3.033
 4902SOL     OW15604   3.186   4.428   1.303
 4902SOL    HW115605   3.169   4.526   1.291
 4902SOL    HW215606   3.284   4.410   1.299
 4903SOL     OW15607   5.182   5.440   5.905
 4903SOL    HW115608   5.248   5.425   5.979
 4903SOL    HW215609   5.231   5.442   5.817
 4904SOL     OW15610   2.717   7.017   3.581
 4904SOL    HW115611   2.688   6.976   3.494
 4904SOL    HW215612   2.813   6.995   3.598
 4905SOL     OW15613   6.417   2.982   3.270
 4905SOL    HW115614   6.364   3.051   3.320
 4905SOL    HW215615   6.356   2.934   3.207
 4906SOL     OW15616   5.071   0.713   0.842
 4906SOL    HW115617   5.127   0.788   0.878
 4906SOL    HW215618   4.974   0.733   0.858
 4907SOL     OW15619   2.598   1.740   2.093
 4907SOL    HW115620   2.532   1.666   2.080
 4907SOL    HW215621   2.585   1.809   2.022
 4908SOL     OW15622   4.115   6.069   0.722
 4908SOL    HW115623   4.114   5.978   0.681
 4908SOL    HW215624   4.206   6.109   0.714
 4909SOL     OW15625   6.591   0.223   5.100
 4909SOL    HW115626   6.599   0.280   5.018
 4909SOL    HW215627   6.617   0.277   5.180
 4910SOL     OW15628   5.775   6.600   5.977
 4910SOL    HW115629   5.727   6.617   6.063
 4910SOL    HW215630   5.719   6.540   5.919
 4911SOL     OW15631   1.000   3.945   6.668
 4911SOL    HW115632   0.906   3.922   6.694
 4911SOL    HW215633   1.024   3.898   6.583
 4912SOL     OW15634   2.346   2.476   1.535
 4912SOL    HW115635   2.286   2.547   1.498
 4912SOL    HW215636   2.418   2.520   1.590
 4913SOL     OW15637   2.665   3.064   1.742
 4913SOL    HW115638   2.717   3.113   1.812
 4913SOL    HW215639   2.592   3.122   1.707
 4914SOL     OW15640   1.222   6.968   2.542
 4914SOL    HW115641   1.311   6.927   2.522
 4914SOL    HW215642   1.235   0.034   2.593
 4915SOL     OW15643   2.819   6.479   3.356
 4915SOL    HW115644   2.896   6.517   3.304
 4915SOL    HW215645   2.838   6.488   3.454
 4916SOL     OW15646   1.741   1.935   2.418
 4916SOL    HW115647   1.761   2.031   2.397
 4916SOL    HW215648   1.642   1.920   2.412
 4917SOL     OW15649   1.942   4.184   6.079
 4917SOL    HW115650   1.910   4.089   6.077
 4917SOL    HW215651   1.874   4.241   6.125
 4918SOL     OW15652   2.172   0.280   3.768
 4918SOL    HW115653   2.258   0.331   3.773
 4918SOL    HW215654   2.116   0.302   3.848
 4919SOL     OW15655   2.479   3.288   1.677
 4919SOL    HW115656   2.411   3.334   1.734
 4919SOL    HW215657   2.570   3.326   1.696
 4920SOL     OW15658   3.466   0.866   6.927
 4920SOL    HW115659   3.408   0.866   7.008
 4920SOL    HW215660   3.556   0.830   6.950
 4921SOL     OW15661   6.982   4.699   1.486
 4921SOL    HW115662   0.038   4.758   1.458
 4921SOL    HW215663   7.018   4.609   1.511
 4922SOL     OW15664   1.167   2.705   6.067
 4922SOL    HW115665   1.108   2.696   6.147
 4922SOL    HW215666   1.171   2.618   6.018
 4923SOL     OW15667   2.809   2.464   6.740
 4923SOL    HW115668   2.790   2.444   6.644
 4923SOL    HW215669   2.907   2.462   6.756
 4924SOL     OW15670   6.883   3.492   4.449
 4924SOL    HW115671   6.804   3.549   4.473
 4924SOL    HW215672   6.935   3.536   4.376
 4925SOL     OW15673   4.748   5.813   6.050
 4925SOL    HW115674   4.690   5.858   5.982
 4925SOL    HW215675   4.720   5.718   6.061
 4926SOL     OW15676   4.070   3.160   0.568
 4926SOL    HW115677   4.045   3.256   0.577
 4926SOL    HW215678   4.169   3.150   0.573
 4927SOL     OW15679   2.895   3.340   2.174
 4927SOL    HW115680   2.804   3.357   2.212
 4927SOL    HW215681   2.947   3.426   2.174
 4928SOL     OW15682   0.663   0.531   0.582
 4928SOL    HW115683   0.734   0.504   0.517
 4928SOL    HW215684   0.651   0.630   0.578
 4929SOL     OW15685   1.188   4.796   4.300
 4929SOL    HW115686   1.169   4.703   4.332
 4929SOL    HW215687   1.270   4.796   4.243
 4930SOL     OW15688   0.244   3.052   0.391
 4930SOL    HW115689   0.230   2.953   0.380
 4930SOL    HW215690   0.337   3.076   0.363
 4931SOL     OW15691   6.093   6.408   1.431
 4931SOL    HW115692   6.183   6.417   1.390
 4931SOL    HW215693   6.091   6.457   1.519
 4932SOL     OW15694   3.302   1.460   1.069
 4932SOL    HW115695   3.219   1.461   1.013
 4932SOL    HW215696   3.297   1.532   1.138
 4933SOL     OW15697   2.986   0.162   4.783
 4933SOL    HW115698   2.901   0.125   4.820
 4933SOL    HW215699   2.970   0.254   4.749
 4934SOL     OW15700   2.611   5.737   5.146
 4934SOL    HW115701   2.579   5.647   5.118
 4934SOL    HW215702   2.690   5.728   5.206
 4935SOL     OW15703   1.919   2.226   0.465
 4935SOL    HW115704   1.923   2.140   0.515
 4935SOL    HW215705   1.928   2.302   0.530
 4936SOL     OW15706   5.589   5.343   1.301
 4936SOL    HW115707   5.576   5.280   1.224
 4936SOL    HW215708   5.501   5.381   1.328
 4937SOL     OW15709   0.934   3.518   4.592
 4937SOL    HW115710   0.977   3.602   4.560
 4937SOL    HW215711   0.997   3.441   4.578
 4938SOL     OW15712   3.396   4.533   1.662
 4938SOL    HW115713   3.333   4.611   1.663
 4938SOL    HW215714   3.480   4.559   1.709
 4939SOL     OW15715   0.809   1.555   1.097
 4939SOL    HW115716   0.903   1.588   1.084
 4939SOL    HW215717   0.748   1.634   1.104
 4940SOL     OW15718   1.106   1.845   5.702
 4940SOL    HW115719   1.201   1.816   5.707
 4940SOL    HW215720   1.069   1.820   5.612
 4941SOL     OW15721   3.978   2.569   5.392
 4941SOL    HW115722   4.049   2.545   5.326
 4941SOL    HW215723   3.888   2.546   5.354
 4942SOL     OW15724   0.051   1.491   3.371
 4942SOL    HW115725   6.991   1.430   3.378
 4942SOL    HW215726   0.041   1.551   3.292
 4943SOL     OW15727   4.783   2.647   6.856
 4943SOL    HW115728   4.807   2.698   6.939
 4943SOL    HW215729   4.851   2.667   6.785
 4944SOL     OW15730   1.159   4.744   0.446
 4944SOL    HW115731   1.247   4.775   0.411
 4944SOL    HW215732   1.136   4.655   0.406
 4945SOL     OW15733   2.831   0.166   5.767
 4945SOL    HW115734   2.883   0.227   5.827
 4945SOL    HW215735   2.779   0.101   5.823
 4946SOL     OW15736   2.612   5.583   6.963
 4946SOL    HW115737   2.557   5.565   6.882
 4946SOL    HW215738   2.601   5.509   0.010
 4947SOL     OW15739   0.666   0.463   0.829
 4947SOL    HW115740   0.609   0.516   0.891
 4947SOL    HW215741   0.666   0.506   0.739
 4948SOL     OW15742   1.661   2.330   1.886
 4948SOL    HW115743   1.717   2.334   1.803
 4948SOL    HW215744   1.592   2.402   1.883
 4949SOL     OW15745   6.945   4.413   5.862
 4949SOL    HW115746   7.010   4.450   5.929
 4949SOL    HW215747   6.948   4.313   5.864
 4950SOL     OW15748   3.809   4.324   5.817
 4950SOL    HW115749   3.724   4.341   5.767
 4950SOL    HW215750   3.801   4.359   5.910
 4951SOL     OW15751   4.866   5.335   2.781
 4951SOL    HW115752   4.952   5.382   2.762
 4951SOL    HW215753   4.881   5.237   2.781
 4952SOL     OW15754   1.039   1.129   6.797
 4952SOL    HW115755   1.076   1.214   6.834
 4952SOL    HW215756   1.073   1.052   6.851
 4953SOL     OW15757   1.164   2.136   5.097
 4953SOL    HW115758   1.200   2.207   5.037
 4953SOL    HW215759   1.215   2.136   5.183
 4954SOL     OW15760   2.958   3.966   5.290
 4954SOL    HW115761   2.861   3.976   5.270
 4954SOL    HW215762   3.007   4.046   5.257
 4955SOL     OW15763   3.727   5.862   6.656
 4955SOL    HW115764   3.684   5.921   6.725
 4955SOL    HW215765   3.819   5.896   6.637
 4956SOL     OW15766   2.757   0.087   4.860
 4956SOL    HW115767   2.676   0.029   4.864
 4956SOL    HW215768   2.741   0.170   4.913
 4957SOL     OW15769   5.776   5.163   6.850
 4957SOL    HW115770   5.762   5.067   6.826
 4957SOL    HW215771   5.803   5.169   6.946
 4958SOL     OW15772   3.471   5.421   0.401
 4958SOL    HW115773   3.412   5.399   0.323
 4958SOL    HW215774   3.500   5.336   0.445
 4959SOL     OW15775   6.554   2.490   2.724
 4959SOL    HW115776   6.589   2.422   2.788
 4959SOL    HW215777   6.456   2.504   2.741
 4960SOL     OW15778   5.239   4.396   3.827
 4960SOL    HW115779   5.283   4.469   3.774
 4960SOL    HW215780   5.157   4.365   3.779
 4961SOL     OW15781   3.440   2.463   1.682
 4961SOL    HW115782   3.498   2.458   1.601
 4961SOL    HW215783   3.498   2.469   1.764
 4962SOL     OW15784   1.570   2.842   0.367
 4962SOL    HW115785   1.517   2.849   0.452
 4962SOL    HW215786   1.511   2.865   0.289
 4963SOL     OW15787   0.855   4.191   6.143
 4963SOL    HW115788   0.922   4.233   6.204
 4963SOL    HW215789   0.768   4.240   6.151
 4964SOL     OW15790   1.804   5.329   4.524
 4964SOL    HW115791   1.789   5.386   4.605
 4964SOL    HW215792   1.885   5.361   4.476
 4965SOL     OW15793   2.135   6.725   3.003
 4965SOL    HW115794   2.167   6.643   2.955
 4965SOL    HW215795   2.103   6.792   2.937
 4966SOL     OW15796   4.149   0.042   5.165
 4966SOL    HW115797   4.217   0.028   5.238
 4966SOL    HW215798   4.185   0.109   5.100
 4967SOL     OW15799   4.058   4.815   4.298
 4967SOL    HW115800   4.093   4.775   4.383
 4967SOL    HW215801   4.112   4.781   4.221
 4968SOL     OW15802   6.914   2.853   3.800
 4968SOL    HW115803   6.838   2.878   3.740
 4968SOL    HW215804   6.935   2.929   3.861
 4969SOL     OW15805   0.443   6.089   4.038
 4969SOL    HW115806   0.532   6.135   4.044
 4969SOL    HW215807   0.457   5.994   4.011
 4970SOL     OW15808   1.837   1.395   1.609
 4970SOL    HW115809   1.864   1.468   1.546
 4970SOL    HW215810   1.737   1.393   1.616
 4971SOL     OW15811   0.150   6.097   1.608
 4971SOL    HW115812   0.242   6.069   1.633
 4971SOL    HW215813   0.153   6.155   1.527
 4972SOL     OW15814   0.698   4.421   0.467
 4972SOL    HW115815   0.622   4.437   0.404
 4972SOL    HW215816   0.785   4.435   0.419
 4973SOL     OW15817   5.887   1.148   0.485
 4973SOL    HW115818   5.839   1.092   0.417
 4973SOL    HW215819   5.820   1.191   0.545
 4974SOL     OW15820   3.441   0.015   4.827
 4974SOL    HW115821   3.508   6.960   4.831
 4974SOL    HW215822   3.359   7.003   4.779
 4975SOL     OW15823   5.144   4.600   1.065
 4975SOL    HW115824   5.084   4.607   0.985
 4975SOL    HW215825   5.236   4.573   1.035
 4976SOL     OW15826   0.770   6.810   3.690
 4976SOL    HW115827   0.835   6.880   3.718
 4976SOL    HW215828   0.684   6.853   3.661
 4977SOL     OW15829   1.670   3.841   5.711
 4977SOL    HW115830   1.644   3.866   5.618
 4977SOL    HW215831   1.667   3.922   5.769
 4978SOL     OW15832   6.019   4.530   4.488
 4978SOL    HW115833   6.012   4.438   4.448
 4978SOL    HW215834   5.976   4.596   4.427
 4979SOL     OW15835   2.410   6.694   6.646
 4979SOL    HW115836   2.446   6.755   6.717
 4979SOL    HW215837   2.485   6.666   6.586
 4980SOL     OW15838   5.697   2.696   4.013
 4980SOL    HW115839   5.747   2.672   4.096
 4980SOL    HW215840   5.676   2.794   4.013
 4981SOL     OW15841   3.316   5.779   3.248
 4981SOL    HW115842   3.401   5.728   3.236
 4981SOL    HW215843   3.252   5.726   3.304
 4982SOL     OW15844   3.783   2.097   5.102
 4982SOL    HW115845   3.798   2.165   5.174
 4982SOL    HW215846   3.688   2.066   5.105
 4983SOL     OW15847   5.887   4.253   2.518
 4983SOL    HW115848   5.899   4.194   2.597
 4983SOL    HW215849   5.830   4.207   2.450
 4984SOL     OW15850   4.891   3.855   4.835
 4984SOL    HW115851   4.861   3.838   4.741
 4984SOL    HW215852   4.876   3.773   4.890
 4985SOL     OW15853   5.958   0.573   2.286
 4985SOL    HW115854   5.888   0.639   2.313
 4985SOL    HW215855   5.936   0.484   2.326
 4986SOL     OW15856   0.658   5.403   1.109
 4986SOL    HW115857   0.626   5.396   1.204
 4986SOL    HW215858   0.659   5.312   1.068
 4987SOL     OW15859   1.566   1.723   2.781
 4987SOL    HW115860   1.614   1.635   2.775
 4987SOL    HW215861   1.621   1.794   2.738
 4988SOL     OW15862   6.338   5.497   3.995
 4988SOL    HW115863   6.429   5.456   4.001
 4988SOL    HW215864   6.336   5.582   4.046
 4989SOL     OW15865   5.692   0.150   3.662
 4989SOL    HW115866   5.665   0.243   3.689
 4989SOL    HW215867   5.631   0.116   3.592
 4990SOL     OW15868   4.664   1.958   6.309
 4990SOL    HW115869   4.671   2.058   6.310
 4990SOL    HW215870   4.575   1.931   6.271
 4991SOL     OW15871   1.883   5.863   6.090
 4991SOL    HW115872   1.880   5.904   5.999
 4991SOL    HW215873   1.911   5.767   6.082
 4992SOL     OW15874   1.227   3.783   4.406
 4992SOL    HW115875   1.257   3.841   4.483
 4992SOL    HW215876   1.305   3.763   4.347
 4993SOL     OW15877   2.049   6.327   4.001
 4993SOL    HW115878   2.068   6.230   3.985
 4993SOL    HW215879   2.111   6.382   3.945
 4994SOL     OW15880   4.232   5.269   5.748
 4994SOL    HW115881   4.218   5.359   5.706
 4994SOL    HW215882   4.148   5.239   5.793
 4995SOL     OW15883   0.315   0.483   5.990
 4995SOL    HW115884   0.343   0.532   5.907
 4995SOL    HW215885   0.387   0.420   6.018
 4996SOL     OW15886   0.031   1.004   3.928
 4996SOL    HW115887   0.112   1.015   3.871
 4996SOL    HW215888   0.055   0.955   4.012
 4997SOL     OW15889   3.843   1.418   0.727
 4997SOL    HW115890   3.882   1.376   0.645
 4997SOL    HW215891   3.899   1.393   0.806
 4998SOL     OW15892   0.852   3.636   3.426
 4998SOL    HW115893   0.803   3.689   3.357
 4998SOL    HW215894   0.840   3.539   3.408
 4999SOL     OW15895   0.841   2.578   3.736
 4999SOL    HW115896   0.919   2.563   3.675
 4999SOL    HW215897   0.761   2.529   3.701
 5000SOL     OW15898   2.646   6.832   3.358
 5000SOL    HW115899   2.744   6.812   3.359
 5000SOL    HW215900   2.600   6.768   3.297
 5001SOL     OW15901   0.187   5.868   3.219
 5001SOL    HW115902   0.279   5.832   3.231
 5001SOL    HW215903   0.188   5.967   3.235
 5002SOL     OW15904   1.421   4.775   4.108
 5002SOL    HW115905   1.419   4.828   4.023
 5002SOL    HW215906   1.456   4.683   4.089
 5003SOL     OW15907   3.602   0.647   2.705
 5003SOL    HW115908   3.662   0.578   2.744
 5003SOL    HW215909   3.507   0.616   2.711
 5004SOL     OW15910   3.798   6.166   0.240
 5004SOL    HW115911   3.869   6.110   0.199
 5004SOL    HW215912   3.714   6.114   0.248
 5005SOL     OW15913   3.102   2.730   0.751
 5005SOL    HW115914   3.153   2.651   0.716
 5005SOL    HW215915   3.167   2.801   0.779
 5006SOL     OW15916   5.351   1.031   2.489
 5006SOL    HW115917   5.426   1.098   2.486
 5006SOL    HW215918   5.314   1.018   2.397
 5007SOL     OW15919   6.331   5.646   1.831
 5007SOL    HW115920   6.323   5.568   1.769
 5007SOL    HW215921   6.309   5.617   1.924
 5008SOL     OW15922   5.527   0.648   3.491
 5008SOL    HW115923   5.624   0.631   3.506
 5008SOL    HW215924   5.480   0.562   3.472
 5009SOL     OW15925   0.074   2.158   0.864
 5009SOL    HW115926   0.048   2.246   0.825
 5009SOL    HW215927   7.017   2.120   0.915
 5010SOL     OW15928   4.489   3.798   1.357
 5010SOL    HW115929   4.420   3.812   1.428
 5010SOL    HW215930   4.454   3.831   1.269
 5011SOL     OW15931   1.683   2.755   6.467
 5011SOL    HW115932   1.755   2.746   6.536
 5011SOL    HW215933   1.720   2.731   6.377
 5012SOL     OW15934   6.135   1.301   6.249
 5012SOL    HW115935   6.045   1.302   6.291
 5012SOL    HW215936   6.173   1.209   6.251
 5013SOL     OW15937   5.225   0.062   5.660
 5013SOL    HW115938   5.188   0.133   5.721
 5013SOL    HW215939   5.300   0.015   5.706
 5014SOL     OW15940   5.388   3.261   1.395
 5014SOL    HW115941   5.315   3.203   1.429
 5014SOL    HW215942   5.360   3.305   1.310
 5015SOL     OW15943   6.193   5.538   4.648
 5015SOL    HW115944   6.218   5.597   4.726
 5015SOL    HW215945   6.269   5.476   4.628
 5016SOL     OW15946   1.615   3.039   6.168
 5016SOL    HW115947   1.621   3.132   6.206
 5016SOL    HW215948   1.544   2.988   6.216
 5017SOL     OW15949   0.294   3.025   1.779
 5017SOL    HW115950   0.225   3.039   1.708
 5017SOL    HW215951   0.250   2.989   1.862
 5018SOL     OW15952   1.250   0.753   6.793
 5018SOL    HW115953   1.231   0.827   6.858
 5018SOL    HW215954   1.345   0.759   6.763
 5019SOL     OW15955   1.679   4.472   4.260
 5019SOL    HW115956   1.642   4.404   4.323
 5019SOL    HW215957   1.613   4.489   4.186
 5020SOL     OW15958   2.234   0.286   4.276
 5020SOL    HW115959   2.247   0.347   4.198
 5020SOL    HW215960   2.320   0.239   4.296
 5021SOL     OW15961   2.320   1.065   1.257
 5021SOL    HW115962   2.406   1.083   1.305
 5021SOL    HW215963   2.329   1.090   1.161
 5022SOL     OW15964   6.824   2.851   1.061
 5022SOL    HW115965   6.770   2.880   0.982
 5022SOL    HW215966   6.769   2.861   1.144
 5023SOL     OW15967   0.349   4.295   2.496
 5023SOL    HW115968   0.362   4.250   2.584
 5023SOL    HW215969   0.398   4.245   2.425
 5024SOL     OW15970   4.737   3.792   0.970
 5024SOL    HW115971   4.663   3.785   1.037
 5024SOL    HW215972   4.747   3.705   0.922
 5025SOL     OW15973   4.514   1.631   4.556
 5025SOL    HW115974   4.424   1.593   4.578
 5025SOL    HW215975   4.578   1.612   4.631
 5026SOL     OW15976   5.336   6.570   4.403
 5026SOL    HW115977   5.372   6.637   4.468
 5026SOL    HW215978   5.239   6.587   4.386
 5027SOL     OW15979   5.289   6.326   0.737
 5027SOL    HW115980   5.255   6.232   0.747
 5027SOL    HW215981   5.332   6.337   0.648
 5028SOL     OW15982   5.843   2.016   2.251
 5028SOL    HW115983   5.900   2.054   2.178
 5028SOL    HW215984   5.768   2.080   2.271
 5029SOL     OW15985   5.373   1.914   2.110
 5029SOL    HW115986   5.320   1.890   2.191
 5029SOL    HW215987   5.390   1.831   2.056
 5030SOL     OW15988   0.651   3.608   6.684
 5030SOL    HW115989   0.599   3.555   6.751
 5030SOL    HW215990   0.655   3.558   6.598
 5031SOL     OW15991   6.264   0.298   5.931
 5031SOL    HW115992   6.201   0.372   5.956
 5031SOL    HW215993   6.243   0.217   5.985
 5032SOL     OW15994   2.656   3.421   5.776
 5032SOL    HW115995   2.716   3.469   5.712
 5032SOL    HW215996   2.684   3.326   5.782
 5033SOL     OW15997   2.319   6.918   6.166
 5033SOL    HW115998   2.356   6.958   6.250
 5033SOL    HW215999   2.337   6.979   6.089
 5034SOL     OW16000   4.236   6.226   4.599
 5034SOL    HW116001   4.222   6.196   4.693
 5034SOL    HW216002   4.159   6.197   4.542
 5035SOL     OW16003   2.096   3.638   4.062
 5035SOL    HW116004   2.128   3.565   4.124
 5035SOL    HW216005   2.168   3.707   4.053
 5036SOL     OW16006   1.543   2.308   4.951
 5036SOL    HW116007   1.560   2.230   4.891
 5036SOL    HW216008   1.444   2.325   4.956
 5037SOL     OW16009   4.593   4.097   1.069
 5037SOL    HW116010   4.594   4.103   1.169
 5037SOL    HW216011   4.674   4.143   1.032
 5038SOL     OW16012   3.331   3.232   3.285
 5038SOL    HW116013   3.256   3.246   3.350
 5038SOL    HW216014   3.418   3.256   3.328
 5039SOL     OW16015   1.507   3.746   0.064
 5039SOL    HW116016   1.427   3.694   0.095
 5039SOL    HW216017   1.588   3.716   0.114
 5040SOL     OW16018   0.299   1.522   6.041
 5040SOL    HW116019   0.337   1.613   6.054
 5040SOL    HW216020   0.348   1.475   5.968
 5041SOL     OW16021   6.863   1.992   1.287
 5041SOL    HW116022   6.874   1.996   1.188
 5041SOL    HW216023   6.801   1.918   1.311
 5042SOL     OW16024   1.212   2.479   5.920
 5042SOL    HW116025   1.126   2.496   5.871
 5042SOL    HW216026   1.288   2.480   5.855
 5043SOL     OW16027   3.794   6.229   1.744
 5043SOL    HW116028   3.810   6.177   1.828
 5043SOL    HW216029   3.734   6.177   1.683
 5044SOL     OW16030   6.718   5.397   7.012
 5044SOL    HW116031   6.753   5.472   0.048
 5044SOL    HW216032   6.715   5.313   0.047
 5045SOL     OW16033   5.513   2.784   0.095
 5045SOL    HW116034   5.428   2.817   0.055
 5045SOL    HW216035   5.555   2.717   0.033
 5046SOL     OW16036   3.751   3.298   2.465
 5046SOL    HW116037   3.816   3.230   2.500
 5046SOL    HW216038   3.727   3.276   2.370
 5047SOL     OW16039   1.911   3.820   3.978
 5047SOL    HW116040   1.994   3.868   3.949
 5047SOL    HW216041   1.934   3.726   4.003
 5048SOL     OW16042   2.604   0.614   6.529
 5048SOL    HW116043   2.662   0.695   6.520
 5048SOL    HW216044   2.662   0.533   6.539
 5049SOL     OW16045   4.494   2.015   6.900
 5049SOL    HW116046   4.510   1.960   6.818
 5049SOL    HW216047   4.396   2.029   6.913
 5050SOL     OW16048   1.847   0.394   0.719
 5050SOL    HW116049   1.749   0.393   0.697
 5050SOL    HW216050   1.875   0.488   0.740
 5051SOL     OW16051   5.099   5.120   1.135
 5051SOL    HW116052   5.137   5.028   1.123
 5051SOL    HW216053   5.063   5.130   1.228
 5052SOL     OW16054   2.276   2.142   4.872
 5052SOL    HW116055   2.292   2.225   4.926
 5052SOL    HW216056   2.254   2.167   4.778
 5053SOL     OW16057   0.580   1.085   1.489
 5053SOL    HW116058   0.512   1.155   1.511
 5053SOL    HW216059   0.597   1.085   1.391
 5054SOL     OW16060   3.992   5.877   3.930
 5054SOL    HW116061   3.949   5.829   3.854
 5054SOL    HW216062   4.091   5.877   3.918
 5055SOL     OW16063   0.184   3.896   6.217
 5055SOL    HW116064   0.133   3.885   6.302
 5055SOL    HW216065   0.154   3.826   6.152
 5056SOL     OW16066   5.638   4.048   3.762
 5056SOL    HW116067   5.632   4.055   3.861
 5056SOL    HW216068   5.735   4.050   3.734
 5057SOL     OW16069   0.548   5.372   2.426
 5057SOL    HW116070   0.581   5.461   2.457
 5057SOL    HW216071   0.624   5.320   2.387
 5058SOL     OW16072   2.770   5.253   5.699
 5058SOL    HW116073   2.843   5.244   5.631
 5058SOL    HW216074   2.798   5.210   5.784
 5059SOL     OW16075   6.700   0.637   2.154
 5059SOL    HW116076   6.647   0.571   2.207
 5059SOL    HW216077   6.791   0.646   2.194
 5060SOL     OW16078   6.942   2.381   6.137
 5060SOL    HW116079   6.886   2.309   6.094
 5060SOL    HW216080   6.883   2.448   6.181
 5061SOL     OW16081   5.128   4.309   1.067
 5061SOL    HW116082   5.111   4.407   1.080
 5061SOL    HW216083   5.085   4.278   0.982
 5062SOL     OW16084   6.559   0.539   1.172
 5062SOL    HW116085   6.483   0.528   1.236
 5062SOL    HW216086   6.636   0.580   1.220
 5063SOL     OW16087   1.330   5.980   2.049
 5063SOL    HW116088   1.256   5.973   2.116
 5063SOL    HW216089   1.330   6.072   2.008
 5064SOL     OW16090   5.079   3.349   0.118
 5064SOL    HW116091   5.091   3.379   0.023
 5064SOL    HW216092   5.141   3.273   0.137
 5065SOL     OW16093   2.794   6.541   5.572
 5065SOL    HW116094   2.834   6.632   5.584
 5065SOL    HW216095   2.749   6.512   5.656
 5066SOL     OW16096   4.923   5.171   1.359
 5066SOL    HW116097   4.879   5.082   1.349
 5066SOL    HW216098   4.941   5.189   1.455
 5067SOL     OW16099   5.178   1.299   6.699
 5067SOL    HW116100   5.202   1.251   6.784
 5067SOL    HW216101   5.258   1.307   6.641
 5068SOL     OW16102   3.493   4.786   1.376
 5068SOL    HW116103   3.532   4.695   1.360
 5068SOL    HW216104   3.434   4.783   1.457
 5069SOL     OW16105   7.014   5.075   2.676
 5069SOL    HW116106   6.960   5.134   2.735
 5069SOL    HW216107   6.990   5.092   2.580
 5070SOL     OW16108   4.898   3.552   4.283
 5070SOL    HW116109   4.946   3.634   4.251
 5070SOL    HW216110   4.872   3.565   4.379
 5071SOL     OW16111   4.083   0.900   6.897
 5071SOL    HW116112   4.137   0.951   6.830
 5071SOL    HW216113   4.027   0.963   6.950
 5072SOL     OW16114   1.122   4.219   1.407
 5072SOL    HW116115   1.066   4.297   1.376
 5072SOL    HW216116   1.097   4.196   1.501
 5073SOL     OW16117   4.406   2.154   4.460
 5073SOL    HW116118   4.368   2.105   4.382
 5073SOL    HW216119   4.468   2.094   4.511
 5074SOL     OW16120   3.947   4.800   5.127
 5074SOL    HW116121   4.025   4.846   5.169
 5074SOL    HW216122   3.901   4.743   5.195
 5075SOL     OW16123   6.601   6.791   3.844
 5075SOL    HW116124   6.531   6.831   3.904
 5075SOL    HW216125   6.559   6.762   3.758
 5076SOL     OW16126   3.853   0.672   1.242
 5076SOL    HW116127   3.826   0.586   1.199
 5076SOL    HW216128   3.953   0.672   1.255
 5077SOL     OW16129   6.972   2.668   2.528
 5077SOL    HW116130   0.013   2.603   2.484
 5077SOL    HW216131   7.013   2.760   2.524
 5078SOL     OW16132   6.820   1.215   3.863
 5078SOL    HW116133   6.873   1.131   3.855
 5078SOL    HW216134   6.875   1.293   3.832
 5079SOL     OW16135   4.411   4.767   5.114
 5079SOL    HW116136   4.407   4.839   5.045
 5079SOL    HW216137   4.415   4.678   5.068
 5080SOL     OW16138   5.727   0.342   5.682
 5080SOL    HW116139   5.668   0.360   5.761
 5080SOL    HW216140   5.816   0.309   5.714
 5081SOL     OW16141   3.188   3.810   3.204
 5081SOL    HW116142   3.278   3.769   3.215
 5081SOL    HW216143   3.179   3.845   3.110
 5082SOL     OW16144   6.844   0.514   5.866
 5082SOL    HW116145   6.915   0.499   5.935
 5082SOL    HW216146   6.788   0.593   5.893
 5083SOL     OW16147   1.466   5.789   1.924
 5083SOL    HW116148   1.410   5.774   1.842
 5083SOL    HW216149   1.422   5.856   1.983
 5084SOL     OW16150   1.916   5.716   2.715
 5084SOL    HW116151   1.941   5.662   2.635
 5084SOL    HW216152   1.876   5.656   2.784
 5085SOL     OW16153   6.756   2.900   6.903
 5085SOL    HW116154   6.683   2.968   6.908
 5085SOL    HW216155   6.828   2.923   6.969
 5086SOL     OW16156   6.905   4.966   4.273
 5086SOL    HW116157   6.979   4.918   4.321
 5086SOL    HW216158   6.929   4.976   4.177
 5087SOL     OW16159   6.919   5.432   5.298
 5087SOL    HW116160   6.904   5.372   5.220
 5087SOL    HW216161   6.850   5.504   5.298
 5088SOL     OW16162   5.895   0.774   0.398
 5088SOL    HW116163   5.984   0.780   0.443
 5088SOL    HW216164   5.903   0.808   0.304
 5089SOL     OW16165   5.468   2.515   4.034
 5089SOL    HW116166   5.384   2.561   4.005
 5089SOL    HW216167   5.546   2.575   4.019
 5090SOL     OW16168   1.284   5.258   0.732
 5090SOL    HW116169   1.257   5.181   0.791
 5090SOL    HW216170   1.205   5.319   0.720
 5091SOL     OW16171   1.498   6.688   3.443
 5091SOL    HW116172   1.577   6.634   3.472
 5091SOL    HW216173   1.489   6.768   3.503
 5092SOL     OW16174   3.260   3.014   1.062
 5092SOL    HW116175   3.170   3.027   1.103
 5092SOL    HW216176   3.329   3.009   1.134
 5093SOL     OW16177   1.195   2.021   1.210
 5093SOL    HW116178   1.259   2.083   1.257
 5093SOL    HW216179   1.182   2.052   1.116
 5094SOL     OW16180   6.920   0.390   6.856
 5094SOL    HW116181   6.956   0.383   6.949
 5094SOL    HW216182   6.847   0.458   6.854
 5095SOL     OW16183   3.322   0.172   5.069
 5095SOL    HW116184   3.226   0.153   5.050
 5095SOL    HW216185   3.380   0.128   5.001
 5096SOL     OW16186   3.428   5.901   2.830
 5096SOL    HW116187   3.506   5.960   2.807
 5096SOL    HW216188   3.448   5.807   2.802
 5097SOL     OW16189   0.903   1.515   6.382
 5097SOL    HW116190   0.879   1.418   6.384
 5097SOL    HW216191   0.886   1.552   6.291
 5098SOL     OW16192   6.834   3.058   2.848
 5098SOL    HW116193   6.886   3.130   2.801
 5098SOL    HW216194   6.749   3.042   2.798
 5099SOL     OW16195   0.858   0.381   4.383
 5099SOL    HW116196   0.927   0.384   4.311
 5099SOL    HW216197   0.804   0.297   4.374
 5100SOL     OW16198   4.904   5.478   6.458
 5100SOL    HW116199   4.960   5.402   6.425
 5100SOL    HW216200   4.960   5.542   6.510
 5101SOL     OW16201   4.404   6.317   0.382
 5101SOL    HW116202   4.324   6.265   0.352
 5101SOL    HW216203   4.397   6.334   0.481
 5102SOL     OW16204   3.870   5.603   4.061
 5102SOL    HW116205   3.787   5.550   4.045
 5102SOL    HW216206   3.891   5.658   3.980
 5103SOL     OW16207   1.457   1.091   4.159
 5103SOL    HW116208   1.477   1.184   4.190
 5103SOL    HW216209   1.359   1.073   4.168
 5104SOL     OW16210   0.941   0.122   1.209
 5104SOL    HW116211   0.894   0.034   1.213
 5104SOL    HW216212   0.919   0.167   1.122
 5105SOL     OW16213   2.402   3.089   6.527
 5105SOL    HW116214   2.365   3.059   6.615
 5105SOL    HW216215   2.326   3.106   6.464
 5106SOL     OW16216   2.676   0.098   2.166
 5106SOL    HW116217   2.611   0.174   2.173
 5106SOL    HW216218   2.626   0.011   2.170
 5107SOL     OW16219   1.727   0.471   6.496
 5107SOL    HW116220   1.782   0.395   6.462
 5107SOL    HW216221   1.775   0.557   6.478
 5108SOL     OW16222   2.980   3.539   3.749
 5108SOL    HW116223   3.001   3.637   3.750
 5108SOL    HW216224   2.926   3.516   3.830
 5109SOL     OW16225   0.059   1.671   1.633
 5109SOL    HW116226   0.079   1.742   1.566
 5109SOL    HW216227   6.984   1.639   1.622
 5110SOL     OW16228   2.255   5.506   5.293
 5110SOL    HW116229   2.184   5.464   5.348
 5110SOL    HW216230   2.289   5.441   5.226
 5111SOL     OW16231   1.735   1.572   6.976
 5111SOL    HW116232   1.656   1.594   6.919
 5111SOL    HW216233   1.770   1.655   0.000
 5112SOL     OW16234   0.266   0.148   3.485
 5112SOL    HW116235   0.335   0.216   3.462
 5112SOL    HW216236   0.267   0.075   3.416
 5113SOL     OW16237   0.475   0.333   6.249
 5113SOL    HW116238   0.525   0.267   6.194
 5113SOL    HW216239   0.521   0.422   6.245
 5114SOL     OW16240   4.120   5.397   6.907
 5114SOL    HW116241   4.075   5.378   6.820
 5114SOL    HW216242   4.051   5.400   6.980
 5115SOL     OW16243   2.107   3.874   4.881
 5115SOL    HW116244   2.053   3.844   4.959
 5115SOL    HW216245   2.193   3.913   4.913
 5116SOL     OW16246   6.552   3.341   0.591
 5116SOL    HW116247   6.578   3.406   0.520
 5116SOL    HW216248   6.462   3.366   0.628
 5117SOL     OW16249   2.894   5.321   3.337
 5117SOL    HW116250   2.905   5.222   3.324
 5117SOL    HW216251   2.815   5.338   3.396
 5118SOL     OW16252   4.117   6.294   1.935
 5118SOL    HW116253   4.202   6.335   1.901
 5118SOL    HW216254   4.041   6.357   1.921
 5119SOL     OW16255   6.387   0.252   2.484
 5119SOL    HW116256   6.391   0.260   2.583
 5119SOL    HW216257   6.350   0.337   2.445
 5120SOL     OW16258   3.269   1.450   2.301
 5120SOL    HW116259   3.301   1.374   2.243
 5120SOL    HW216260   3.191   1.494   2.257
 5121SOL     OW16261   0.785   3.117   4.076
 5121SOL    HW116262   0.852   3.152   4.141
 5121SOL    HW216263   0.775   3.181   4.000
 5122SOL     OW16264   2.292   5.628   3.360
 5122SOL    HW116265   2.228   5.703   3.346
 5122SOL    HW216266   2.248   5.541   3.338
 5123SOL     OW16267   6.335   3.681   1.926
 5123SOL    HW116268   6.336   3.582   1.944
 5123SOL    HW216269   6.267   3.701   1.855
 5124SOL     OW16270   2.502   6.659   0.709
 5124SOL    HW116271   2.509   6.637   0.612
 5124SOL    HW216272   2.526   6.579   0.764
 5125SOL     OW16273   0.044   1.901   5.750
 5125SOL    HW116274   0.117   1.953   5.793
 5125SOL    HW216275   0.062   1.803   5.760
 5126SOL     OW16276   4.289   2.294   6.818
 5126SOL    HW116277   4.256   2.203   6.791
 5126SOL    HW216278   4.311   2.347   6.737
 5127SOL     OW16279   5.759   3.179   6.503
 5127SOL    HW116280   5.695   3.117   6.457
 5127SOL    HW216281   5.787   3.139   6.590
 5128SOL     OW16282   6.960   6.983   6.389
 5128SOL    HW116283   6.883   6.927   6.417
 5128SOL    HW216284   6.930   0.057   6.374
 5129SOL     OW16285   4.720   2.730   3.382
 5129SOL    HW116286   4.690   2.652   3.327
 5129SOL    HW216287   4.740   2.807   3.322
 5130SOL     OW16288   1.131   6.541   4.959
 5130SOL    HW116289   1.169   6.520   4.869
 5130SOL    HW216290   1.186   6.495   5.029
 5131SOL     OW16291   3.765   4.842   3.710
 5131SOL    HW116292   3.679   4.851   3.759
 5131SOL    HW216293   3.747   4.829   3.613
 5132SOL     OW16294   3.835   2.060   6.547
 5132SOL    HW116295   3.884   2.078   6.632
 5132SOL    HW216296   3.788   2.143   6.518
 5133SOL     OW16297   4.722   4.725   7.000
 5133SOL    HW116298   4.795   4.659   6.981
 5133SOL    HW216299   4.634   4.680   6.988
 5134SOL     OW16300   6.039   5.861   0.141
 5134SOL    HW116301   5.942   5.863   0.117
 5134SOL    HW216302   6.093   5.873   0.058
 5135SOL     OW16303   6.935   2.760   2.103
 5135SOL    HW116304   0.014   2.752   2.088
 5135SOL    HW216305   6.905   2.686   2.164
 5136SOL     OW16306   0.943   1.296   5.199
 5136SOL    HW116307   0.921   1.218   5.257
 5136SOL    HW216308   0.865   1.316   5.140
 5137SOL     OW16309   5.392   0.414   3.371
 5137SOL    HW116310   5.305   0.368   3.353
 5137SOL    HW216311   5.444   0.421   3.286
 5138SOL     OW16312   3.304   3.020   2.566
 5138SOL    HW116313   3.233   3.013   2.637
 5138SOL    HW216314   3.285   3.099   2.508
 5139SOL     OW16315   4.279   0.531   4.887
 5139SOL    HW116316   4.256   0.492   4.797
 5139SOL    HW216317   4.229   0.616   4.899
 5140SOL     OW16318   3.204   3.647   6.395
 5140SOL    HW116319   3.255   3.623   6.477
 5140SOL    HW216320   3.228   3.739   6.366
 5141SOL     OW16321   1.290   2.653   1.737
 5141SOL    HW116322   1.289   2.753   1.729
 5141SOL    HW216323   1.304   2.612   1.646
 5142SOL     OW16324   0.479   0.176   2.535
 5142SOL    HW116325   0.529   0.170   2.448
 5142SOL    HW216326   0.534   0.224   2.602
 5143SOL     OW16327   0.080   5.837   2.190
 5143SOL    HW116328   0.113   5.911   2.133
 5143SOL    HW216329   0.037   5.875   2.272
 5144SOL     OW16330   2.140   3.229   5.108
 5144SOL    HW116331   2.237   3.220   5.132
 5144SOL    HW216332   2.086   3.169   5.167
 5145SOL     OW16333   2.750   5.699   5.584
 5145SOL    HW116334   2.776   5.667   5.493
 5145SOL    HW216335   2.657   5.737   5.580
 5146SOL     OW16336   5.657   5.757   6.724
 5146SOL    HW116337   5.599   5.802   6.657
 5146SOL    HW216338   5.738   5.720   6.679
 5147SOL     OW16339   5.628   2.238   3.402
 5147SOL    HW116340   5.580   2.154   3.376
 5147SOL    HW216341   5.686   2.267   3.326
 5148SOL     OW16342   6.579   1.145   0.218
 5148SOL    HW116343   6.549   1.136   0.123
 5148SOL    HW216344   6.555   1.235   0.253
 5149SOL     OW16345   4.396   5.496   3.913
 5149SOL    HW116346   4.434   5.460   3.828
 5149SOL    HW216347   4.456   5.569   3.947
 5150SOL     OW16348   6.354   0.596   3.686
 5150SOL    HW116349   6.423   0.589   3.614
 5150SOL    HW216350   6.262   0.592   3.645
 5151SOL     OW16351   5.534   5.445   1.727
 5151SOL    HW116352   5.602   5.441   1.654
 5151SOL    HW216353   5.473   5.366   1.720
 5152SOL     OW16354   2.004   1.992   0.130
 5152SOL    HW116355   2.026   2.082   0.166
 5152SOL    HW216356   2.028   1.987   0.033
 5153SOL     OW16357   2.077   2.214   0.252
 5153SOL    HW116358   2.028   2.216   0.339
 5153SOL    HW216359   2.147   2.285   0.252
 5154SOL     OW16360   0.569   2.773   0.500
 5154SOL    HW116361   0.488   2.755   0.556
 5154SOL    HW216362   0.544   2.833   0.424
 5155SOL     OW16363   1.569   1.470   0.489
 5155SOL    HW116364   1.617   1.446   0.573
 5155SOL    HW216365   1.632   1.514   0.425
 5156SOL     OW16366   5.603   4.944   5.568
 5156SOL    HW116367   5.508   4.914   5.578
 5156SOL    HW216368   5.608   5.043   5.579
 5157SOL     OW16369   3.485   0.798   1.900
 5157SOL    HW116370   3.489   0.892   1.934
 5157SOL    HW216371   3.402   0.786   1.845
 5158SOL     OW16372   1.500   2.312   1.578
 5158SOL    HW116373   1.524   2.215   1.574
 5158SOL    HW216374   1.574   2.366   1.537
 5159SOL     OW16375   6.292   3.363   6.125
 5159SOL    HW116376   6.317   3.421   6.203
 5159SOL    HW216377   6.361   3.372   6.053
 5160SOL     OW16378   6.491   0.247   3.414
 5160SOL    HW116379   6.404   0.211   3.381
 5160SOL    HW216380   6.482   0.276   3.509
 5161SOL     OW16381   1.071   2.066   6.356
 5161SOL    HW116382   1.049   1.968   6.356
 5161SOL    HW216383   1.004   2.115   6.300
 5162SOL     OW16384   0.082   0.006   4.961
 5162SOL    HW116385   0.146   6.949   4.973
 5162SOL    HW216386   0.001   7.009   5.017
 5163SOL     OW16387   2.928   0.125   2.278
 5163SOL    HW116388   2.838   0.104   2.241
 5163SOL    HW216389   2.965   0.206   2.233
 5164SOL     OW16390   2.959   3.807   0.207
 5164SOL    HW116391   2.941   3.855   0.292
 5164SOL    HW216392   2.887   3.738   0.192
 5165SOL     OW16393   1.621   4.947   6.587
 5165SOL    HW116394   1.690   5.014   6.557
 5165SOL    HW216395   1.540   4.995   6.620
 5166SOL     OW16396   0.280   4.958   6.618
 5166SOL    HW116397   0.231   4.884   6.665
 5166SOL    HW216398   0.230   5.044   6.630
 5167SOL     OW16399   5.804   3.878   5.828
 5167SOL    HW116400   5.822   3.973   5.802
 5167SOL    HW216401   5.752   3.877   5.914
 5168SOL     OW16402   4.442   1.961   3.188
 5168SOL    HW116403   4.389   1.944   3.105
 5168SOL    HW216404   4.539   1.951   3.168
 5169SOL     OW16405   5.529   5.890   4.410
 5169SOL    HW116406   5.553   5.886   4.314
 5169SOL    HW216407   5.570   5.971   4.452
 5170SOL     OW16408   2.305   4.225   5.796
 5170SOL    HW116409   2.332   4.129   5.805
 5170SOL    HW216410   2.367   4.271   5.732
 5171SOL     OW16411   2.141   6.823   5.962
 5171SOL    HW116412   2.218   6.838   6.024
 5171SOL    HW216413   2.078   6.756   6.003
 5172SOL     OW16414   5.642   5.936   6.234
 5172SOL    HW116415   5.623   5.973   6.143
 5172SOL    HW216416   5.722   5.876   6.229
 5173SOL     OW16417   4.357   5.709   4.799
 5173SOL    HW116418   4.279   5.757   4.838
 5173SOL    HW216419   4.326   5.624   4.756
 5174SOL     OW16420   1.251   6.782   2.962
 5174SOL    HW116421   1.331   6.731   2.931
 5174SOL    HW216422   1.239   6.769   3.061
 5175SOL     OW16423   2.729   2.801   6.302
 5175SOL    HW116424   2.635   2.820   6.331
 5175SOL    HW216425   2.784   2.884   6.310
 5176SOL     OW16426   6.253   6.080   6.402
 5176SOL    HW116427   6.181   6.019   6.434
 5176SOL    HW216428   6.287   6.134   6.479
 5177SOL     OW16429   5.597   6.504   0.541
 5177SOL    HW116430   5.567   6.444   0.616
 5177SOL    HW216431   5.641   6.449   0.470
 5178SOL     OW16432   0.788   4.239   1.488
 5178SOL    HW116433   0.785   4.182   1.406
 5178SOL    HW216434   0.847   4.318   1.471
 5179SOL     OW16435   4.987   5.751   3.345
 5179SOL    HW116436   5.077   5.743   3.302
 5179SOL    HW216437   4.941   5.663   3.344
 5180SOL     OW16438   1.597   4.406   2.117
 5180SOL    HW116439   1.529   4.478   2.131
 5180SOL    HW216440   1.620   4.401   2.019
 5181SOL     OW16441   6.907   1.380   6.028
 5181SOL    HW116442   6.935   1.474   6.048
 5181SOL    HW216443   6.951   1.349   5.944
 5182SOL     OW16444   2.559   6.154   2.444
 5182SOL    HW116445   2.512   6.101   2.515
 5182SOL    HW216446   2.549   6.252   2.462
 5183SOL     OW16447   4.589   2.504   3.264
 5183SOL    HW116448   4.653   2.431   3.240
 5183SOL    HW216449   4.505   2.464   3.299
 5184SOL     OW16450   2.225   1.760   2.969
 5184SOL    HW116451   2.187   1.668   2.968
 5184SOL    HW216452   2.175   1.816   3.035
 5185SOL     OW16453   6.763   0.077   2.169
 5185SOL    HW116454   6.676   0.098   2.214
 5185SOL    HW216455   6.824   0.033   2.235
 5186SOL     OW16456   6.157   2.658   6.715
 5186SOL    HW116457   6.202   2.626   6.798
 5186SOL    HW216458   6.185   2.602   6.637
 5187SOL     OW16459   1.541   4.494   5.274
 5187SOL    HW116460   1.608   4.568   5.268
 5187SOL    HW216461   1.451   4.530   5.250
 5188SOL     OW16462   6.990   0.894   1.797
 5188SOL    HW116463   0.021   0.919   1.880
 5188SOL    HW216464   6.893   0.883   1.818
 5189SOL     OW16465   4.797   6.090   0.152
 5189SOL    HW116466   4.771   6.154   0.080
 5189SOL    HW216467   4.773   5.997   0.124
 5190SOL     OW16468   1.819   4.785   0.541
 5190SOL    HW116469   1.862   4.791   0.451
 5190SOL    HW216470   1.723   4.809   0.533
 5191SOL     OW16471   2.596   4.435   1.737
 5191SOL    HW116472   2.692   4.446   1.765
 5191SOL    HW216473   2.583   4.343   1.700
 5192SOL     OW16474   0.764   4.740   2.482
 5192SOL    HW116475   0.753   4.825   2.431
 5192SOL    HW216476   0.698   4.672   2.449
 5193SOL     OW16477   4.652   1.004   5.655
 5193SOL    HW116478   4.743   0.982   5.689
 5193SOL    HW216479   4.648   1.101   5.630
 5194SOL     OW16480   4.589   1.483   5.062
 5194SOL    HW116481   4.582   1.577   5.031
 5194SOL    HW216482   4.681   1.449   5.048
 5195SOL     OW16483   1.384   0.500   5.157
 5195SOL    HW116484   1.319   0.449   5.213
 5195SOL    HW216485   1.401   0.590   5.198
 5196SOL     OW16486   5.520   6.586   2.997
 5196SOL    HW116487   5.444   6.651   2.995
 5196SOL    HW216488   5.528   6.548   3.089
 5197SOL     OW16489   1.098   3.061   4.476
 5197SOL    HW116490   1.070   3.002   4.552
 5197SOL    HW216491   1.117   3.153   4.511
 5198SOL     OW16492   5.941   4.748   3.052
 5198SOL    HW116493   5.914   4.677   2.988
 5198SOL    HW216494   6.039   4.744   3.068
 5199SOL     OW16495   0.247   4.535   0.755
 5199SOL    HW116496   0.322   4.478   0.790
 5199SOL    HW216497   0.199   4.485   0.683
 5200SOL     OW16498   6.247   3.633   5.210
 5200SOL    HW116499   6.247   3.634   5.310
 5200SOL    HW216500   6.153   3.645   5.176
 5201SOL     OW16501   0.875   6.005   4.610
 5201SOL    HW116502   0.820   6.086   4.626
 5201SOL    HW216503   0.857   5.970   4.518
 5202SOL     OW16504   0.598   4.637   2.274
 5202SOL    HW116505   0.677   4.634   2.213
 5202SOL    HW216506   0.515   4.654   2.220
 5203SOL     OW16507   6.135   2.864   0.024
 5203SOL    HW116508   6.072   2.933   0.058
 5203SOL    HW216509   6.085   2.796   6.989
 5204SOL     OW16510   5.365   5.471   6.403
 5204SOL    HW116511   5.300   5.418   6.459
 5204SOL    HW216512   5.360   5.439   6.308
 5205SOL     OW16513   2.499   6.855   6.876
 5205SOL    HW116514   2.479   6.773   6.930
 5205SOL    HW216515   2.470   6.936   6.927
 5206SOL     OW16516   0.450   3.968   4.712
 5206SOL    HW116517   0.486   3.875   4.719
 5206SOL    HW216518   0.353   3.968   4.738
 5207SOL     OW16519   1.966   4.480   3.592
 5207SOL    HW116520   1.889   4.422   3.564
 5207SOL    HW216521   1.968   4.487   3.692
 5208SOL     OW16522   4.969   0.881   6.879
 5208SOL    HW116523   4.986   0.896   6.782
 5208SOL    HW216524   5.007   0.792   6.906
 5209SOL     OW16525   5.564   5.561   3.335
 5209SOL    HW116526   5.507   5.479   3.342
 5209SOL    HW216527   5.550   5.604   3.245
 5210SOL     OW16528   5.109   4.391   2.898
 5210SOL    HW116529   5.082   4.423   2.989
 5210SOL    HW216530   5.067   4.302   2.881
 5211SOL     OW16531   3.088   3.760   2.105
 5211SOL    HW116532   3.121   3.852   2.126
 5211SOL    HW216533   3.148   3.718   2.037
 5212SOL     OW16534   0.731   0.742   6.561
 5212SOL    HW116535   0.653   0.795   6.526
 5212SOL    HW216536   0.815   0.792   6.542
 5213SOL     OW16537   4.440   2.340   6.365
 5213SOL    HW116538   4.391   2.373   6.284
 5213SOL    HW216539   4.518   2.285   6.337
 5214SOL     OW16540   5.130   1.421   0.008
 5214SOL    HW116541   5.053   1.483   0.020
 5214SOL    HW216542   5.123   1.347   0.075
 5215SOL     OW16543   5.077   4.751   3.275
 5215SOL    HW116544   5.008   4.739   3.346
 5215SOL    HW216545   5.140   4.825   3.302
 5216SOL     OW16546   4.500   5.607   1.687
 5216SOL    HW116547   4.410   5.599   1.644
 5216SOL    HW216548   4.551   5.523   1.672
 5217SOL     OW16549   3.104   4.930   3.385
 5217SOL    HW116550   3.058   4.973   3.463
 5217SOL    HW216551   3.047   4.857   3.348
 5218SOL     OW16552   2.156   0.001   4.288
 5218SOL    HW116553   2.094   6.974   4.351
 5218SOL    HW216554   2.153   0.100   4.305
 5219SOL     OW16555   2.256   6.942   1.037
 5219SOL    HW116556   2.352   6.919   1.056
 5219SOL    HW216557   2.198   6.863   1.056
 5220SOL     OW16558   0.958   6.601   1.729
 5220SOL    HW116559   1.014   6.684   1.730
 5220SOL    HW216560   0.954   6.564   1.637
 5221SOL     OW16561   4.330   1.221   6.252
 5221SOL    HW116562   4.233   1.230   6.274
 5221SOL    HW216563   4.355   1.124   6.249
 5222SOL     OW16564   0.547   6.936   2.630
 5222SOL    HW116565   0.499   7.018   2.600
 5222SOL    HW216566   0.506   6.903   2.715
 5223SOL     OW16567   4.780   6.738   0.804
 5223SOL    HW116568   4.721   6.659   0.785
 5223SOL    HW216569   4.725   6.812   0.843
 5224SOL     OW16570   5.398   1.574   3.113
 5224SOL    HW116571   5.455   1.613   3.041
 5224SOL    HW216572   5.412   1.625   3.198
 5225SOL     OW16573   6.843   6.867   5.634
 5225SOL    HW116574   6.866   6.777   5.599
 5225SOL    HW216575   6.884   6.880   5.725
 5226SOL     OW16576   2.957   6.285   4.228
 5226SOL    HW116577   3.037   6.341   4.245
 5226SOL    HW216578   2.983   6.204   4.175
 5227SOL     OW16579   4.946   3.638   3.793
 5227SOL    HW116580   5.046   3.648   3.795
 5227SOL    HW216581   4.922   3.542   3.805
 5228SOL     OW16582   5.226   0.870   1.451
 5228SOL    HW116583   5.326   0.865   1.454
 5228SOL    HW216584   5.187   0.791   1.499
 5229SOL     OW16585   1.166   3.950   3.868
 5229SOL    HW116586   1.212   3.908   3.790
 5229SOL    HW216587   1.069   3.923   3.868
 5230SOL     OW16588   0.942   6.442   6.121
 5230SOL    HW116589   1.009   6.455   6.047
 5230SOL    HW216590   0.988   6.403   6.201
 5231SOL     OW16591   3.639   3.170   3.021
 5231SOL    HW116592   3.641   3.073   3.047
 5231SOL    HW216593   3.545   3.204   3.028
 5232SOL     OW16594   5.071   3.081   5.002
 5232SOL    HW116595   5.141   3.035   4.946
 5232SOL    HW216596   5.060   3.175   4.970
 5233SOL     OW16597   0.654   6.924   2.928
 5233SOL    HW116598   0.591   6.999   2.906
 5233SOL    HW216599   0.745   6.962   2.946
 5234SOL     OW16600   4.038   5.320   1.314
 5234SOL    HW116601   3.966   5.388   1.332
 5234SOL    HW216602   3.996   5.231   1.294
 5235SOL     OW16603   0.562   3.377   1.228
 5235SOL    HW116604   0.507   3.312   1.280
 5235SOL    HW216605   0.658   3.369   1.256
 5236SOL     OW16606   5.736   3.666   1.387
 5236SOL    HW116607   5.650   3.622   1.412
 5236SOL    HW216608   5.729   3.705   1.296
 5237SOL     OW16609   1.868   1.927   3.909
 5237SOL    HW116610   1.868   2.027   3.913
 5237SOL    HW216611   1.907   1.897   3.822
 5238SOL     OW16612   1.943   3.528   1.172
 5238SOL    HW116613   1.972   3.606   1.228
 5238SOL    HW216614   1.885   3.468   1.227
 5239SOL     OW16615   3.143   3.627   4.850
 5239SOL    HW116616   3.184   3.601   4.762
 5239SOL    HW216617   3.190   3.707   4.887
 5240SOL     OW16618   3.505   1.588   4.726
 5240SOL    HW116619   3.561   1.662   4.688
 5240SOL    HW216620   3.413   1.621   4.744
 5241SOL     OW16621   3.168   5.743   5.771
 5241SOL    HW116622   3.164   5.686   5.689
 5241SOL    HW216623   3.238   5.707   5.833
 5242SOL     OW16624   4.449   0.862   5.194
 5242SOL    HW116625   4.528   0.802   5.204
 5242SOL    HW216626   4.378   0.834   5.259
 5243SOL     OW16627   0.587   4.272   0.166
 5243SOL    HW116628   0.534   4.189   0.186
 5243SOL    HW216629   0.649   4.253   0.090
 5244SOL     OW16630   6.109   3.417   0.140
 5244SOL    HW116631   6.014   3.448   0.143
 5244SOL    HW216632   6.113   3.322   0.171
 5245SOL     OW16633   4.497   4.691   6.662
 5245SOL    HW116634   4.431   4.748   6.712
 5245SOL    HW216635   4.563   4.654   6.726
 5246SOL     OW16636   1.106   2.991   3.175
 5246SOL    HW116637   1.029   2.961   3.232
 5246SOL    HW216638   1.071   3.024   3.087
 5247SOL     OW16639   0.039   4.715   0.818
 5247SOL    HW116640   0.116   4.652   0.814
 5247SOL    HW216641   6.988   4.686   0.752
 5248SOL     OW16642   4.866   0.094   0.340
 5248SOL    HW116643   4.904   0.090   0.432
 5248SOL    HW216644   4.904   0.019   0.285
 5249SOL     OW16645   1.575   5.671   6.158
 5249SOL    HW116646   1.477   5.661   6.175
 5249SOL    HW216647   1.622   5.680   6.246
 5250SOL     OW16648   1.272   1.592   5.718
 5250SOL    HW116649   1.370   1.610   5.717
 5250SOL    HW216650   1.249   1.527   5.646
 5251SOL     OW16651   0.900   3.203   1.037
 5251SOL    HW116652   0.859   3.236   0.952
 5251SOL    HW216653   0.909   3.104   1.033
 5252SOL     OW16654   4.591   6.596   1.071
 5252SOL    HW116655   4.555   6.582   1.164
 5252SOL    HW216656   4.550   6.677   1.031
 5253SOL     OW16657   5.975   2.555   3.206
 5253SOL    HW116658   5.993   2.631   3.268
 5253SOL    HW216659   6.059   2.530   3.158
 5254SOL     OW16660   4.972   0.211   4.153
 5254SOL    HW116661   5.062   0.172   4.131
 5254SOL    HW216662   4.902   0.163   4.100
 5255SOL     OW16663   3.381   6.240   4.861
 5255SOL    HW116664   3.360   6.149   4.827
 5255SOL    HW216665   3.454   6.235   4.930
 5256SOL     OW16666   5.221   6.545   2.170
 5256SOL    HW116667   5.188   6.629   2.212
 5256SOL    HW216668   5.213   6.469   2.235
 5257SOL     OW16669   3.398   1.095   3.321
 5257SOL    HW116670   3.410   1.057   3.230
 5257SOL    HW216671   3.399   1.021   3.388
 5258SOL     OW16672   5.744   1.981   1.829
 5258SOL    HW116673   5.822   2.013   1.884
 5258SOL    HW216674   5.755   2.012   1.735
 5259SOL     OW16675   5.519   4.528   1.545
 5259SOL    HW116676   5.472   4.460   1.601
 5259SOL    HW216677   5.452   4.577   1.489
 5260SOL     OW16678   4.949   3.142   2.020
 5260SOL    HW116679   4.872   3.082   2.045
 5260SOL    HW216680   4.946   3.162   1.923
 5261SOL     OW16681   2.585   2.468   4.666
 5261SOL    HW116682   2.592   2.511   4.756
 5261SOL    HW216683   2.664   2.410   4.650
 5262SOL     OW16684   1.979   0.202   1.965
 5262SOL    HW116685   1.983   0.240   2.058
 5262SOL    HW216686   1.925   0.118   1.966
 5263SOL     OW16687   0.404   6.324   0.016
 5263SOL    HW116688   0.315   6.340   0.059
 5263SOL    HW216689   0.391   6.317   6.936
 5264SOL     OW16690   0.658   1.770   1.113
 5264SOL    HW116691   0.576   1.805   1.158
 5264SOL    HW216692   0.703   1.844   1.063
 5265SOL     OW16693   5.423   5.136   3.246
 5265SOL    HW116694   5.500   5.142   3.184
 5265SOL    HW216695   5.453   5.100   3.334
 5266SOL     OW16696   0.932   6.670   1.356
 5266SOL    HW116697   1.017   6.723   1.349
 5266SOL    HW216698   0.871   6.714   1.422
 5267SOL     OW16699   4.603   3.524   5.356
 5267SOL    HW116700   4.618   3.621   5.378
 5267SOL    HW216701   4.639   3.505   5.265
 5268SOL     OW16702   5.873   5.301   5.460
 5268SOL    HW116703   5.865   5.267   5.366
 5268SOL    HW216704   5.960   5.272   5.499
 5269SOL     OW16705   1.995   4.581   5.987
 5269SOL    HW116706   2.061   4.565   5.914
 5269SOL    HW216707   2.043   4.589   6.074
 5270SOL     OW16708   6.302   2.619   2.633
 5270SOL    HW116709   6.328   2.598   2.539
 5270SOL    HW216710   6.354   2.698   2.666
 5271SOL     OW16711   5.297   4.349   5.443
 5271SOL    HW116712   5.310   4.339   5.541
 5271SOL    HW216713   5.225   4.286   5.413
 5272SOL     OW16714   1.647   1.137   3.959
 5272SOL    HW116715   1.587   1.081   4.016
 5272SOL    HW216716   1.741   1.132   3.994
 5273SOL     OW16717   0.316   0.293   4.724
 5273SOL    HW116718   0.317   0.252   4.816
 5273SOL    HW216719   0.221   0.300   4.692
 5274SOL     OW16720   0.299   5.843   4.268
 5274SOL    HW116721   0.208   5.871   4.301
 5274SOL    HW216722   0.304   5.744   4.263
 5275SOL     OW16723   1.727   6.861   0.058
 5275SOL    HW116724   1.763   6.953   0.072
 5275SOL    HW216725   1.666   6.861   6.998
 5276SOL     OW16726   0.159   0.330   0.612
 5276SOL    HW116727   0.116   0.411   0.654
 5276SOL    HW216728   0.175   0.348   0.515
 5277SOL     OW16729   1.150   1.425   2.329
 5277SOL    HW116730   1.103   1.439   2.242
 5277SOL    HW216731   1.239   1.383   2.313
 5278SOL     OW16732   0.437   3.802   6.225
 5278SOL    HW116733   0.497   3.844   6.156
 5278SOL    HW216734   0.342   3.818   6.200
 5279SOL     OW16735   2.262   6.117   6.658
 5279SOL    HW116736   2.239   6.048   6.589
 5279SOL    HW216737   2.187   6.184   6.663
 5280SOL     OW16738   4.897   6.622   5.275
 5280SOL    HW116739   4.963   6.685   5.234
 5280SOL    HW216740   4.804   6.650   5.252
 5281SOL     OW16741   2.587   6.711   5.327
 5281SOL    HW116742   2.569   6.614   5.346
 5281SOL    HW216743   2.675   6.736   5.365
 5282SOL     OW16744   0.869   0.137   0.617
 5282SOL    HW116745   0.832   0.143   0.524
 5282SOL    HW216746   0.804   0.089   0.676
 5283SOL     OW16747   0.911   0.917   3.505
 5283SOL    HW116748   0.889   0.820   3.518
 5283SOL    HW216749   0.896   0.966   3.591
 5284SOL     OW16750   4.860   3.163   1.752
 5284SOL    HW116751   4.787   3.111   1.796
 5284SOL    HW216752   4.909   3.104   1.688
 5285SOL     OW16753   1.327   1.771   4.029
 5285SOL    HW116754   1.367   1.862   4.018
 5285SOL    HW216755   1.394   1.702   4.000
 5286SOL     OW16756   6.143   3.083   1.557
 5286SOL    HW116757   6.170   3.000   1.509
 5286SOL    HW216758   6.108   3.149   1.491
 5287SOL     OW16759   1.380   5.354   1.048
 5287SOL    HW116760   1.380   5.440   0.996
 5287SOL    HW216761   1.413   5.281   0.989
 5288SOL     OW16762   3.945   0.461   1.442
 5288SOL    HW116763   3.955   0.506   1.531
 5288SOL    HW216764   3.915   0.366   1.456
 5289SOL     OW16765   2.223   4.513   5.860
 5289SOL    HW116766   2.218   4.512   5.760
 5289SOL    HW216767   2.314   4.544   5.888
 5290SOL     OW16768   2.102   3.358   4.887
 5290SOL    HW116769   2.158   3.312   4.818
 5290SOL    HW216770   2.111   3.310   4.975
 5291SOL     OW16771   3.403   4.978   4.489
 5291SOL    HW116772   3.361   5.055   4.442
 5291SOL    HW216773   3.349   4.895   4.472
 5292SOL     OW16774   0.396   3.544   5.241
 5292SOL    HW116775   0.455   3.513   5.316
 5292SOL    HW216776   0.415   3.641   5.222
 5293SOL     OW16777   2.164   6.871   4.678
 5293SOL    HW116778   2.194   6.793   4.623
 5293SOL    HW216779   2.159   6.843   4.774
 5294SOL     OW16780   4.929   6.984   5.167
 5294SOL    HW116781   5.005   6.921   5.182
 5294SOL    HW216782   4.962   0.046   5.117
 5295SOL     OW16783   2.329   0.759   2.816
 5295SOL    HW116784   2.331   0.829   2.744
 5295SOL    HW216785   2.416   0.756   2.864
 5296SOL     OW16786   4.586   4.572   1.565
 5296SOL    HW116787   4.627   4.523   1.488
 5296SOL    HW216788   4.606   4.523   1.650
 5297SOL     OW16789   2.830   5.525   5.786
 5297SOL    HW116790   2.786   5.577   5.713
 5297SOL    HW216791   2.835   5.428   5.759
 5298SOL     OW16792   2.047   1.292   0.715
 5298SOL    HW116793   2.141   1.264   0.698
 5298SOL    HW216794   1.985   1.227   0.671
 5299SOL     OW16795   2.751   1.343   1.678
 5299SOL    HW116796   2.716   1.436   1.673
 5299SOL    HW216797   2.676   1.279   1.693
 5300SOL     OW16798   2.813   4.921   6.709
 5300SOL    HW116799   2.765   4.948   6.792
 5300SOL    HW216800   2.866   4.998   6.674
 5301SOL     OW16801   5.984   0.231   6.103
 5301SOL    HW116802   5.946   0.144   6.075
 5301SOL    HW216803   5.913   0.301   6.103
 5302SOL     OW16804   5.736   5.964   2.697
 5302SOL    HW116805   5.686   6.013   2.768
 5302SOL    HW216806   5.829   5.945   2.728
 5303SOL     OW16807   1.086   5.201   5.821
 5303SOL    HW116808   1.150   5.268   5.858
 5303SOL    HW216809   0.994   5.219   5.857
 5304SOL     OW16810   0.081   0.359   2.972
 5304SOL    HW116811   0.082   0.288   2.901
 5304SOL    HW216812   0.120   0.322   3.056
 5305SOL     OW16813   0.205   4.867   3.642
 5305SOL    HW116814   0.260   4.949   3.626
 5305SOL    HW216815   0.258   4.801   3.694
 5306SOL     OW16816   0.464   2.808   6.157
 5306SOL    HW116817   0.423   2.864   6.084
 5306SOL    HW216818   0.434   2.713   6.147
 5307SOL     OW16819   6.603   1.903   1.583
 5307SOL    HW116820   6.688   1.956   1.579
 5307SOL    HW216821   6.623   1.810   1.612
 5308SOL     OW16822   1.436   3.946   3.185
 5308SOL    HW116823   1.496   3.966   3.263
 5308SOL    HW216824   1.483   3.969   3.100
 5309SOL     OW16825   6.416   5.200   3.293
 5309SOL    HW116826   6.436   5.119   3.347
 5309SOL    HW216827   6.358   5.262   3.346
 5310SOL     OW16828   5.648   2.513   2.517
 5310SOL    HW116829   5.637   2.587   2.451
 5310SOL    HW216830   5.737   2.469   2.504
 5311SOL     OW16831   5.680   0.090   0.536
 5311SOL    HW116832   5.741   0.170   0.536
 5311SOL    HW216833   5.708   0.026   0.607
 5312SOL     OW16834   6.335   6.721   0.319
 5312SOL    HW116835   6.342   6.809   0.367
 5312SOL    HW216836   6.405   6.659   0.353
 5313SOL     OW16837   1.034   6.254   5.520
 5313SOL    HW116838   0.984   6.299   5.594
 5313SOL    HW216839   1.133   6.262   5.537
 5314SOL     OW16840   5.765   0.811   1.772
 5314SOL    HW116841   5.761   0.906   1.742
 5314SOL    HW216842   5.798   0.807   1.866
 5315SOL     OW16843   4.536   1.712   4.146
 5315SOL    HW116844   4.464   1.774   4.117
 5315SOL    HW216845   4.615   1.721   4.085
 5316SOL     OW16846   0.824   2.245   4.773
 5316SOL    HW116847   0.919   2.261   4.748
 5316SOL    HW216848   0.803   2.290   4.860
 5317SOL     OW16849   5.896   2.779   6.946
 5317SOL    HW116850   5.870   2.850   7.011
 5317SOL    HW216851   5.883   2.812   6.853
 5318SOL     OW16852   0.142   4.107   6.936
 5318SOL    HW116853   0.181   4.135   0.004
 5318SOL    HW216854   0.152   4.181   6.870
 5319SOL     OW16855   4.219   6.856   2.276
 5319SOL    HW116856   4.216   6.806   2.189
 5319SOL    HW216857   4.314   6.860   2.308
 5320SOL     OW16858   4.083   5.470   0.944
 5320SOL    HW116859   4.132   5.412   1.009
 5320SOL    HW216860   4.058   5.556   0.989
 5321SOL     OW16861   1.850   4.367   5.287
 5321SOL    HW116862   1.769   4.351   5.344
 5321SOL    HW216863   1.930   4.328   5.331
 5322SOL     OW16864   4.771   6.686   2.135
 5322SOL    HW116865   4.782   6.589   2.156
 5322SOL    HW216866   4.676   6.713   2.153
 5323SOL     OW16867   4.452   0.657   5.704
 5323SOL    HW116868   4.432   0.560   5.687
 5323SOL    HW216869   4.550   0.674   5.689
 5324SOL     OW16870   1.955   1.929   1.090
 5324SOL    HW116871   1.902   1.962   1.169
 5324SOL    HW216872   1.944   1.830   1.082
 5325SOL     OW16873   2.139   1.967   5.019
 5325SOL    HW116874   2.182   2.029   4.953
 5325SOL    HW216875   2.040   1.982   5.019
 5326SOL     OW16876   6.237   6.488   2.128
 5326SOL    HW116877   6.288   6.411   2.167
 5326SOL    HW216878   6.300   6.545   2.075
 5327SOL     OW16879   0.192   3.236   5.748
 5327SOL    HW116880   0.248   3.161   5.713
 5327SOL    HW216881   0.182   3.306   5.678
 5328SOL     OW16882   4.783   5.358   0.158
 5328SOL    HW116883   4.690   5.367   0.124
 5328SOL    HW216884   4.791   5.272   0.210
 5329SOL     OW16885   1.213   6.710   6.491
 5329SOL    HW116886   1.204   6.653   6.410
 5329SOL    HW216887   1.134   6.771   6.498
 5330SOL     OW16888   2.019   4.654   1.446
 5330SOL    HW116889   2.050   4.709   1.523
 5330SOL    HW216890   1.996   4.714   1.369
 5331SOL     OW16891   6.319   0.872   6.446
 5331SOL    HW116892   6.311   0.954   6.502
 5331SOL    HW216893   6.331   0.792   6.504
 5332SOL     OW16894   0.311   4.615   1.587
 5332SOL    HW116895   0.263   4.558   1.654
 5332SOL    HW216896   0.334   4.560   1.507
 5333SOL     OW16897   1.294   6.304   4.532
 5333SOL    HW116898   1.253   6.213   4.524
 5333SOL    HW216899   1.391   6.299   4.506
 5334SOL     OW16900   3.588   0.218   4.335
 5334SOL    HW116901   3.654   0.266   4.392
 5334SOL    HW216902   3.551   0.140   4.385
 5335SOL     OW16903   6.817   5.612   0.112
 5335SOL    HW116904   6.790   5.706   0.094
 5335SOL    HW216905   6.917   5.605   0.109
 5336SOL     OW16906   0.939   3.745   2.094
 5336SOL    HW116907   0.843   3.741   2.067
 5336SOL    HW216908   0.952   3.820   2.158
 5337SOL     OW16909   5.326   4.208   1.493
 5337SOL    HW116910   5.230   4.185   1.477
 5337SOL    HW216911   5.333   4.276   1.566
 5338SOL     OW16912   6.376   1.424   6.755
 5338SOL    HW116913   6.474   1.416   6.736
 5338SOL    HW216914   6.327   1.443   6.671
 5339SOL     OW16915   6.308   0.567   2.595
 5339SOL    HW116916   6.402   0.532   2.596
 5339SOL    HW216917   6.296   0.626   2.515
 5340SOL     OW16918   5.370   2.505   5.857
 5340SOL    HW116919   5.459   2.482   5.896
 5340SOL    HW216920   5.299   2.449   5.901
 5341SOL     OW16921   4.036   0.231   0.315
 5341SOL    HW116922   4.015   0.134   0.303
 5341SOL    HW216923   3.976   0.286   0.256
 5342SOL     OW16924   2.550   0.695   6.079
 5342SOL    HW116925   2.551   0.605   6.036
 5342SOL    HW216926   2.622   0.752   6.038
 5343SOL     OW16927   3.256   3.992   2.211
 5343SOL    HW116928   3.262   3.992   2.311
 5343SOL    HW216929   3.339   4.034   2.173
 5344SOL     OW16930   2.657   2.415   3.093
 5344SOL    HW116931   2.607   2.478   3.152
 5344SOL    HW216932   2.595   2.348   3.054
 5345SOL     OW16933   4.575   6.964   2.044
 5345SOL    HW116934   4.674   6.970   2.030
 5345SOL    HW216935   4.539   6.886   1.994
 5346SOL     OW16936   2.286   6.713   3.438
 5346SOL    HW116937   2.337   6.773   3.377
 5346SOL    HW216938   2.189   6.737   3.434
 5347SOL     OW16939   0.105   1.913   2.258
 5347SOL    HW116940   0.186   1.864   2.226
 5347SOL    HW216941   0.095   1.998   2.206
 5348SOL     OW16942   6.765   0.705   0.438
 5348SOL    HW116943   6.796   0.652   0.516
 5348SOL    HW216944   6.700   0.774   0.468
 5349SOL     OW16945   6.614   0.444   1.806
 5349SOL    HW116946   6.522   0.406   1.796
 5349SOL    HW216947   6.649   0.471   1.716
 5350SOL     OW16948   2.481   0.882   6.727
 5350SOL    HW116949   2.557   0.906   6.668
 5350SOL    HW216950   2.448   0.963   6.774
 5351SOL     OW16951   4.176   0.812   1.965
 5351SOL    HW116952   4.117   0.738   1.999
 5351SOL    HW216953   4.201   0.872   2.041
 5352SOL     OW16954   3.043   6.301   3.531
 5352SOL    HW116955   3.032   6.400   3.525
 5352SOL    HW216956   2.967   6.256   3.486
 5353SOL     OW16957   5.811   0.448   5.415
 5353SOL    HW116958   5.856   0.365   5.381
 5353SOL    HW216959   5.789   0.437   5.512
 5354SOL     OW16960   1.155   3.748   1.318
 5354SOL    HW116961   1.163   3.840   1.279
 5354SOL    HW216962   1.092   3.694   1.262
 5355SOL     OW16963   4.317   1.855   4.874
 5355SOL    HW116964   4.396   1.900   4.832
 5355SOL    HW216965   4.278   1.917   4.943
 5356SOL     OW16966   5.728   3.770   1.138
 5356SOL    HW116967   5.700   3.861   1.168
 5356SOL    HW216968   5.818   3.775   1.096
 5357SOL     OW16969   3.455   7.017   0.260
 5357SOL    HW116970   3.410   0.011   0.172
 5357SOL    HW216971   3.554   0.006   0.248
 5358SOL     OW16972   4.640   3.159   1.347
 5358SOL    HW116973   4.622   3.069   1.386
 5358SOL    HW216974   4.576   3.175   1.271
 5359SOL     OW16975   2.563   0.113   6.771
 5359SOL    HW116976   2.627   0.059   6.825
 5359SOL    HW216977   2.547   0.201   6.815
 5360SOL     OW16978   4.192   0.003   6.583
 5360SOL    HW116979   4.154   6.934   6.556
 5360SOL    HW216980   4.137   0.077   6.543
 5361SOL     OW16981   1.926   0.579   6.136
 5361SOL    HW116982   2.017   0.541   6.152
 5361SOL    HW216983   1.898   0.635   6.214
 5362SOL     OW16984   4.342   5.888   3.941
 5362SOL    HW116985   4.328   5.896   3.843
 5362SOL    HW216986   4.391   5.803   3.961
 5363SOL     OW16987   0.642   5.190   5.694
 5363SOL    HW116988   0.560   5.169   5.747
 5363SOL    HW216989   0.722   5.178   5.752
 5364SOL     OW16990   0.354   6.293   6.770
 5364SOL    HW116991   0.329   6.367   6.708
 5364SOL    HW216992   0.342   6.205   6.724
 5365SOL     OW16993   3.865   2.243   6.068
 5365SOL    HW116994   3.896   2.171   6.007
 5365SOL    HW216995   3.776   2.219   6.106
 5366SOL     OW16996   3.692   4.185   6.849
 5366SOL    HW116997   3.722   4.097   6.886
 5366SOL    HW216998   3.592   4.190   6.852
 5367SOL     OW16999   0.378   4.251   1.035
 5367SOL    HW117000   0.413   4.316   0.967
 5367SOL    HW217001   0.442   4.245   1.111
 5368SOL     OW17002   6.202   0.823   3.944
 5368SOL    HW117003   6.177   0.863   4.032
 5368SOL    HW217004   6.183   0.725   3.944
 5369SOL     OW17005   1.544   3.970   2.656
 5369SOL    HW117006   1.478   3.969   2.732
 5369SOL    HW217007   1.509   3.914   2.581
 5370SOL     OW17008   3.927   2.900   1.591
 5370SOL    HW117009   3.988   2.951   1.531
 5370SOL    HW217010   3.908   2.954   1.674
 5371SOL     OW17011   1.471   4.037   5.193
 5371SOL    HW117012   1.387   3.986   5.177
 5371SOL    HW217013   1.548   3.989   5.150
 5372SOL     OW17014   3.062   5.336   3.136
 5372SOL    HW117015   3.002   5.318   3.214
 5372SOL    HW217016   3.066   5.434   3.119
 5373SOL     OW17017   2.271   4.959   4.159
 5373SOL    HW117018   2.309   5.047   4.185
 5373SOL    HW217019   2.345   4.891   4.152
 5374SOL     OW17020   3.179   2.223   0.438
 5374SOL    HW117021   3.255   2.270   0.483
 5374SOL    HW217022   3.192   2.124   0.446
 5375SOL     OW17023   1.811   4.581   4.505
 5375SOL    HW117024   1.771   4.546   4.420
 5375SOL    HW217025   1.823   4.505   4.569
 5376SOL     OW17026   2.973   4.107   0.095
 5376SOL    HW117027   3.015   4.186   0.139
 5376SOL    HW217028   3.028   4.025   0.116
 5377SOL     OW17029   0.659   1.384   1.395
 5377SOL    HW117030   0.698   1.463   1.441
 5377SOL    HW217031   0.722   1.306   1.404
 5378SOL     OW17032   4.403   6.847   0.234
 5378SOL    HW117033   4.498   6.870   0.256
 5378SOL    HW217034   4.378   6.763   0.282
 5379SOL     OW17035   6.897   6.664   1.435
 5379SOL    HW117036   6.941   6.753   1.432
 5379SOL    HW217037   6.845   6.655   1.520
 5380SOL     OW17038   2.548   0.342   4.340
 5380SOL    HW117039   2.499   0.329   4.426
 5380SOL    HW217040   2.564   0.439   4.325
 5381SOL     OW17041   5.385   3.766   1.535
 5381SOL    HW117042   5.427   3.679   1.510
 5381SOL    HW217043   5.343   3.758   1.625
 5382SOL     OW17044   1.621   0.247   1.733
 5382SOL    HW117045   1.588   0.197   1.813
 5382SOL    HW217046   1.719   0.232   1.722
 5383SOL     OW17047   1.944   2.210   4.866
 5383SOL    HW117048   1.899   2.264   4.794
 5383SOL    HW217049   1.954   2.266   4.948
 5384SOL     OW17050   5.973   6.995   4.142
 5384SOL    HW117051   6.015   0.042   4.080
 5384SOL    HW217052   5.875   6.990   4.123
 5385SOL     OW17053   3.086   3.697   2.716
 5385SOL    HW117054   3.070   3.777   2.658
 5385SOL    HW217055   3.165   3.646   2.682
 5386SOL     OW17056   5.507   0.012   5.708
 5386SOL    HW117057   5.464   0.071   5.776
 5386SOL    HW217058   5.524   0.065   5.624
 5387SOL     OW17059   3.113   5.417   1.157
 5387SOL    HW117060   3.139   5.497   1.102
 5387SOL    HW217061   3.122   5.334   1.102
 5388SOL     OW17062   6.062   6.633   2.347
 5388SOL    HW117063   6.052   6.641   2.248
 5388SOL    HW217064   6.153   6.664   2.375
 5389SOL     OW17065   4.591   2.165   1.200
 5389SOL    HW117066   4.659   2.120   1.141
 5389SOL    HW217067   4.559   2.101   1.269
 5390SOL     OW17068   6.267   4.877   5.889
 5390SOL    HW117069   6.210   4.895   5.969
 5390SOL    HW217070   6.218   4.819   5.824
 5391SOL     OW17071   2.623   3.873   0.160
 5391SOL    HW117072   2.654   3.965   0.135
 5391SOL    HW217073   2.688   3.805   0.126
 5392SOL     OW17074   6.099   2.646   2.385
 5392SOL    HW117075   6.153   2.562   2.383
 5392SOL    HW217076   6.110   2.695   2.298
 5393SOL     OW17077   6.091   6.753   6.293
 5393SOL    HW117078   6.085   6.722   6.198
 5393SOL    HW217079   6.053   6.846   6.300
 5394SOL     OW17080   1.675   4.079   5.854
 5394SOL    HW117081   1.687   4.037   5.944
 5394SOL    HW217082   1.627   4.166   5.865
 5395SOL     OW17083   4.624   0.792   0.115
 5395SOL    HW117084   4.612   0.710   0.060
 5395SOL    HW217085   4.576   0.781   0.202
 5396SOL     OW17086   5.183   3.044   2.234
 5396SOL    HW117087   5.271   3.092   2.234
 5396SOL    HW217088   5.170   3.000   2.146
 5397SOL     OW17089   0.480   2.936   1.511
 5397SOL    HW117090   0.523   3.024   1.531
 5397SOL    HW217091   0.550   2.866   1.498
 5398SOL     OW17092   3.443   3.238   1.927
 5398SOL    HW117093   3.504   3.174   1.880
 5398SOL    HW217094   3.490   3.325   1.942
 5399SOL     OW17095   1.174   6.264   0.271
 5399SOL    HW117096   1.181   6.324   0.191
 5399SOL    HW217097   1.090   6.209   0.264
 5400SOL     OW17098   2.458   4.435   6.688
 5400SOL    HW117099   2.426   4.342   6.706
 5400SOL    HW217100   2.438   4.459   6.593
 5401SOL     OW17101   6.379   2.343   1.636
 5401SOL    HW117102   6.337   2.276   1.575
 5401SOL    HW217103   6.475   2.356   1.609
 5402SOL     OW17104   1.905   6.326   2.590
 5402SOL    HW117105   1.939   6.268   2.664
 5402SOL    HW217106   1.856   6.404   2.629
 5403SOL     OW17107   6.183   3.321   6.873
 5403SOL    HW117108   6.271   3.290   6.840
 5403SOL    HW217109   6.195   3.371   6.959
 5404SOL     OW17110   1.431   2.988   2.839
 5404SOL    HW117111   1.474   3.073   2.810
 5404SOL    HW217112   1.402   2.996   2.934
 5405SOL     OW17113   6.891   4.143   5.883
 5405SOL    HW117114   6.915   4.057   5.837
 5405SOL    HW217115   6.872   4.126   5.979
 5406SOL     OW17116   1.956   6.915   4.452
 5406SOL    HW117117   1.916   6.859   4.380
 5406SOL    HW217118   1.951   6.866   4.539
 5407SOL     OW17119   4.305   3.232   6.963
 5407SOL    HW117120   4.308   3.137   6.996
 5407SOL    HW217121   4.290   3.232   6.864
 5408SOL     OW17122   3.185   1.358   0.261
 5408SOL    HW117123   3.105   1.413   0.237
 5408SOL    HW217124   3.181   1.336   0.359
 5409SOL     OW17125   3.841   0.757   2.656
 5409SOL    HW117126   3.743   0.742   2.664
 5409SOL    HW217127   3.858   0.845   2.611
 5410SOL     OW17128   1.603   2.503   2.470
 5410SOL    HW117129   1.562   2.412   2.460
 5410SOL    HW217130   1.649   2.509   2.559
 5411SOL     OW17131   1.150   5.112   4.480
 5411SOL    HW117132   1.162   5.209   4.498
 5411SOL    HW217133   1.133   5.097   4.382
 5412SOL     OW17134   5.945   2.791   1.517
 5412SOL    HW117135   5.887   2.771   1.438
 5412SOL    HW217136   5.893   2.776   1.601
 5413SOL     OW17137   2.702   0.438   2.099
 5413SOL    HW117138   2.782   0.389   2.066
 5413SOL    HW217139   2.627   0.374   2.116
 5414SOL     OW17140   4.421   0.923   5.782
 5414SOL    HW117141   4.417   0.823   5.784
 5414SOL    HW217142   4.509   0.952   5.743
 5415SOL     OW17143   5.876   4.118   2.126
 5415SOL    HW117144   5.939   4.076   2.061
 5415SOL    HW217145   5.903   4.213   2.143
 5416SOL     OW17146   4.388   5.233   4.092
 5416SOL    HW117147   4.437   5.247   4.006
 5416SOL    HW217148   4.404   5.311   4.153
 5417SOL     OW17149   3.761   6.815   5.034
 5417SOL    HW117150   3.679   6.821   5.091
 5417SOL    HW217151   3.815   6.899   5.043
 5418SOL     OW17152   3.404   0.455   2.923
 5418SOL    HW117153   3.396   0.554   2.936
 5418SOL    HW217154   3.380   0.408   3.008
 5419SOL     OW17155   3.409   4.206   6.827
 5419SOL    HW117156   3.365   4.181   6.913
 5419SOL    HW217157   3.413   4.305   6.819
 5420SOL     OW17158   1.245   1.847   2.595
 5420SOL    HW117159   1.161   1.895   2.569
 5420SOL    HW217160   1.277   1.792   2.518
 5421SOL     OW17161   1.642   3.217   1.742
 5421SOL    HW117162   1.703   3.163   1.684
 5421SOL    HW217163   1.603   3.292   1.689
 5422SOL     OW17164   1.798   3.963   0.671
 5422SOL    HW117165   1.810   4.028   0.746
 5422SOL    HW217166   1.751   4.008   0.595
 5423SOL     OW17167   5.890   3.780   6.182
 5423SOL    HW117168   5.925   3.712   6.246
 5423SOL    HW217169   5.790   3.780   6.185
 5424SOL     OW17170   5.650   3.742   5.413
 5424SOL    HW117171   5.577   3.765   5.348
 5424SOL    HW217172   5.622   3.768   5.505
 5425SOL     OW17173   5.396   0.886   4.691
 5425SOL    HW117174   5.387   0.816   4.762
 5425SOL    HW217175   5.321   0.877   4.626
 5426SOL     OW17176   6.840   6.926   5.064
 5426SOL    HW117177   6.742   6.941   5.072
 5426SOL    HW217178   6.863   6.835   5.099
 5427SOL     OW17179   4.052   6.035   0.137
 5427SOL    HW117180   4.077   6.073   0.048
 5427SOL    HW217181   4.044   5.936   0.130
 5428SOL     OW17182   1.441   0.546   6.413
 5428SOL    HW117183   1.378   0.489   6.465
 5428SOL    HW217184   1.534   0.510   6.423
 5429SOL     OW17185   1.601   2.596   6.699
 5429SOL    HW117186   1.553   2.513   6.728
 5429SOL    HW217187   1.687   2.603   6.749
 5430SOL     OW17188   1.831   1.973   4.960
 5430SOL    HW117189   1.860   2.058   4.915
 5430SOL    HW217190   1.830   1.986   5.059
 5431SOL     OW17191   3.674   5.984   4.516
 5431SOL    HW117192   3.658   6.083   4.520
 5431SOL    HW217193   3.596   5.940   4.470
 5432SOL     OW17194   5.890   6.286   1.309
 5432SOL    HW117195   5.963   6.341   1.352
 5432SOL    HW217196   5.928   6.199   1.280
 5433SOL     OW17197   6.957   2.122   4.447
 5433SOL    HW117198   6.978   2.159   4.357
 5433SOL    HW217199   6.879   2.172   4.486
 5434SOL     OW17200   2.884   6.794   5.606
 5434SOL    HW117201   2.823   6.870   5.583
 5434SOL    HW217202   2.942   6.772   5.528
 5435SOL     OW17203   4.470   1.168   1.494
 5435SOL    HW117204   4.396   1.218   1.449
 5435SOL    HW217205   4.526   1.122   1.424
 5436SOL     OW17206   5.240   3.663   2.553
 5436SOL    HW117207   5.201   3.753   2.575
 5436SOL    HW217208   5.309   3.674   2.482
 5437SOL     OW17209   3.324   3.921   6.405
 5437SOL    HW117210   3.402   3.892   6.349
 5437SOL    HW217211   3.357   3.952   6.494
 5438SOL     OW17212   6.537   1.412   1.801
 5438SOL    HW117213   6.546   1.333   1.862
 5438SOL    HW217214   6.440   1.427   1.781
 5439SOL     OW17215   1.752   2.473   1.152
 5439SOL    HW117216   1.660   2.482   1.190
 5439SOL    HW217217   1.819   2.493   1.224
 5440SOL     OW17218   1.450   2.006   0.659
 5440SOL    HW117219   1.493   2.017   0.748
 5440SOL    HW217220   1.508   2.048   0.588
 5441SOL     OW17221   4.201   1.812   4.021
 5441SOL    HW117222   4.146   1.858   3.952
 5441SOL    HW217223   4.181   1.714   4.020
 5442SOL     OW17224   3.395   0.426   2.642
 5442SOL    HW117225   3.420   0.428   2.739
 5442SOL    HW217226   3.296   0.437   2.633
 5443SOL     OW17227   3.186   6.660   5.598
 5443SOL    HW117228   3.267   6.626   5.551
 5443SOL    HW217229   3.195   6.758   5.613
 5444SOL     OW17230   0.098   6.690   3.564
 5444SOL    HW117231   0.049   6.687   3.651
 5444SOL    HW217232   0.034   6.715   3.491
 5445SOL     OW17233   5.817   3.706   1.949
 5445SOL    HW117234   5.810   3.727   1.851
 5445SOL    HW217235   5.905   3.739   1.983
 5446SOL     OW17236   6.794   5.976   5.822
 5446SOL    HW117237   6.737   5.934   5.751
 5446SOL    HW217238   6.744   5.973   5.909
 5447SOL     OW17239   3.073   2.130   1.143
 5447SOL    HW117240   3.072   2.220   1.186
 5447SOL    HW217241   3.001   2.125   1.074
 5448SOL     OW17242   5.454   2.241   6.166
 5448SOL    HW117243   5.379   2.290   6.211
 5448SOL    HW217244   5.526   2.306   6.142
 5449SOL     OW17245   0.589   3.578   6.988
 5449SOL    HW117246   0.632   3.633   0.040
 5449SOL    HW217247   0.505   3.623   6.957
 5450SOL     OW17248   2.271   6.749   0.551
 5450SOL    HW117249   2.184   6.794   0.573
 5450SOL    HW217250   2.342   6.780   0.615
 5451SOL     OW17251   1.591   0.210   2.632
 5451SOL    HW117252   1.552   0.202   2.724
 5451SOL    HW217253   1.594   0.120   2.589
 5452SOL     OW17254   2.817   3.986   5.585
 5452SOL    HW117255   2.779   4.042   5.512
 5452SOL    HW217256   2.794   4.026   5.674
 5453SOL     OW17257   6.448   4.974   6.218
 5453SOL    HW117258   6.494   4.887   6.200
 5453SOL    HW217259   6.366   4.981   6.162
 5454SOL     OW17260   0.285   4.020   5.971
 5454SOL    HW117261   0.262   4.010   6.068
 5454SOL    HW217262   0.218   3.969   5.916
 5455SOL     OW17263   6.984   3.041   0.844
 5455SOL    HW117264   6.963   3.010   0.937
 5455SOL    HW217265   6.924   3.116   0.819
 5456SOL     OW17266   3.305   6.355   1.488
 5456SOL    HW117267   3.271   6.342   1.581
 5456SOL    HW217268   3.387   6.413   1.491
 5457SOL     OW17269   5.551   3.767   0.607
 5457SOL    HW117270   5.576   3.711   0.528
 5457SOL    HW217271   5.626   3.767   0.674
 5458SOL     OW17272   2.543   4.713   6.439
 5458SOL    HW117273   2.579   4.765   6.362
 5458SOL    HW217274   2.583   4.621   6.438
 5459SOL     OW17275   2.137   4.955   5.921
 5459SOL    HW117276   2.039   4.974   5.909
 5459SOL    HW217277   2.157   4.944   6.018
 5460SOL     OW17278   3.518   6.965   2.160
 5460SOL    HW117279   3.450   0.018   2.173
 5460SOL    HW217280   3.603   6.991   2.205
 5461SOL     OW17281   4.731   6.413   4.847
 5461SOL    HW117282   4.809   6.467   4.816
 5461SOL    HW217283   4.647   6.448   4.804
 5462SOL     OW17284   0.991   0.084   1.627
 5462SOL    HW117285   0.909   0.109   1.679
 5462SOL    HW217286   1.021   0.162   1.572
 5463SOL     OW17287   6.681   3.173   0.762
 5463SOL    HW117288   6.633   3.205   0.844
 5463SOL    HW217289   6.639   3.214   0.681
 5464SOL     OW17290   2.383   6.310   4.029
 5464SOL    HW117291   2.325   6.229   4.047
 5464SOL    HW217292   2.448   6.289   3.956
 5465SOL     OW17293   2.163   6.430   6.248
 5465SOL    HW117294   2.252   6.403   6.286
 5465SOL    HW217295   2.090   6.390   6.303
 5466SOL     OW17296   5.193   4.836   4.877
 5466SOL    HW117297   5.279   4.876   4.909
 5466SOL    HW217298   5.167   4.879   4.790
 5467SOL     OW17299   6.172   1.833   2.028
 5467SOL    HW117300   6.142   1.784   2.110
 5467SOL    HW217301   6.270   1.818   2.014
 5468SOL     OW17302   4.145   1.732   5.695
 5468SOL    HW117303   4.172   1.679   5.776
 5468SOL    HW217304   4.151   1.673   5.614
 5469SOL     OW17305   4.556   4.667   0.532
 5469SOL    HW117306   4.649   4.637   0.553
 5469SOL    HW217307   4.528   4.736   0.600
 5470SOL     OW17308   0.723   5.042   3.089
 5470SOL    HW117309   0.657   5.045   3.014
 5470SOL    HW217310   0.675   5.052   3.176
 5471SOL     OW17311   6.338   4.986   2.417
 5471SOL    HW117312   6.423   4.999   2.367
 5471SOL    HW217313   6.264   4.967   2.353
 5472SOL     OW17314   4.157   5.128   6.023
 5472SOL    HW117315   4.169   5.098   6.117
 5472SOL    HW217316   4.089   5.201   6.019
 5473SOL     OW17317   1.172   3.364   3.641
 5473SOL    HW117318   1.147   3.370   3.738
 5473SOL    HW217319   1.162   3.453   3.598
 5474SOL     OW17320   1.599   6.313   3.863
 5474SOL    HW117321   1.689   6.355   3.869
 5474SOL    HW217322   1.531   6.383   3.838
 5475SOL     OW17323   2.992   2.599   1.347
 5475SOL    HW117324   3.034   2.568   1.432
 5475SOL    HW217325   2.905   2.643   1.367
 5476SOL     OW17326   1.492   3.726   6.365
 5476SOL    HW117327   1.523   3.632   6.356
 5476SOL    HW217328   1.487   3.751   6.462
 5477SOL     OW17329   1.954   2.816   2.234
 5477SOL    HW117330   1.888   2.881   2.198
 5477SOL    HW217331   1.906   2.735   2.267
 5478SOL     OW17332   6.784   6.102   6.304
 5478SOL    HW117333   6.754   6.183   6.254
 5478SOL    HW217334   6.710   6.034   6.305
 5479SOL     OW17335   4.641   0.293   4.519
 5479SOL    HW117336   4.586   0.375   4.503
 5479SOL    HW217337   4.718   0.315   4.579
 5480SOL     OW17338   0.641   2.687   5.119
 5480SOL    HW117339   0.710   2.672   5.048
 5480SOL    HW217340   0.613   2.600   5.158
 5481SOL     OW17341   4.771   6.316   4.132
 5481SOL    HW117342   4.693   6.302   4.071
 5481SOL    HW217343   4.856   6.308   4.080
 5482SOL     OW17344   1.377   4.242   1.985
 5482SOL    HW117345   1.418   4.300   1.914
 5482SOL    HW217346   1.278   4.241   1.974
 5483SOL     OW17347   0.790   3.371   6.064
 5483SOL    HW117348   0.840   3.402   5.983
 5483SOL    HW217349   0.787   3.444   6.132
 5484SOL     OW17350   5.327   0.421   4.901
 5484SOL    HW117351   5.325   0.358   4.823
 5484SOL    HW217352   5.395   0.389   4.967
 5485SOL     OW17353   3.707   0.308   4.781
 5485SOL    HW117354   3.615   0.274   4.760
 5485SOL    HW217355   3.727   0.387   4.724
 5486SOL     OW17356   2.660   5.476   4.366
 5486SOL    HW117357   2.600   5.504   4.441
 5486SOL    HW217358   2.641   5.382   4.340
 5487SOL     OW17359   3.397   5.213   5.611
 5487SOL    HW117360   3.488   5.195   5.575
 5487SOL    HW217361   3.344   5.267   5.545
 5488SOL     OW17362   5.372   1.990   0.620
 5488SOL    HW117363   5.296   2.024   0.675
 5488SOL    HW217364   5.459   2.012   0.665
 5489SOL     OW17365   6.972   3.515   3.926
 5489SOL    HW117366   0.048   3.484   3.921
 5489SOL    HW217367   6.971   3.613   3.945
 5490SOL     OW17368   1.477   5.778   2.887
 5490SOL    HW117369   1.416   5.729   2.825
 5490SOL    HW217370   1.505   5.717   2.961
 5491SOL     OW17371   6.132   4.019   0.466
 5491SOL    HW117372   6.075   4.068   0.532
 5491SOL    HW217373   6.218   3.993   0.508
 5492SOL     OW17374   0.061   1.900   6.113
 5492SOL    HW117375   6.996   1.953   6.114
 5492SOL    HW217376   0.117   1.924   6.192
 5493SOL     OW17377   4.265   3.918   0.471
 5493SOL    HW117378   4.338   3.981   0.496
 5493SOL    HW217379   4.230   3.943   0.381
 5494SOL     OW17380   5.813   3.238   5.434
 5494SOL    HW117381   5.806   3.331   5.399
 5494SOL    HW217382   5.774   3.234   5.527
 5495SOL     OW17383   5.553   6.763   0.096
 5495SOL    HW117384   5.537   6.834   0.165
 5495SOL    HW217385   5.630   6.706   0.125
 5496SOL     OW17386   4.232   6.815   5.073
 5496SOL    HW117387   4.306   6.800   5.139
 5496SOL    HW217388   4.188   6.903   5.093
 5497SOL     OW17389   0.693   0.278   4.698
 5497SOL    HW117390   0.791   0.296   4.690
 5497SOL    HW217391   0.642   0.354   4.657
 5498SOL     OW17392   0.194   5.288   1.176
 5498SOL    HW117393   0.253   5.365   1.198
 5498SOL    HW217394   0.103   5.304   1.214
 5499SOL     OW17395   2.125   0.168   4.668
 5499SOL    HW117396   2.060   0.174   4.592
 5499SOL    HW217397   2.154   0.073   4.679
 5500SOL     OW17398   2.481   0.245   1.149
 5500SOL    HW117399   2.496   0.261   1.246
 5500SOL    HW217400   2.413   0.310   1.115
 5501SOL     OW17401   4.037   3.313   0.079
 5501SOL    HW117402   4.066   3.261   0.159
 5501SOL    HW217403   4.083   3.279   7.017
 5502SOL     OW17404   5.075   3.436   6.877
 5502SOL    HW117405   5.028   3.524   6.884
 5502SOL    HW217406   5.025   3.376   6.815
 5503SOL     OW17407   6.024   3.048   0.884
 5503SOL    HW117408   5.999   3.040   0.788
 5503SOL    HW217409   5.961   2.992   0.940
 5504SOL     OW17410   4.381   2.284   0.078
 5504SOL    HW117411   4.348   2.291   7.003
 5504SOL    HW217412   4.473   2.322   0.085
 5505SOL     OW17413   3.231   5.010   3.168
 5505SOL    HW117414   3.179   4.972   3.245
 5505SOL    HW217415   3.168   5.037   3.095
 5506SOL     OW17416   6.414   2.515   6.189
 5506SOL    HW117417   6.478   2.472   6.125
 5506SOL    HW217418   6.363   2.587   6.142
 5507SOL     OW17419   3.630   0.186   6.883
 5507SOL    HW117420   3.689   0.160   6.805
 5507SOL    HW217421   3.637   0.285   6.898
 5508SOL     OW17422   0.424   0.884   6.152
 5508SOL    HW117423   0.499   0.889   6.086
 5508SOL    HW217424   0.338   0.908   6.107
 5509SOL     OW17425   6.400   4.778   0.404
 5509SOL    HW117426   6.371   4.843   0.474
 5509SOL    HW217427   6.369   4.686   0.429
 5510SOL     OW17428   5.195   5.351   6.574
 5510SOL    HW117429   5.143   5.277   6.533
 5510SOL    HW217430   5.145   5.389   6.652
 5511SOL     OW17431   0.946   2.698   6.278
 5511SOL    HW117432   0.887   2.718   6.357
 5511SOL    HW217433   0.890   2.674   6.200
 5512SOL     OW17434   1.882   0.481   2.367
 5512SOL    HW117435   1.932   0.480   2.453
 5512SOL    HW217436   1.805   0.418   2.372
 5513SOL     OW17437   3.849   4.549   0.159
 5513SOL    HW117438   3.824   4.497   0.077
 5513SOL    HW217439   3.930   4.508   0.200
 5514SOL     OW17440   3.764   1.059   6.935
 5514SOL    HW117441   3.804   1.135   6.884
 5514SOL    HW217442   3.665   1.059   6.923
 5515SOL     OW17443   2.949   5.206   2.193
 5515SOL    HW117444   2.850   5.206   2.203
 5515SOL    HW217445   2.975   5.268   2.119
 5516SOL     OW17446   1.995   2.116   5.230
 5516SOL    HW117447   2.091   2.124   5.202
 5516SOL    HW217448   1.990   2.063   5.315
 5517SOL     OW17449   1.425   2.433   3.417
 5517SOL    HW117450   1.347   2.495   3.423
 5517SOL    HW217451   1.461   2.435   3.323
 5518SOL     OW17452   4.619   5.065   6.935
 5518SOL    HW117453   4.646   5.007   7.012
 5518SOL    HW217454   4.554   5.015   6.878
 5519SOL     OW17455   5.148   2.716   5.003
 5519SOL    HW117456   5.181   2.791   4.945
 5519SOL    HW217457   5.217   2.644   5.007
 5520SOL     OW17458   4.706   0.430   1.522
 5520SOL    HW117459   4.680   0.513   1.473
 5520SOL    HW217460   4.623   0.383   1.553
 5521SOL     OW17461   4.699   6.436   2.377
 5521SOL    HW117462   4.685   6.345   2.417
 5521SOL    HW217463   4.781   6.434   2.319
 5522SOL     OW17464   6.079   6.202   0.628
 5522SOL    HW117465   6.123   6.223   0.540
 5522SOL    HW217466   6.056   6.287   0.674
 5523SOL     OW17467   5.115   1.775   0.782
 5523SOL    HW117468   5.143   1.825   0.699
 5523SOL    HW217469   5.166   1.689   0.787
 5524SOL     OW17470   2.593   1.304   3.503
 5524SOL    HW117471   2.527   1.368   3.465
 5524SOL    HW217472   2.558   1.211   3.495
 5525SOL     OW17473   6.065   1.298   1.087
 5525SOL    HW117474   5.993   1.360   1.118
 5525SOL    HW217475   6.107   1.253   1.166
 5526SOL     OW17476   5.388   4.621   3.723
 5526SOL    HW117477   5.385   4.720   3.736
 5526SOL    HW217478   5.483   4.589   3.726
 5527SOL     OW17479   6.404   0.278   2.792
 5527SOL    HW117480   6.330   0.220   2.825
 5527SOL    HW217481   6.480   0.276   2.858
 5528SOL     OW17482   1.098   2.062   0.017
 5528SOL    HW117483   1.100   2.161   0.003
 5528SOL    HW217484   1.081   2.016   6.949
 5529SOL     OW17485   3.438   0.654   2.398
 5529SOL    HW117486   3.423   0.566   2.353
 5529SOL    HW217487   3.356   0.679   2.449
 5530SOL     OW17488   0.005   1.712   1.048
 5530SOL    HW117489   6.927   1.691   1.044
 5530SOL    HW217490   0.053   1.665   0.974
 5531SOL     OW17491   1.618   4.383   1.846
 5531SOL    HW117492   1.711   4.416   1.830
 5531SOL    HW217493   1.589   4.325   1.770
 5532SOL     OW17494   0.730   3.075   6.732
 5532SOL    HW117495   0.771   3.079   6.641
 5532SOL    HW217496   0.723   3.168   6.769
 5533SOL     OW17497   3.929   1.201   2.702
 5533SOL    HW117498   3.832   1.225   2.704
 5533SOL    HW217499   3.948   1.131   2.771
 5534SOL     OW17500   1.332   0.207   4.688
 5534SOL    HW117501   1.282   0.180   4.770
 5534SOL    HW217502   1.293   0.161   4.608
 5535SOL     OW17503   0.049   2.079   2.981
 5535SOL    HW117504   0.113   2.145   2.941
 5535SOL    HW217505   0.002   2.029   2.909
 5536SOL     OW17506   5.091   6.344   4.505
 5536SOL    HW117507   5.044   6.421   4.463
 5536SOL    HW217508   5.024   6.284   4.549
 5537SOL     OW17509   2.819   2.275   3.400
 5537SOL    HW117510   2.859   2.328   3.325
 5537SOL    HW217511   2.862   2.185   3.403
 5538SOL     OW17512   4.783   5.114   4.142
 5538SOL    HW117513   4.695   5.146   4.176
 5538SOL    HW217514   4.857   5.152   4.199
 5539SOL     OW17515   2.213   4.625   6.679
 5539SOL    HW117516   2.206   4.720   6.649
 5539SOL    HW217517   2.133   4.601   6.734
 5540SOL     OW17518   3.838   5.203   1.898
 5540SOL    HW117519   3.811   5.246   1.812
 5540SOL    HW217520   3.909   5.258   1.942
 5541SOL     OW17521   4.660   1.289   5.629
 5541SOL    HW117522   4.607   1.267   5.548
 5541SOL    HW217523   4.700   1.381   5.619
 5542SOL     OW17524   5.372   4.464   6.591
 5542SOL    HW117525   5.472   4.465   6.586
 5542SOL    HW217526   5.340   4.545   6.641
 5543SOL     OW17527   0.485   1.892   4.970
 5543SOL    HW117528   0.502   1.987   4.998
 5543SOL    HW217529   0.390   1.881   4.943
 5544SOL     OW17530   5.487   0.752   6.587
 5544SOL    HW117531   5.505   0.664   6.631
 5544SOL    HW217532   5.403   0.746   6.533
 5545SOL     OW17533   2.450   2.610   1.987
 5545SOL    HW117534   2.446   2.667   1.905
 5545SOL    HW217535   2.508   2.530   1.968
 5546SOL     OW17536   4.261   4.783   6.140
 5546SOL    HW117537   4.315   4.854   6.095
 5546SOL    HW217538   4.170   4.820   6.160
 5547SOL     OW17539   3.466   5.859   4.370
 5547SOL    HW117540   3.479   5.828   4.276
 5547SOL    HW217541   3.405   5.939   4.371
 5548SOL     OW17542   0.656   1.987   4.600
 5548SOL    HW117543   0.648   1.967   4.502
 5548SOL    HW217544   0.609   2.072   4.621
 5549SOL     OW17545   3.029   5.153   6.858
 5549SOL    HW117546   3.128   5.162   6.870
 5549SOL    HW217547   3.011   5.082   6.789
 5550SOL     OW17548   2.704   5.790   2.388
 5550SOL    HW117549   2.777   5.723   2.370
 5550SOL    HW217550   2.713   5.867   2.324
 5551SOL     OW17551   0.657   1.620   2.897
 5551SOL    HW117552   0.571   1.581   2.863
 5551SOL    HW217553   0.657   1.619   2.997
 5552SOL     OW17554   1.137   2.538   2.413
 5552SOL    HW117555   1.170   2.467   2.475
 5552SOL    HW217556   1.196   2.543   2.332
 5553SOL     OW17557   4.597   5.925   6.404
 5553SOL    HW117558   4.678   5.928   6.346
 5553SOL    HW217559   4.543   6.008   6.390
 5554SOL     OW17560   3.225   1.141   4.574
 5554SOL    HW117561   3.279   1.089   4.641
 5554SOL    HW217562   3.129   1.111   4.579
 5555SOL     OW17563   1.133   6.216   1.495
 5555SOL    HW117564   1.195   6.149   1.453
 5555SOL    HW217565   1.105   6.282   1.426
 5556SOL     OW17566   0.272   0.759   4.474
 5556SOL    HW117567   0.183   0.738   4.515
 5556SOL    HW217568   0.343   0.758   4.545
 5557SOL     OW17569   2.627   0.505   2.715
 5557SOL    HW117570   2.620   0.440   2.640
 5557SOL    HW217571   2.723   0.527   2.732
 5558SOL     OW17572   5.103   2.172   5.329
 5558SOL    HW117573   5.092   2.083   5.373
 5558SOL    HW217574   5.032   2.234   5.362
 5559SOL     OW17575   1.872   1.090   1.185
 5559SOL    HW117576   1.927   1.008   1.203
 5559SOL    HW217577   1.820   1.114   1.267
 5560SOL     OW17578   0.200   1.189   4.617
 5560SOL    HW117579   0.284   1.141   4.644
 5560SOL    HW217580   0.200   1.280   4.658
 5561SOL     OW17581   1.360   4.169   2.388
 5561SOL    HW117582   1.347   4.234   2.314
 5561SOL    HW217583   1.457   4.146   2.397
 5562SOL     OW17584   3.305   2.186   0.016
 5562SOL    HW117585   3.363   2.250   6.985
 5562SOL    HW217586   3.285   2.107   6.977
 5563SOL     OW17587   4.078   4.195   1.541
 5563SOL    HW117588   4.069   4.294   1.550
 5563SOL    HW217589   3.992   4.157   1.508
 5564SOL     OW17590   5.230   2.290   1.226
 5564SOL    HW117591   5.181   2.203   1.235
 5564SOL    HW217592   5.181   2.362   1.275
 5565SOL     OW17593   2.538   2.551   4.938
 5565SOL    HW117594   2.567   2.542   5.033
 5565SOL    HW217595   2.476   2.629   4.930
 5566SOL     OW17596   2.335   4.006   0.456
 5566SOL    HW117597   2.350   3.938   0.384
 5566SOL    HW217598   2.276   3.968   0.527
 5567SOL     OW17599   1.388   5.188   3.030
 5567SOL    HW117600   1.374   5.287   3.032
 5567SOL    HW217601   1.407   5.155   3.122
 5568SOL     OW17602   3.605   2.493   0.174
 5568SOL    HW117603   3.699   2.516   0.147
 5568SOL    HW217604   3.544   2.567   0.147
 5569SOL     OW17605   4.777   1.753   6.635
 5569SOL    HW117606   4.797   1.848   6.614
 5569SOL    HW217607   4.849   1.694   6.598
 5570SOL     OW17608   0.949   2.850   5.359
 5570SOL    HW117609   0.973   2.896   5.444
 5570SOL    HW217610   0.874   2.899   5.314
 5571SOL     OW17611   6.621   4.460   6.457
 5571SOL    HW117612   6.524   4.484   6.450
 5571SOL    HW217613   6.644   4.444   6.553
 5572SOL     OW17614   0.663   3.250   5.349
 5572SOL    HW117615   0.629   3.250   5.443
 5572SOL    HW217616   0.684   3.344   5.321
 5573SOL     OW17617   6.980   3.871   0.140
 5573SOL    HW117618   6.918   3.943   0.111
 5573SOL    HW217619   6.927   3.789   0.164
 5574SOL     OW17620   1.639   0.084   4.006
 5574SOL    HW117621   1.734   0.051   4.005
 5574SOL    HW217622   1.577   0.007   3.992
 5575SOL     OW17623   1.304   1.163   2.530
 5575SOL    HW117624   1.210   1.175   2.496
 5575SOL    HW217625   1.368   1.197   2.461
 5576SOL     OW17626   5.530   6.669   5.709
 5576SOL    HW117627   5.577   6.719   5.781
 5576SOL    HW217628   5.445   6.632   5.745
 5577SOL     OW17629   2.427   4.407   4.651
 5577SOL    HW117630   2.404   4.311   4.634
 5577SOL    HW217631   2.384   4.437   4.737
 5578SOL     OW17632   3.390   2.329   6.263
 5578SOL    HW117633   3.304   2.354   6.309
 5578SOL    HW217634   3.407   2.393   6.188
 5579SOL     OW17635   5.222   4.929   1.926
 5579SOL    HW117636   5.260   4.891   1.842
 5579SOL    HW217637   5.151   4.996   1.904
 5580SOL     OW17638   5.230   1.423   1.410
 5580SOL    HW117639   5.185   1.433   1.498
 5580SOL    HW217640   5.285   1.505   1.391
 5581SOL     OW17641   2.874   2.566   0.639
 5581SOL    HW117642   2.953   2.619   0.671
 5581SOL    HW217643   2.887   2.543   0.543
 5582SOL     OW17644   3.785   2.930   3.120
 5582SOL    HW117645   3.833   2.927   3.032
 5582SOL    HW217646   3.704   2.872   3.116
 5583SOL     OW17647   4.123   0.632   0.197
 5583SOL    HW117648   4.196   0.612   0.262
 5583SOL    HW217649   4.162   0.641   0.105
 5584SOL     OW17650   4.888   3.387   3.391
 5584SOL    HW117651   4.807   3.417   3.441
 5584SOL    HW217652   4.895   3.287   3.396
 5585SOL     OW17653   0.548   6.919   3.573
 5585SOL    HW117654   0.461   6.890   3.534
 5585SOL    HW217655   0.534   7.002   3.628
 5586SOL     OW17656   2.183   0.920   6.728
 5586SOL    HW117657   2.269   0.876   6.701
 5586SOL    HW217658   2.202   1.007   6.774
 5587SOL     OW17659   3.465   6.408   3.439
 5587SOL    HW117660   3.543   6.373   3.386
 5587SOL    HW217661   3.389   6.428   3.378
 5588SOL     OW17662   5.168   6.809   6.528
 5588SOL    HW117663   5.111   6.891   6.530
 5588SOL    HW217664   5.226   6.805   6.609
 5589SOL     OW17665   2.152   3.861   0.616
 5589SOL    HW117666   2.134   3.830   0.710
 5589SOL    HW217667   2.145   3.784   0.554
 5590SOL     OW17668   6.774   0.299   3.588
 5590SOL    HW117669   6.746   0.258   3.501
 5590SOL    HW217670   6.774   0.228   3.659
 5591SOL     OW17671   5.321   0.085   0.497
 5591SOL    HW117672   5.317   0.147   0.576
 5591SOL    HW217673   5.385   0.010   0.516
 5592SOL     OW17674   1.236   2.804   2.489
 5592SOL    HW117675   1.190   2.720   2.461
 5592SOL    HW217676   1.325   2.811   2.443
 5593SOL     OW17677   2.332   4.548   4.870
 5593SOL    HW117678   2.323   4.526   4.967
 5593SOL    HW217679   2.428   4.567   4.848
 5594SOL     OW17680   2.684   1.597   6.311
 5594SOL    HW117681   2.634   1.675   6.350
 5594SOL    HW217682   2.780   1.602   6.338
 5595SOL     OW17683   0.872   3.203   6.514
 5595SOL    HW117684   0.818   3.286   6.500
 5595SOL    HW217685   0.888   3.158   6.426
 5596SOL     OW17686   4.915   3.498   4.555
 5596SOL    HW117687   4.886   3.402   4.546
 5596SOL    HW217688   4.938   3.517   4.651
 5597SOL     OW17689   6.533   1.633   6.941
 5597SOL    HW117690   6.563   1.702   7.007
 5597SOL    HW217691   6.468   1.675   6.877
 5598SOL     OW17692   6.345   1.189   3.909
 5598SOL    HW117693   6.409   1.186   3.986
 5598SOL    HW217694   6.252   1.193   3.944
 5599SOL     OW17695   5.434   3.092   3.210
 5599SOL    HW117696   5.506   3.045   3.261
 5599SOL    HW217697   5.420   3.183   3.248
 5600SOL     OW17698   1.961   2.577   1.939
 5600SOL    HW117699   1.934   2.503   2.000
 5600SOL    HW217700   1.883   2.637   1.922
 5601SOL     OW17701   5.983   2.824   6.083
 5601SOL    HW117702   5.891   2.861   6.094
 5601SOL    HW217703   5.988   2.735   6.129
 5602SOL     OW17704   6.062   1.993   2.902
 5602SOL    HW117705   6.106   2.077   2.872
 5602SOL    HW217706   6.075   1.922   2.834
 5603SOL     OW17707   3.503   2.309   6.526
 5603SOL    HW117708   3.477   2.353   6.440
 5603SOL    HW217709   3.495   2.209   6.516
 5604SOL     OW17710   1.203   5.675   3.026
 5604SOL    HW117711   1.184   5.769   3.055
 5604SOL    HW217712   1.184   5.666   2.929
 5605SOL     OW17713   4.311   6.924   3.997
 5605SOL    HW117714   4.333   6.955   4.090
 5605SOL    HW217715   4.224   6.963   3.969
 5606SOL     OW17716   4.484   3.453   0.985
 5606SOL    HW117717   4.556   3.385   0.979
 5606SOL    HW217718   4.470   3.477   1.082
 5607SOL     OW17719   0.082   2.459   3.164
 5607SOL    HW117720   0.179   2.438   3.167
 5607SOL    HW217721   0.065   2.548   3.206
 5608SOL     OW17722   5.882   0.364   3.961
 5608SOL    HW117723   5.820   0.438   3.936
 5608SOL    HW217724   5.847   0.277   3.925
 5609SOL     OW17725   6.433   0.607   0.198
 5609SOL    HW117726   6.524   0.594   0.160
 5609SOL    HW217727   6.421   0.704   0.222
 5610SOL     OW17728   5.818   6.070   5.789
 5610SOL    HW117729   5.742   6.006   5.800
 5610SOL    HW217730   5.836   6.116   5.876
 5611SOL     OW17731   6.395   3.884   1.669
 5611SOL    HW117732   6.485   3.862   1.707
 5611SOL    HW217733   6.365   3.973   1.704
 5612SOL     OW17734   4.128   1.927   1.388
 5612SOL    HW117735   4.171   1.837   1.390
 5612SOL    HW217736   4.028   1.916   1.391
 5613SOL     OW17737   6.374   4.819   5.589
 5613SOL    HW117738   6.299   4.776   5.639
 5613SOL    HW217739   6.384   4.913   5.619
 5614SOL     OW17740   4.951   2.047   4.777
 5614SOL    HW117741   4.900   2.088   4.852
 5614SOL    HW217742   5.049   2.053   4.796
 5615SOL     OW17743   0.474   2.969   3.068
 5615SOL    HW117744   0.448   2.873   3.076
 5615SOL    HW217745   0.556   2.977   3.012
 5616SOL     OW17746   1.563   3.480   1.652
 5616SOL    HW117747   1.633   3.519   1.713
 5616SOL    HW217748   1.481   3.459   1.705
 5617SOL     OW17749   1.125   4.985   6.076
 5617SOL    HW117750   1.145   4.917   6.146
 5617SOL    HW217751   1.042   4.959   6.027
 5618SOL     OW17752   4.768   0.263   3.067
 5618SOL    HW117753   4.765   0.285   2.970
 5618SOL    HW217754   4.695   0.198   3.089
 5619SOL     OW17755   3.338   3.026   3.515
 5619SOL    HW117756   3.374   3.075   3.594
 5619SOL    HW217757   3.251   3.067   3.487
 5620SOL     OW17758   5.250   4.610   5.233
 5620SOL    HW117759   5.257   4.706   5.208
 5620SOL    HW217760   5.172   4.597   5.295
 5621SOL     OW17761   1.247   3.015   6.659
 5621SOL    HW117762   1.319   2.949   6.637
 5621SOL    HW217763   1.160   2.983   6.621
 5622SOL     OW17764   5.287   5.668   3.576
 5622SOL    HW117765   5.211   5.730   3.591
 5622SOL    HW217766   5.258   5.574   3.595
 5623SOL     OW17767   4.513   4.531   3.731
 5623SOL    HW117768   4.456   4.585   3.794
 5623SOL    HW217769   4.553   4.454   3.780
 5624SOL     OW17770   4.772   4.038   3.949
 5624SOL    HW117771   4.781   3.940   3.964
 5624SOL    HW217772   4.750   4.084   4.035
 5625SOL     OW17773   2.595   6.439   6.049
 5625SOL    HW117774   2.536   6.512   6.015
 5625SOL    HW217775   2.685   6.446   6.007
 5626SOL     OW17776   1.466   5.507   6.492
 5626SOL    HW117777   1.392   5.572   6.511
 5626SOL    HW217778   1.427   5.422   6.456
 5627SOL     OW17779   1.130   5.733   0.540
 5627SOL    HW117780   1.077   5.649   0.542
 5627SOL    HW217781   1.086   5.798   0.477
 5628SOL     OW17782   1.860   3.091   7.001
 5628SOL    HW117783   1.826   3.002   0.009
 5628SOL    HW217784   1.867   3.150   0.063
 5629SOL     OW17785   6.604   3.630   4.419
 5629SOL    HW117786   6.532   3.568   4.450
 5629SOL    HW217787   6.616   3.704   4.485
 5630SOL     OW17788   2.096   4.504   0.458
 5630SOL    HW117789   2.069   4.475   0.549
 5630SOL    HW217790   2.177   4.454   0.428
 5631SOL     OW17791   3.990   0.543   2.276
 5631SOL    HW117792   3.943   0.631   2.288
 5631SOL    HW217793   3.958   0.478   2.345
 5632SOL     OW17794   3.929   6.154   6.775
 5632SOL    HW117795   3.851   6.193   6.726
 5632SOL    HW217796   3.962   6.074   6.725
 5633SOL     OW17797   1.422   5.703   5.158
 5633SOL    HW117798   1.506   5.684   5.107
 5633SOL    HW217799   1.349   5.728   5.095
 5634SOL     OW17800   2.488   0.646   1.701
 5634SOL    HW117801   2.418   0.690   1.758
 5634SOL    HW217802   2.456   0.643   1.607
 5635SOL     OW17803   3.806   0.788   2.259
 5635SOL    HW117804   3.764   0.829   2.340
 5635SOL    HW217805   3.764   0.826   2.176
 5636SOL     OW17806   5.108   0.450   5.070
 5636SOL    HW117807   5.083   0.547   5.059
 5636SOL    HW217808   5.184   0.429   5.008
 5637SOL     OW17809   5.127   6.770   5.163
 5637SOL    HW117810   5.147   6.674   5.185
 5637SOL    HW217811   5.212   6.819   5.146
 5638SOL     OW17812   0.134   5.721   0.339
 5638SOL    HW117813   0.221   5.769   0.350
 5638SOL    HW217814   0.123   5.693   0.243
 5639SOL     OW17815   3.311   0.075   1.895
 5639SOL    HW117816   3.286   0.121   1.981
 5639SOL    HW217817   3.251   0.107   1.822
 5640SOL     OW17818   3.427   6.966   3.533
 5640SOL    HW117819   3.448   6.868   3.534
 5640SOL    HW217820   3.410   6.997   3.627
 5641SOL     OW17821   6.934   4.527   3.843
 5641SOL    HW117822   6.961   4.466   3.769
 5641SOL    HW217823   6.836   4.546   3.836
 5642SOL     OW17824   2.114   3.582   6.467
 5642SOL    HW117825   2.114   3.485   6.492
 5642SOL    HW217826   2.027   3.623   6.495
 5643SOL     OW17827   6.080   2.783   4.103
 5643SOL    HW117828   6.069   2.736   4.190
 5643SOL    HW217829   6.080   2.716   4.029
 5644SOL     OW17830   3.504   0.533   5.895
 5644SOL    HW117831   3.585   0.480   5.922
 5644SOL    HW217832   3.462   0.492   5.815
 5645SOL     OW17833   5.959   6.452   2.755
 5645SOL    HW117834   6.026   6.520   2.727
 5645SOL    HW217835   5.883   6.497   2.802
 5646SOL     OW17836   6.427   0.313   3.699
 5646SOL    HW117837   6.338   0.297   3.742
 5646SOL    HW217838   6.455   0.408   3.716
 5647SOL     OW17839   6.484   3.757   6.606
 5647SOL    HW117840   6.386   3.753   6.587
 5647SOL    HW217841   6.505   3.837   6.662
 5648SOL     OW17842   2.442   1.954   3.858
 5648SOL    HW117843   2.438   2.037   3.913
 5648SOL    HW217844   2.525   1.954   3.804
 5649SOL     OW17845   1.118   0.594   5.738
 5649SOL    HW117846   1.091   0.690   5.744
 5649SOL    HW217847   1.038   0.537   5.755
 5650SOL     OW17848   6.908   5.271   5.095
 5650SOL    HW117849   6.880   5.179   5.121
 5650SOL    HW217850   6.977   5.266   5.023
 5651SOL     OW17851   5.946   1.070   2.546
 5651SOL    HW117852   5.934   0.973   2.523
 5651SOL    HW217853   6.035   1.084   2.588
 5652SOL     OW17854   5.493   4.418   0.261
 5652SOL    HW117855   5.522   4.486   0.194
 5652SOL    HW217856   5.566   4.402   0.328
 5653SOL     OW17857   2.027   6.172   0.214
 5653SOL    HW117858   1.955   6.211   0.156
 5653SOL    HW217859   2.075   6.100   0.164
 5654SOL     OW17860   1.454   0.083   0.249
 5654SOL    HW117861   1.448   7.015   0.297
 5654SOL    HW217862   1.412   0.155   0.305
 5655SOL     OW17863   6.294   5.096   3.064
 5655SOL    HW117864   6.315   5.132   3.155
 5655SOL    HW217865   6.196   5.096   3.049
 5656SOL     OW17866   3.588   5.602   6.703
 5656SOL    HW117867   3.636   5.681   6.665
 5656SOL    HW217868   3.496   5.597   6.664
 5657SOL     OW17869   4.590   5.398   1.915
 5657SOL    HW117870   4.632   5.418   2.003
 5657SOL    HW217871   4.639   5.322   1.871
 5658SOL     OW17872   4.983   6.750   6.006
 5658SOL    HW117873   5.052   6.768   6.076
 5658SOL    HW217874   5.014   6.789   5.919
 5659SOL     OW17875   3.067   3.900   3.598
 5659SOL    HW117876   3.035   3.982   3.550
 5659SOL    HW217877   3.082   3.826   3.532
 5660SOL     OW17878   7.005   5.864   1.476
 5660SOL    HW117879   0.071   5.909   1.504
 5660SOL    HW217880   6.979   5.797   1.546
 5661SOL     OW17881   5.991   6.181   4.420
 5661SOL    HW117882   5.975   6.274   4.386
 5661SOL    HW217883   6.088   6.170   4.440
 5662SOL     OW17884   2.033   5.133   4.799
 5662SOL    HW117885   1.989   5.176   4.720
 5662SOL    HW217886   2.126   5.104   4.774
 5663SOL     OW17887   2.259   4.086   1.273
 5663SOL    HW117888   2.227   4.090   1.368
 5663SOL    HW217889   2.335   4.149   1.260
 5664SOL     OW17890   6.548   6.124   1.778
 5664SOL    HW117891   6.515   6.090   1.866
 5664SOL    HW217892   6.644   6.149   1.787
 5665SOL     OW17893   1.305   1.140   6.054
 5665SOL    HW117894   1.239   1.156   5.980
 5665SOL    HW217895   1.347   1.226   6.080
 5666SOL     OW17896   5.733   5.520   7.012
 5666SOL    HW117897   5.768   5.489   0.081
 5666SOL    HW217898   5.775   5.467   6.939
 5667SOL     OW17899   5.745   4.482   2.434
 5667SOL    HW117900   5.668   4.452   2.490
 5667SOL    HW217901   5.826   4.493   2.492
 5668SOL     OW17902   6.280   2.603   6.404
 5668SOL    HW117903   6.310   2.558   6.320
 5668SOL    HW217904   6.324   2.693   6.411
 5669SOL     OW17905   0.498   3.119   4.744
 5669SOL    HW117906   0.506   3.037   4.689
 5669SOL    HW217907   0.575   3.125   4.807
 5670SOL     OW17908   1.663   3.623   2.496
 5670SOL    HW117909   1.592   3.687   2.526
 5670SOL    HW217910   1.669   3.626   2.396
 5671SOL     OW17911   1.061   0.625   5.042
 5671SOL    HW117912   1.036   0.580   4.956
 5671SOL    HW217913   1.037   0.722   5.037
 5672SOL     OW17914   5.099   3.957   6.070
 5672SOL    HW117915   5.001   3.964   6.055
 5672SOL    HW217916   5.124   4.007   6.153
 5673SOL     OW17917   1.496   6.847   0.650
 5673SOL    HW117918   1.419   6.887   0.701
 5673SOL    HW217919   1.525   6.763   0.696
 5674SOL     OW17920   0.132   3.053   1.335
 5674SOL    HW117921   0.225   3.065   1.301
 5674SOL    HW217922   0.083   3.140   1.330
 5675SOL     OW17923   3.749   1.044   5.692
 5675SOL    HW117924   3.747   1.144   5.698
 5675SOL    HW217925   3.837   1.015   5.654
 5676SOL     OW17926   2.579   6.783   1.835
 5676SOL    HW117927   2.556   6.713   1.768
 5676SOL    HW217928   2.654   6.839   1.799
 5677SOL     OW17929   6.527   0.245   3.057
 5677SOL    HW117930   6.457   0.285   3.116
 5677SOL    HW217931   6.554   0.155   3.093
 5678SOL     OW17932   1.400   5.465   3.057
 5678SOL    HW117933   1.327   5.528   3.032
 5678SOL    HW217934   1.461   5.510   3.123
 5679SOL     OW17935   3.547   5.457   5.663
 5679SOL    HW117936   3.596   5.421   5.584
 5679SOL    HW217937   3.581   5.414   5.746
 5680SOL     OW17938   1.957   6.738   6.719
 5680SOL    HW117939   1.947   6.832   6.686
 5680SOL    HW217940   2.047   6.704   6.692
 5681SOL     OW17941   2.766   4.353   6.683
 5681SOL    HW117942   2.831   4.316   6.748
 5681SOL    HW217943   2.688   4.392   6.732
 5682SOL     OW17944   1.694   3.377   4.433
 5682SOL    HW117945   1.626   3.448   4.449
 5682SOL    HW217946   1.756   3.406   4.360
 5683SOL     OW17947   4.084   3.700   4.893
 5683SOL    HW117948   4.096   3.695   4.992
 5683SOL    HW217949   4.166   3.742   4.852
 5684SOL     OW17950   2.979   3.188   3.173
 5684SOL    HW117951   2.942   3.252   3.240
 5684SOL    HW217952   2.964   3.224   3.080
 5685SOL     OW17953   0.338   5.796   1.647
 5685SOL    HW117954   0.354   5.881   1.598
 5685SOL    HW217955   0.256   5.805   1.704
 5686SOL     OW17956   3.556   4.535   6.999
 5686SOL    HW117957   3.643   4.485   6.992
 5686SOL    HW217958   3.508   4.531   6.912
 5687SOL     OW17959   4.378   5.622   6.446
 5687SOL    HW117960   4.459   5.584   6.400
 5687SOL    HW217961   4.407   5.692   6.511
 5688SOL     OW17962   5.321   1.673   2.005
 5688SOL    HW117963   5.354   1.629   1.922
 5688SOL    HW217964   5.284   1.604   2.067
 5689SOL     OW17965   4.361   3.437   5.817
 5689SOL    HW117966   4.406   3.393   5.894
 5689SOL    HW217967   4.428   3.455   5.745
 5690SOL     OW17968   4.206   6.610   2.910
 5690SOL    HW117969   4.106   6.607   2.919
 5690SOL    HW217970   4.231   6.665   2.831
 5691SOL     OW17971   3.442   0.180   4.099
 5691SOL    HW117972   3.504   0.134   4.035
 5691SOL    HW217973   3.489   0.192   4.187
 5692SOL     OW17974   5.618   2.758   6.580
 5692SOL    HW117975   5.642   2.662   6.592
 5692SOL    HW217976   5.608   2.779   6.483
 5693SOL     OW17977   4.751   2.276   2.612
 5693SOL    HW117978   4.704   2.360   2.584
 5693SOL    HW217979   4.687   2.199   2.607
 5694SOL     OW17980   1.578   1.660   4.183
 5694SOL    HW117981   1.599   1.567   4.154
 5694SOL    HW217982   1.502   1.658   4.249
 5695SOL     OW17983   1.917   3.822   3.585
 5695SOL    HW117984   1.947   3.882   3.659
 5695SOL    HW217985   1.820   3.836   3.568
 5696SOL     OW17986   3.251   0.246   5.811
 5696SOL    HW117987   3.186   0.204   5.874
 5696SOL    HW217988   3.231   0.217   5.717
 5697SOL     OW17989   6.349   3.994   0.263
 5697SOL    HW117990   6.301   3.990   0.175
 5697SOL    HW217991   6.292   3.953   0.334
 5698SOL     OW17992   1.391   4.437   3.418
 5698SOL    HW117993   1.380   4.381   3.335
 5698SOL    HW217994   1.306   4.486   3.436
 5699SOL     OW17995   6.998   2.560   5.279
 5699SOL    HW117996   0.031   2.614   5.345
 5699SOL    HW217997   0.009   2.465   5.283
 5700SOL     OW17998   0.918   5.351   3.333
 5700SOL    HW117999   0.864   5.402   3.266
 5700SOL    HW218000   1.014   5.377   3.324
 5701SOL     OW18001   5.178   4.215   2.552
 5701SOL    HW118002   5.260   4.255   2.592
 5701SOL    HW218003   5.102   4.280   2.560
 5702SOL     OW18004   3.162   0.298   6.652
 5702SOL    HW118005   3.126   0.375   6.705
 5702SOL    HW218006   3.261   0.291   6.666
 5703SOL     OW18007   4.682   4.413   1.785
 5703SOL    HW118008   4.638   4.351   1.850
 5703SOL    HW218009   4.741   4.476   1.835
 5704SOL     OW18010   5.022   4.042   3.370
 5704SOL    HW118011   5.048   3.988   3.450
 5704SOL    HW218012   5.104   4.070   3.321
 5705SOL     OW18013   6.451   1.718   3.471
 5705SOL    HW118014   6.397   1.785   3.420
 5705SOL    HW218015   6.505   1.663   3.408
 5706SOL     OW18016   1.959   1.354   6.583
 5706SOL    HW118017   1.913   1.296   6.651
 5706SOL    HW218018   1.891   1.390   6.518
 5707SOL     OW18019   2.910   1.786   0.213
 5707SOL    HW118020   2.840   1.808   0.145
 5707SOL    HW218021   2.981   1.856   0.212
 5708SOL     OW18022   6.796   0.118   1.011
 5708SOL    HW118023   6.860   0.157   0.945
 5708SOL    HW218024   6.845   0.056   1.073
 5709SOL     OW18025   1.503   2.445   1.250
 5709SOL    HW118026   1.483   2.361   1.301
 5709SOL    HW218027   1.473   2.524   1.303
 5710SOL     OW18028   3.443   4.514   6.756
 5710SOL    HW118029   3.490   4.557   6.679
 5710SOL    HW218030   3.348   4.547   6.759
 5711SOL     OW18031   5.273   1.400   5.095
 5711SOL    HW118032   5.360   1.400   5.047
 5711SOL    HW218033   5.211   1.466   5.052
 5712SOL     OW18034   6.468   6.446   6.775
 5712SOL    HW118035   6.519   6.378   6.827
 5712SOL    HW218036   6.430   6.405   6.693
 5713SOL     OW18037   0.037   2.945   2.928
 5713SOL    HW118038   6.961   2.967   2.905
 5713SOL    HW218039   0.066   2.866   2.875
 5714SOL     OW18040   2.163   0.796   6.430
 5714SOL    HW118041   2.170   0.893   6.451
 5714SOL    HW218042   2.240   0.769   6.373
 5715SOL     OW18043   2.008   0.221   3.577
 5715SOL    HW118044   2.081   0.213   3.645
 5715SOL    HW218045   2.045   0.264   3.494
 5716SOL     OW18046   1.548   2.277   5.235
 5716SOL    HW118047   1.537   2.375   5.256
 5716SOL    HW218048   1.562   2.266   5.137
 5717SOL     OW18049   0.465   3.630   6.447
 5717SOL    HW118050   0.453   3.538   6.409
 5717SOL    HW218051   0.480   3.695   6.373
 5718SOL     OW18052   2.488   5.114   5.641
 5718SOL    HW118053   2.486   5.210   5.669
 5718SOL    HW218054   2.399   5.090   5.601
 5719SOL     OW18055   2.065   0.920   1.010
 5719SOL    HW118056   2.085   1.017   1.019
 5719SOL    HW218057   2.078   0.892   0.915
 5720SOL     OW18058   1.454   5.877   4.008
 5720SOL    HW118059   1.397   5.956   3.986
 5720SOL    HW218060   1.397   5.805   4.047
 5721SOL     OW18061   6.674   4.658   0.341
 5721SOL    HW118062   6.632   4.745   0.368
 5721SOL    HW218063   6.652   4.588   0.410
 5722SOL     OW18064   5.648   1.331   3.869
 5722SOL    HW118065   5.648   1.401   3.798
 5722SOL    HW218066   5.741   1.299   3.885
 5723SOL     OW18067   0.962   4.419   1.347
 5723SOL    HW118068   0.994   4.511   1.368
 5723SOL    HW218069   0.901   4.421   1.268
 5724SOL     OW18070   4.792   2.730   5.221
 5724SOL    HW118071   4.762   2.726   5.316
 5724SOL    HW218072   4.741   2.662   5.167
 5725SOL     OW18073   5.170   6.312   5.589
 5725SOL    HW118074   5.220   6.399   5.585
 5725SOL    HW218075   5.075   6.328   5.561
 5726SOL     OW18076   4.472   4.111   5.976
 5726SOL    HW118077   4.536   4.145   5.908
 5726SOL    HW218078   4.482   4.012   5.985
 5727SOL     OW18079   5.441   2.377   4.258
 5727SOL    HW118080   5.351   2.393   4.299
 5727SOL    HW218081   5.448   2.427   4.172
 5728SOL     OW18082   4.719   0.649   5.618
 5728SOL    HW118083   4.766   0.677   5.535
 5728SOL    HW218084   4.700   0.551   5.615
 5729SOL     OW18085   1.444   2.714   4.383
 5729SOL    HW118086   1.539   2.717   4.416
 5729SOL    HW218087   1.441   2.664   4.297
 5730SOL     OW18088   3.672   4.905   0.480
 5730SOL    HW118089   3.640   4.958   0.402
 5730SOL    HW218090   3.749   4.951   0.523
 5731SOL     OW18091   4.273   1.591   4.707
 5731SOL    HW118092   4.237   1.539   4.785
 5731SOL    HW218093   4.257   1.688   4.723
 5732SOL     OW18094   5.592   4.301   4.148
 5732SOL    HW118095   5.535   4.355   4.086
 5732SOL    HW218096   5.671   4.356   4.177
 5733SOL     OW18097   2.650   0.313   1.694
 5733SOL    HW118098   2.700   0.392   1.729
 5733SOL    HW218099   2.649   0.241   1.764
 5734SOL     OW18100   1.686   6.862   6.339
 5734SOL    HW118101   1.744   6.923   6.394
 5734SOL    HW218102   1.594   6.900   6.333
 5735SOL     OW18103   5.343   0.896   1.812
 5735SOL    HW118104   5.385   0.987   1.818
 5735SOL    HW218105   5.257   0.896   1.863
 5736SOL     OW18106   5.759   3.749   6.561
 5736SOL    HW118107   5.761   3.653   6.588
 5736SOL    HW218108   5.723   3.804   6.637
 5737SOL     OW18109   5.586   5.825   2.270
 5737SOL    HW118110   5.600   5.883   2.351
 5737SOL    HW218111   5.664   5.763   2.260
 5738SOL     OW18112   2.573   0.833   1.070
 5738SOL    HW118113   2.626   0.767   1.124
 5738SOL    HW218114   2.479   0.800   1.059
 5739SOL     OW18115   2.637   0.698   5.725
 5739SOL    HW118116   2.591   0.674   5.640
 5739SOL    HW218117   2.573   0.743   5.787
 5740SOL     OW18118   4.911   3.871   2.680
 5740SOL    HW118119   4.890   3.794   2.620
 5740SOL    HW218120   4.906   3.842   2.775
 5741SOL     OW18121   1.476   3.225   4.351
 5741SOL    HW118122   1.449   3.135   4.386
 5741SOL    HW218123   1.560   3.255   4.396
 5742SOL     OW18124   6.345   6.263   2.879
 5742SOL    HW118125   6.283   6.239   2.953
 5742SOL    HW218126   6.357   6.185   2.819
 5743SOL     OW18127   3.609   5.954   0.255
 5743SOL    HW118128   3.588   5.869   0.206
 5743SOL    HW218129   3.527   6.010   0.263
 5744SOL     OW18130   5.419   6.074   3.637
 5744SOL    HW118131   5.483   6.010   3.594
 5744SOL    HW218132   5.350   6.024   3.688
 5745SOL     OW18133   1.220   3.078   2.587
 5745SOL    HW118134   1.169   3.040   2.664
 5745SOL    HW218135   1.236   3.007   2.518
 5746SOL     OW18136   5.116   0.460   2.956
 5746SOL    HW118137   5.214   0.462   2.978
 5746SOL    HW218138   5.067   0.520   3.019
 5747SOL     OW18139   1.665   6.870   1.307
 5747SOL    HW118140   1.614   6.847   1.390
 5747SOL    HW218141   1.719   6.952   1.322
 5748SOL     OW18142   6.029   6.765   6.941
 5748SOL    HW118143   6.064   6.720   0.004
 5748SOL    HW218144   6.032   6.702   6.865
 5749SOL     OW18145   1.783   6.034   6.264
 5749SOL    HW118146   1.834   5.970   6.206
 5749SOL    HW218147   1.751   6.111   6.208
 5750SOL     OW18148   6.630   2.573   4.185
 5750SOL    HW118149   6.680   2.558   4.270
 5750SOL    HW218150   6.645   2.667   4.154
 5751SOL     OW18151   0.720   3.714   4.618
 5751SOL    HW118152   0.807   3.754   4.589
 5751SOL    HW218153   0.679   3.665   4.541
 5752SOL     OW18154   5.066   0.314   0.032
 5752SOL    HW118155   5.097   0.219   0.033
 5752SOL    HW218156   4.982   0.323   0.086
 5753SOL     OW18157   3.907   4.070   4.748
 5753SOL    HW118158   3.914   4.035   4.842
 5753SOL    HW218159   3.816   4.052   4.712
 5754SOL     OW18160   6.787   6.046   0.976
 5754SOL    HW118161   6.735   6.132   0.984
 5754SOL    HW218162   6.873   6.064   0.929
 5755SOL     OW18163   1.541   3.137   6.792
 5755SOL    HW118164   1.457   3.192   6.788
 5755SOL    HW218165   1.621   3.198   6.790
 5756SOL     OW18166   6.429   6.054   2.010
 5756SOL    HW118167   6.331   6.070   2.020
 5756SOL    HW218168   6.453   5.967   2.052
 5757SOL     OW18169   7.005   1.428   3.804
 5757SOL    HW118170   6.944   1.499   3.768
 5757SOL    HW218171   0.065   1.471   3.847
 5758SOL     OW18172   6.163   6.611   2.714
 5758SOL    HW118173   6.244   6.570   2.672
 5758SOL    HW218174   6.180   6.626   2.811
 5759SOL     OW18175   2.630   0.025   2.515
 5759SOL    HW118176   2.683   7.011   2.436
 5759SOL    HW218177   2.674   7.016   2.600
 5760SOL     OW18178   1.135   2.277   6.862
 5760SOL    HW118179   1.198   2.347   6.895
 5760SOL    HW218180   1.155   2.256   6.767
 5761SOL     OW18181   6.592   6.566   4.491
 5761SOL    HW118182   6.540   6.640   4.449
 5761SOL    HW218183   6.604   6.585   4.589
 5762SOL     OW18184   0.767   5.547   5.810
 5762SOL    HW118185   0.756   5.599   5.725
 5762SOL    HW218186   0.767   5.610   5.888
 5763SOL     OW18187   5.355   0.359   0.639
 5763SOL    HW118188   5.347   0.338   0.737
 5763SOL    HW218189   5.446   0.395   0.620
 5764SOL     OW18190   4.717   6.521   4.288
 5764SOL    HW118191   4.671   6.509   4.376
 5764SOL    HW218192   4.726   6.432   4.243
 5765SOL     OW18193   6.709   4.885   2.326
 5765SOL    HW118194   6.636   4.825   2.292
 5765SOL    HW218195   6.695   4.903   2.423
 5766SOL     OW18196   0.614   1.387   3.993
 5766SOL    HW118197   0.600   1.304   3.939
 5766SOL    HW218198   0.602   1.467   3.935
 5767SOL     OW18199   3.934   6.956   6.998
 5767SOL    HW118200   3.886   6.985   6.915
 5767SOL    HW218201   3.979   6.868   6.981
 5768SOL     OW18202   1.367   0.857   5.177
 5768SOL    HW118203   1.381   0.864   5.078
 5768SOL    HW218204   1.274   0.885   5.199
 5769SOL     OW18205   1.028   3.166   5.822
 5769SOL    HW118206   1.037   3.247   5.764
 5769SOL    HW218207   1.092   3.172   5.899
 5770SOL     OW18208   2.129   4.353   1.892
 5770SOL    HW118209   2.092   4.273   1.940
 5770SOL    HW218210   2.229   4.347   1.892
 5771SOL     OW18211   2.844   4.868   3.766
 5771SOL    HW118212   2.842   4.772   3.793
 5771SOL    HW218213   2.753   4.909   3.780
 5772SOL     OW18214   3.388   6.972   2.718
 5772SOL    HW118215   3.315   6.980   2.786
 5772SOL    HW218216   3.348   6.972   2.626
 5773SOL     OW18217   5.855   1.242   2.810
 5773SOL    HW118218   5.851   1.209   2.716
 5773SOL    HW218219   5.951   1.255   2.837
 5774SOL     OW18220   0.783   6.681   3.004
 5774SOL    HW118221   0.713   6.752   2.996
 5774SOL    HW218222   0.767   6.610   2.936
 5775SOL     OW18223   6.148   4.951   2.202
 5775SOL    HW118224   6.213   4.978   2.131
 5775SOL    HW218225   6.056   4.981   2.175
 5776SOL     OW18226   2.443   1.201   4.128
 5776SOL    HW118227   2.421   1.298   4.133
 5776SOL    HW218228   2.497   1.182   4.046
 5777SOL     OW18229   1.899   6.948   1.978
 5777SOL    HW118230   1.910   6.859   1.934
 5777SOL    HW218231   1.855   6.936   2.066
 5778SOL     OW18232   6.868   1.021   1.222
 5778SOL    HW118233   6.940   0.983   1.281
 5778SOL    HW218234   6.779   0.986   1.251
 5779SOL     OW18235   5.519   1.176   6.790
 5779SOL    HW118236   5.464   1.107   6.742
 5779SOL    HW218237   5.502   1.266   6.750
 5780SOL     OW18238   5.065   5.004   4.030
 5780SOL    HW118239   5.069   5.092   3.983
 5780SOL    HW218240   4.980   4.998   4.082
 5781SOL     OW18241   1.508   5.525   5.896
 5781SOL    HW118242   1.500   5.557   5.990
 5781SOL    HW218243   1.495   5.602   5.834
 5782SOL     OW18244   0.304   0.838   6.910
 5782SOL    HW118245   0.231   0.823   6.844
 5782SOL    HW218246   0.277   0.910   6.973
 5783SOL     OW18247   2.575   2.612   0.303
 5783SOL    HW118248   2.545   2.528   0.258
 5783SOL    HW218249   2.674   2.621   0.293
 5784SOL     OW18250   6.775   6.232   6.759
 5784SOL    HW118251   6.874   6.218   6.754
 5784SOL    HW218252   6.757   6.317   6.810
 5785SOL     OW18253   1.038   1.438   0.625
 5785SOL    HW118254   1.100   1.415   0.700
 5785SOL    HW218255   1.027   1.537   0.620
 5786SOL     OW18256   6.232   5.300   1.265
 5786SOL    HW118257   6.207   5.348   1.182
 5786SOL    HW218258   6.324   5.327   1.293
 5787SOL     OW18259   2.217   3.160   6.312
 5787SOL    HW118260   2.271   3.228   6.263
 5787SOL    HW218261   2.194   3.085   6.249
 5788SOL     OW18262   3.476   0.689   3.674
 5788SOL    HW118263   3.511   0.597   3.662
 5788SOL    HW218264   3.394   0.687   3.732
 5789SOL     OW18265   3.815   4.861   6.451
 5789SOL    HW118266   3.735   4.921   6.458
 5789SOL    HW218267   3.856   4.870   6.360
 5790SOL     OW18268   0.820   3.387   3.691
 5790SOL    HW118269   0.722   3.375   3.675
 5790SOL    HW218270   0.871   3.356   3.611
 5791SOL     OW18271   2.218   0.482   3.156
 5791SOL    HW118272   2.201   0.460   3.253
 5791SOL    HW218273   2.261   0.403   3.111
 5792SOL     OW18274   6.820   2.478   3.026
 5792SOL    HW118275   6.759   2.439   2.957
 5792SOL    HW218276   6.915   2.465   2.998
 5793SOL     OW18277   6.975   0.864   4.203
 5793SOL    HW118278   6.894   0.894   4.152
 5793SOL    HW218279   6.977   0.909   4.293
 5794SOL     OW18280   6.031   4.694   6.153
 5794SOL    HW118281   6.022   4.789   6.184
 5794SOL    HW218282   5.995   4.686   6.060
 5795SOL     OW18283   5.698   4.172   6.654
 5795SOL    HW118284   5.678   4.098   6.589
 5795SOL    HW218285   5.792   4.203   6.641
 5796SOL     OW18286   2.964   2.391   0.404
 5796SOL    HW118287   3.051   2.341   0.399
 5796SOL    HW218288   2.888   2.326   0.397
 5797SOL     OW18289   2.882   2.680   6.067
 5797SOL    HW118290   2.843   2.659   5.978
 5797SOL    HW218291   2.817   2.735   6.120
 5798SOL     OW18292   6.642   5.351   4.501
 5798SOL    HW118293   6.637   5.251   4.493
 5798SOL    HW218294   6.729   5.384   4.464
 5799SOL     OW18295   5.148   0.919   3.686
 5799SOL    HW118296   5.179   1.013   3.696
 5799SOL    HW218297   5.049   0.917   3.676
 5800SOL     OW18298   6.000   5.607   6.718
 5800SOL    HW118299   6.051   5.575   6.639
 5800SOL    HW218300   5.990   5.532   6.784
 5801SOL     OW18301   2.041   1.110   2.839
 5801SOL    HW118302   2.068   1.112   2.936
 5801SOL    HW218303   1.942   1.123   2.832
 5802SOL     OW18304   0.516   2.412   4.661
 5802SOL    HW118305   0.571   2.423   4.744
 5802SOL    HW218306   0.446   2.484   4.658
 5803SOL     OW18307   1.392   4.830   0.961
 5803SOL    HW118308   1.464   4.877   1.013
 5803SOL    HW218309   1.369   4.744   1.006
 5804SOL     OW18310   6.704   3.128   5.855
 5804SOL    HW118311   6.685   3.226   5.847
 5804SOL    HW218312   6.663   3.080   5.777
 5805SOL     OW18313   6.005   3.134   0.054
 5805SOL    HW118314   5.920   3.185   0.046
 5805SOL    HW218315   6.067   3.160   6.999
 5806SOL     OW18316   0.135   6.743   6.677
 5806SOL    HW118317   0.221   6.772   6.720
 5806SOL    HW218318   0.114   6.805   6.602
 5807SOL     OW18319   2.084   3.752   2.005
 5807SOL    HW118320   2.010   3.749   2.073
 5807SOL    HW218321   2.133   3.665   2.005
 5808SOL     OW18322   6.564   2.151   3.455
 5808SOL    HW118323   6.489   2.217   3.461
 5808SOL    HW218324   6.628   2.180   3.383
 5809SOL     OW18325   6.648   3.120   4.277
 5809SOL    HW118326   6.619   3.119   4.182
 5809SOL    HW218327   6.736   3.168   4.285
 5810SOL     OW18328   2.585   2.233   2.639
 5810SOL    HW118329   2.651   2.173   2.594
 5810SOL    HW218330   2.582   2.210   2.737
 5811SOL     OW18331   3.046   1.097   2.300
 5811SOL    HW118332   2.969   1.042   2.268
 5811SOL    HW218333   3.019   1.193   2.305
 5812SOL     OW18334   4.683   0.634   4.674
 5812SOL    HW118335   4.634   0.676   4.598
 5812SOL    HW218336   4.763   0.586   4.640
 5813SOL     OW18337   1.617   1.160   5.487
 5813SOL    HW118338   1.596   1.130   5.394
 5813SOL    HW218339   1.598   1.258   5.495
 5814SOL     OW18340   0.337   4.909   0.852
 5814SOL    HW118341   0.306   4.825   0.895
 5814SOL    HW218342   0.277   4.985   0.878
 5815SOL     OW18343   3.374   1.502   3.228
 5815SOL    HW118344   3.364   1.600   3.210
 5815SOL    HW218345   3.397   1.488   3.325
 5816SOL     OW18346   4.950   6.633   1.370
 5816SOL    HW118347   4.992   6.561   1.315
 5816SOL    HW218348   5.010   6.656   1.447
 5817SOL     OW18349   5.766   2.164   5.583
 5817SOL    HW118350   5.818   2.179   5.500
 5817SOL    HW218351   5.814   2.099   5.642
 5818SOL     OW18352   6.087   6.627   5.400
 5818SOL    HW118353   6.181   6.631   5.434
 5818SOL    HW218354   6.077   6.548   5.340
 5819SOL     OW18355   5.277   0.513   0.903
 5819SOL    HW118356   5.189   0.560   0.901
 5819SOL    HW218357   5.264   0.418   0.931
 5820SOL     OW18358   5.923   5.345   2.803
 5820SOL    HW118359   6.001   5.303   2.756
 5820SOL    HW218360   5.908   5.300   2.891
 5821SOL     OW18361   3.460   6.729   2.077
 5821SOL    HW118362   3.531   6.716   2.009
 5821SOL    HW218363   3.473   6.817   2.123
 5822SOL     OW18364   0.784   1.024   2.518
 5822SOL    HW118365   0.751   1.028   2.424
 5822SOL    HW218366   0.882   1.003   2.518
 5823SOL     OW18367   2.270   3.022   4.269
 5823SOL    HW118368   2.337   2.948   4.258
 5823SOL    HW218369   2.261   3.045   4.366
 5824SOL     OW18370   4.294   0.458   3.717
 5824SOL    HW118371   4.289   0.519   3.637
 5824SOL    HW218372   4.363   0.493   3.780
 5825SOL     OW18373   2.550   1.079   0.752
 5825SOL    HW118374   2.567   1.143   0.827
 5825SOL    HW218375   2.478   1.015   0.779
 5826SOL     OW18376   6.501   0.427   4.393
 5826SOL    HW118377   6.593   0.447   4.429
 5826SOL    HW218378   6.433   0.447   4.463
 5827SOL     OW18379   1.499   5.133   5.327
 5827SOL    HW118380   1.465   5.190   5.402
 5827SOL    HW218381   1.425   5.074   5.295
 5828SOL     OW18382   6.778   2.844   1.648
 5828SOL    HW118383   6.722   2.765   1.623
 5828SOL    HW218384   6.859   2.847   1.589
 5829SOL     OW18385   1.424   1.594   1.754
 5829SOL    HW118386   1.385   1.504   1.776
 5829SOL    HW218387   1.400   1.659   1.826
 5830SOL     OW18388   2.607   0.829   5.407
 5830SOL    HW118389   2.576   0.737   5.430
 5830SOL    HW218390   2.534   0.894   5.427
 5831SOL     OW18391   5.818   6.111   2.920
 5831SOL    HW118392   5.888   6.113   2.849
 5831SOL    HW218393   5.817   6.199   2.969
 5832SOL     OW18394   3.688   3.548   4.758
 5832SOL    HW118395   3.592   3.528   4.776
 5832SOL    HW218396   3.736   3.463   4.738
 5833SOL     OW18397   3.557   3.488   5.280
 5833SOL    HW118398   3.493   3.546   5.229
 5833SOL    HW218399   3.551   3.394   5.247
 5834SOL     OW18400   6.170   0.699   0.453
 5834SOL    HW118401   6.246   0.738   0.504
 5834SOL    HW218402   6.196   0.609   0.418
 5835SOL     OW18403   5.275   2.671   3.904
 5835SOL    HW118404   5.243   2.632   3.818
 5835SOL    HW218405   5.324   2.757   3.886
 5836SOL     OW18406   3.549   6.461   2.633
 5836SOL    HW118407   3.581   6.374   2.595
 5836SOL    HW218408   3.594   6.536   2.585
 5837SOL     OW18409   4.953   5.012   6.316
 5837SOL    HW118410   4.977   4.935   6.257
 5837SOL    HW218411   4.966   4.986   6.412
 5838SOL     OW18412   0.210   1.750   5.431
 5838SOL    HW118413   0.223   1.651   5.443
 5838SOL    HW218414   0.282   1.799   5.480
 5839SOL     OW18415   6.987   2.955   2.451
 5839SOL    HW118416   0.066   2.939   2.449
 5839SOL    HW218417   6.963   3.004   2.536
 5840SOL     OW18418   2.094   5.637   0.220
 5840SOL    HW118419   2.076   5.598   0.310
 5840SOL    HW218420   2.067   5.573   0.149
 5841SOL     OW18421   6.264   2.155   2.780
 5841SOL    HW118422   6.329   2.163   2.856
 5841SOL    HW218423   6.292   2.081   2.720
 5842SOL     OW18424   3.757   2.979   0.206
 5842SOL    HW118425   3.733   2.889   0.169
 5842SOL    HW218426   3.769   3.044   0.131
 5843SOL     OW18427   1.532   2.934   1.501
 5843SOL    HW118428   1.596   2.900   1.570
 5843SOL    HW218429   1.584   2.973   1.424
 5844SOL     OW18430   1.109   6.037   6.739
 5844SOL    HW118431   1.016   6.061   6.709
 5844SOL    HW218432   1.165   6.015   6.659
 5845SOL     OW18433   1.238   2.011   4.609
 5845SOL    HW118434   1.293   1.948   4.554
 5845SOL    HW218435   1.241   2.102   4.569
 5846SOL     OW18436   0.436   3.378   6.355
 5846SOL    HW118437   0.480   3.325   6.282
 5846SOL    HW218438   0.360   3.325   6.392
 5847SOL     OW18439   1.545   2.301   3.632
 5847SOL    HW118440   1.510   2.351   3.553
 5847SOL    HW218441   1.570   2.366   3.704
 5848SOL     OW18442   1.389   4.912   3.860
 5848SOL    HW118443   1.470   4.963   3.834
 5848SOL    HW218444   1.308   4.957   3.822
 5849SOL     OW18445   3.477   6.619   5.498
 5849SOL    HW118446   3.495   6.521   5.511
 5849SOL    HW218447   3.509   6.669   5.579
 5850SOL     OW18448   0.934   4.098   3.182
 5850SOL    HW118449   0.991   4.052   3.250
 5850SOL    HW218450   0.952   4.059   3.091
 5851SOL     OW18451   5.483   3.088   2.124
 5851SOL    HW118452   5.485   3.159   2.054
 5851SOL    HW218453   5.500   2.999   2.081
 5852SOL     OW18454   4.046   5.864   2.764
 5852SOL    HW118455   4.076   5.769   2.771
 5852SOL    HW218456   4.111   5.924   2.811
 5853SOL     OW18457   4.147   4.165   5.487
 5853SOL    HW118458   4.209   4.150   5.563
 5853SOL    HW218459   4.135   4.081   5.435
 5854SOL     OW18460   0.709   1.356   6.690
 5854SOL    HW118461   0.779   1.417   6.727
 5854SOL    HW218462   0.732   1.262   6.713
 5855SOL     OW18463   1.784   1.025   5.074
 5855SOL    HW118464   1.798   1.025   4.975
 5855SOL    HW218465   1.725   1.102   5.099
 5856SOL     OW18466   2.286   5.318   3.310
 5856SOL    HW118467   2.322   5.281   3.397
 5856SOL    HW218468   2.362   5.332   3.247
 5857SOL     OW18469   0.177   2.261   6.038
 5857SOL    HW118470   0.122   2.267   6.121
 5857SOL    HW218471   0.164   2.344   5.983
 5858SOL     OW18472   3.832   6.641   3.520
 5858SOL    HW118473   3.904   6.708   3.501
 5858SOL    HW218474   3.874   6.554   3.545
 5859SOL     OW18475   6.667   5.965   1.501
 5859SOL    HW118476   6.712   5.876   1.497
 5859SOL    HW218477   6.570   5.953   1.521
 5860SOL     OW18478   0.841   3.345   1.502
 5860SOL    HW118479   0.897   3.324   1.422
 5860SOL    HW218480   0.895   3.332   1.585
 5861SOL     OW18481   5.894   2.219   3.936
 5861SOL    HW118482   5.905   2.259   3.845
 5861SOL    HW218483   5.814   2.259   3.980
 5862SOL     OW18484   4.879   4.266   3.346
 5862SOL    HW118485   4.792   4.264   3.396
 5862SOL    HW218486   4.926   4.179   3.357
 5863SOL     OW18487   1.804   1.618   1.204
 5863SOL    HW118488   1.716   1.660   1.181
 5863SOL    HW218489   1.863   1.618   1.124
 5864SOL     OW18490   4.606   5.253   0.527
 5864SOL    HW118491   4.614   5.197   0.444
 5864SOL    HW218492   4.672   5.329   0.522
 5865SOL     OW18493   4.544   0.954   3.450
 5865SOL    HW118494   4.607   0.923   3.379
 5865SOL    HW218495   4.453   0.914   3.434
 5866SOL     OW18496   3.263   1.490   6.811
 5866SOL    HW118497   3.353   1.527   6.787
 5866SOL    HW218498   3.274   1.415   6.876
 5867SOL     OW18499   0.480   2.751   1.089
 5867SOL    HW118500   0.405   2.810   1.060
 5867SOL    HW218501   0.524   2.790   1.169
 5868SOL     OW18502   1.523   6.926   4.637
 5868SOL    HW118503   1.598   6.972   4.685
 5868SOL    HW218504   1.530   6.942   4.539
 5869SOL     OW18505   3.108   4.937   3.845
 5869SOL    HW118506   3.016   4.934   3.806
 5869SOL    HW218507   3.145   5.030   3.837
 5870SOL     OW18508   5.273   5.222   4.336
 5870SOL    HW118509   5.350   5.259   4.389
 5870SOL    HW218510   5.284   5.247   4.240
 5871SOL     OW18511   2.769   3.381   0.530
 5871SOL    HW118512   2.731   3.294   0.562
 5871SOL    HW218513   2.710   3.456   0.560
 5872SOL     OW18514   3.933   5.948   4.264
 5872SOL    HW118515   3.957   5.969   4.169
 5872SOL    HW218516   3.845   5.900   4.266
 5873SOL     OW18517   2.049   3.799   0.185
 5873SOL    HW118518   2.057   3.731   0.113
 5873SOL    HW218519   2.106   3.772   0.263
 5874SOL     OW18520   1.268   4.124   6.941
 5874SOL    HW118521   1.356   4.157   6.907
 5874SOL    HW218522   1.244   4.173   0.006
 5875SOL     OW18523   4.587   1.959   0.174
 5875SOL    HW118524   4.607   2.034   0.237
 5875SOL    HW218525   4.534   1.994   0.097
 5876SOL     OW18526   3.767   4.075   6.367
 5876SOL    HW118527   3.702   4.150   6.355
 5876SOL    HW218528   3.802   4.075   6.460
 5877SOL     OW18529   6.407   0.401   2.237
 5877SOL    HW118530   6.452   0.322   2.196
 5877SOL    HW218531   6.475   0.457   2.284
 5878SOL     OW18532   5.105   4.572   2.146
 5878SOL    HW118533   5.092   4.670   2.161
 5878SOL    HW218534   5.202   4.549   2.153
 5879SOL     OW18535   3.243   3.274   5.486
 5879SOL    HW118536   3.221   3.359   5.534
 5879SOL    HW218537   3.161   3.217   5.479
 5880SOL     OW18538   6.428   2.868   6.364
 5880SOL    HW118539   6.355   2.924   6.326
 5880SOL    HW218540   6.462   2.805   6.294
 5881SOL     OW18541   1.574   6.587   2.511
 5881SOL    HW118542   1.562   6.490   2.489
 5881SOL    HW218543   1.642   6.596   2.584
 5882SOL     OW18544   1.580   4.719   5.790
 5882SOL    HW118545   1.499   4.661   5.779
 5882SOL    HW218546   1.559   4.795   5.851
 5883SOL     OW18547   6.401   5.006   0.219
 5883SOL    HW118548   6.377   4.938   0.289
 5883SOL    HW218549   6.321   5.061   0.197
 5884SOL     OW18550   0.038   1.025   2.532
 5884SOL    HW118551   0.048   1.003   2.629
 5884SOL    HW218552   6.998   1.104   2.522
 5885SOL     OW18553   0.261   5.510   0.645
 5885SOL    HW118554   0.306   5.540   0.730
 5885SOL    HW218555   0.177   5.562   0.632
 5886SOL     OW18556   1.899   4.840   3.622
 5886SOL    HW118557   1.880   4.883   3.710
 5886SOL    HW218558   1.996   4.815   3.617
 5887SOL     OW18559   2.522   2.871   0.431
 5887SOL    HW118560   2.462   2.918   0.366
 5887SOL    HW218561   2.564   2.792   0.387
 5888SOL     OW18562   2.749   6.476   1.322
 5888SOL    HW118563   2.655   6.488   1.353
 5888SOL    HW218564   2.757   6.392   1.269
 5889SOL     OW18565   5.874   0.842   2.034
 5889SOL    HW118566   5.801   0.900   2.069
 5889SOL    HW218567   5.962   0.889   2.047
 5890SOL     OW18568   2.580   5.032   3.778
 5890SOL    HW118569   2.553   5.125   3.803
 5890SOL    HW218570   2.499   4.974   3.769
 5891SOL     OW18571   2.439   3.870   6.670
 5891SOL    HW118572   2.526   3.859   6.621
 5891SOL    HW218573   2.370   3.906   6.607
 5892SOL     OW18574   0.845   3.138   0.558
 5892SOL    HW118575   0.936   3.130   0.599
 5892SOL    HW218576   0.831   3.233   0.528
 5893SOL     OW18577   0.699   6.675   0.980
 5893SOL    HW118578   0.675   6.637   1.070
 5893SOL    HW218579   0.654   6.764   0.969
 5894SOL     OW18580   1.676   5.962   6.672
 5894SOL    HW118581   1.767   5.930   6.699
 5894SOL    HW218582   1.680   5.998   6.579
 5895SOL     OW18583   5.634   4.446   3.207
 5895SOL    HW118584   5.642   4.385   3.128
 5895SOL    HW218585   5.581   4.401   3.279
 5896SOL     OW18586   5.640   2.218   2.293
 5896SOL    HW118587   5.575   2.198   2.220
 5896SOL    HW218588   5.696   2.297   2.268
 5897SOL     OW18589   3.402   2.361   0.532
 5897SOL    HW118590   3.414   2.331   0.626
 5897SOL    HW218591   3.479   2.419   0.505
 5898SOL     OW18592   2.216   1.103   6.473
 5898SOL    HW118593   2.266   1.143   6.397
 5898SOL    HW218594   2.120   1.089   6.448
 5899SOL     OW18595   0.369   6.479   6.577
 5899SOL    HW118596   0.393   6.574   6.596
 5899SOL    HW218597   0.295   6.476   6.510
 5900SOL     OW18598   6.129   6.227   2.494
 5900SOL    HW118599   6.213   6.243   2.444
 5900SOL    HW218600   6.064   6.301   2.475
 5901SOL     OW18601   2.897   0.660   4.886
 5901SOL    HW118602   2.879   0.740   4.943
 5901SOL    HW218603   2.941   0.589   4.941
 5902SOL     OW18604   4.096   3.941   5.879
 5902SOL    HW118605   4.037   3.879   5.826
 5902SOL    HW218606   4.110   4.025   5.827
 5903SOL     OW18607   6.641   1.905   5.429
 5903SOL    HW118608   6.607   1.870   5.342
 5903SOL    HW218609   6.732   1.944   5.416
 5904SOL     OW18610   0.530   4.922   1.392
 5904SOL    HW118611   0.455   4.985   1.377
 5904SOL    HW218612   0.617   4.969   1.375
 5905SOL     OW18613   5.946   2.181   4.876
 5905SOL    HW118614   5.853   2.168   4.843
 5905SOL    HW218615   6.010   2.182   4.799
 5906SOL     OW18616   4.139   1.339   6.024
 5906SOL    HW118617   4.099   1.334   5.932
 5906SOL    HW218618   4.239   1.341   6.016
 5907SOL     OW18619   1.187   3.246   6.037
 5907SOL    HW118620   1.163   3.207   6.126
 5907SOL    HW218621   1.279   3.284   6.041
 5908SOL     OW18622   4.646   3.920   6.407
 5908SOL    HW118623   4.566   3.867   6.377
 5908SOL    HW218624   4.680   3.975   6.331
 5909SOL     OW18625   6.314   4.768   3.570
 5909SOL    HW118626   6.334   4.776   3.667
 5909SOL    HW218627   6.360   4.688   3.532
 5910SOL     OW18628   3.154   4.431   0.599
 5910SOL    HW118629   3.228   4.401   0.659
 5910SOL    HW218630   3.184   4.510   0.546
 5911SOL     OW18631   6.369   0.293   6.907
 5911SOL    HW118632   6.386   0.207   6.859
 5911SOL    HW218633   6.387   0.280   7.005
 5912SOL     OW18634   0.942   3.257   4.999
 5912SOL    HW118635   0.976   3.348   4.975
 5912SOL    HW218636   0.946   3.245   5.098
 5913SOL     OW18637   1.629   2.259   4.671
 5913SOL    HW118638   1.602   2.288   4.580
 5913SOL    HW218639   1.721   2.294   4.692
 5914SOL     OW18640   1.724   6.130   0.647
 5914SOL    HW118641   1.736   6.229   0.658
 5914SOL    HW218642   1.648   6.112   0.585
 5915SOL     OW18643   5.751   3.435   4.540
 5915SOL    HW118644   5.731   3.392   4.452
 5915SOL    HW218645   5.666   3.461   4.584
 5916SOL     OW18646   3.410   0.190   6.064
 5916SOL    HW118647   3.429   0.284   6.092
 5916SOL    HW218648   3.321   0.162   6.101
 5917SOL     OW18649   3.591   4.046   2.724
 5917SOL    HW118650   3.629   3.962   2.761
 5917SOL    HW218651   3.613   4.052   2.626
 5918SOL     OW18652   2.654   2.077   4.190
 5918SOL    HW118653   2.716   1.999   4.182
 5918SOL    HW218654   2.615   2.079   4.282
 5919SOL     OW18655   1.473   2.304   6.658
 5919SOL    HW118656   1.512   2.284   6.748
 5919SOL    HW218657   1.391   2.249   6.645
 5920SOL     OW18658   2.162   5.176   0.237
 5920SOL    HW118659   2.151   5.256   0.296
 5920SOL    HW218660   2.143   5.202   0.142
 5921SOL     OW18661   3.984   5.328   6.081
 5921SOL    HW118662   4.046   5.361   6.152
 5921SOL    HW218663   3.905   5.389   6.074
 5922SOL     OW18664   5.988   4.456   1.269
 5922SOL    HW118665   5.918   4.457   1.340
 5922SOL    HW218666   5.955   4.505   1.189
 5923SOL     OW18667   0.066   0.592   3.527
 5923SOL    HW118668   0.126   0.593   3.447
 5923SOL    HW218669   0.039   0.498   3.547
 5924SOL     OW18670   5.761   1.908   5.230
 5924SOL    HW118671   5.810   1.925   5.144
 5924SOL    HW218672   5.745   1.810   5.241
 5925SOL     OW18673   6.196   6.008   0.340
 5925SOL    HW118674   6.147   5.962   0.265
 5925SOL    HW218675   6.180   5.958   0.425
 5926SOL     OW18676   2.994   5.137   2.562
 5926SOL    HW118677   2.934   5.180   2.629
 5926SOL    HW218678   3.031   5.206   2.500
 5927SOL     OW18679   2.597   5.376   1.985
 5927SOL    HW118680   2.624   5.467   2.015
 5927SOL    HW218681   2.539   5.383   1.904
 5928SOL     OW18682   0.589   6.135   0.954
 5928SOL    HW118683   0.596   6.072   0.877
 5928SOL    HW218684   0.496   6.172   0.958
 5929SOL     OW18685   0.851   6.893   5.227
 5929SOL    HW118686   0.841   6.802   5.185
 5929SOL    HW218687   0.776   6.908   5.291
 5930SOL     OW18688   6.417   1.479   5.032
 5930SOL    HW118689   6.446   1.507   5.123
 5930SOL    HW218690   6.405   1.380   5.030
 5931SOL     OW18691   5.727   4.898   1.125
 5931SOL    HW118692   5.825   4.909   1.139
 5931SOL    HW218693   5.681   4.985   1.142
 5932SOL     OW18694   2.388   0.152   0.092
 5932SOL    HW118695   2.330   0.118   0.018
 5932SOL    HW218696   2.351   0.122   0.180
 5933SOL     OW18697   6.023   3.554   2.494
 5933SOL    HW118698   5.971   3.529   2.576
 5933SOL    HW218699   6.116   3.520   2.501
 5934SOL     OW18700   3.659   4.026   2.389
 5934SOL    HW118701   3.614   3.939   2.368
 5934SOL    HW218702   3.755   4.021   2.364
 5935SOL     OW18703   4.118   3.380   2.976
 5935SOL    HW118704   4.172   3.355   2.896
 5935SOL    HW218705   4.082   3.298   3.020
 5936SOL     OW18706   5.972   6.368   6.482
 5936SOL    HW118707   6.025   6.400   6.404
 5936SOL    HW218708   5.888   6.323   6.450
 5937SOL     OW18709   1.641   4.456   0.296
 5937SOL    HW118710   1.581   4.451   0.375
 5937SOL    HW218711   1.726   4.408   0.316
 5938SOL     OW18712   2.017   4.131   1.013
 5938SOL    HW118713   1.989   4.213   1.063
 5938SOL    HW218714   1.974   4.051   1.055
 5939SOL     OW18715   1.884   1.209   2.476
 5939SOL    HW118716   1.970   1.245   2.440
 5939SOL    HW218717   1.843   1.149   2.407
 5940SOL     OW18718   4.189   5.204   3.319
 5940SOL    HW118719   4.133   5.140   3.372
 5940SOL    HW218720   4.248   5.152   3.257
 5941SOL     OW18721   6.699   3.365   2.866
 5941SOL    HW118722   6.715   3.327   2.957
 5941SOL    HW218723   6.729   3.300   2.796
 5942SOL     OW18724   6.805   1.942   4.845
 5942SOL    HW118725   6.767   1.905   4.930
 5942SOL    HW218726   6.866   2.018   4.865
 5943SOL     OW18727   0.993   5.169   0.596
 5943SOL    HW118728   0.907   5.178   0.647
 5943SOL    HW218729   1.025   5.075   0.601
 5944SOL     OW18730   5.169   2.141   3.234
 5944SOL    HW118731   5.186   2.239   3.222
 5944SOL    HW218732   5.131   2.103   3.149
 5945SOL     OW18733   6.711   5.035   5.912
 5945SOL    HW118734   6.665   4.946   5.905
 5945SOL    HW218735   6.668   5.089   5.985
 5946SOL     OW18736   3.969   2.991   5.346
 5946SOL    HW118737   3.996   3.088   5.342
 5946SOL    HW218738   3.869   2.985   5.352
 5947SOL     OW18739   4.332   3.864   1.601
 5947SOL    HW118740   4.263   3.868   1.673
 5947SOL    HW218741   4.353   3.956   1.570
 5948SOL     OW18742   3.591   5.132   3.640
 5948SOL    HW118743   3.688   5.155   3.637
 5948SOL    HW218744   3.580   5.038   3.672
 5949SOL     OW18745   4.871   4.274   2.488
 5949SOL    HW118746   4.829   4.335   2.421
 5949SOL    HW218747   4.930   4.327   2.549
 5950SOL     OW18748   6.043   2.645   3.860
 5950SOL    HW118749   5.992   2.559   3.853
 5950SOL    HW218750   5.994   2.717   3.811
 5951SOL     OW18751   2.164   6.750   4.023
 5951SOL    HW118752   2.242   6.706   3.979
 5951SOL    HW218753   2.180   6.756   4.121
 5952SOL     OW18754   6.861   6.024   5.095
 5952SOL    HW118755   6.945   6.077   5.082
 5952SOL    HW218756   6.847   5.963   5.017
 5953SOL     OW18757   0.804   3.560   6.245
 5953SOL    HW118758   0.745   3.631   6.284
 5953SOL    HW218759   0.887   3.603   6.208
 5954SOL     OW18760   0.914   5.090   6.833
 5954SOL    HW118761   1.002   5.125   6.867
 5954SOL    HW218762   0.857   5.062   6.910
 5955SOL     OW18763   4.398   5.308   2.619
 5955SOL    HW118764   4.310   5.336   2.579
 5955SOL    HW218765   4.473   5.346   2.564
 5956SOL     OW18766   6.799   2.230   0.086
 5956SOL    HW118767   6.869   2.161   0.107
 5956SOL    HW218768   6.732   2.234   0.160
 5957SOL     OW18769   4.684   6.794   5.177
 5957SOL    HW118770   4.734   6.874   5.210
 5957SOL    HW218771   4.678   6.797   5.078
 5958SOL     OW18772   1.437   5.228   2.573
 5958SOL    HW118773   1.479   5.231   2.482
 5958SOL    HW218774   1.452   5.137   2.613
 5959SOL     OW18775   1.940   0.826   6.700
 5959SOL    HW118776   1.947   0.735   6.739
 5959SOL    HW218777   2.030   0.871   6.701
 5960SOL     OW18778   3.558   6.486   5.018
 5960SOL    HW118779   3.483   6.542   4.983
 5960SOL    HW218780   3.610   6.448   4.940
 5961SOL     OW18781   2.322   1.123   5.733
 5961SOL    HW118782   2.370   1.198   5.777
 5961SOL    HW218783   2.225   1.127   5.757
 5962SOL     OW18784   5.257   4.758   2.797
 5962SOL    HW118785   5.171   4.796   2.762
 5962SOL    HW218786   5.299   4.701   2.727
 5963SOL     OW18787   4.031   3.840   1.867
 5963SOL    HW118788   4.109   3.900   1.884
 5963SOL    HW218789   4.049   3.750   1.906
 5964SOL     OW18790   1.459   3.693   5.629
 5964SOL    HW118791   1.548   3.739   5.638
 5964SOL    HW218792   1.391   3.759   5.596
 5965SOL     OW18793   2.413   1.432   3.915
 5965SOL    HW118794   2.363   1.381   3.846
 5965SOL    HW218795   2.490   1.377   3.948
 5966SOL     OW18796   1.834   6.340   4.218
 5966SOL    HW118797   1.883   6.292   4.291
 5966SOL    HW218798   1.899   6.393   4.163
 5967SOL     OW18799   4.445   6.153   2.278
 5967SOL    HW118800   4.516   6.137   2.209
 5967SOL    HW218801   4.487   6.162   2.368
 5968SOL     OW18802   0.307   2.082   4.477
 5968SOL    HW118803   0.295   2.003   4.537
 5968SOL    HW218804   0.255   2.069   4.393
 5969SOL     OW18805   5.587   2.927   2.763
 5969SOL    HW118806   5.516   2.966   2.821
 5969SOL    HW218807   5.656   2.882   2.821
 5970SOL     OW18808   1.983   3.247   3.466
 5970SOL    HW118809   1.932   3.240   3.380
 5970SOL    HW218810   1.921   3.233   3.543
 5971SOL     OW18811   2.834   6.735   2.768
 5971SOL    HW118812   2.799   6.827   2.750
 5971SOL    HW218813   2.764   6.681   2.815
 5972SOL     OW18814   4.828   7.005   1.746
 5972SOL    HW118815   4.925   7.011   1.725
 5972SOL    HW218816   4.815   7.002   1.845
 5973SOL     OW18817   1.249   4.101   2.994
 5973SOL    HW118818   1.327   4.056   2.952
 5973SOL    HW218819   1.259   4.098   3.094
 5974SOL     OW18820   0.983   3.776   6.406
 5974SOL    HW118821   1.004   3.775   6.308
 5974SOL    HW218822   0.884   3.779   6.418
 5975SOL     OW18823   2.200   3.445   0.210
 5975SOL    HW118824   2.216   3.493   0.124
 5975SOL    HW218825   2.102   3.425   0.219
 5976SOL     OW18826   3.628   3.099   4.901
 5976SOL    HW118827   3.702   3.060   4.956
 5976SOL    HW218828   3.666   3.145   4.821
 5977SOL     OW18829   0.878   3.357   3.404
 5977SOL    HW118830   0.797   3.313   3.366
 5977SOL    HW218831   0.953   3.352   3.338
 5978SOL     OW18832   5.066   5.344   3.193
 5978SOL    HW118833   5.057   5.251   3.158
 5978SOL    HW218834   5.003   5.404   3.143
 5979SOL     OW18835   0.963   1.000   2.060
 5979SOL    HW118836   0.885   1.042   2.015
 5979SOL    HW218837   1.043   1.006   2.001
 5980SOL     OW18838   6.224   3.765   6.197
 5980SOL    HW118839   6.318   3.786   6.171
 5980SOL    HW218840   6.205   3.669   6.177
 5981SOL     OW18841   4.011   2.089   1.050
 5981SOL    HW118842   3.943   2.102   1.122
 5981SOL    HW218843   4.100   2.067   1.092
 5982SOL     OW18844   5.894   2.473   6.866
 5982SOL    HW118845   5.830   2.476   6.789
 5982SOL    HW218846   5.932   2.565   6.881
 5983SOL     OW18847   0.610   0.928   4.920
 5983SOL    HW118848   0.610   0.871   4.838
 5983SOL    HW218849   0.665   1.010   4.904
 5984SOL     OW18850   0.462   6.925   5.556
 5984SOL    HW118851   0.381   6.984   5.560
 5984SOL    HW218852   0.464   6.865   5.635
 5985SOL     OW18853   5.099   3.031   4.024
 5985SOL    HW118854   5.000   3.032   4.035
 5985SOL    HW218855   5.127   3.103   3.961
 5986SOL     OW18856   3.502   2.855   2.499
 5986SOL    HW118857   3.553   2.883   2.417
 5986SOL    HW218858   3.433   2.923   2.521
 5987SOL     OW18859   4.834   6.883   5.524
 5987SOL    HW118860   4.851   6.919   5.616
 5987SOL    HW218861   4.921   6.879   5.474
 5988SOL     OW18862   3.620   6.838   4.802
 5988SOL    HW118863   3.692   6.822   4.870
 5988SOL    HW218864   3.630   6.773   4.727
 5989SOL     OW18865   2.779   1.560   6.753
 5989SOL    HW118866   2.770   1.637   6.690
 5989SOL    HW218867   2.863   1.571   6.806
 5990SOL     OW18868   3.314   4.907   2.358
 5990SOL    HW118869   3.291   4.973   2.287
 5990SOL    HW218870   3.248   4.832   2.357
 5991SOL     OW18871   3.015   5.392   3.819
 5991SOL    HW118872   2.921   5.377   3.788
 5991SOL    HW218873   3.014   5.442   3.905
 5992SOL     OW18874   4.347   2.414   4.601
 5992SOL    HW118875   4.377   2.350   4.530
 5992SOL    HW218876   4.286   2.482   4.561
 5993SOL     OW18877   3.714   5.904   3.971
 5993SOL    HW118878   3.814   5.907   3.968
 5993SOL    HW218879   3.677   5.970   3.905
 5994SOL     OW18880   6.225   2.847   1.443
 5994SOL    HW118881   6.130   2.820   1.462
 5994SOL    HW218882   6.245   2.833   1.346
 5995SOL     OW18883   0.888   4.675   1.467
 5995SOL    HW118884   0.823   4.600   1.456
 5995SOL    HW218885   0.866   4.728   1.549
 5996SOL     OW18886   0.605   5.812   5.815
 5996SOL    HW118887   0.619   5.762   5.730
 5996SOL    HW218888   0.556   5.897   5.797
 5997SOL     OW18889   0.463   0.339   1.359
 5997SOL    HW118890   0.444   0.427   1.402
 5997SOL    HW218891   0.406   0.268   1.402
 5998SOL     OW18892   4.456   2.099   3.419
 5998SOL    HW118893   4.460   2.049   3.506
 5998SOL    HW218894   4.466   2.035   3.343
 5999SOL     OW18895   2.171   2.676   3.336
 5999SOL    HW118896   2.187   2.582   3.368
 5999SOL    HW218897   2.151   2.735   3.414
 6000SOL     OW18898   4.940   0.088   3.266
 6000SOL    HW118899   4.885   0.011   3.299
 6000SOL    HW218900   4.887   0.141   3.200
 6001SOL     OW18901   5.749   1.431   0.028
 6001SOL    HW118902   5.839   1.393   0.046
 6001SOL    HW218903   5.731   1.505   0.092
 6002SOL     OW18904   1.530   0.506   1.717
 6002SOL    HW118905   1.589   0.425   1.719
 6002SOL    HW218906   1.580   0.585   1.754
 6003SOL     OW18907   5.366   3.963   4.045
 6003SOL    HW118908   5.283   3.983   4.098
 6003SOL    HW218909   5.348   3.981   3.948
 6004SOL     OW18910   6.946   3.457   1.637
 6004SOL    HW118911   6.960   3.554   1.620
 6004SOL    HW218912   0.002   3.421   1.691
 6005SOL     OW18913   2.084   5.912   2.639
 6005SOL    HW118914   2.039   5.836   2.686
 6005SOL    HW218915   2.077   5.899   2.541
 6006SOL     OW18916   1.785   5.801   0.003
 6006SOL    HW118917   1.755   5.833   0.093
 6006SOL    HW218918   1.706   5.796   6.961
 6007SOL     OW18919   5.311   3.123   4.489
 6007SOL    HW118920   5.279   3.087   4.402
 6007SOL    HW218921   5.390   3.071   4.520
 6008SOL     OW18922   4.838   4.252   1.209
 6008SOL    HW118923   4.801   4.174   1.261
 6008SOL    HW218924   4.845   4.332   1.268
 6009SOL     OW18925   3.501   1.810   4.180
 6009SOL    HW118926   3.440   1.746   4.227
 6009SOL    HW218927   3.483   1.903   4.211
 6010SOL     OW18928   1.249   3.180   3.465
 6010SOL    HW118929   1.222   3.244   3.537
 6010SOL    HW218930   1.210   3.208   3.378
 6011SOL     OW18931   6.460   2.948   1.867
 6011SOL    HW118932   6.535   2.932   1.932
 6011SOL    HW218933   6.465   2.882   1.793
 6012SOL     OW18934   0.379   3.004   1.242
 6012SOL    HW118935   0.405   2.982   1.336
 6012SOL    HW218936   0.461   3.031   1.190
 6013SOL     OW18937   6.037   0.576   2.034
 6013SOL    HW118938   6.020   0.539   2.125
 6013SOL    HW218939   6.019   0.675   2.034
 6014SOL     OW18940   5.434   0.482   1.119
 6014SOL    HW118941   5.414   0.513   1.026
 6014SOL    HW218942   5.356   0.502   1.178
 6015SOL     OW18943   5.321   1.397   4.733
 6015SOL    HW118944   5.324   1.462   4.808
 6015SOL    HW218945   5.327   1.304   4.770
 6016SOL     OW18946   1.690   6.670   5.201
 6016SOL    HW118947   1.729   6.734   5.135
 6016SOL    HW218948   1.763   6.629   5.255
 6017SOL     OW18949   6.920   3.875   2.457
 6017SOL    HW118950   6.909   3.973   2.476
 6017SOL    HW218951   6.874   3.822   2.528
 6018SOL     OW18952   2.390   5.455   1.417
 6018SOL    HW118953   2.350   5.411   1.337
 6018SOL    HW218954   2.481   5.416   1.435
 6019SOL     OW18955   5.546   6.441   3.264
 6019SOL    HW118956   5.640   6.422   3.292
 6019SOL    HW218957   5.500   6.355   3.243
 6020SOL     OW18958   2.662   6.962   2.772
 6020SOL    HW118959   2.682   0.038   2.794
 6020SOL    HW218960   2.582   6.931   2.823
 6021SOL     OW18961   4.369   0.852   3.747
 6021SOL    HW118962   4.426   0.770   3.754
 6021SOL    HW218963   4.426   0.931   3.725
 6022SOL     OW18964   4.586   1.222   5.910
 6022SOL    HW118965   4.678   1.188   5.929
 6022SOL    HW218966   4.572   1.225   5.811
 6023SOL     OW18967   0.472   1.920   2.643
 6023SOL    HW118968   0.507   1.905   2.551
 6023SOL    HW218969   0.544   1.901   2.710
 6024SOL     OW18970   6.903   5.682   2.566
 6024SOL    HW118971   6.960   5.639   2.636
 6024SOL    HW218972   6.873   5.613   2.501
 6025SOL     OW18973   3.845   1.758   2.018
 6025SOL    HW118974   3.787   1.710   2.084
 6025SOL    HW218975   3.791   1.825   1.968
 6026SOL     OW18976   0.544   4.378   5.958
 6026SOL    HW118977   0.600   4.446   5.911
 6026SOL    HW218978   0.570   4.286   5.927
 6027SOL     OW18979   3.220   3.313   0.254
 6027SOL    HW118980   3.317   3.311   0.279
 6027SOL    HW218981   3.166   3.267   0.325
 6028SOL     OW18982   0.920   4.618   6.917
 6028SOL    HW118983   0.953   4.523   6.909
 6028SOL    HW218984   0.936   4.651   7.010
 6029SOL     OW18985   1.203   4.890   2.078
 6029SOL    HW118986   1.294   4.926   2.097
 6029SOL    HW218987   1.153   4.879   2.164
 6030SOL     OW18988   1.846   0.049   1.357
 6030SOL    HW118989   1.923   0.103   1.323
 6030SOL    HW218990   1.861   0.026   1.453
 6031SOL     OW18991   5.484   0.947   4.225
 6031SOL    HW118992   5.474   1.008   4.146
 6031SOL    HW218993   5.424   0.868   4.213
 6032SOL     OW18994   0.191   3.625   2.729
 6032SOL    HW118995   0.174   3.705   2.786
 6032SOL    HW218996   0.153   3.544   2.773
 6033SOL     OW18997   0.070   6.760   4.667
 6033SOL    HW118998   0.147   6.767   4.731
 6033SOL    HW218999   0.062   6.666   4.634
 6034SOL     OW19000   2.180   4.250   5.058
 6034SOL    HW119001   2.197   4.155   5.031
 6034SOL    HW219002   2.267   4.299   5.062
 6035SOL     OW19003   5.451   0.013   3.858
 6035SOL    HW119004   5.446   0.112   3.867
 6035SOL    HW219005   5.499   7.009   3.773
 6036SOL     OW19006   0.575   1.084   4.108
 6036SOL    HW119007   0.642   1.156   4.125
 6036SOL    HW219008   0.605   0.999   4.151
 6037SOL     OW19009   6.987   5.722   4.754
 6037SOL    HW119010   0.055   5.751   4.714
 6037SOL    HW219011   7.005   5.667   4.835
 6038SOL     OW19012   5.536   4.246   6.297
 6038SOL    HW119013   5.597   4.177   6.337
 6038SOL    HW219014   5.561   4.261   6.201
 6039SOL     OW19015   3.853   3.100   4.186
 6039SOL    HW119016   3.839   3.097   4.285
 6039SOL    HW219017   3.767   3.120   4.140
 6040SOL     OW19018   1.340   1.348   0.223
 6040SOL    HW119019   1.414   1.281   0.230
 6040SOL    HW219020   1.378   1.436   0.194
 6041SOL     OW19021   0.870   2.487   0.673
 6041SOL    HW119022   0.966   2.459   0.670
 6041SOL    HW219023   0.858   2.562   0.738
 6042SOL     OW19024   5.439   5.749   4.614
 6042SOL    HW119025   5.364   5.684   4.598
 6042SOL    HW219026   5.472   5.783   4.526
 6043SOL     OW19027   0.460   4.262   4.049
 6043SOL    HW119028   0.413   4.323   4.113
 6043SOL    HW219029   0.508   4.191   4.100
 6044SOL     OW19030   0.861   0.421   1.500
 6044SOL    HW119031   0.798   0.349   1.530
 6044SOL    HW219032   0.942   0.379   1.459
 6045SOL     OW19033   6.840   4.045   1.155
 6045SOL    HW119034   6.925   4.073   1.201
 6045SOL    HW219035   6.854   3.955   1.113
 6046SOL     OW19036   2.370   3.292   0.743
 6046SOL    HW119037   2.304   3.367   0.732
 6046SOL    HW219038   2.403   3.264   0.653
 6047SOL     OW19039   0.341   5.993   4.880
 6047SOL    HW119040   0.268   5.996   4.948
 6047SOL    HW219041   0.311   5.940   4.801
 6048SOL     OW19042   4.713   5.649   5.048
 6048SOL    HW119043   4.727   5.608   5.137
 6048SOL    HW219044   4.675   5.582   4.985
 6049SOL     OW19045   6.427   5.508   0.578
 6049SOL    HW119046   6.456   5.568   0.503
 6049SOL    HW219047   6.506   5.487   0.636
 6050SOL     OW19048   5.641   4.439   5.461
 6050SOL    HW119049   5.730   4.452   5.417
 6050SOL    HW219050   5.652   4.383   5.543
 6051SOL     OW19051   2.399   1.772   2.776
 6051SOL    HW119052   2.336   1.773   2.854
 6051SOL    HW219053   2.427   1.865   2.754
 6052SOL     OW19054   6.596   0.982   0.426
 6052SOL    HW119055   6.673   1.002   0.487
 6052SOL    HW219056   6.590   1.053   0.356
 6053SOL     OW19057   1.967   0.174   6.044
 6053SOL    HW119058   1.892   0.240   6.039
 6053SOL    HW219059   1.964   0.114   5.964
 6054SOL     OW19060   2.180   4.446   6.484
 6054SOL    HW119061   2.162   4.495   6.399
 6054SOL    HW219062   2.204   4.512   6.556
 6055SOL     OW19063   4.800   0.590   3.930
 6055SOL    HW119064   4.888   0.571   3.974
 6055SOL    HW219065   4.808   0.579   3.831
 6056SOL     OW19066   5.055   3.722   6.562
 6056SOL    HW119067   5.132   3.705   6.624
 6056SOL    HW219068   5.079   3.797   6.500
 6057SOL     OW19069   3.380   0.346   6.401
 6057SOL    HW119070   3.351   0.251   6.412
 6057SOL    HW219071   3.465   0.361   6.452
 6058SOL     OW19072   5.296   1.513   4.084
 6058SOL    HW119073   5.252   1.497   4.172
 6058SOL    HW219074   5.227   1.544   4.018
 6059SOL     OW19075   6.665   6.678   6.020
 6059SOL    HW119076   6.601   6.629   6.078
 6059SOL    HW219077   6.759   6.657   6.048
 6060SOL     OW19078   3.137   6.297   6.585
 6060SOL    HW119079   3.132   6.367   6.513
 6060SOL    HW219080   3.099   6.335   6.670
 6061SOL     OW19081   1.626   2.010   6.716
 6061SOL    HW119082   1.574   2.077   6.769
 6061SOL    HW219083   1.714   1.994   6.760
 6062SOL     OW19084   1.495   0.166   4.247
 6062SOL    HW119085   1.562   0.143   4.177
 6062SOL    HW219086   1.444   0.248   4.218
 6063SOL     OW19087   5.317   6.165   6.942
 6063SOL    HW119088   5.299   6.125   6.851
 6063SOL    HW219089   5.235   6.155   6.999
 6064SOL     OW19090   0.776   5.500   3.164
 6064SOL    HW119091   0.789   5.597   3.183
 6064SOL    HW219092   0.785   5.483   3.066
 6065SOL     OW19093   5.945   6.671   1.557
 6065SOL    HW119094   5.905   6.668   1.465
 6065SOL    HW219095   6.029   6.726   1.555
 6066SOL     OW19096   4.708   2.228   6.299
 6066SOL    HW119097   4.806   2.215   6.315
 6066SOL    HW219098   4.694   2.307   6.240
 6067SOL     OW19099   5.422   2.090   6.446
 6067SOL    HW119100   5.371   2.173   6.466
 6067SOL    HW219101   5.393   2.053   6.357
 6068SOL     OW19102   5.096   1.946   5.452
 6068SOL    HW119103   5.163   1.887   5.409
 6068SOL    HW219104   5.020   1.891   5.488
 6069SOL     OW19105   5.900   4.048   4.278
 6069SOL    HW119106   5.874   3.954   4.260
 6069SOL    HW219107   5.999   4.059   4.266
 6070SOL     OW19108   4.038   2.740   6.796
 6070SOL    HW119109   3.967   2.810   6.791
 6070SOL    HW219110   3.997   2.650   6.784
 6071SOL     OW19111   4.670   6.368   5.336
 6071SOL    HW119112   4.743   6.327   5.283
 6071SOL    HW219113   4.587   6.372   5.281
 6072SOL     OW19114   7.003   1.435   0.766
 6072SOL    HW119115   0.073   1.467   0.799
 6072SOL    HW219116   6.940   1.512   0.758
 6073SOL     OW19117   6.195   1.836   1.232
 6073SOL    HW119118   6.137   1.900   1.283
 6073SOL    HW219119   6.284   1.830   1.277
 6074SOL     OW19120   0.662   0.152   5.225
 6074SOL    HW119121   0.621   0.084   5.163
 6074SOL    HW219122   0.710   0.221   5.171
 6075SOL     OW19123   5.098   4.575   6.329
 6075SOL    HW119124   5.139   4.486   6.351
 6075SOL    HW219125   5.164   4.632   6.281
 6076SOL     OW19126   2.745   6.984   4.373
 6076SOL    HW119127   2.776   7.011   4.282
 6076SOL    HW219128   2.819   6.936   4.421
 6077SOL     OW19129   5.480   5.408   2.851
 6077SOL    HW119130   5.528   5.326   2.822
 6077SOL    HW219131   5.438   5.452   2.771
 6078SOL     OW19132   2.210   4.561   3.704
 6078SOL    HW119133   2.139   4.601   3.646
 6078SOL    HW219134   2.269   4.502   3.647
 6079SOL     OW19135   2.278   1.979   1.107
 6079SOL    HW119136   2.193   1.936   1.077
 6079SOL    HW219137   2.341   1.988   1.030
 6080SOL     OW19138   5.445   2.428   2.646
 6080SOL    HW119139   5.487   2.385   2.726
 6080SOL    HW219140   5.517   2.459   2.584
 6081SOL     OW19141   0.623   3.693   2.767
 6081SOL    HW119142   0.558   3.634   2.814
 6081SOL    HW219143   0.657   3.647   2.685
 6082SOL     OW19144   3.452   2.058   4.254
 6082SOL    HW119145   3.454   2.049   4.354
 6082SOL    HW219146   3.358   2.074   4.224
 6083SOL     OW19147   1.924   0.131   0.622
 6083SOL    HW119148   1.829   0.102   0.637
 6083SOL    HW219149   1.938   0.221   0.665
 6084SOL     OW19150   0.610   4.892   5.847
 6084SOL    HW119151   0.532   4.910   5.788
 6084SOL    HW219152   0.614   4.961   5.919
 6085SOL     OW19153   5.000   5.138   1.634
 6085SOL    HW119154   5.034   5.136   1.728
 6085SOL    HW219155   4.958   5.050   1.613
 6086SOL     OW19156   2.904   1.736   2.883
 6086SOL    HW119157   2.883   1.666   2.951
 6086SOL    HW219158   2.824   1.750   2.824
 6087SOL     OW19159   3.655   0.229   0.834
 6087SOL    HW119160   3.558   0.244   0.815
 6087SOL    HW219161   3.666   0.147   0.890
 6088SOL     OW19162   7.016   6.876   5.850
 6088SOL    HW119163   0.019   6.857   5.946
 6088SOL    HW219164   0.058   6.823   5.791
 6089SOL     OW19165   6.202   3.424   0.406
 6089SOL    HW119166   6.241   3.334   0.429
 6089SOL    HW219167   6.166   3.423   0.313
 6090SOL     OW19168   0.419   5.585   3.883
 6090SOL    HW119169   0.511   5.555   3.859
 6090SOL    HW219170   0.355   5.561   3.810
 6091SOL     OW19171   6.080   2.043   1.349
 6091SOL    HW119172   6.041   2.035   1.440
 6091SOL    HW219173   6.012   2.083   1.287
 6092SOL     OW19174   1.695   2.942   0.855
 6092SOL    HW119175   1.777   2.891   0.828
 6092SOL    HW219176   1.633   2.881   0.904
 6093SOL     OW19177   1.235   3.936   0.646
 6093SOL    HW119178   1.239   3.880   0.728
 6093SOL    HW219179   1.328   3.955   0.614
 6094SOL     OW19180   1.004   0.990   0.893
 6094SOL    HW119181   1.051   1.022   0.811
 6094SOL    HW219182   0.913   1.031   0.898
 6095SOL     OW19183   6.421   3.776   5.331
 6095SOL    HW119184   6.367   3.747   5.251
 6095SOL    HW219185   6.422   3.876   5.335
 6096SOL     OW19186   4.081   1.601   2.679
 6096SOL    HW119187   4.146   1.525   2.685
 6096SOL    HW219188   4.130   1.687   2.690
 6097SOL     OW19189   2.753   1.880   2.257
 6097SOL    HW119190   2.738   1.978   2.247
 6097SOL    HW219191   2.691   1.831   2.195
 6098SOL     OW19192   1.574   1.014   6.371
 6098SOL    HW119193   1.597   0.955   6.294
 6098SOL    HW219194   1.482   0.991   6.404
 6099SOL     OW19195   5.869   4.693   4.947
 6099SOL    HW119196   5.949   4.741   4.984
 6099SOL    HW219197   5.786   4.730   4.988
 6100SOL     OW19198   6.610   2.194   0.265
 6100SOL    HW119199   6.595   2.109   0.316
 6100SOL    HW219200   6.572   2.270   0.317
 6101SOL     OW19201   5.745   0.600   3.888
 6101SOL    HW119202   5.822   0.661   3.869
 6101SOL    HW219203   5.712   0.616   3.980
 6102SOL     OW19204   3.095   0.068   5.446
 6102SOL    HW119205   3.054   0.072   5.537
 6102SOL    HW219206   3.030   0.028   5.382
 6103SOL     OW19207   6.030   1.110   5.465
 6103SOL    HW119208   6.095   1.040   5.436
 6103SOL    HW219209   6.044   1.129   5.562
 6104SOL     OW19210   1.391   3.583   1.177
 6104SOL    HW119211   1.344   3.665   1.208
 6104SOL    HW219212   1.459   3.556   1.245
 6105SOL     OW19213   3.648   5.079   4.551
 6105SOL    HW119214   3.597   4.994   4.555
 6105SOL    HW219215   3.624   5.129   4.468
 6106SOL     OW19216   3.441   4.877   4.107
 6106SOL    HW119217   3.538   4.855   4.096
 6106SOL    HW219218   3.431   4.970   4.142
 6107SOL     OW19219   2.273   4.807   5.696
 6107SOL    HW119220   2.236   4.854   5.776
 6107SOL    HW219221   2.198   4.774   5.639
 6108SOL     OW19222   5.877   1.747   4.558
 6108SOL    HW119223   5.847   1.837   4.528
 6108SOL    HW219224   5.964   1.724   4.514
 6109SOL     OW19225   6.703   4.338   1.828
 6109SOL    HW119226   6.614   4.377   1.804
 6109SOL    HW219227   6.772   4.410   1.830
 6110SOL     OW19228   3.311   2.092   3.412
 6110SOL    HW119229   3.337   2.178   3.369
 6110SOL    HW219230   3.392   2.035   3.426
 6111SOL     OW19231   0.342   4.477   2.810
 6111SOL    HW119232   0.298   4.505   2.725
 6111SOL    HW219233   0.325   4.380   2.826
 6112SOL     OW19234   1.060   2.315   1.397
 6112SOL    HW119235   1.121   2.366   1.336
 6112SOL    HW219236   1.111   2.241   1.441
 6113SOL     OW19237   2.079   5.364   5.480
 6113SOL    HW119238   1.991   5.347   5.436
 6113SOL    HW219239   2.073   5.339   5.576
 6114SOL     OW19240   5.531   5.753   1.264
 6114SOL    HW119241   5.559   5.779   1.172
 6114SOL    HW219242   5.545   5.655   1.277
 6115SOL     OW19243   6.514   4.306   2.292
 6115SOL    HW119244   6.422   4.345   2.287
 6115SOL    HW219245   6.580   4.370   2.250
 6116SOL     OW19246   3.209   1.921   1.271
 6116SOL    HW119247   3.288   1.940   1.329
 6116SOL    HW219248   3.172   2.007   1.236
 6117SOL     OW19249   5.711   6.510   3.886
 6117SOL    HW119250   5.797   6.558   3.900
 6117SOL    HW219251   5.664   6.500   3.974
 6118SOL     OW19252   6.218   0.618   3.036
 6118SOL    HW119253   6.142   0.572   2.990
 6118SOL    HW219254   6.305   0.581   3.003
 6119SOL     OW19255   5.895   5.715   3.952
 6119SOL    HW119256   5.915   5.620   3.929
 6119SOL    HW219257   5.941   5.739   4.037
 6120SOL     OW19258   3.123   1.282   3.730
 6120SOL    HW119259   3.192   1.270   3.659
 6120SOL    HW219260   3.054   1.211   3.722
 6121SOL     OW19261   6.449   1.838   4.467
 6121SOL    HW119262   6.444   1.834   4.567
 6121SOL    HW219263   6.453   1.745   4.430
 6122SOL     OW19264   4.574   6.010   4.122
 6122SOL    HW119265   4.594   5.919   4.085
 6122SOL    HW219266   4.592   6.079   4.052
 6123SOL     OW19267   6.695   1.741   2.739
 6123SOL    HW119268   6.737   1.705   2.823
 6123SOL    HW219269   6.766   1.777   2.679
 6124SOL     OW19270   2.833   0.199   5.348
 6124SOL    HW119271   2.865   0.232   5.259
 6124SOL    HW219272   2.793   0.276   5.399
 6125SOL     OW19273   1.204   5.207   2.278
 6125SOL    HW119274   1.298   5.209   2.245
 6125SOL    HW219275   1.202   5.175   2.372
 6126SOL     OW19276   4.088   5.565   2.221
 6126SOL    HW119277   4.176   5.607   2.197
 6126SOL    HW219278   4.099   5.513   2.306
 6127SOL     OW19279   2.194   4.590   2.134
 6127SOL    HW119280   2.209   4.535   2.051
 6127SOL    HW219281   2.104   4.634   2.128
 6128SOL     OW19282   4.870   3.039   1.074
 6128SOL    HW119283   4.777   3.059   1.045
 6128SOL    HW219284   4.869   2.980   1.155
 6129SOL     OW19285   5.902   3.952   3.313
 6129SOL    HW119286   5.964   4.002   3.373
 6129SOL    HW219287   5.906   3.990   3.221
 6130SOL     OW19288   5.412   4.514   2.126
 6130SOL    HW119289   5.438   4.550   2.216
 6130SOL    HW219290   5.480   4.447   2.096
 6131SOL     OW19291   6.691   1.295   5.195
 6131SOL    HW119292   6.628   1.327   5.265
 6131SOL    HW219293   6.785   1.303   5.228
 6132SOL     OW19294   6.743   2.733   0.560
 6132SOL    HW119295   6.654   2.714   0.519
 6132SOL    HW219296   6.785   2.812   0.515
 6133SOL     OW19297   1.333   4.551   0.636
 6133SOL    HW119298   1.297   4.593   0.552
 6133SOL    HW219299   1.380   4.621   0.690
 6134SOL     OW19300   4.343   3.580   0.304
 6134SOL    HW119301   4.386   3.503   0.257
 6134SOL    HW219302   4.405   3.615   0.374
 6135SOL     OW19303   5.627   0.429   2.616
 6135SOL    HW119304   5.615   0.331   2.636
 6135SOL    HW219305   5.715   0.460   2.653
 6136SOL     OW19306   0.306   1.586   2.513
 6136SOL    HW119307   0.240   1.530   2.563
 6136SOL    HW219308   0.277   1.681   2.514
 6137SOL     OW19309   3.098   6.490   5.800
 6137SOL    HW119310   3.151   6.518   5.880
 6137SOL    HW219311   3.129   6.542   5.720
 6138SOL     OW19312   4.860   0.602   3.087
 6138SOL    HW119313   4.818   0.546   3.158
 6138SOL    HW219314   4.806   0.595   3.003
 6139SOL     OW19315   2.414   5.599   3.620
 6139SOL    HW119316   2.327   5.583   3.573
 6139SOL    HW219317   2.397   5.611   3.718
 6140SOL     OW19318   1.265   5.481   1.329
 6140SOL    HW119319   1.214   5.518   1.251
 6140SOL    HW219320   1.218   5.399   1.363
 6141SOL     OW19321   6.619   5.903   6.030
 6141SOL    HW119322   6.551   5.951   6.085
 6141SOL    HW219323   6.584   5.813   6.005
 6142SOL     OW19324   0.656   3.864   2.979
 6142SOL    HW119325   0.603   3.795   2.930
 6142SOL    HW219326   0.703   3.923   2.912
 6143SOL     OW19327   6.777   3.957   6.717
 6143SOL    HW119328   6.827   3.879   6.679
 6143SOL    HW219329   6.826   3.992   6.797
 6144SOL     OW19330   0.025   4.665   4.518
 6144SOL    HW119331   0.074   4.752   4.518
 6144SOL    HW219332   0.080   4.596   4.470
 6145SOL     OW19333   5.829   5.467   3.451
 6145SOL    HW119334   5.891   5.534   3.493
 6145SOL    HW219335   5.756   5.515   3.403
 6146SOL     OW19336   5.522   2.512   3.362
 6146SOL    HW119337   5.583   2.432   3.359
 6146SOL    HW219338   5.427   2.482   3.353
 6147SOL     OW19339   0.952   3.815   2.880
 6147SOL    HW119340   1.018   3.822   2.956
 6147SOL    HW219341   0.916   3.722   2.877
 6148SOL     OW19342   6.453   5.515   3.175
 6148SOL    HW119343   6.501   5.451   3.235
 6148SOL    HW219344   6.375   5.554   3.223
 6149SOL     OW19345   1.972   6.486   4.651
 6149SOL    HW119346   2.013   6.454   4.565
 6149SOL    HW219347   1.873   6.488   4.641
 6150SOL     OW19348   4.169   5.526   6.289
 6150SOL    HW119349   4.153   5.587   6.211
 6150SOL    HW219350   4.249   5.557   6.340
 6151SOL     OW19351   4.475   0.349   5.662
 6151SOL    HW119352   4.427   0.320   5.579
 6151SOL    HW219353   4.569   0.373   5.640
 6152SOL     OW19354   6.951   4.516   5.235
 6152SOL    HW119355   7.018   4.588   5.251
 6152SOL    HW219356   6.989   4.448   5.172
 6153SOL     OW19357   4.839   4.490   6.941
 6153SOL    HW119358   4.930   4.461   6.912
 6153SOL    HW219359   4.774   4.472   6.868
 6154SOL     OW19360   5.104   2.980   3.418
 6154SOL    HW119361   5.083   2.883   3.404
 6154SOL    HW219362   5.169   2.989   3.493
 6155SOL     OW19363   1.906   4.410   4.100
 6155SOL    HW119364   1.945   4.360   4.177
 6155SOL    HW219365   1.810   4.430   4.119
 6156SOL     OW19366   6.081   0.628   4.537
 6156SOL    HW119367   6.028   0.668   4.611
 6156SOL    HW219368   6.029   0.554   4.495
 6157SOL     OW19369   1.037   1.352   3.664
 6157SOL    HW119370   0.957   1.292   3.661
 6157SOL    HW219371   1.029   1.414   3.742
 6158SOL     OW19372   4.968   0.177   0.576
 6158SOL    HW119373   5.044   0.238   0.553
 6158SOL    HW219374   4.969   0.157   0.674
 6159SOL     OW19375   5.762   3.247   6.974
 6159SOL    HW119376   5.733   3.161   6.932
 6159SOL    HW219377   5.725   3.324   6.921
 6160SOL     OW19378   6.566   4.640   1.133
 6160SOL    HW119379   6.642   4.651   1.069
 6160SOL    HW219380   6.509   4.722   1.132
 6161SOL     OW19381   5.650   0.448   6.544
 6161SOL    HW119382   5.693   0.358   6.537
 6161SOL    HW219383   5.712   0.511   6.592
 6162SOL     OW19384   5.851   5.348   4.117
 6162SOL    HW119385   5.933   5.316   4.164
 6162SOL    HW219386   5.782   5.374   4.184
 6163SOL     OW19387   6.722   4.033   2.143
 6163SOL    HW119388   6.629   4.042   2.106
 6163SOL    HW219389   6.749   3.937   2.142
 6164SOL     OW19390   4.457   2.580   0.726
 6164SOL    HW119391   4.390   2.553   0.795
 6164SOL    HW219392   4.427   2.547   0.636
 6165SOL     OW19393   4.049   6.932   1.043
 6165SOL    HW119394   4.007   6.871   1.110
 6165SOL    HW219395   4.024   6.901   0.951
 6166SOL     OW19396   3.972   1.645   0.237
 6166SOL    HW119397   3.895   1.698   0.202
 6166SOL    HW219398   4.057   1.697   0.224
 6167SOL     OW19399   0.144   5.267   3.509
 6167SOL    HW119400   0.215   5.232   3.447
 6167SOL    HW219401   0.080   5.193   3.530
 6168SOL     OW19402   0.654   2.649   0.905
 6168SOL    HW119403   0.720   2.658   0.979
 6168SOL    HW219404   0.563   2.673   0.939
 6169SOL     OW19405   1.874   4.467   1.826
 6169SOL    HW119406   1.919   4.406   1.891
 6169SOL    HW219407   1.940   4.535   1.793
 6170SOL     OW19408   6.796   1.947   3.924
 6170SOL    HW119409   6.730   1.939   3.849
 6170SOL    HW219410   6.748   1.962   4.010
 6171SOL     OW19411   5.932   0.916   6.227
 6171SOL    HW119412   5.875   0.995   6.205
 6171SOL    HW219413   6.028   0.945   6.233
 6172SOL     OW19414   1.085   4.339   4.046
 6172SOL    HW119415   1.044   4.312   3.959
 6172SOL    HW219416   1.073   4.437   4.060
 6173SOL     OW19417   5.938   5.888   3.081
 6173SOL    HW119418   5.922   5.789   3.081
 6173SOL    HW219419   5.888   5.930   3.006
 6174SOL     OW19420   6.425   2.634   2.326
 6174SOL    HW119421   6.454   2.718   2.371
 6174SOL    HW219422   6.399   2.654   2.231
 6175SOL     OW19423   3.973   1.803   6.867
 6175SOL    HW119424   3.994   1.760   6.779
 6175SOL    HW219425   4.058   1.829   6.913
 6176SOL     OW19426   2.988   3.613   6.053
 6176SOL    HW119427   3.047   3.681   6.010
 6176SOL    HW219428   3.031   3.578   6.135
 6177SOL     OW19429   5.874   5.745   1.736
 6177SOL    HW119430   5.898   5.672   1.801
 6177SOL    HW219431   5.775   5.759   1.738
 6178SOL     OW19432   4.379   4.825   1.743
 6178SOL    HW119433   4.435   4.822   1.660
 6178SOL    HW219434   4.428   4.780   1.818
 6179SOL     OW19435   5.735   4.949   5.022
 6179SOL    HW119436   5.659   5.011   5.045
 6179SOL    HW219437   5.780   4.982   4.940
 6180SOL     OW19438   2.613   4.436   6.456
 6180SOL    HW119439   2.572   4.374   6.388
 6180SOL    HW219440   2.660   4.382   6.526
 6181SOL     OW19441   6.017   6.571   6.776
 6181SOL    HW119442   5.948   6.506   6.808
 6181SOL    HW219443   6.003   6.588   6.678
 6182SOL     OW19444   2.925   2.640   6.374
 6182SOL    HW119445   2.937   2.694   6.457
 6182SOL    HW219446   2.851   2.679   6.319
 6183SOL     OW19447   6.729   0.369   0.721
 6183SOL    HW119448   6.645   0.405   0.680
 6183SOL    HW219449   6.745   0.415   0.808
 6184SOL     OW19450   3.421   6.178   5.265
 6184SOL    HW119451   3.461   6.086   5.259
 6184SOL    HW219452   3.492   6.246   5.246
 6185SOL     OW19453   3.900   3.347   5.627
 6185SOL    HW119454   3.956   3.365   5.708
 6185SOL    HW219455   3.880   3.249   5.623
 6186SOL     OW19456   0.993   1.727   2.762
 6186SOL    HW119457   1.089   1.731   2.787
 6186SOL    HW219458   0.983   1.678   2.676
 6187SOL     OW19459   2.810   2.045   6.039
 6187SOL    HW119460   2.833   2.140   6.015
 6187SOL    HW219461   2.892   1.999   6.072
 6188SOL     OW19462   2.206   1.427   5.479
 6188SOL    HW119463   2.303   1.426   5.451
 6188SOL    HW219464   2.165   1.338   5.457
 6189SOL     OW19465   0.086   5.272   0.772
 6189SOL    HW119466   7.011   5.255   0.800
 6189SOL    HW219467   0.116   5.360   0.808
 6190SOL     OW19468   0.313   3.044   3.747
 6190SOL    HW119469   0.264   2.966   3.709
 6190SOL    HW219470   0.366   3.014   3.826
 6191SOL     OW19471   2.349   4.222   0.722
 6191SOL    HW119472   2.349   4.122   0.715
 6191SOL    HW219473   2.394   4.249   0.807
 6192SOL     OW19474   2.851   1.339   1.351
 6192SOL    HW119475   2.884   1.244   1.347
 6192SOL    HW219476   2.851   1.370   1.446
 6193SOL     OW19477   4.428   5.511   0.302
 6193SOL    HW119478   4.399   5.502   0.397
 6193SOL    HW219479   4.368   5.457   0.243
 6194SOL     OW19480   5.590   6.763   6.157
 6194SOL    HW119481   5.548   6.805   6.238
 6194SOL    HW219482   5.564   6.667   6.153
 6195SOL     OW19483   5.283   6.374   5.965
 6195SOL    HW119484   5.324   6.332   6.046
 6195SOL    HW219485   5.222   6.308   5.920
 6196SOL     OW19486   6.111   3.316   3.177
 6196SOL    HW119487   6.058   3.325   3.093
 6196SOL    HW219488   6.196   3.267   3.159
 6197SOL     OW19489   0.948   5.674   0.942
 6197SOL    HW119490   1.024   5.735   0.964
 6197SOL    HW219491   0.928   5.616   1.021
 6198SOL     OW19492   5.658   1.512   6.348
 6198SOL    HW119493   5.719   1.558   6.283
 6198SOL    HW219494   5.631   1.423   6.311
 6199SOL     OW19495   1.983   6.641   6.105
 6199SOL    HW119496   2.049   6.590   6.159
 6199SOL    HW219497   1.894   6.640   6.151
 6200SOL     OW19498   1.550   0.614   0.778
 6200SOL    HW119499   1.584   0.547   0.711
 6200SOL    HW219500   1.451   0.609   0.782
 6201SOL     OW19501   0.401   4.573   3.468
 6201SOL    HW119502   0.397   4.495   3.530
 6201SOL    HW219503   0.457   4.551   3.389
 6202SOL     OW19504   6.175   0.829   2.340
 6202SOL    HW119505   6.144   0.923   2.353
 6202SOL    HW219506   6.107   0.779   2.286
 6203SOL     OW19507   5.945   0.174   1.816
 6203SOL    HW119508   5.890   0.216   1.744
 6203SOL    HW219509   5.910   0.201   1.905
 6204SOL     OW19510   0.986   5.628   4.994
 6204SOL    HW119511   1.040   5.631   5.079
 6204SOL    HW219512   0.945   5.538   4.984
 6205SOL     OW19513   6.067   4.791   3.332
 6205SOL    HW119514   5.989   4.742   3.295
 6205SOL    HW219515   6.045   4.825   3.424
 6206SOL     OW19516   5.740   1.978   3.605
 6206SOL    HW119517   5.760   1.985   3.703
 6206SOL    HW219518   5.642   1.970   3.592
 6207SOL     OW19519   1.518   5.586   3.853
 6207SOL    HW119520   1.499   5.571   3.950
 6207SOL    HW219521   1.466   5.665   3.821
 6208SOL     OW19522   4.358   4.243   6.238
 6208SOL    HW119523   4.264   4.210   6.248
 6208SOL    HW219524   4.391   4.222   6.146
 6209SOL     OW19525   3.599   1.644   1.262
 6209SOL    HW119526   3.505   1.614   1.280
 6209SOL    HW219527   3.638   1.587   1.190
 6210SOL     OW19528   5.758   1.379   4.407
 6210SOL    HW119529   5.732   1.375   4.503
 6210SOL    HW219530   5.744   1.290   4.364
 6211SOL     OW19531   5.675   3.671   4.955
 6211SOL    HW119532   5.719   3.634   4.874
 6211SOL    HW219533   5.582   3.698   4.933
 6212SOL     OW19534   5.406   4.093   4.788
 6212SOL    HW119535   5.438   4.185   4.763
 6212SOL    HW219536   5.484   4.032   4.801
 6213SOL     OW19537   4.485   6.059   0.313
 6213SOL    HW119538   4.429   5.976   0.320
 6213SOL    HW219539   4.439   6.134   0.361
 6214SOL     OW19540   6.088   0.211   6.851
 6214SOL    HW119541   6.050   0.290   6.803
 6214SOL    HW219542   6.182   0.231   6.879
 6215SOL     OW19543   6.060   2.256   5.387
 6215SOL    HW119544   6.117   2.229   5.309
 6215SOL    HW219545   5.964   2.241   5.365
 6216SOL     OW19546   4.576   1.729   4.967
 6216SOL    HW119547   4.644   1.774   5.026
 6216SOL    HW219548   4.501   1.792   4.949
 6217SOL     OW19549   0.606   4.288   2.202
 6217SOL    HW119550   0.527   4.327   2.155
 6217SOL    HW219551   0.657   4.362   2.247
 6218SOL     OW19552   4.411   6.191   0.736
 6218SOL    HW119553   4.501   6.223   0.709
 6218SOL    HW219554   4.387   6.229   0.826
 6219SOL     OW19555   2.075   0.731   6.966
 6219SOL    HW119556   2.119   0.642   6.954
 6219SOL    HW219557   2.116   0.797   6.903
 6220SOL     OW19558   3.364   6.501   1.200
 6220SOL    HW119559   3.276   6.543   1.178
 6220SOL    HW219560   3.437   6.550   1.152
 6221SOL     OW19561   4.757   5.548   6.039
 6221SOL    HW119562   4.836   5.489   6.024
 6221SOL    HW219563   4.727   5.585   5.951
 6222SOL     OW19564   6.766   1.359   2.557
 6222SOL    HW119565   6.824   1.330   2.633
 6222SOL    HW219566   6.818   1.422   2.499
 6223SOL     OW19567   6.754   4.759   4.487
 6223SOL    HW119568   6.852   4.740   4.493
 6223SOL    HW219569   6.732   4.794   4.396
 6224SOL     OW19570   3.151   6.839   6.681
 6224SOL    HW119571   3.104   6.760   6.721
 6224SOL    HW219572   3.123   6.922   6.729
 6225SOL     OW19573   4.491   6.192   6.338
 6225SOL    HW119574   4.575   6.241   6.312
 6225SOL    HW219575   4.451   6.235   6.419
 6226SOL     OW19576   0.544   1.192   3.807
 6226SOL    HW119577   0.484   1.219   3.731
 6226SOL    HW219578   0.506   1.111   3.852
 6227SOL     OW19579   3.158   4.798   5.700
 6227SOL    HW119580   3.214   4.797   5.782
 6227SOL    HW219581   3.106   4.713   5.693
 6228SOL     OW19582   0.953   3.020   3.415
 6228SOL    HW119583   0.880   3.053   3.476
 6228SOL    HW219584   1.041   3.050   3.450
 6229SOL     OW19585   0.534   4.010   4.111
 6229SOL    HW119586   0.622   4.045   4.079
 6229SOL    HW219587   0.506   3.933   4.054
 6230SOL     OW19588   0.662   0.808   1.458
 6230SOL    HW119589   0.703   0.898   1.444
 6230SOL    HW219590   0.684   0.775   1.549
 6231SOL     OW19591   2.418   5.616   5.757
 6231SOL    HW119592   2.438   5.558   5.679
 6231SOL    HW219593   2.467   5.703   5.747
 6232SOL     OW19594   4.360   0.609   6.454
 6232SOL    HW119595   4.307   0.617   6.370
 6232SOL    HW219596   4.318   0.665   6.525
 6233SOL     OW19597   7.009   3.516   0.855
 6233SOL    HW119598   0.061   3.501   0.924
 6233SOL    HW219599   0.004   3.452   0.779
 6234SOL     OW19600   5.013   5.187   4.330
 6234SOL    HW119601   5.113   5.197   4.323
 6234SOL    HW219602   4.991   5.130   4.409
 6235SOL     OW19603   0.672   0.995   2.254
 6235SOL    HW119604   0.745   0.927   2.258
 6235SOL    HW219605   0.617   0.980   2.171
 6236SOL     OW19606   6.615   5.870   1.105
 6236SOL    HW119607   6.528   5.913   1.083
 6236SOL    HW219608   6.690   5.923   1.065
 6237SOL     OW19609   3.331   1.052   2.328
 6237SOL    HW119610   3.367   0.974   2.379
 6237SOL    HW219611   3.234   1.065   2.351
 6238SOL     OW19612   2.568   1.024   3.541
 6238SOL    HW119613   2.588   0.991   3.449
 6238SOL    HW219614   2.593   0.954   3.608
 6239SOL     OW19615   4.713   1.624   4.339
 6239SOL    HW119616   4.658   1.599   4.419
 6239SOL    HW219617   4.652   1.642   4.261
 6240SOL     OW19618   4.093   3.438   4.010
 6240SOL    HW119619   4.115   3.495   3.931
 6240SOL    HW219620   4.070   3.346   3.979
 6241SOL     OW19621   3.898   0.064   3.315
 6241SOL    HW119622   3.849   0.099   3.394
 6241SOL    HW219623   3.911   0.138   3.248
 6242SOL     OW19624   3.125   2.163   4.219
 6242SOL    HW119625   3.167   2.144   4.130
 6242SOL    HW219626   3.029   2.187   4.207
 6243SOL     OW19627   4.261   1.373   6.842
 6243SOL    HW119628   4.163   1.358   6.850
 6243SOL    HW219629   4.308   1.285   6.836
 6244SOL     OW19630   4.293   2.468   1.801
 6244SOL    HW119631   4.366   2.456   1.734
 6244SOL    HW219632   4.239   2.549   1.778
 6245SOL     OW19633   0.041   4.847   2.224
 6245SOL    HW119634   6.999   4.924   2.206
 6245SOL    HW219635   0.080   4.814   2.137
 6246SOL     OW19636   0.400   6.516   4.989
 6246SOL    HW119637   0.446   6.459   4.921
 6246SOL    HW219638   0.395   6.468   5.076
 6247SOL     OW19639   6.292   5.485   2.936
 6247SOL    HW119640   6.319   5.459   3.029
 6247SOL    HW219641   6.255   5.578   2.937
 6248SOL     OW19642   4.223   2.988   5.733
 6248SOL    HW119643   4.294   2.921   5.757
 6248SOL    HW219644   4.248   3.034   5.648
 6249SOL     OW19645   5.783   3.463   3.194
 6249SOL    HW119646   5.780   3.546   3.138
 6249SOL    HW219647   5.707   3.403   3.167
 6250SOL     OW19648   5.687   0.105   6.236
 6250SOL    HW119649   5.727   0.023   6.195
 6250SOL    HW219650   5.729   0.186   6.197
 6251SOL     OW19651   3.014   0.786   4.411
 6251SOL    HW119652   3.063   0.866   4.376
 6251SOL    HW219653   3.042   0.769   4.506
 6252SOL     OW19654   2.612   5.366   0.097
 6252SOL    HW119655   2.620   5.396   0.192
 6252SOL    HW219656   2.694   5.316   0.070
 6253SOL     OW19657   4.962   6.108   3.864
 6253SOL    HW119658   5.036   6.130   3.927
 6253SOL    HW219659   4.909   6.191   3.845
 6254SOL     OW19660   0.457   0.152   1.666
 6254SOL    HW119661   0.429   0.192   1.753
 6254SOL    HW219662   0.387   0.172   1.597
 6255SOL     OW19663   1.537   1.697   0.842
 6255SOL    HW119664   1.619   1.687   0.785
 6255SOL    HW219665   1.457   1.710   0.783
 6256SOL     OW19666   6.381   5.322   2.119
 6256SOL    HW119667   6.339   5.358   2.202
 6256SOL    HW219668   6.463   5.374   2.098
 6257SOL     OW19669   3.498   3.930   1.148
 6257SOL    HW119670   3.421   3.959   1.205
 6257SOL    HW219671   3.571   3.894   1.206
 6258SOL     OW19672   4.240   5.285   4.729
 6258SOL    HW119673   4.165   5.261   4.791
 6258SOL    HW219674   4.326   5.286   4.779
 6259SOL     OW19675   4.299   0.821   4.899
 6259SOL    HW119676   4.301   0.883   4.821
 6259SOL    HW219677   4.373   0.845   4.962
 6260SOL     OW19678   2.567   1.794   1.174
 6260SOL    HW119679   2.487   1.734   1.171
 6260SOL    HW219680   2.554   1.869   1.109
 6261SOL     OW19681   3.528   6.696   1.121
 6261SOL    HW119682   3.451   6.759   1.116
 6261SOL    HW219683   3.600   6.734   1.180
 6262SOL     OW19684   6.137   1.127   2.348
 6262SOL    HW119685   6.065   1.197   2.346
 6262SOL    HW219686   6.166   1.111   2.442
 6263SOL     OW19687   6.138   6.176   6.174
 6263SOL    HW119688   6.168   6.150   6.266
 6263SOL    HW219689   6.193   6.128   6.106
 6264SOL     OW19690   1.497   6.003   0.519
 6264SOL    HW119691   1.540   6.032   0.433
 6264SOL    HW219692   1.447   5.917   0.504
 6265SOL     OW19693   3.695   6.574   6.631
 6265SOL    HW119694   3.624   6.553   6.565
 6265SOL    HW219695   3.667   6.652   6.688
 6266SOL     OW19696   3.634   5.183   3.237
 6266SOL    HW119697   3.577   5.231   3.304
 6266SOL    HW219698   3.730   5.195   3.260
 6267SOL     OW19699   0.866   6.239   4.205
 6267SOL    HW119700   0.964   6.223   4.216
 6267SOL    HW219701   0.815   6.162   4.244
 6268SOL     OW19702   3.010   1.413   1.153
 6268SOL    HW119703   2.946   1.470   1.100
 6268SOL    HW219704   2.979   1.408   1.248
 6269SOL     OW19705   6.574   5.791   6.673
 6269SOL    HW119706   6.662   5.746   6.687
 6269SOL    HW219707   6.586   5.890   6.680
 6270SOL     OW19708   1.476   6.295   1.142
 6270SOL    HW119709   1.432   6.304   1.232
 6270SOL    HW219710   1.445   6.209   1.099
 6271SOL     OW19711   6.985   2.809   6.575
 6271SOL    HW119712   0.023   2.884   6.610
 6271SOL    HW219713   7.017   2.782   6.485
 6272SOL     OW19714   0.313   1.658   6.960
 6272SOL    HW119715   0.267   1.702   6.883
 6272SOL    HW219716   0.291   1.561   6.961
 6273SOL     OW19717   0.260   6.401   3.047
 6273SOL    HW119718   0.350   6.360   3.031
 6273SOL    HW219719   0.189   6.332   3.031
 6274SOL     OW19720   2.693   5.566   3.717
 6274SOL    HW119721   2.756   5.596   3.645
 6274SOL    HW219722   2.602   5.552   3.678
 6275SOL     OW19723   2.584   6.056   0.147
 6275SOL    HW119724   2.514   6.063   0.077
 6275SOL    HW219725   2.658   5.996   0.115
 6276SOL     OW19726   2.062   5.543   2.566
 6276SOL    HW119727   2.123   5.536   2.644
 6276SOL    HW219728   2.110   5.586   2.489
 6277SOL     OW19729   4.678   2.442   1.218
 6277SOL    HW119730   4.647   2.349   1.237
 6277SOL    HW219731   4.744   2.470   1.287
 6278SOL     OW19732   4.364   2.226   0.515
 6278SOL    HW119733   4.379   2.186   0.605
 6278SOL    HW219734   4.266   2.243   0.501
 6279SOL     OW19735   2.743   6.705   2.094
 6279SOL    HW119736   2.714   6.661   2.009
 6279SOL    HW219737   2.772   6.799   2.075
 6280SOL     OW19738   5.041   1.971   6.176
 6280SOL    HW119739   5.029   1.981   6.275
 6280SOL    HW219740   5.138   1.979   6.154
 6281SOL     OW19741   5.342   4.411   6.121
 6281SOL    HW119742   5.423   4.367   6.083
 6281SOL    HW219743   5.315   4.365   6.205
 6282SOL     OW19744   0.714   3.629   5.606
 6282SOL    HW119745   0.766   3.554   5.647
 6282SOL    HW219746   0.765   3.665   5.527
 6283SOL     OW19747   2.540   6.919   4.665
 6283SOL    HW119748   2.481   6.883   4.593
 6283SOL    HW219749   2.629   6.945   4.625
 6284SOL     OW19750   1.669   2.807   5.813
 6284SOL    HW119751   1.678   2.715   5.775
 6284SOL    HW219752   1.602   2.859   5.759
 6285SOL     OW19753   1.461   3.394   2.973
 6285SOL    HW119754   1.481   3.325   2.904
 6285SOL    HW219755   1.534   3.462   2.974
 6286SOL     OW19756   0.824   2.475   6.855
 6286SOL    HW119757   0.777   2.397   6.895
 6286SOL    HW219758   0.919   2.450   6.834
 6287SOL     OW19759   4.447   4.703   4.579
 6287SOL    HW119760   4.409   4.717   4.670
 6287SOL    HW219761   4.505   4.781   4.554
 6288SOL     OW19762   2.673   3.539   6.062
 6288SOL    HW119763   2.678   3.499   5.971
 6288SOL    HW219764   2.625   3.627   6.057
 6289SOL     OW19765   2.335   5.002   4.447
 6289SOL    HW119766   2.360   4.947   4.367
 6289SOL    HW219767   2.245   5.044   4.432
 6290SOL     OW19768   6.076   6.948   3.638
 6290SOL    HW119769   6.108   0.003   3.697
 6290SOL    HW219770   6.005   6.983   3.576
 6291SOL     OW19771   3.649   3.420   1.962
 6291SOL    HW119772   3.672   3.495   2.024
 6291SOL    HW219773   3.732   3.388   1.916
 6292SOL     OW19774   1.529   4.680   4.823
 6292SOL    HW119775   1.568   4.589   4.808
 6292SOL    HW219776   1.460   4.699   4.754
 6293SOL     OW19777   2.836   1.310   5.855
 6293SOL    HW119778   2.832   1.409   5.844
 6293SOL    HW219779   2.751   1.278   5.898
 6294SOL     OW19780   1.879   1.048   2.218
 6294SOL    HW119781   1.951   0.991   2.179
 6294SOL    HW219782   1.802   1.052   2.154
 6295SOL     OW19783   4.426   3.765   6.335
 6295SOL    HW119784   4.455   3.679   6.292
 6295SOL    HW219785   4.327   3.773   6.329
 6296SOL     OW19786   0.702   2.646   0.034
 6296SOL    HW119787   0.712   2.597   6.967
 6296SOL    HW219788   0.691   2.744   0.015
 6297SOL     OW19789   6.619   1.279   4.066
 6297SOL    HW119790   6.703   1.277   4.121
 6297SOL    HW219791   6.638   1.245   3.974
 6298SOL     OW19792   0.282   6.939   0.453
 6298SOL    HW119793   0.330   7.004   0.394
 6298SOL    HW219794   0.248   6.863   0.398
 6299SOL     OW19795   3.936   2.075   4.163
 6299SOL    HW119796   3.884   1.999   4.204
 6299SOL    HW219797   3.956   2.143   4.233
 6300SOL     OW19798   2.866   2.134   0.946
 6300SOL    HW119799   2.869   2.210   0.881
 6300SOL    HW219800   2.772   2.099   0.952
 6301SOL     OW19801   3.407   6.127   0.225
 6301SOL    HW119802   3.426   6.211   0.276
 6301SOL    HW219803   3.310   6.105   0.233
 6302SOL     OW19804   1.383   3.547   0.313
 6302SOL    HW119805   1.328   3.579   0.390
 6302SOL    HW219806   1.448   3.478   0.345
 6303SOL     OW19807   6.709   4.757   4.210
 6303SOL    HW119808   6.680   4.748   4.114
 6303SOL    HW219809   6.809   4.748   4.215
 6304SOL     OW19810   2.958   1.023   3.969
 6304SOL    HW119811   2.965   1.110   4.018
 6304SOL    HW219812   2.877   0.974   3.999
 6305SOL     OW19813   0.896   5.896   5.759
 6305SOL    HW119814   0.854   5.937   5.677
 6305SOL    HW219815   0.830   5.833   5.801
 6306SOL     OW19816   0.395   4.250   4.643
 6306SOL    HW119817   0.367   4.158   4.672
 6306SOL    HW219818   0.395   4.255   4.543
 6307SOL     OW19819   3.394   2.868   2.824
 6307SOL    HW119820   3.399   2.928   2.743
 6307SOL    HW219821   3.302   2.830   2.831
 6308SOL     OW19822   1.137   2.115   0.959
 6308SOL    HW119823   1.213   2.165   0.918
 6308SOL    HW219824   1.051   2.159   0.933
 6309SOL     OW19825   1.742   6.124   4.606
 6309SOL    HW119826   1.713   6.164   4.693
 6309SOL    HW219827   1.787   6.036   4.623
 6310SOL     OW19828   0.527   6.612   3.639
 6310SOL    HW119829   0.488   6.681   3.579
 6310SOL    HW219830   0.621   6.636   3.662
 6311SOL     OW19831   6.312   1.120   6.580
 6311SOL    HW119832   6.411   1.118   6.571
 6311SOL    HW219833   6.281   1.214   6.588
 6312SOL     OW19834   3.019   5.392   0.524
 6312SOL    HW119835   3.096   5.348   0.570
 6312SOL    HW219836   3.012   5.487   0.553
 6313SOL     OW19837   5.826   5.037   3.825
 6313SOL    HW119838   5.831   5.119   3.768
 6313SOL    HW219839   5.822   5.062   3.921
 6314SOL     OW19840   1.837   6.374   3.036
 6314SOL    HW119841   1.928   6.397   3.072
 6314SOL    HW219842   1.787   6.458   3.016
 6315SOL     OW19843   2.284   2.139   3.410
 6315SOL    HW119844   2.383   2.133   3.414
 6315SOL    HW219845   2.256   2.235   3.404
 6316SOL     OW19846   4.662   0.668   5.183
 6316SOL    HW119847   4.680   0.687   5.087
 6316SOL    HW219848   4.745   0.683   5.236
 6317SOL     OW19849   4.433   4.498   2.641
 6317SOL    HW119850   4.503   4.454   2.698
 6317SOL    HW219851   4.476   4.562   2.578
 6318SOL     OW19852   6.718   6.975   0.395
 6318SOL    HW119853   6.808   7.018   0.385
 6318SOL    HW219854   6.728   6.885   0.438
 6319SOL     OW19855   4.840   2.507   4.665
 6319SOL    HW119856   4.878   2.554   4.744
 6319SOL    HW219857   4.749   2.542   4.646
 6320SOL     OW19858   6.407   1.486   5.949
 6320SOL    HW119859   6.407   1.570   5.895
 6320SOL    HW219860   6.500   1.449   5.952
 6321SOL     OW19861   0.521   3.076   0.582
 6321SOL    HW119862   0.514   3.007   0.655
 6321SOL    HW219863   0.476   3.160   0.613
 6322SOL     OW19864   1.899   1.757   3.091
 6322SOL    HW119865   1.954   1.706   3.025
 6322SOL    HW219866   1.817   1.704   3.114
 6323SOL     OW19867   2.148   5.370   0.973
 6323SOL    HW119868   2.157   5.468   0.993
 6323SOL    HW219869   2.069   5.333   1.021
 6324SOL     OW19870   4.508   3.146   1.098
 6324SOL    HW119871   4.539   3.179   1.009
 6324SOL    HW219872   4.433   3.080   1.086
 6325SOL     OW19873   1.259   2.931   3.405
 6325SOL    HW119874   1.279   3.025   3.433
 6325SOL    HW219875   1.211   2.931   3.317
 6326SOL     OW19876   5.388   5.218   4.923
 6326SOL    HW119877   5.429   5.126   4.925
 6326SOL    HW219878   5.461   5.287   4.921
 6327SOL     OW19879   0.449   1.126   3.247
 6327SOL    HW119880   0.475   1.039   3.205
 6327SOL    HW219881   0.388   1.109   3.324
 6328SOL     OW19882   4.099   3.658   5.482
 6328SOL    HW119883   4.099   3.633   5.579
 6328SOL    HW219884   4.191   3.649   5.444
 6329SOL     OW19885   0.458   2.682   5.852
 6329SOL    HW119886   0.366   2.717   5.835
 6329SOL    HW219887   0.473   2.601   5.795
 6330SOL     OW19888   4.472   1.942   3.650
 6330SOL    HW119889   4.533   1.867   3.622
 6330SOL    HW219890   4.380   1.925   3.615
 6331SOL     OW19891   1.407   3.571   3.825
 6331SOL    HW119892   1.451   3.614   3.904
 6331SOL    HW219893   1.339   3.504   3.858
 6332SOL     OW19894   4.246   1.843   6.978
 6332SOL    HW119895   4.237   1.825   0.056
 6332SOL    HW219896   4.284   1.763   6.932
 6333SOL     OW19897   5.362   0.729   0.720
 6333SOL    HW119898   5.443   0.697   0.671
 6333SOL    HW219899   5.354   0.682   0.807
 6334SOL     OW19900   1.904   1.074   1.885
 6334SOL    HW119901   1.919   1.082   1.786
 6334SOL    HW219902   1.970   1.009   1.923
 6335SOL     OW19903   6.807   3.650   6.006
 6335SOL    HW119904   6.840   3.580   5.943
 6335SOL    HW219905   6.793   3.736   5.956
 6336SOL     OW19906   0.760   4.468   5.592
 6336SOL    HW119907   0.761   4.369   5.605
 6336SOL    HW219908   0.843   4.496   5.544
 6337SOL     OW19909   6.243   6.902   4.828
 6337SOL    HW119910   6.332   6.883   4.788
 6337SOL    HW219911   6.232   7.001   4.838
 6338SOL     OW19912   0.633   0.915   3.176
 6338SOL    HW119913   0.605   0.819   3.179
 6338SOL    HW219914   0.677   0.934   3.089
 6339SOL     OW19915   0.072   3.591   3.117
 6339SOL    HW119916   0.158   3.636   3.142
 6339SOL    HW219917   0.027   3.559   3.200
 6340SOL     OW19918   2.673   4.979   6.915
 6340SOL    HW119919   2.656   5.077   6.908
 6340SOL    HW219920   2.590   4.933   6.948
 6341SOL     OW19921   0.255   4.743   2.354
 6341SOL    HW119922   0.173   4.797   2.333
 6341SOL    HW219923   0.332   4.805   2.373
 6342SOL     OW19924   1.959   1.076   1.596
 6342SOL    HW119925   2.053   1.088   1.562
 6342SOL    HW219926   1.940   0.979   1.607
 6343SOL     OW19927   1.161   5.749   6.796
 6343SOL    HW119928   1.115   5.838   6.791
 6343SOL    HW219929   1.128   5.698   6.875
 6344SOL     OW19930   1.267   1.213   4.851
 6344SOL    HW119931   1.366   1.212   4.840
 6344SOL    HW219932   1.224   1.223   4.761
 6345SOL     OW19933   5.968   2.843   2.553
 6345SOL    HW119934   6.001   2.937   2.561
 6345SOL    HW219935   6.042   2.784   2.521
 6346SOL     OW19936   0.494   4.268   4.942
 6346SOL    HW119937   0.560   4.342   4.949
 6346SOL    HW219938   0.471   4.252   4.846
 6347SOL     OW19939   2.244   2.313   3.659
 6347SOL    HW119940   2.182   2.358   3.724
 6347SOL    HW219941   2.220   2.216   3.654
 6348SOL     OW19942   1.320   2.499   6.877
 6348SOL    HW119943   1.309   2.535   6.784
 6348SOL    HW219944   1.271   2.558   6.941
 6349SOL     OW19945   5.512   0.827   0.992
 6349SOL    HW119946   5.413   0.838   0.979
 6349SOL    HW219947   5.531   0.817   1.090
 6350SOL     OW19948   0.458   6.456   1.103
 6350SOL    HW119949   0.557   6.454   1.088
 6350SOL    HW219950   0.435   6.525   1.171
 6351SOL     OW19951   5.875   3.257   1.658
 6351SOL    HW119952   5.905   3.180   1.715
 6351SOL    HW219953   5.909   3.245   1.565
 6352SOL     OW19954   3.941   0.324   4.177
 6352SOL    HW119955   3.908   0.392   4.243
 6352SOL    HW219956   4.041   0.319   4.182
 6353SOL     OW19957   3.488   6.358   5.495
 6353SOL    HW119958   3.426   6.281   5.506
 6353SOL    HW219959   3.543   6.345   5.412
 6354SOL     OW19960   5.163   4.984   2.373
 6354SOL    HW119961   5.079   5.032   2.400
 6354SOL    HW219962   5.177   4.906   2.432
 6355SOL     OW19963   3.841   5.960   0.629
 6355SOL    HW119964   3.912   5.901   0.667
 6355SOL    HW219965   3.882   6.023   0.563
 6356SOL     OW19966   6.922   6.571   6.145
 6356SOL    HW119967   6.985   6.632   6.192
 6356SOL    HW219968   6.963   6.538   6.060
 6357SOL     OW19969   4.890   1.826   2.976
 6357SOL    HW119970   4.933   1.749   3.023
 6357SOL    HW219971   4.951   1.858   2.903
 6358SOL     OW19972   1.414   1.871   4.458
 6358SOL    HW119973   1.344   1.831   4.399
 6358SOL    HW219974   1.481   1.801   4.482
 6359SOL     OW19975   5.870   5.199   1.313
 6359SOL    HW119976   5.900   5.275   1.371
 6359SOL    HW219977   5.914   5.114   1.344
 6360SOL     OW19978   2.064   2.617   0.926
 6360SOL    HW119979   2.137   2.553   0.903
 6360SOL    HW219980   2.013   2.583   1.005
 6361SOL     OW19981   0.501   2.019   2.179
 6361SOL    HW119982   0.490   2.004   2.081
 6361SOL    HW219983   0.467   2.110   2.203
 6362SOL     OW19984   1.638   5.447   0.441
 6362SOL    HW119985   1.564   5.398   0.487
 6362SOL    HW219986   1.720   5.389   0.439
 6363SOL     OW19987   1.143   3.172   1.939
 6363SOL    HW119988   1.149   3.224   2.024
 6363SOL    HW219989   1.216   3.104   1.936
 6364SOL     OW19990   2.810   1.466   3.927
 6364SOL    HW119991   2.822   1.560   3.896
 6364SOL    HW219992   2.896   1.432   3.964
 6365SOL     OW19993   6.198   6.955   2.783
 6365SOL    HW119994   6.109   6.912   2.768
 6365SOL    HW219995   6.263   6.923   2.714
 6366SOL     OW19996   6.098   1.435   5.148
 6366SOL    HW119997   6.127   1.357   5.093
 6366SOL    HW219998   6.036   1.404   5.220
 6367SOL     OW19999   1.305   2.431   4.017
 6367SOL    HW120000   1.337   2.345   3.978
 6367SOL    HW220001   1.263   2.486   3.945
 6368SOL     OW20002   4.948   3.526   4.814
 6368SOL    HW120003   5.010   3.467   4.865
 6368SOL    HW220004   4.892   3.579   4.878
 6369SOL     OW20005   3.915   4.589   0.961
 6369SOL    HW120006   3.877   4.598   0.870
 6369SOL    HW220007   3.969   4.670   0.984
 6370SOL     OW20008   5.616   3.947   4.757
 6370SOL    HW120009   5.677   3.879   4.797
 6370SOL    HW220010   5.607   3.931   4.659
 6371SOL     OW20011   5.667   4.611   0.838
 6371SOL    HW120012   5.605   4.571   0.771
 6371SOL    HW220013   5.660   4.711   0.835
 6372SOL     OW20014   6.597   1.422   1.178
 6372SOL    HW120015   6.552   1.402   1.266
 6372SOL    HW220016   6.548   1.496   1.132
 6373SOL     OW20017   5.076   2.894   1.885
 6373SOL    HW120018   4.987   2.891   1.931
 6373SOL    HW220019   5.146   2.854   1.944
 6374SOL     OW20020   4.715   3.635   6.066
 6374SOL    HW120021   4.730   3.581   5.984
 6374SOL    HW220022   4.670   3.579   6.135
 6375SOL     OW20023   4.753   0.923   1.470
 6375SOL    HW120024   4.690   0.975   1.412
 6375SOL    HW220025   4.847   0.946   1.446
 6376SOL     OW20026   2.709   0.492   0.345
 6376SOL    HW120027   2.615   0.524   0.359
 6376SOL    HW220028   2.760   0.497   0.431
 6377SOL     OW20029   0.234   0.477   6.708
 6377SOL    HW120030   0.224   0.418   6.788
 6377SOL    HW220031   0.144   0.506   6.677
 6378SOL     OW20032   5.696   3.969   2.263
 6378SOL    HW120033   5.749   4.028   2.202
 6378SOL    HW220034   5.727   3.875   2.253
 6379SOL     OW20035   2.063   5.684   6.478
 6379SOL    HW120036   2.109   5.607   6.524
 6379SOL    HW220037   1.983   5.651   6.429
 6380SOL     OW20038   1.945   2.559   5.347
 6380SOL    HW120039   2.029   2.581   5.397
 6380SOL    HW220040   1.885   2.505   5.405
 6381SOL     OW20041   3.894   3.993   0.639
 6381SOL    HW120042   3.930   4.086   0.634
 6381SOL    HW220043   3.795   3.994   0.624
 6382SOL     OW20044   1.070   1.580   0.984
 6382SOL    HW120045   1.094   1.669   0.946
 6382SOL    HW220046   1.085   1.509   0.914
 6383SOL     OW20047   2.501   2.493   2.444
 6383SOL    HW120048   2.424   2.434   2.464
 6383SOL    HW220049   2.586   2.441   2.449
 6384SOL     OW20050   6.401   2.231   1.907
 6384SOL    HW120051   6.378   2.307   1.847
 6384SOL    HW220052   6.501   2.228   1.919
 6385SOL     OW20053   6.482   3.643   0.849
 6385SOL    HW120054   6.454   3.694   0.931
 6385SOL    HW220055   6.511   3.707   0.778
 6386SOL     OW20056   3.707   3.716   0.114
 6386SOL    HW120057   3.666   3.670   0.194
 6386SOL    HW220058   3.780   3.659   0.078
 6387SOL     OW20059   6.500   0.247   6.427
 6387SOL    HW120060   6.507   0.344   6.403
 6387SOL    HW220061   6.545   0.232   6.515
 6388SOL     OW20062   5.789   5.169   1.619
 6388SOL    HW120063   5.829   5.089   1.573
 6388SOL    HW220064   5.739   5.224   1.552
 6389SOL     OW20065   0.018   7.008   0.439
 6389SOL    HW120066   0.110   0.007   0.474
 6389SOL    HW220067   0.013   6.915   0.404
 6390SOL     OW20068   5.464   6.853   6.370
 6390SOL    HW120069   5.415   6.767   6.383
 6390SOL    HW220070   5.402   6.929   6.387
 6391SOL     OW20071   1.730   2.012   4.528
 6391SOL    HW120072   1.696   2.055   4.444
 6391SOL    HW220073   1.658   2.010   4.597
 6392SOL     OW20074   4.745   0.086   4.084
 6392SOL    HW120075   4.769   7.013   4.055
 6392SOL    HW220076   4.707   0.083   4.177
 6393SOL     OW20077   2.027   5.053   0.635
 6393SOL    HW120078   2.042   4.960   0.601
 6393SOL    HW220079   2.008   5.049   0.734
 6394SOL     OW20080   1.942   4.960   2.165
 6394SOL    HW120081   1.947   4.861   2.160
 6394SOL    HW220082   2.031   4.996   2.195
 6395SOL     OW20083   1.604   4.374   4.747
 6395SOL    HW120084   1.595   4.282   4.785
 6395SOL    HW220085   1.693   4.412   4.772
 6396SOL     OW20086   1.950   3.005   5.219
 6396SOL    HW120087   1.947   2.973   5.313
 6396SOL    HW220088   1.971   2.929   5.158
 6397SOL     OW20089   6.420   3.225   4.917
 6397SOL    HW120090   6.506   3.214   4.967
 6397SOL    HW220091   6.353   3.272   4.974
 6398SOL     OW20092   1.964   0.493   2.625
 6398SOL    HW120093   2.005   0.436   2.696
 6398SOL    HW220094   1.960   0.588   2.656
 6399SOL     OW20095   2.503   0.339   6.866
 6399SOL    HW120096   2.562   0.360   6.944
 6399SOL    HW220097   2.468   0.424   6.827
 6400SOL     OW20098   0.621   6.643   2.630
 6400SOL    HW120099   0.656   6.613   2.542
 6400SOL    HW220100   0.605   6.742   2.628
 6401SOL     OW20101   3.632   5.206   2.248
 6401SOL    HW120102   3.619   5.107   2.240
 6401SOL    HW220103   3.654   5.229   2.342
 6402SOL     OW20104   3.589   4.331   6.278
 6402SOL    HW120105   3.544   4.408   6.324
 6402SOL    HW220106   3.523   4.282   6.221
 6403SOL     OW20107   4.801   5.582   5.759
 6403SOL    HW120108   4.815   5.483   5.761
 6403SOL    HW220109   4.886   5.628   5.734
 6404SOL     OW20110   4.529   5.542   6.919
 6404SOL    HW120111   4.529   5.454   6.966
 6404SOL    HW220112   4.623   5.575   6.909
 6405SOL     OW20113   4.956   0.837   2.533
 6405SOL    HW120114   4.998   0.812   2.620
 6405SOL    HW220115   4.972   0.764   2.466
 6406SOL     OW20116   0.228   3.144   2.624
 6406SOL    HW120117   0.136   3.182   2.611
 6406SOL    HW220118   0.275   3.140   2.536
 6407SOL     OW20119   0.222   0.304   2.506
 6407SOL    HW120120   0.315   0.268   2.510
 6407SOL    HW220121   0.187   0.296   2.413
 6408SOL     OW20122   0.321   1.512   1.649
 6408SOL    HW120123   0.343   1.436   1.589
 6408SOL    HW220124   0.244   1.564   1.611
 6409SOL     OW20125   5.968   4.285   3.293
 6409SOL    HW120126   5.877   4.244   3.297
 6409SOL    HW220127   6.033   4.225   3.339
 6410SOL     OW20128   2.011   1.046   0.553
 6410SOL    HW120129   1.919   1.044   0.513
 6410SOL    HW220130   2.078   1.058   0.480
 6411SOL     OW20131   0.504   2.589   2.927
 6411SOL    HW120132   0.588   2.627   2.966
 6411SOL    HW220133   0.439   2.569   3.000
 6412SOL     OW20134   3.471   0.585   6.622
 6412SOL    HW120135   3.566   0.579   6.592
 6412SOL    HW220136   3.438   0.679   6.610
 6413SOL     OW20137   4.921   6.281   3.022
 6413SOL    HW120138   4.957   6.209   3.080
 6413SOL    HW220139   4.836   6.316   3.061
 6414SOL     OW20140   2.621   0.421   0.074
 6414SOL    HW120141   2.655   0.409   0.167
 6414SOL    HW220142   2.643   0.513   0.042
 6415SOL     OW20143   0.785   1.496   3.652
 6415SOL    HW120144   0.866   1.513   3.595
 6415SOL    HW220145   0.777   1.398   3.669
 6416SOL     OW20146   2.825   4.949   0.129
 6416SOL    HW120147   2.868   4.859   0.141
 6416SOL    HW220148   2.791   4.957   0.035
 6417SOL     OW20149   4.321   3.278   6.673
 6417SOL    HW120150   4.251   3.336   6.632
 6417SOL    HW220151   4.346   3.205   6.609
 6418SOL     OW20152   5.234   5.331   0.539
 6418SOL    HW120153   5.314   5.390   0.552
 6418SOL    HW220154   5.242   5.281   0.453
 6419SOL     OW20155   0.773   6.871   6.629
 6419SOL    HW120156   0.727   6.958   6.611
 6419SOL    HW220157   0.754   6.842   6.723
 6420SOL     OW20158   2.506   4.462   3.898
 6420SOL    HW120159   2.452   4.409   3.963
 6420SOL    HW220160   2.532   4.549   3.938
 6421SOL     OW20161   5.135   6.982   2.011
 6421SOL    HW120162   5.126   0.052   1.967
 6421SOL    HW220163   5.226   6.974   2.052
 6422SOL     OW20164   0.390   2.617   4.989
 6422SOL    HW120165   0.402   2.671   4.906
 6422SOL    HW220166   0.298   2.580   4.991
 6423SOL     OW20167   1.038   4.282   4.701
 6423SOL    HW120168   1.125   4.323   4.730
 6423SOL    HW220169   0.962   4.340   4.730
 6424SOL     OW20170   6.664   4.513   6.008
 6424SOL    HW120171   6.746   4.486   6.059
 6424SOL    HW220172   6.671   4.479   5.914
 6425SOL     OW20173   0.445   6.115   4.517
 6425SOL    HW120174   0.362   6.087   4.468
 6425SOL    HW220175   0.505   6.036   4.527
 6426SOL     OW20176   4.849   5.490   4.149
 6426SOL    HW120177   4.931   5.543   4.125
 6426SOL    HW220178   4.779   5.552   4.185
 6427SOL     OW20179   3.974   3.205   3.950
 6427SOL    HW120180   3.926   3.178   4.033
 6427SOL    HW220181   3.910   3.246   3.885
 6428SOL     OW20182   5.955   2.893   0.292
 6428SOL    HW120183   5.880   2.912   0.230
 6428SOL    HW220184   5.931   2.818   0.353
 6429SOL     OW20185   2.439   1.018   5.471
 6429SOL    HW120186   2.351   1.008   5.517
 6429SOL    HW220187   2.488   1.096   5.511
 6430SOL     OW20188   5.487   1.542   4.939
 6430SOL    HW120189   5.579   1.505   4.952
 6430SOL    HW220190   5.488   1.608   4.864
 6431SOL     OW20191   3.473   5.275   2.492
 6431SOL    HW120192   3.422   5.278   2.406
 6431SOL    HW220193   3.446   5.352   2.550
 6432SOL     OW20194   4.733   3.027   5.905
 6432SOL    HW120195   4.667   2.998   5.835
 6432SOL    HW220196   4.685   3.040   5.992
 6433SOL     OW20197   3.595   5.337   6.357
 6433SOL    HW120198   3.530   5.266   6.382
 6433SOL    HW220199   3.660   5.350   6.432
 6434SOL     OW20200   5.793   5.394   5.825
 6434SOL    HW120201   5.828   5.431   5.739
 6434SOL    HW220202   5.822   5.299   5.835
 6435SOL     OW20203   4.474   1.111   0.892
 6435SOL    HW120204   4.554   1.167   0.871
 6435SOL    HW220205   4.398   1.139   0.833
 6436SOL     OW20206   0.269   3.457   3.683
 6436SOL    HW120207   0.342   3.391   3.666
 6436SOL    HW220208   0.243   3.453   3.780
 6437SOL     OW20209   1.790   2.856   6.036
 6437SOL    HW120210   1.765   2.828   5.943
 6437SOL    HW220211   1.712   2.900   6.080
 6438SOL     OW20212   0.549   5.347   0.748
 6438SOL    HW120213   0.471   5.298   0.710
 6438SOL    HW220214   0.516   5.419   0.810
 6439SOL     OW20215   5.378   6.763   2.656
 6439SOL    HW120216   5.430   6.798   2.577
 6439SOL    HW220217   5.351   6.840   2.714
 6440SOL     OW20218   2.373   1.981   6.028
 6440SOL    HW120219   2.291   2.037   6.015
 6440SOL    HW220220   2.370   1.903   5.966
 6441SOL     OW20221   0.449   2.653   2.064
 6441SOL    HW120222   0.537   2.619   2.031
 6441SOL    HW220223   0.377   2.586   2.045
 6442SOL     OW20224   2.401   2.061   4.436
 6442SOL    HW120225   2.424   2.132   4.503
 6442SOL    HW220226   2.334   2.097   4.371
 6443SOL     OW20227   3.379   3.405   6.212
 6443SOL    HW120228   3.384   3.320   6.160
 6443SOL    HW220229   3.284   3.433   6.222
 6444SOL     OW20230   7.004   3.711   5.209
 6444SOL    HW120231   6.924   3.660   5.242
 6444SOL    HW220232   0.061   3.648   5.196
 6445SOL     OW20233   3.748   2.913   3.846
 6445SOL    HW120234   3.655   2.951   3.853
 6445SOL    HW220235   3.767   2.857   3.927
 6446SOL     OW20236   1.215   1.371   0.830
 6446SOL    HW120237   1.226   1.294   0.893
 6446SOL    HW220238   1.305   1.409   0.808
 6447SOL     OW20239   6.034   3.683   1.187
 6447SOL    HW120240   6.039   3.625   1.269
 6447SOL    HW220241   6.068   3.631   1.108
 6448SOL     OW20242   4.182   4.728   1.130
 6448SOL    HW120243   4.205   4.637   1.098
 6448SOL    HW220244   4.173   4.790   1.051
 6449SOL     OW20245   3.291   5.337   0.212
 6449SOL    HW120246   3.218   5.326   0.145
 6449SOL    HW220247   3.305   5.251   0.261
 6450SOL     OW20248   5.656   3.697   6.956
 6450SOL    HW120249   5.581   3.632   6.969
 6450SOL    HW220250   5.682   3.735   0.026
 6451SOL     OW20251   4.160   2.711   1.719
 6451SOL    HW120252   4.065   2.699   1.692
 6451SOL    HW220253   4.205   2.773   1.654
 6452SOL     OW20254   4.064   1.828   4.781
 6452SOL    HW120255   4.161   1.820   4.804
 6452SOL    HW220256   4.047   1.916   4.738
 6453SOL     OW20257   2.633   0.382   3.048
 6453SOL    HW120258   2.636   0.458   3.113
 6453SOL    HW220259   2.538   0.357   3.030
 6454SOL     OW20260   5.170   3.305   4.621
 6454SOL    HW120261   5.205   3.227   4.569
 6454SOL    HW220262   5.074   3.322   4.595
 6455SOL     OW20263   0.349   2.844   4.209
 6455SOL    HW120264   0.417   2.917   4.206
 6455SOL    HW220265   0.330   2.812   4.116
 6456SOL     OW20266   6.853   2.071   2.706
 6456SOL    HW120267   6.829   2.051   2.611
 6456SOL    HW220268   6.895   1.990   2.748
 6457SOL     OW20269   2.524   6.463   2.361
 6457SOL    HW120270   2.541   6.557   2.332
 6457SOL    HW220271   2.503   6.406   2.281
 6458SOL     OW20272   0.351   6.926   4.233
 6458SOL    HW120273   0.446   6.902   4.212
 6458SOL    HW220274   0.292   6.904   4.156
 6459SOL     OW20275   0.376   3.167   3.219
 6459SOL    HW120276   0.277   3.158   3.207
 6459SOL    HW220277   0.422   3.096   3.165
 6460SOL     OW20278   1.366   5.283   6.388
 6460SOL    HW120279   1.326   5.241   6.306
 6460SOL    HW220280   1.319   5.249   6.469
 6461SOL     OW20281   0.351   6.256   0.741
 6461SOL    HW120282   0.278   6.258   0.672
 6461SOL    HW220283   0.440   6.267   0.696
 6462SOL     OW20284   1.819   4.022   5.279
 6462SOL    HW120285   1.797   4.065   5.367
 6462SOL    HW220286   1.917   4.006   5.274
 6463SOL     OW20287   4.345   2.698   1.421
 6463SOL    HW120288   4.367   2.645   1.340
 6463SOL    HW220289   4.256   2.741   1.411
 6464SOL     OW20290   0.515   3.532   3.391
 6464SOL    HW120291   0.416   3.519   3.388
 6464SOL    HW220292   0.544   3.586   3.313
 6465SOL     OW20293   3.224   0.629   3.859
 6465SOL    HW120294   3.160   0.587   3.795
 6465SOL    HW220295   3.211   0.728   3.860
 6466SOL     OW20296   6.620   5.165   6.142
 6466SOL    HW120297   6.589   5.253   6.178
 6466SOL    HW220298   6.579   5.091   6.196
 6467SOL     OW20299   2.357   2.775   6.140
 6467SOL    HW120300   2.450   2.790   6.106
 6467SOL    HW220301   2.298   2.850   6.111
 6468SOL     OW20302   1.238   0.883   1.375
 6468SOL    HW120303   1.272   0.804   1.324
 6468SOL    HW220304   1.148   0.861   1.414
 6469SOL     OW20305   1.769   1.169   1.417
 6469SOL    HW120306   1.833   1.144   1.489
 6469SOL    HW220307   1.746   1.265   1.425
 6470SOL     OW20308   6.099   1.669   6.868
 6470SOL    HW120309   6.062   1.761   6.884
 6470SOL    HW220310   6.138   1.635   6.954
 6471SOL     OW20311   0.000   6.209   5.957
 6471SOL    HW120312   6.928   6.233   5.925
 6471SOL    HW220313   0.063   6.206   5.879
 6472SOL     OW20314   0.163   6.004   2.003
 6472SOL    HW120315   0.123   6.009   1.911
 6472SOL    HW220316   0.263   5.999   1.996
 6473SOL     OW20317   3.249   1.251   3.482
 6473SOL    HW120318   3.277   1.345   3.466
 6473SOL    HW220319   3.292   1.191   3.414
 6474SOL     OW20320   3.578   6.409   3.832
 6474SOL    HW120321   3.507   6.479   3.842
 6474SOL    HW220322   3.653   6.429   3.895
 6475SOL     OW20323   5.455   5.773   2.930
 6475SOL    HW120324   5.511   5.706   2.980
 6475SOL    HW220325   5.479   5.865   2.959
 6476SOL     OW20326   4.731   3.495   6.421
 6476SOL    HW120327   4.731   3.543   6.509
 6476SOL    HW220328   4.729   3.396   6.437
 6477SOL     OW20329   0.704   6.488   0.783
 6477SOL    HW120330   0.692   6.565   0.845
 6477SOL    HW220331   0.771   6.424   0.822
 6478SOL     OW20332   1.357   6.082   1.033
 6478SOL    HW120333   1.307   5.997   1.016
 6478SOL    HW220334   1.436   6.086   0.972
 6479SOL     OW20335   4.714   5.879   3.369
 6479SOL    HW120336   4.702   5.801   3.431
 6479SOL    HW220337   4.800   5.926   3.390
 6480SOL     OW20338   3.452   1.331   5.491
 6480SOL    HW120339   3.508   1.388   5.432
 6480SOL    HW220340   3.360   1.371   5.499
 6481SOL     OW20341   4.223   3.362   1.820
 6481SOL    HW120342   4.129   3.335   1.840
 6481SOL    HW220343   4.281   3.281   1.818
 6482SOL     OW20344   4.754   3.284   5.269
 6482SOL    HW120345   4.730   3.360   5.210
 6482SOL    HW220346   4.816   3.315   5.341
 6483SOL     OW20347   1.993   5.621   5.197
 6483SOL    HW120348   2.063   5.651   5.261
 6483SOL    HW220349   1.904   5.620   5.243
 6484SOL     OW20350   4.241   1.533   3.049
 6484SOL    HW120351   4.311   1.476   3.092
 6484SOL    HW220352   4.284   1.595   2.984
 6485SOL     OW20353   2.243   5.259   5.171
 6485SOL    HW120354   2.292   5.217   5.095
 6485SOL    HW220355   2.144   5.252   5.155
 6486SOL     OW20356   6.971   4.165   2.449
 6486SOL    HW120357   6.899   4.209   2.502
 6486SOL    HW220358   0.000   4.234   2.395
 6487SOL     OW20359   6.324   5.292   4.385
 6487SOL    HW120360   6.398   5.239   4.344
 6487SOL    HW220361   6.349   5.317   4.479
 6488SOL     OW20362   3.932   5.222   3.904
 6488SOL    HW120363   3.985   5.306   3.890
 6488SOL    HW220364   3.899   5.189   3.815
 6489SOL     OW20365   6.433   2.938   5.149
 6489SOL    HW120366   6.342   2.979   5.142
 6489SOL    HW220367   6.432   2.849   5.103
 6490SOL     OW20368   2.024   2.576   0.188
 6490SOL    HW120369   1.980   2.584   0.277
 6490SOL    HW220370   2.094   2.504   0.192
 6491SOL     OW20371   1.418   0.113   1.541
 6491SOL    HW120372   1.453   0.206   1.530
 6491SOL    HW220373   1.356   0.109   1.619
 6492SOL     OW20374   4.065   3.724   4.179
 6492SOL    HW120375   3.993   3.767   4.124
 6492SOL    HW220376   4.153   3.732   4.132
 6493SOL     OW20377   1.313   4.558   3.838
 6493SOL    HW120378   1.268   4.472   3.816
 6493SOL    HW220379   1.385   4.576   3.771
 6494SOL     OW20380   6.494   0.772   1.393
 6494SOL    HW120381   6.434   0.696   1.417
 6494SOL    HW220382   6.441   0.841   1.343
 6495SOL     OW20383   6.756   0.100   3.394
 6495SOL    HW120384   6.657   0.116   3.387
 6495SOL    HW220385   6.796   0.103   3.303
 6496SOL     OW20386   3.157   2.127   1.892
 6496SOL    HW120387   3.106   2.212   1.883
 6496SOL    HW220388   3.249   2.139   1.854
 6497SOL     OW20389   0.640   1.957   0.593
 6497SOL    HW120390   0.737   1.977   0.597
 6497SOL    HW220391   0.590   2.019   0.654
 6498SOL     OW20392   2.048   5.051   4.494
 6498SOL    HW120393   1.957   5.082   4.521
 6498SOL    HW220394   2.051   4.951   4.499
 6499SOL     OW20395   4.857   2.311   3.243
 6499SOL    HW120396   4.896   2.254   3.316
 6499SOL    HW220397   4.830   2.253   3.166
 6500SOL     OW20398   1.228   3.469   3.089
 6500SOL    HW120399   1.317   3.441   3.052
 6500SOL    HW220400   1.237   3.558   3.133
 6501SOL     OW20401   6.597   0.826   2.879
 6501SOL    HW120402   6.620   0.746   2.934
 6501SOL    HW220403   6.507   0.813   2.837
 6502SOL     OW20404   0.866   2.993   1.641
 6502SOL    HW120405   0.935   2.976   1.572
 6502SOL    HW220406   0.909   2.996   1.732
 6503SOL     OW20407   6.967   2.813   5.936
 6503SOL    HW120408   6.880   2.811   5.985
 6503SOL    HW220409   6.950   2.835   5.840
 6504SOL     OW20410   3.697   6.925   6.241
 6504SOL    HW120411   3.689   7.019   6.207
 6504SOL    HW220412   3.708   6.862   6.164
 6505SOL     OW20413   0.260   6.949   0.946
 6505SOL    HW120414   0.226   6.855   0.953
 6505SOL    HW220415   0.248   6.981   0.852
 6506SOL     OW20416   6.827   3.880   1.681
 6506SOL    HW120417   6.734   3.888   1.718
 6506SOL    HW220418   6.880   3.961   1.708
 6507SOL     OW20419   3.702   5.805   0.866
 6507SOL    HW120420   3.723   5.899   0.894
 6507SOL    HW220421   3.784   5.763   0.827
 6508SOL     OW20422   6.772   0.202   3.838
 6508SOL    HW120423   6.755   0.285   3.892
 6508SOL    HW220424   6.863   0.166   3.861
 6509SOL     OW20425   2.375   1.838   6.748
 6509SOL    HW120426   2.466   1.803   6.727
 6509SOL    HW220427   2.317   1.762   6.778
 6510SOL     OW20428   3.375   5.151   4.174
 6510SOL    HW120429   3.443   5.199   4.231
 6510SOL    HW220430   3.340   5.214   4.105
 6511SOL     OW20431   3.628   2.205   0.158
 6511SOL    HW120432   3.695   2.194   0.232
 6511SOL    HW220433   3.602   2.301   0.151
 6512SOL     OW20434   4.728   0.600   0.709
 6512SOL    HW120435   4.801   0.545   0.750
 6512SOL    HW220436   4.664   0.630   0.780
 6513SOL     OW20437   3.151   4.829   2.883
 6513SOL    HW120438   3.149   4.795   2.977
 6513SOL    HW220439   3.142   4.929   2.884
 6514SOL     OW20440   5.216   6.092   5.474
 6514SOL    HW120441   5.190   6.180   5.512
 6514SOL    HW220442   5.274   6.106   5.394
 6515SOL     OW20443   0.482   4.873   2.386
 6515SOL    HW120444   0.554   4.844   2.323
 6515SOL    HW220445   0.473   4.973   2.383
 6516SOL     OW20446   6.167   2.194   3.269
 6516SOL    HW120447   6.124   2.224   3.184
 6516SOL    HW220448   6.096   2.167   3.335
 6517SOL     OW20449   6.586   3.861   0.594
 6517SOL    HW120450   6.670   3.892   0.640
 6517SOL    HW220451   6.609   3.829   0.502
 6518SOL     OW20452   0.836   1.319   2.189
 6518SOL    HW120453   0.862   1.299   2.283
 6518SOL    HW220454   0.800   1.412   2.184
 6519SOL     OW20455   1.347   0.990   3.438
 6519SOL    HW120456   1.348   1.047   3.521
 6519SOL    HW220457   1.279   1.026   3.374
 6520SOL     OW20458   6.231   5.199   0.068
 6520SOL    HW120459   6.285   5.273   0.027
 6520SOL    HW220460   6.165   5.165   0.002
 6521SOL     OW20461   1.846   4.851   4.835
 6521SOL    HW120462   1.762   4.883   4.881
 6521SOL    HW220463   1.874   4.919   4.767
 6522SOL     OW20464   2.238   2.886   5.289
 6522SOL    HW120465   2.163   2.924   5.236
 6522SOL    HW220466   2.325   2.904   5.242
 6523SOL     OW20467   5.910   6.745   0.866
 6523SOL    HW120468   5.982   6.721   0.800
 6523SOL    HW220469   5.935   6.711   0.956
 6524SOL     OW20470   3.104   2.957   1.307
 6524SOL    HW120471   3.173   2.925   1.372
 6524SOL    HW220472   3.084   2.885   1.241
 6525SOL     OW20473   1.601   5.047   3.746
 6525SOL    HW120474   1.597   5.028   3.648
 6525SOL    HW220475   1.697   5.050   3.775
 6526SOL     OW20476   6.349   6.945   0.496
 6526SOL    HW120477   6.309   6.945   0.588
 6526SOL    HW220478   6.354   0.019   0.463
 6527SOL     OW20479   5.515   1.475   0.595
 6527SOL    HW120480   5.481   1.569   0.591
 6527SOL    HW220481   5.447   1.417   0.641
 6528SOL     OW20482   4.046   6.716   6.928
 6528SOL    HW120483   4.003   6.642   6.876
 6528SOL    HW220484   4.104   6.677   7.000
 6529SOL     OW20485   4.229   0.375   1.888
 6529SOL    HW120486   4.187   0.315   1.819
 6529SOL    HW220487   4.282   0.446   1.842
 6530SOL     OW20488   6.720   2.934   3.632
 6530SOL    HW120489   6.642   2.960   3.687
 6530SOL    HW220490   6.724   2.992   3.550
 6531SOL     OW20491   3.860   3.663   3.790
 6531SOL    HW120492   3.849   3.668   3.890
 6531SOL    HW220493   3.832   3.749   3.749
 6532SOL     OW20494   0.801   6.086   0.349
 6532SOL    HW120495   0.726   6.055   0.407
 6532SOL    HW220496   0.865   6.141   0.404
 6533SOL     OW20497   4.914   4.853   1.537
 6533SOL    HW120498   4.836   4.877   1.479
 6533SOL    HW220499   4.883   4.793   1.610
 6534SOL     OW20500   0.170   3.737   4.047
 6534SOL    HW120501   0.206   3.707   3.958
 6534SOL    HW220502   0.175   3.837   4.052
 6535SOL     OW20503   5.516   4.100   5.863
 6535SOL    HW120504   5.417   4.086   5.862
 6535SOL    HW220505   5.549   4.107   5.769
 6536SOL     OW20506   0.865   4.802   5.633
 6536SOL    HW120507   0.846   4.782   5.729
 6536SOL    HW220508   0.779   4.822   5.585
 6537SOL     OW20509   6.935   5.493   3.858
 6537SOL    HW120510   6.881   5.466   3.938
 6537SOL    HW220511   0.008   5.518   3.887
 6538SOL     OW20512   1.431   3.033   3.667
 6538SOL    HW120513   1.462   2.960   3.728
 6538SOL    HW220514   1.417   2.996   3.575
 6539SOL     OW20515   4.341   6.794   7.001
 6539SOL    HW120516   4.348   6.835   0.073
 6539SOL    HW220517   4.391   6.851   6.936
 6540SOL     OW20518   0.368   2.676   5.414
 6540SOL    HW120519   0.415   2.614   5.351
 6540SOL    HW220520   0.435   2.725   5.469
 6541SOL     OW20521   4.139   1.721   5.391
 6541SOL    HW120522   4.074   1.762   5.327
 6541SOL    HW220523   4.132   1.621   5.386
 6542SOL     OW20524   1.630   4.190   2.299
 6542SOL    HW120525   1.628   4.276   2.248
 6542SOL    HW220526   1.717   4.143   2.282
 6543SOL     OW20527   4.126   1.313   4.181
 6543SOL    HW120528   4.080   1.247   4.241
 6543SOL    HW220529   4.067   1.394   4.170
 6544SOL     OW20530   0.456   0.387   0.501
 6544SOL    HW120531   0.532   0.443   0.533
 6544SOL    HW220532   0.426   0.327   0.575
 6545SOL     OW20533   4.845   6.224   0.903
 6545SOL    HW120534   4.772   6.287   0.927
 6545SOL    HW220535   4.901   6.264   0.830
 6546SOL     OW20536   4.537   5.245   5.634
 6546SOL    HW120537   4.529   5.310   5.558
 6546SOL    HW220538   4.450   5.239   5.682
 6547SOL     OW20539   0.926   6.270   5.251
 6547SOL    HW120540   0.963   6.251   5.341
 6547SOL    HW220541   0.945   6.364   5.225
 6548SOL     OW20542   1.429   1.654   6.096
 6548SOL    HW120543   1.346   1.696   6.058
 6548SOL    HW220544   1.452   1.698   6.183
 6549SOL     OW20545   3.562   1.295   2.383
 6549SOL    HW120546   3.504   1.303   2.302
 6549SOL    HW220547   3.642   1.239   2.362
 6550SOL     OW20548   6.019   6.495   1.925
 6550SOL    HW120549   6.092   6.467   1.987
 6550SOL    HW220550   5.942   6.432   1.934
 6551SOL     OW20551   2.612   5.133   0.826
 6551SOL    HW120552   2.564   5.048   0.849
 6551SOL    HW220553   2.551   5.211   0.840
 6552SOL     OW20554   2.321   4.505   6.989
 6552SOL    HW120555   2.224   4.484   6.997
 6552SOL    HW220556   2.365   4.494   0.059
 6553SOL     OW20557   0.193   2.018   4.250
 6553SOL    HW120558   0.138   1.935   4.264
 6553SOL    HW220559   0.191   2.043   4.153
 6554SOL     OW20560   1.507   2.206   4.031
 6554SOL    HW120561   1.586   2.170   3.983
 6554SOL    HW220562   1.447   2.130   4.058
 6555SOL     OW20563   1.768   3.313   4.063
 6555SOL    HW120564   1.845   3.331   4.001
 6555SOL    HW220565   1.718   3.397   4.079
 6556SOL     OW20566   5.148   3.314   2.811
 6556SOL    HW120567   5.140   3.215   2.799
 6556SOL    HW220568   5.057   3.355   2.814
 6557SOL     OW20569   2.276   0.536   2.578
 6557SOL    HW120570   2.177   0.545   2.583
 6557SOL    HW220571   2.316   0.554   2.667
 6558SOL     OW20572   5.674   6.108   1.001
 6558SOL    HW120573   5.671   6.118   1.101
 6558SOL    HW220574   5.653   6.014   0.976
 6559SOL     OW20575   0.116   2.220   6.337
 6559SOL    HW120576   0.158   2.311   6.342
 6559SOL    HW220577   0.177   2.153   6.380
 6560SOL     OW20578   6.732   4.428   6.767
 6560SOL    HW120579   6.644   4.388   6.795
 6560SOL    HW220580   6.767   4.485   6.842
 6561SOL     OW20581   2.316   5.169   0.587
 6561SOL    HW120582   2.359   5.195   0.674
 6561SOL    HW220583   2.227   5.213   0.579
 6562SOL     OW20584   4.723   2.477   1.758
 6562SOL    HW120585   4.670   2.461   1.841
 6562SOL    HW220586   4.808   2.424   1.762
 6563SOL     OW20587   6.656   4.746   5.563
 6563SOL    HW120588   6.625   4.670   5.621
 6563SOL    HW220589   6.577   4.792   5.523
 6564SOL     OW20590   5.623   3.105   2.337
 6564SOL    HW120591   5.565   3.087   2.416
 6564SOL    HW220592   5.567   3.110   2.255
 6565SOL     OW20593   5.467   6.239   2.502
 6565SOL    HW120594   5.412   6.212   2.580
 6565SOL    HW220595   5.479   6.339   2.503
 6566SOL     OW20596   5.507   5.373   3.742
 6566SOL    HW120597   5.510   5.472   3.756
 6566SOL    HW220598   5.427   5.350   3.686
 6567SOL     OW20599   3.318   0.854   2.638
 6567SOL    HW120600   3.267   0.939   2.648
 6567SOL    HW220601   3.364   0.832   2.724
 6568SOL     OW20602   4.824   1.065   0.784
 6568SOL    HW120603   4.908   1.119   0.778
 6568SOL    HW220604   4.830   0.987   0.721
 6569SOL     OW20605   1.232   4.658   3.527
 6569SOL    HW120606   1.156   4.666   3.592
 6569SOL    HW220607   1.260   4.750   3.498
 6570SOL     OW20608   4.335   0.287   2.439
 6570SOL    HW120609   4.322   0.372   2.387
 6570SOL    HW220610   4.300   0.210   2.385
 6571SOL     OW20611   2.617   6.619   3.187
 6571SOL    HW120612   2.679   6.681   3.139
 6571SOL    HW220613   2.665   6.534   3.208
 6572SOL     OW20614   2.018   5.952   4.095
 6572SOL    HW120615   1.927   5.978   4.064
 6572SOL    HW220616   2.087   6.004   4.045
 6573SOL     OW20617   0.041   2.142   3.482
 6573SOL    HW120618   0.090   2.055   3.482
 6573SOL    HW220619   0.016   2.166   3.388
 6574SOL     OW20620   0.810   5.062   2.080
 6574SOL    HW120621   0.732   5.109   2.040
 6574SOL    HW220622   0.886   5.126   2.090
 6575SOL     OW20623   0.001   1.685   3.996
 6575SOL    HW120624   6.936   1.737   3.990
 6575SOL    HW220625   0.069   1.723   3.934
 6576SOL     OW20626   3.960   6.697   1.656
 6576SOL    HW120627   3.933   6.626   1.721
 6576SOL    HW220628   3.895   6.773   1.662
 6577SOL     OW20629   3.417   0.740   4.741
 6577SOL    HW120630   3.410   0.839   4.731
 6577SOL    HW220631   3.472   0.718   4.821
 6578SOL     OW20632   1.208   5.025   0.849
 6578SOL    HW120633   1.266   4.960   0.897
 6578SOL    HW220634   1.140   4.975   0.795
 6579SOL     OW20635   1.501   1.784   3.624
 6579SOL    HW120636   1.480   1.713   3.691
 6579SOL    HW220637   1.477   1.874   3.661
 6580SOL     OW20638   3.423   2.005   0.212
 6580SOL    HW120639   3.506   2.057   0.196
 6580SOL    HW220640   3.349   2.040   0.154
 6581SOL     OW20641   0.602   2.271   1.935
 6581SOL    HW120642   0.653   2.186   1.946
 6581SOL    HW220643   0.538   2.282   2.010
 6582SOL     OW20644   5.046   0.828   3.040
 6582SOL    HW120645   4.993   0.750   3.073
 6582SOL    HW220646   5.039   0.904   3.105
 6583SOL     OW20647   2.520   4.415   0.879
 6583SOL    HW120648   2.584   4.361   0.933
 6583SOL    HW220649   2.569   4.462   0.805
 6584SOL     OW20650   4.222   2.541   6.148
 6584SOL    HW120651   4.247   2.622   6.201
 6584SOL    HW220652   4.302   2.509   6.097
 6585SOL     OW20653   5.119   6.799   1.809
 6585SOL    HW120654   5.124   6.877   1.872
 6585SOL    HW220655   5.039   6.744   1.831
 6586SOL     OW20656   6.587   1.095   6.529
 6586SOL    HW120657   6.621   1.002   6.534
 6586SOL    HW220658   6.649   1.157   6.577
 6587SOL     OW20659   3.542   4.965   5.110
 6587SOL    HW120660   3.465   4.901   5.114
 6587SOL    HW220661   3.558   4.991   5.014
 6588SOL     OW20662   1.031   1.653   0.027
 6588SOL    HW120663   1.019   1.652   0.126
 6588SOL    HW220664   1.069   1.741   7.018
 6589SOL     OW20665   6.319   6.248   1.646
 6589SOL    HW120666   6.257   6.174   1.619
 6589SOL    HW220667   6.390   6.211   1.706
 6590SOL     OW20668   1.150   6.012   4.550
 6590SOL    HW120669   1.051   6.001   4.561
 6590SOL    HW220670   1.197   5.971   4.627
 6591SOL     OW20671   6.183   3.221   3.828
 6591SOL    HW120672   6.157   3.165   3.907
 6591SOL    HW220673   6.282   3.225   3.822
 6592SOL     OW20674   6.803   0.423   4.043
 6592SOL    HW120675   6.784   0.510   4.088
 6592SOL    HW220676   6.816   0.351   4.111
 6593SOL     OW20677   1.996   0.866   2.650
 6593SOL    HW120678   2.008   0.940   2.716
 6593SOL    HW220679   1.900   0.861   2.623
 6594SOL     OW20680   5.137   0.028   0.031
 6594SOL    HW120681   5.232   0.003   0.014
 6594SOL    HW220682   5.110   7.018   0.122
 6595SOL     OW20683   0.852   1.747   4.998
 6595SOL    HW120684   0.824   1.811   4.926
 6595SOL    HW220685   0.913   1.678   4.959
 6596SOL     OW20686   5.730   1.144   2.346
 6596SOL    HW120687   5.660   1.187   2.404
 6596SOL    HW220688   5.776   1.072   2.398
 6597SOL     OW20689   0.906   4.662   0.862
 6597SOL    HW120690   0.908   4.573   0.817
 6597SOL    HW220691   0.810   4.687   0.880
 6598SOL     OW20692   1.047   5.081   2.804
 6598SOL    HW120693   1.059   5.118   2.896
 6598SOL    HW220694   1.090   5.142   2.737
 6599SOL     OW20695   0.679   5.489   6.133
 6599SOL    HW120696   0.717   5.564   6.080
 6599SOL    HW220697   0.603   5.447   6.083
 6600SOL     OW20698   4.812   6.245   4.562
 6600SOL    HW120699   4.780   6.242   4.657
 6600SOL    HW220700   4.749   6.301   4.508
 6601SOL     OW20701   1.320   2.946   1.667
 6601SOL    HW120702   1.231   2.983   1.638
 6601SOL    HW220703   1.390   2.972   1.601
 6602SOL     OW20704   6.738   5.221   1.206
 6602SOL    HW120705   6.660   5.283   1.209
 6602SOL    HW220706   6.706   5.128   1.187
 6603SOL     OW20707   0.119   4.376   2.381
 6603SOL    HW120708   0.212   4.370   2.417
 6603SOL    HW220709   0.060   4.417   2.451
 6604SOL     OW20710   1.577   5.411   2.820
 6604SOL    HW120711   1.523   5.335   2.783
 6604SOL    HW220712   1.550   5.429   2.914
 6605SOL     OW20713   6.993   5.297   1.337
 6605SOL    HW120714   6.982   5.386   1.380
 6605SOL    HW220715   6.904   5.262   1.309
 6606SOL     OW20716   1.880   4.121   3.047
 6606SOL    HW120717   1.975   4.093   3.035
 6606SOL    HW220718   1.834   4.121   2.958
 6607SOL     OW20719   5.861   3.255   3.959
 6607SOL    HW120720   5.772   3.267   3.916
 6607SOL    HW220721   5.909   3.179   3.916
 6608SOL     OW20722   1.107   0.201   5.858
 6608SOL    HW120723   1.132   0.175   5.765
 6608SOL    HW220724   1.021   0.156   5.883
 6609SOL     OW20725   3.302   2.502   0.172
 6609SOL    HW120726   3.368   2.429   0.151
 6609SOL    HW220727   3.210   2.464   0.171
 6610SOL     OW20728   3.141   6.744   1.324
 6610SOL    HW120729   3.076   6.682   1.281
 6610SOL    HW220730   3.102   6.836   1.328
 6611SOL     OW20731   3.131   1.413   4.671
 6611SOL    HW120732   3.107   1.493   4.615
 6611SOL    HW220733   3.177   1.345   4.614
 6612SOL     OW20734   0.689   0.302   6.933
 6612SOL    HW120735   0.690   0.363   6.853
 6612SOL    HW220736   0.778   0.257   6.941
 6613SOL     OW20737   4.363   6.740   0.909
 6613SOL    HW120738   4.434   6.768   0.844
 6613SOL    HW220739   4.304   6.818   0.929
 6614SOL     OW20740   3.723   4.885   0.921
 6614SOL    HW120741   3.674   4.836   0.994
 6614SOL    HW220742   3.669   4.881   0.837
 6615SOL     OW20743   3.269   5.417   6.297
 6615SOL    HW120744   3.329   5.366   6.359
 6615SOL    HW220745   3.195   5.460   6.349
 6616SOL     OW20746   4.330   1.325   0.325
 6616SOL    HW120747   4.380   1.357   0.244
 6616SOL    HW220748   4.281   1.241   0.302
 6617SOL     OW20749   3.610   1.130   3.611
 6617SOL    HW120750   3.583   1.197   3.680
 6617SOL    HW220751   3.694   1.161   3.566
 6618SOL     OW20752   5.809   2.736   4.272
 6618SOL    HW120753   5.786   2.668   4.341
 6618SOL    HW220754   5.873   2.802   4.311
 6619SOL     OW20755   4.707   5.001   3.821
 6619SOL    HW120756   4.668   4.959   3.903
 6619SOL    HW220757   4.696   5.100   3.826
 6620SOL     OW20758   1.033   2.506   3.574
 6620SOL    HW120759   1.110   2.446   3.598
 6620SOL    HW220760   0.971   2.456   3.512
 6621SOL     OW20761   3.235   3.401   3.776
 6621SOL    HW120762   3.312   3.457   3.808
 6621SOL    HW220763   3.154   3.459   3.767
 6622SOL     OW20764   0.053   5.095   1.508
 6622SOL    HW120765   6.990   5.039   1.504
 6622SOL    HW220766   0.038   5.179   1.455
 6623SOL     OW20767   3.469   4.016   3.710
 6623SOL    HW120768   3.485   3.919   3.729
 6623SOL    HW220769   3.390   4.025   3.649
 6624SOL     OW20770   2.914   2.299   3.120
 6624SOL    HW120771   2.923   2.226   3.052
 6624SOL    HW220772   2.826   2.345   3.109
 6625SOL     OW20773   6.756   3.881   5.389
 6625SOL    HW120774   6.736   3.784   5.376
 6625SOL    HW220775   6.690   3.921   5.453
 6626SOL     OW20776   3.340   5.601   5.193
 6626SOL    HW120777   3.320   5.688   5.237
 6626SOL    HW220778   3.438   5.581   5.200
 6627SOL     OW20779   2.612   6.129   4.174
 6627SOL    HW120780   2.595   6.184   4.092
 6627SOL    HW220781   2.667   6.049   4.150
 6628SOL     OW20782   3.927   0.292   3.217
 6628SOL    HW120783   3.893   0.378   3.178
 6628SOL    HW220784   3.956   0.307   3.312
 6629SOL     OW20785   4.359   5.310   5.006
 6629SOL    HW120786   4.420   5.380   4.969
 6629SOL    HW220787   4.330   5.337   5.098
 6630SOL     OW20788   1.699   0.430   6.954
 6630SOL    HW120789   1.752   0.380   0.003
 6630SOL    HW220790   1.762   0.475   6.890
 6631SOL     OW20791   1.968   3.069   6.030
 6631SOL    HW120792   1.921   2.986   5.998
 6631SOL    HW220793   1.939   3.146   5.974
 6632SOL     OW20794   1.234   0.521   0.032
 6632SOL    HW120795   1.201   0.607   7.013
 6632SOL    HW220796   1.175   0.494   0.109
 6633SOL     OW20797   4.089   5.991   6.198
 6633SOL    HW120798   4.118   6.038   6.281
 6633SOL    HW220799   4.166   5.938   6.161
 6634SOL     OW20800   3.128   2.072   3.602
 6634SOL    HW120801   3.049   2.013   3.585
 6634SOL    HW220802   3.189   2.069   3.523
 6635SOL     OW20803   5.534   5.520   5.512
 6635SOL    HW120804   5.586   5.605   5.524
 6635SOL    HW220805   5.514   5.506   5.415
 6636SOL     OW20806   4.028   1.243   0.589
 6636SOL    HW120807   4.080   1.312   0.538
 6636SOL    HW220808   4.068   1.230   0.679
 6637SOL     OW20809   0.013   1.914   0.089
 6637SOL    HW120810   0.085   1.927   0.021
 6637SOL    HW220811   6.954   1.868   0.047
 6638SOL     OW20812   3.513   3.514   3.878
 6638SOL    HW120813   3.593   3.497   3.820
 6638SOL    HW220814   3.531   3.479   3.970
 6639SOL     OW20815   4.491   2.240   1.522
 6639SOL    HW120816   4.517   2.333   1.548
 6639SOL    HW220817   4.445   2.242   1.434
 6640SOL     OW20818   1.670   4.161   4.932
 6640SOL    HW120819   1.750   4.222   4.932
 6640SOL    HW220820   1.668   4.110   5.018
 6641SOL     OW20821   6.201   2.636   0.204
 6641SOL    HW120822   6.299   2.631   0.225
 6641SOL    HW220823   6.175   2.731   0.189
 6642SOL     OW20824   1.011   5.337   6.359
 6642SOL    HW120825   0.957   5.419   6.339
 6642SOL    HW220826   1.024   5.329   6.458
 6643SOL     OW20827   3.757   5.509   6.204
 6643SOL    HW120828   3.792   5.570   6.276
 6643SOL    HW220829   3.681   5.455   6.240
 6644SOL     OW20830   2.449   0.108   3.935
 6644SOL    HW120831   2.511   0.129   4.010
 6644SOL    HW220832   2.482   0.150   3.851
 6645SOL     OW20833   4.660   2.427   6.131
 6645SOL    HW120834   4.743   2.441   6.076
 6645SOL    HW220835   4.583   2.408   6.069
 6646SOL     OW20836   4.573   0.106   5.270
 6646SOL    HW120837   4.601   0.182   5.211
 6646SOL    HW220838   4.558   0.025   5.213
 6647SOL     OW20839   4.258   4.207   0.781
 6647SOL    HW120840   4.284   4.301   0.805
 6647SOL    HW220841   4.273   4.147   0.859
 6648SOL     OW20842   3.332   5.393   5.437
 6648SOL    HW120843   3.405   5.460   5.454
 6648SOL    HW220844   3.243   5.439   5.443
 6649SOL     OW20845   4.704   2.704   5.952
 6649SOL    HW120846   4.606   2.684   5.949
 6649SOL    HW220847   4.755   2.619   5.937
 6650SOL     OW20848   2.525   1.105   5.175
 6650SOL    HW120849   2.442   1.127   5.124
 6650SOL    HW220850   2.501   1.073   5.267
 6651SOL     OW20851   6.947   1.696   5.450
 6651SOL    HW120852   0.017   1.731   5.477
 6651SOL    HW220853   6.950   1.664   5.355
 6652SOL     OW20854   7.019   4.393   0.163
 6652SOL    HW120855   7.000   4.491   0.160
 6652SOL    HW220856   6.944   4.347   0.211
 6653SOL     OW20857   5.899   4.615   6.851
 6653SOL    HW120858   5.891   4.515   6.854
 6653SOL    HW220859   5.945   4.642   6.767
 6654SOL     OW20860   6.448   2.602   3.029
 6654SOL    HW120861   6.473   2.564   3.118
 6654SOL    HW220862   6.518   2.668   3.000
 6655SOL     OW20863   6.985   5.729   1.212
 6655SOL    HW120864   6.961   5.790   1.287
 6655SOL    HW220865   0.040   5.769   1.158
 6656SOL     OW20866   4.487   1.087   3.085
 6656SOL    HW120867   4.411   1.064   3.145
 6656SOL    HW220868   4.526   1.003   3.046
 6657SOL     OW20869   4.658   1.328   4.607
 6657SOL    HW120870   4.677   1.417   4.650
 6657SOL    HW220871   4.724   1.261   4.640
 6658SOL     OW20872   6.791   5.845   4.892
 6658SOL    HW120873   6.695   5.842   4.865
 6658SOL    HW220874   6.849   5.833   4.812
 6659SOL     OW20875   0.633   5.611   0.917
 6659SOL    HW120876   0.703   5.681   0.907
 6659SOL    HW220877   0.659   5.549   0.992
 6660SOL     OW20878   0.495   0.421   4.534
 6660SOL    HW120879   0.423   0.396   4.599
 6660SOL    HW220880   0.501   0.351   4.463
 6661SOL     OW20881   4.306   6.091   4.167
 6661SOL    HW120882   4.293   6.042   4.081
 6661SOL    HW220883   4.400   6.078   4.199
 6662SOL     OW20884   3.175   6.673   2.087
 6662SOL    HW120885   3.145   6.763   2.118
 6662SOL    HW220886   3.275   6.673   2.080
 6663SOL     OW20887   1.549   4.308   5.815
 6663SOL    HW120888   1.599   4.378   5.866
 6663SOL    HW220889   1.534   4.338   5.721
 6664SOL     OW20890   3.371   6.852   1.464
 6664SOL    HW120891   3.279   6.815   1.458
 6664SOL    HW220892   3.372   6.930   1.526
 6665SOL     OW20893   2.912   0.870   6.725
 6665SOL    HW120894   2.980   0.798   6.718
 6665SOL    HW220895   2.958   0.959   6.721
 6666SOL     OW20896   3.441   6.081   5.573
 6666SOL    HW120897   3.440   6.026   5.489
 6666SOL    HW220898   3.356   6.064   5.624
 6667SOL     OW20899   1.379   5.865   6.440
 6667SOL    HW120900   1.467   5.818   6.436
 6667SOL    HW220901   1.308   5.800   6.470
 6668SOL     OW20902   6.794   4.141   0.199
 6668SOL    HW120903   6.748   4.147   0.111
 6668SOL    HW220904   6.750   4.203   0.264
 6669SOL     OW20905   1.361   2.604   3.687
 6669SOL    HW120906   1.406   2.631   3.602
 6669SOL    HW220907   1.309   2.520   3.671
 6670SOL     OW20908   3.334   3.365   0.622
 6670SOL    HW120909   3.239   3.392   0.607
 6670SOL    HW220910   3.350   3.352   0.720
 6671SOL     OW20911   4.584   4.680   0.262
 6671SOL    HW120912   4.543   4.600   0.217
 6671SOL    HW220913   4.578   4.668   0.361
 6672SOL     OW20914   1.542   2.793   1.044
 6672SOL    HW120915   1.576   2.718   0.988
 6672SOL    HW220916   1.442   2.791   1.045
 6673SOL     OW20917   5.898   2.926   3.896
 6673SOL    HW120918   5.988   2.930   3.941
 6673SOL    HW220919   5.828   2.959   3.958
 6674SOL     OW20920   6.515   0.517   0.602
 6674SOL    HW120921   6.518   0.599   0.659
 6674SOL    HW220922   6.524   0.543   0.506
 6675SOL     OW20923   4.827   0.362   0.204
 6675SOL    HW120924   4.839   0.278   0.255
 6675SOL    HW220925   4.791   0.433   0.264
 6676SOL     OW20926   0.783   3.892   5.132
 6676SOL    HW120927   0.697   3.940   5.113
 6676SOL    HW220928   0.811   3.840   5.052
 6677SOL     OW20929   0.503   1.923   6.467
 6677SOL    HW120930   0.566   1.873   6.409
 6677SOL    HW220931   0.530   1.913   6.563
 6678SOL     OW20932   3.095   4.074   6.610
 6678SOL    HW120933   3.068   4.137   6.683
 6678SOL    HW220934   3.190   4.045   6.625
 6679SOL     OW20935   1.477   0.739   4.167
 6679SOL    HW120936   1.481   0.819   4.226
 6679SOL    HW220937   1.393   0.741   4.113
 6680SOL     OW20938   6.536   5.193   1.534
 6680SOL    HW120939   6.474   5.118   1.555
 6680SOL    HW220940   6.550   5.249   1.616
 6681SOL     OW20941   2.573   5.851   1.295
 6681SOL    HW120942   2.478   5.870   1.271
 6681SOL    HW220943   2.603   5.768   1.248
 6682SOL     OW20944   2.798   5.400   6.173
 6682SOL    HW120945   2.836   5.473   6.117
 6682SOL    HW220946   2.756   5.331   6.114
 6683SOL     OW20947   6.845   5.201   5.731
 6683SOL    HW120948   6.924   5.251   5.768
 6683SOL    HW220949   6.804   5.145   5.803
 6684SOL     OW20950   2.701   5.591   6.468
 6684SOL    HW120951   2.735   5.511   6.420
 6684SOL    HW220952   2.778   5.650   6.493
 6685SOL     OW20953   4.509   2.788   1.084
 6685SOL    HW120954   4.439   2.857   1.103
 6685SOL    HW220955   4.549   2.806   0.994
 6686SOL     OW20956   5.016   4.576   5.419
 6686SOL    HW120957   4.985   4.649   5.480
 6686SOL    HW220958   5.029   4.492   5.472
 6687SOL     OW20959   0.471   1.903   1.465
 6687SOL    HW120960   0.383   1.858   1.450
 6687SOL    HW220961   0.502   1.944   1.379
 6688SOL     OW20962   4.519   5.702   0.568
 6688SOL    HW120963   4.474   5.711   0.479
 6688SOL    HW220964   4.507   5.786   0.621
 6689SOL     OW20965   3.456   4.606   5.596
 6689SOL    HW120966   3.367   4.567   5.617
 6689SOL    HW220967   3.447   4.702   5.572
 6690SOL     OW20968   0.620   1.076   0.053
 6690SOL    HW120969   0.631   1.033   0.143
 6690SOL    HW220970   0.640   1.174   0.060
 6691SOL     OW20971   2.625   1.184   2.171
 6691SOL    HW120972   2.712   1.218   2.204
 6691SOL    HW220973   2.632   1.085   2.154
 6692SOL     OW20974   4.622   6.103   2.757
 6692SOL    HW120975   4.712   6.081   2.793
 6692SOL    HW220976   4.552   6.054   2.809
 6693SOL     OW20977   3.346   1.076   5.383
 6693SOL    HW120978   3.375   1.154   5.440
 6693SOL    HW220979   3.248   1.064   5.392
 6694SOL     OW20980   4.368   4.136   1.523
 6694SOL    HW120981   4.386   4.151   1.620
 6694SOL    HW220982   4.273   4.160   1.502
 6695SOL     OW20983   2.848   2.605   0.268
 6695SOL    HW120984   2.888   2.657   0.193
 6695SOL    HW220985   2.920   2.559   0.320
 6696SOL     OW20986   3.935   3.364   5.088
 6696SOL    HW120987   3.946   3.385   4.991
 6696SOL    HW220988   3.891   3.442   5.134
 6697SOL     OW20989   4.007   2.054   1.903
 6697SOL    HW120990   4.012   2.143   1.858
 6697SOL    HW220991   4.036   2.064   1.999
 6698SOL     OW20992   3.269   3.949   1.281
 6698SOL    HW120993   3.247   3.959   1.378
 6698SOL    HW220994   3.189   3.918   1.231
 6699SOL     OW20995   1.451   3.521   5.436
 6699SOL    HW120996   1.451   3.593   5.506
 6699SOL    HW220997   1.525   3.457   5.454
 6700SOL     OW20998   5.613   0.012   1.255
 6700SOL    HW120999   5.676   7.000   1.184
 6700SOL    HW221000   5.519   7.006   1.230
 6701SOL     OW21001   5.582   0.006   1.526
 6701SOL    HW121002   5.596   0.011   1.427
 6701SOL    HW221003   5.670   0.018   1.573
 6702SOL     OW21004   3.728   3.274   0.566
 6702SOL    HW121005   3.693   3.352   0.618
 6702SOL    HW221006   3.763   3.305   0.478
 6703SOL     OW21007   0.285   1.172   0.658
 6703SOL    HW121008   0.318   1.265   0.648
 6703SOL    HW221009   0.309   1.119   0.577
 6704SOL     OW21010   3.313   6.920   5.135
 6704SOL    HW121011   3.231   6.865   5.122
 6704SOL    HW221012   3.291   7.017   5.123
 6705SOL     OW21013   6.782   4.295   2.132
 6705SOL    HW121014   6.767   4.197   2.141
 6705SOL    HW221015   6.750   4.326   2.043
 6706SOL     OW21016   0.253   0.083   0.676
 6706SOL    HW121017   0.204   0.163   0.641
 6706SOL    HW221018   0.284   0.027   0.599
 6707SOL     OW21019   4.689   0.860   2.688
 6707SOL    HW121020   4.756   0.933   2.676
 6707SOL    HW221021   4.683   0.805   2.605
 6708SOL     OW21022   0.521   3.019   0.327
 6708SOL    HW121023   0.572   3.083   0.270
 6708SOL    HW221024   0.526   3.048   0.423
 6709SOL     OW21025   2.405   4.343   1.911
 6709SOL    HW121026   2.460   4.394   1.845
 6709SOL    HW221027   2.419   4.245   1.896
 6710SOL     OW21028   4.645   1.484   0.643
 6710SOL    HW121029   4.556   1.518   0.611
 6710SOL    HW221030   4.715   1.553   0.626
 6711SOL     OW21031   3.608   5.865   6.161
 6711SOL    HW121032   3.591   5.824   6.250
 6711SOL    HW221033   3.673   5.941   6.170
 6712SOL     OW21034   4.924   4.494   1.320
 6712SOL    HW121035   5.009   4.493   1.374
 6712SOL    HW221036   4.846   4.505   1.382
 6713SOL     OW21037   1.571   4.779   4.543
 6713SOL    HW121038   1.542   4.858   4.597
 6713SOL    HW221039   1.671   4.769   4.551
 6714SOL     OW21040   5.344   1.513   1.771
 6714SOL    HW121041   5.402   1.517   1.690
 6714SOL    HW221042   5.248   1.506   1.743
 6715SOL     OW21043   1.260   0.197   6.376
 6715SOL    HW121044   1.169   0.169   6.345
 6715SOL    HW221045   1.253   0.276   6.437
 6716SOL     OW21046   0.867   5.812   2.070
 6716SOL    HW121047   0.771   5.784   2.065
 6716SOL    HW221048   0.924   5.732   2.085
 6717SOL     OW21049   6.222   1.959   5.669
 6717SOL    HW121050   6.162   1.925   5.596
 6717SOL    HW221051   6.291   2.020   5.630
 6718SOL     OW21052   4.937   1.514   0.830
 6718SOL    HW121053   4.984   1.426   0.838
 6718SOL    HW221054   4.965   1.559   0.745
 6719SOL     OW21055   1.743   1.532   0.239
 6719SOL    HW121056   1.814   1.469   0.271
 6719SOL    HW221057   1.737   1.528   0.139
 6720SOL     OW21058   1.909   0.665   5.881
 6720SOL    HW121059   1.952   0.656   5.970
 6720SOL    HW221060   1.815   0.633   5.885
 6721SOL     OW21061   6.253   6.750   0.854
 6721SOL    HW121062   6.281   6.801   0.936
 6721SOL    HW221063   6.310   6.668   0.846
 6722SOL     OW21064   5.408   4.198   0.494
 6722SOL    HW121065   5.330   4.151   0.453
 6722SOL    HW221066   5.493   4.160   0.457
 6723SOL     OW21067   1.570   3.216   5.026
 6723SOL    HW121068   1.517   3.146   4.979
 6723SOL    HW221069   1.612   3.177   5.108
 6724SOL     OW21070   2.120   3.998   4.355
 6724SOL    HW121071   2.071   3.919   4.321
 6724SOL    HW221072   2.167   3.974   4.440
 6725SOL     OW21073   4.936   3.339   3.814
 6725SOL    HW121074   4.887   3.277   3.753
 6725SOL    HW221075   4.901   3.330   3.907
 6726SOL     OW21076   0.530   1.274   6.242
 6726SOL    HW121077   0.628   1.266   6.258
 6726SOL    HW221078   0.513   1.285   6.144
 6727SOL     OW21079   1.277   4.899   5.841
 6727SOL    HW121080   1.218   4.913   5.921
 6727SOL    HW221081   1.223   4.862   5.766
 6728SOL     OW21082   3.689   1.453   3.770
 6728SOL    HW121083   3.786   1.472   3.755
 6728SOL    HW221084   3.639   1.470   3.685
 6729SOL     OW21085   3.769   1.035   2.033
 6729SOL    HW121086   3.796   0.942   2.011
 6729SOL    HW221087   3.674   1.050   2.004
 6730SOL     OW21088   6.736   1.850   0.550
 6730SOL    HW121089   6.720   1.893   0.639
 6730SOL    HW221090   6.812   1.897   0.505
 6731SOL     OW21091   4.382   0.412   6.156
 6731SOL    HW121092   4.470   0.368   6.137
 6731SOL    HW221093   4.325   0.349   6.210
 6732SOL     OW21094   0.139   4.632   5.409
 6732SOL    HW121095   0.152   4.570   5.487
 6732SOL    HW221096   0.188   4.718   5.427
 6733SOL     OW21097   4.789   4.782   5.075
 6733SOL    HW121098   4.736   4.851   5.027
 6733SOL    HW221099   4.854   4.740   5.012
 6734SOL     OW21100   5.966   2.432   5.026
 6734SOL    HW121101   6.060   2.437   5.059
 6734SOL    HW221102   5.954   2.347   4.974
 6735SOL     OW21103   5.930   2.434   3.698
 6735SOL    HW121104   5.866   2.385   3.639
 6735SOL    HW221105   6.005   2.471   3.642
 6736SOL     OW21106   3.587   3.723   0.396
 6736SOL    HW121107   3.543   3.791   0.455
 6736SOL    HW221108   3.518   3.675   0.342
 6737SOL     OW21109   6.306   3.472   0.692
 6737SOL    HW121110   6.325   3.516   0.780
 6737SOL    HW221111   6.272   3.539   0.627
 6738SOL     OW21112   2.142   6.281   4.263
 6738SOL    HW121113   2.088   6.313   4.185
 6738SOL    HW221114   2.081   6.258   4.339
 6739SOL     OW21115   6.880   0.107   5.611
 6739SOL    HW121116   6.953   0.126   5.546
 6739SOL    HW221117   6.861   0.008   5.612
 6740SOL     OW21118   0.151   0.016   2.436
 6740SOL    HW121119   0.170   0.109   2.467
 6740SOL    HW221120   0.232   6.998   2.390
 6741SOL     OW21121   3.323   1.990   0.468
 6741SOL    HW121122   3.279   1.907   0.503
 6741SOL    HW221123   3.347   1.976   0.372
 6742SOL     OW21124   6.358   4.307   3.231
 6742SOL    HW121125   6.279   4.326   3.173
 6742SOL    HW221126   6.345   4.220   3.277
 6743SOL     OW21127   3.963   3.551   0.064
 6743SOL    HW121128   3.973   3.455   0.087
 6743SOL    HW221129   4.050   3.598   0.077
 6744SOL     OW21130   6.317   6.932   5.369
 6744SOL    HW121131   6.311   6.859   5.437
 6744SOL    HW221132   6.300   6.895   5.278
 6745SOL     OW21133   6.931   4.068   5.291
 6745SOL    HW121134   6.871   4.009   5.344
 6745SOL    HW221135   6.944   4.154   5.340
 6746SOL     OW21136   1.267   2.141   2.939
 6746SOL    HW121137   1.317   2.211   2.989
 6746SOL    HW221138   1.172   2.141   2.968
 6747SOL     OW21139   0.665   6.247   5.447
 6747SOL    HW121140   0.752   6.296   5.448
 6747SOL    HW221141   0.680   6.153   5.416
 6748SOL     OW21142   2.276   0.577   4.775
 6748SOL    HW121143   2.333   0.537   4.846
 6748SOL    HW221144   2.189   0.527   4.769
 6749SOL     OW21145   4.157   4.840   2.105
 6749SOL    HW121146   4.189   4.932   2.084
 6749SOL    HW221147   4.062   4.830   2.074
 6750SOL     OW21148   3.333   0.649   5.552
 6750SOL    HW121149   3.250   0.693   5.586
 6750SOL    HW221150   3.413   0.695   5.589
 6751SOL     OW21151   4.560   0.421   4.837
 6751SOL    HW121152   4.484   0.483   4.858
 6751SOL    HW221153   4.633   0.473   4.792
 6752SOL     OW21154   2.048   4.594   2.553
 6752SOL    HW121155   2.042   4.601   2.653
 6752SOL    HW221156   2.111   4.664   2.519
 6753SOL     OW21157   3.843   3.319   6.621
 6753SOL    HW121158   3.881   3.359   6.537
 6753SOL    HW221159   3.883   3.365   6.700
 6754SOL     OW21160   6.094   1.228   0.296
 6754SOL    HW121161   6.024   1.202   0.362
 6754SOL    HW221162   6.151   1.300   0.335
 6755SOL     OW21163   2.982   5.961   5.988
 6755SOL    HW121164   3.077   5.932   5.974
 6755SOL    HW221165   2.925   5.927   5.913
 6756SOL     OW21166   3.662   3.433   6.224
 6756SOL    HW121167   3.564   3.426   6.245
 6756SOL    HW221168   3.674   3.483   6.138
 6757SOL     OW21169   4.050   6.967   1.635
 6757SOL    HW121170   4.117   6.972   1.708
 6757SOL    HW221171   4.026   6.871   1.618
 6758SOL     OW21172   5.113   3.104   3.145
 6758SOL    HW121173   5.130   3.034   3.214
 6758SOL    HW221174   5.199   3.151   3.124
 6759SOL     OW21175   0.853   1.564   2.568
 6759SOL    HW121176   0.865   1.466   2.551
 6759SOL    HW221177   0.758   1.589   2.552
 6760SOL     OW21178   5.265   2.376   4.849
 6760SOL    HW121179   5.348   2.419   4.885
 6760SOL    HW221180   5.258   2.394   4.751
 6761SOL     OW21181   3.665   1.614   4.967
 6761SOL    HW121182   3.648   1.591   4.871
 6761SOL    HW221183   3.594   1.677   4.999
 6762SOL     OW21184   6.166   5.104   4.667
 6762SOL    HW121185   6.191   5.023   4.615
 6762SOL    HW221186   6.185   5.186   4.613
 6763SOL     OW21187   5.688   6.931   4.103
 6763SOL    HW121188   5.607   6.907   4.048
 6763SOL    HW221189   5.696   6.867   4.179
 6764SOL     OW21190   0.660   5.245   1.753
 6764SOL    HW121191   0.589   5.182   1.722
 6764SOL    HW221192   0.632   5.339   1.733
 6765SOL     OW21193   0.145   3.444   2.319
 6765SOL    HW121194   0.121   3.541   2.318
 6765SOL    HW221195   0.244   3.434   2.320
 6766SOL     OW21196   6.157   0.365   1.595
 6766SOL    HW121197   6.101   0.447   1.605
 6766SOL    HW221198   6.104   0.292   1.551
 6767SOL     OW21199   3.284   0.318   1.248
 6767SOL    HW121200   3.196   0.310   1.200
 6767SOL    HW221201   3.353   0.355   1.185
 6768SOL     OW21202   1.983   0.022   6.619
 6768SOL    HW121203   2.070   6.995   6.604
 6768SOL    HW221204   1.991   0.085   6.696
 6769SOL     OW21205   4.549   2.917   1.433
 6769SOL    HW121206   4.563   2.937   1.530
 6769SOL    HW221207   4.485   2.841   1.423
 6770SOL     OW21208   0.323   1.297   1.477
 6770SOL    HW121209   0.225   1.294   1.497
 6770SOL    HW221210   0.341   1.371   1.411
 6771SOL     OW21211   4.699   1.914   3.101
 6771SOL    HW121212   4.720   1.897   3.197
 6771SOL    HW221213   4.765   1.868   3.043
 6772SOL     OW21214   3.921   1.909   3.808
 6772SOL    HW121215   3.840   1.873   3.855
 6772SOL    HW221216   3.947   1.996   3.849
 6773SOL     OW21217   0.421   3.688   1.037
 6773SOL    HW121218   0.456   3.671   1.130
 6773SOL    HW221219   0.423   3.786   1.018
 6774SOL     OW21220   0.763   2.853   6.433
 6774SOL    HW121221   0.685   2.801   6.468
 6774SOL    HW221222   0.736   2.902   6.351
 6775SOL     OW21223   1.524   4.675   6.992
 6775SOL    HW121224   1.538   4.695   6.895
 6775SOL    HW221225   1.596   4.719   0.026
 6776SOL     OW21226   6.145   5.489   6.527
 6776SOL    HW121227   6.244   5.494   6.534
 6776SOL    HW221228   6.120   5.431   6.450
 6777SOL     OW21229   4.951   5.777   0.015
 6777SOL    HW121230   4.977   5.719   0.092
 6777SOL    HW221231   4.862   5.818   0.033
 6778SOL     OW21232   6.994   5.446   3.361
 6778SOL    HW121233   6.994   5.518   3.291
 6778SOL    HW221234   0.068   5.417   3.379
 6779SOL     OW21235   6.647   3.868   6.385
 6779SOL    HW121236   6.612   3.825   6.468
 6779SOL    HW221237   6.613   3.818   6.305
 6780SOL     OW21238   0.865   2.604   2.386
 6780SOL    HW121239   0.868   2.688   2.332
 6780SOL    HW221240   0.959   2.575   2.408
 6781SOL     OW21241   6.068   5.011   5.346
 6781SOL    HW121242   6.131   4.938   5.322
 6781SOL    HW221243   5.974   4.978   5.337
 6782SOL     OW21244   6.098   1.478   2.686
 6782SOL    HW121245   6.161   1.490   2.608
 6782SOL    HW221246   6.004   1.472   2.652
 6783SOL     OW21247   0.271   6.104   6.250
 6783SOL    HW121248   0.175   6.133   6.252
 6783SOL    HW221249   0.313   6.132   6.164
 6784SOL     OW21250   3.577   3.080   6.955
 6784SOL    HW121251   3.546   3.175   6.958
 6784SOL    HW221252   3.499   3.020   6.936
 6785SOL     OW21253   5.871   5.514   1.926
 6785SOL    HW121254   5.825   5.531   2.013
 6785SOL    HW221255   5.876   5.416   1.909
 6786SOL     OW21256   1.553   3.716   5.978
 6786SOL    HW121257   1.611   3.756   5.908
 6786SOL    HW221258   1.602   3.642   6.025
 6787SOL     OW21259   0.977   3.313   1.758
 6787SOL    HW121260   0.987   3.405   1.796
 6787SOL    HW221261   1.024   3.248   1.817
 6788SOL     OW21262   2.775   5.078   1.068
 6788SOL    HW121263   2.845   5.012   1.039
 6788SOL    HW221264   2.732   5.118   0.988
 6789SOL     OW21265   0.588   5.585   3.328
 6789SOL    HW121266   0.658   5.546   3.268
 6789SOL    HW221267   0.587   5.535   3.415
 6790SOL     OW21268   1.293   2.849   0.529
 6790SOL    HW121269   1.311   2.943   0.559
 6790SOL    HW221270   1.238   2.850   0.446
 6791SOL     OW21271   3.605   3.717   6.505
 6791SOL    HW121272   3.537   3.763   6.563
 6791SOL    HW221273   3.585   3.737   6.409
 6792SOL     OW21274   0.747   4.947   0.308
 6792SOL    HW121275   0.730   4.849   0.314
 6792SOL    HW221276   0.708   4.992   0.388
 6793SOL     OW21277   5.923   1.536   1.208
 6793SOL    HW121278   5.965   1.527   1.298
 6793SOL    HW221279   5.931   1.630   1.176
 6794SOL     OW21280   4.314   1.398   4.493
 6794SOL    HW121281   4.303   1.445   4.581
 6794SOL    HW221282   4.391   1.439   4.443
 6795SOL     OW21283   2.940   6.019   6.942
 6795SOL    HW121284   2.940   6.117   6.961
 6795SOL    HW221285   2.979   6.003   6.851
 6796SOL     OW21286   4.116   2.221   2.609
 6796SOL    HW121287   4.203   2.205   2.657
 6796SOL    HW221288   4.041   2.214   2.674
 6797SOL     OW21289   0.117   2.729   1.775
 6797SOL    HW121290   0.142   2.641   1.813
 6797SOL    HW221291   0.065   2.715   1.690
 6798SOL     OW21292   6.257   0.053   1.836
 6798SOL    HW121293   6.159   0.055   1.817
 6798SOL    HW221294   6.289   0.146   1.855
 6799SOL     OW21295   5.457   6.030   1.791
 6799SOL    HW121296   5.458   6.000   1.886
 6799SOL    HW221297   5.532   6.093   1.774
 6800SOL     OW21298   3.220   3.896   0.191
 6800SOL    HW121299   3.255   3.942   0.273
 6800SOL    HW221300   3.141   3.840   0.216
 6801SOL     OW21301   1.184   1.548   3.053
 6801SOL    HW121302   1.222   1.620   2.995
 6801SOL    HW221303   1.087   1.565   3.068
 6802SOL     OW21304   2.488   4.847   3.049
 6802SOL    HW121305   2.544   4.777   3.095
 6802SOL    HW221306   2.406   4.804   3.013
 6803SOL     OW21307   4.995   2.122   0.194
 6803SOL    HW121308   4.973   2.220   0.200
 6803SOL    HW221309   5.089   2.108   0.227
 6804SOL     OW21310   0.947   0.179   4.066
 6804SOL    HW121311   0.944   0.270   4.024
 6804SOL    HW221312   1.019   0.125   4.022
 6805SOL     OW21313   5.185   0.840   4.532
 6805SOL    HW121314   5.173   0.871   4.437
 6805SOL    HW221315   5.095   0.830   4.575
 6806SOL     OW21316   5.425   6.776   5.453
 6806SOL    HW121317   5.415   6.873   5.431
 6806SOL    HW221318   5.444   6.766   5.551
 6807SOL     OW21319   3.643   3.403   0.094
 6807SOL    HW121320   3.646   3.493   0.050
 6807SOL    HW221321   3.553   3.362   0.077
 6808SOL     OW21322   1.778   2.827   4.561
 6808SOL    HW121323   1.853   2.882   4.525
 6808SOL    HW221324   1.692   2.876   4.549
 6809SOL     OW21325   2.357   4.158   6.735
 6809SOL    HW121326   2.314   4.169   6.824
 6809SOL    HW221327   2.320   4.076   6.690
 6810SOL     OW21328   5.394   1.906   2.673
 6810SOL    HW121329   5.407   1.907   2.574
 6810SOL    HW221330   5.464   1.962   2.717
 6811SOL     OW21331   5.071   5.530   1.798
 6811SOL    HW121332   4.991   5.522   1.739
 6811SOL    HW221333   5.082   5.626   1.825
 6812SOL     OW21334   3.665   2.914   2.705
 6812SOL    HW121335   3.630   2.863   2.626
 6812SOL    HW221336   3.606   2.897   2.784
 6813SOL     OW21337   4.755   3.819   1.340
 6813SOL    HW121338   4.655   3.824   1.335
 6813SOL    HW221339   4.781   3.740   1.395
 6814SOL     OW21340   2.404   3.256   0.209
 6814SOL    HW121341   2.477   3.290   0.149
 6814SOL    HW221342   2.325   3.317   0.203
 6815SOL     OW21343   2.118   6.958   1.816
 6815SOL    HW121344   2.166   6.889   1.870
 6815SOL    HW221345   2.064   7.016   1.877
 6816SOL     OW21346   6.300   4.128   1.451
 6816SOL    HW121347   6.365   4.057   1.424
 6816SOL    HW221348   6.220   4.124   1.391
 6817SOL     OW21349   0.424   2.229   6.124
 6817SOL    HW121350   0.482   2.306   6.097
 6817SOL    HW221351   0.328   2.253   6.109
 6818SOL     OW21352   3.318   5.777   2.201
 6818SOL    HW121353   3.330   5.798   2.298
 6818SOL    HW221354   3.401   5.732   2.166
 6819SOL     OW21355   3.173   0.889   3.553
 6819SOL    HW121356   3.177   0.896   3.652
 6819SOL    HW221357   3.266   0.891   3.515
 6820SOL     OW21358   1.517   4.689   3.685
 6820SOL    HW121359   1.505   4.777   3.731
 6820SOL    HW221360   1.502   4.700   3.587
 6821SOL     OW21361   2.584   2.425   4.210
 6821SOL    HW121362   2.635   2.396   4.129
 6821SOL    HW221363   2.646   2.425   4.289
 6822SOL     OW21364   5.144   2.347   5.591
 6822SOL    HW121365   5.075   2.411   5.558
 6822SOL    HW221366   5.188   2.302   5.513
 6823SOL     OW21367   3.523   3.794   2.420
 6823SOL    HW121368   3.577   3.768   2.501
 6823SOL    HW221369   3.469   3.715   2.390
 6824SOL     OW21370   1.389   4.833   6.415
 6824SOL    HW121371   1.343   4.922   6.410
 6824SOL    HW221372   1.388   4.791   6.324
 6825SOL     OW21373   5.206   0.108   4.085
 6825SOL    HW121374   5.278   0.152   4.032
 6825SOL    HW221375   5.178   0.023   4.040
 6826SOL     OW21376   0.858   2.415   2.595
 6826SOL    HW121377   0.955   2.392   2.599
 6826SOL    HW221378   0.842   2.476   2.517
 6827SOL     OW21379   5.941   6.384   5.047
 6827SOL    HW121380   6.000   6.381   5.128
 6827SOL    HW221381   5.848   6.408   5.075
 6828SOL     OW21382   1.804   2.047   1.318
 6828SOL    HW121383   1.840   2.136   1.288
 6828SOL    HW221384   1.841   2.025   1.408
 6829SOL     OW21385   5.556   5.143   3.927
 6829SOL    HW121386   5.628   5.075   3.914
 6829SOL    HW221387   5.567   5.217   3.861
 6830SOL     OW21388   5.189   2.208   4.244
 6830SOL    HW121389   5.095   2.185   4.270
 6830SOL    HW221390   5.201   2.195   4.146
 6831SOL     OW21391   0.323   0.991   5.857
 6831SOL    HW121392   0.259   0.955   5.925
 6831SOL    HW221393   0.401   0.929   5.847
 6832SOL     OW21394   3.041   4.955   1.915
 6832SOL    HW121395   2.968   4.890   1.940
 6832SOL    HW221396   3.121   4.939   1.973
 6833SOL     OW21397   3.899   5.392   0.446
 6833SOL    HW121398   3.830   5.331   0.408
 6833SOL    HW221399   3.858   5.448   0.518
 6834SOL     OW21400   3.874   5.301   2.496
 6834SOL    HW121401   3.893   5.376   2.559
 6834SOL    HW221402   3.824   5.229   2.545
 6835SOL     OW21403   3.763   6.657   4.584
 6835SOL    HW121404   3.808   6.615   4.663
 6835SOL    HW221405   3.725   6.586   4.525
 6836SOL     OW21406   2.936   5.740   6.442
 6836SOL    HW121407   2.978   5.817   6.491
 6836SOL    HW221408   2.913   5.769   6.349
 6837SOL     OW21409   0.497   2.811   2.548
 6837SOL    HW121410   0.559   2.871   2.498
 6837SOL    HW221411   0.403   2.844   2.537
 6838SOL     OW21412   2.840   1.853   0.598
 6838SOL    HW121413   2.861   1.951   0.605
 6838SOL    HW221414   2.760   1.841   0.539
 6839SOL     OW21415   4.720   0.666   1.347
 6839SOL    HW121416   4.699   0.740   1.411
 6839SOL    HW221417   4.656   0.668   1.271
 6840SOL     OW21418   0.775   1.217   6.307
 6840SOL    HW121419   0.705   1.181   6.369
 6840SOL    HW221420   0.823   1.141   6.263
 6841SOL     OW21421   6.980   3.246   6.136
 6841SOL    HW121422   6.918   3.303   6.082
 6841SOL    HW221423   0.004   3.179   6.076
 6842SOL     OW21424   2.307   4.428   3.009
 6842SOL    HW121425   2.302   4.372   2.926
 6842SOL    HW221426   2.378   4.497   2.999
 6843SOL     OW21427   3.935   6.532   0.397
 6843SOL    HW121428   3.927   6.479   0.481
 6843SOL    HW221429   3.868   6.499   0.330
 6844SOL     OW21430   4.952   0.634   6.054
 6844SOL    HW121431   4.874   0.684   6.092
 6844SOL    HW221432   4.928   0.599   5.964
 6845SOL     OW21433   4.655   2.033   2.591
 6845SOL    HW121434   4.611   2.009   2.504
 6845SOL    HW221435   4.725   1.965   2.613
 6846SOL     OW21436   2.373   3.773   0.237
 6846SOL    HW121437   2.332   3.727   0.159
 6846SOL    HW221438   2.447   3.833   0.205
 6847SOL     OW21439   0.249   2.810   4.503
 6847SOL    HW121440   0.187   2.867   4.558
 6847SOL    HW221441   0.206   2.789   4.415
 6848SOL     OW21442   6.947   4.614   3.249
 6848SOL    HW121443   6.963   4.665   3.164
 6848SOL    HW221444   0.011   4.613   3.304
 6849SOL     OW21445   2.882   3.631   5.795
 6849SOL    HW121446   2.820   3.701   5.758
 6849SOL    HW221447   2.863   3.617   5.892
 6850SOL     OW21448   4.667   0.528   4.248
 6850SOL    HW121449   4.758   0.488   4.260
 6850SOL    HW221450   4.661   0.570   4.157
 6851SOL     OW21451   2.160   3.409   3.604
 6851SOL    HW121452   2.184   3.358   3.687
 6851SOL    HW221453   2.097   3.355   3.549
 6852SOL     OW21454   4.077   4.487   0.302
 6852SOL    HW121455   4.052   4.393   0.327
 6852SOL    HW221456   4.082   4.544   0.384
 6853SOL     OW21457   4.749   4.216   6.463
 6853SOL    HW121458   4.743   4.311   6.434
 6853SOL    HW221459   4.723   4.156   6.387
 6854SOL     OW21460   5.372   6.247   6.181
 6854SOL    HW121461   5.468   6.238   6.155
 6854SOL    HW221462   5.367   6.285   6.274
 6855SOL     OW21463   4.376   5.085   3.141
 6855SOL    HW121464   4.314   5.119   3.071
 6855SOL    HW221465   4.436   5.159   3.171
 6856SOL     OW21466   0.444   2.242   6.622
 6856SOL    HW121467   0.346   2.233   6.607
 6856SOL    HW221468   0.490   2.248   6.533
 6857SOL     OW21469   0.754   4.206   5.708
 6857SOL    HW121470   0.661   4.186   5.739
 6857SOL    HW221471   0.781   4.140   5.639
 6858SOL     OW21472   1.877   4.004   2.234
 6858SOL    HW121473   1.865   4.024   2.137
 6858SOL    HW221474   1.867   3.905   2.249
 6859SOL     OW21475   1.794   1.531   2.047
 6859SOL    HW121476   1.827   1.615   2.092
 6859SOL    HW221477   1.770   1.551   1.952
 6860SOL     OW21478   0.574   6.933   0.898
 6860SOL    HW121479   0.476   6.936   0.877
 6860SOL    HW221480   0.626   6.953   0.816
 6861SOL     OW21481   6.352   3.558   6.363
 6861SOL    HW121482   6.448   3.567   6.335
 6861SOL    HW221483   6.322   3.643   6.406
 6862SOL     OW21484   0.711   4.130   4.380
 6862SOL    HW121485   0.737   4.168   4.291
 6862SOL    HW221486   0.793   4.099   4.428
 6863SOL     OW21487   5.477   1.457   5.275
 6863SOL    HW121488   5.461   1.490   5.368
 6863SOL    HW221489   5.389   1.433   5.233
 6864SOL     OW21490   1.276   3.566   6.185
 6864SOL    HW121491   1.329   3.615   6.254
 6864SOL    HW221492   1.338   3.522   6.120
 6865SOL     OW21493   2.764   0.438   3.947
 6865SOL    HW121494   2.850   0.387   3.951
 6865SOL    HW221495   2.730   0.440   3.853
 6866SOL     OW21496   1.272   5.166   0.232
 6866SOL    HW121497   1.317   5.174   0.144
 6866SOL    HW221498   1.231   5.076   0.241
 6867SOL     OW21499   1.875   3.694   6.480
 6867SOL    HW121500   1.815   3.746   6.419
 6867SOL    HW221501   1.914   3.755   6.550
 6868SOL     OW21502   3.203   5.193   3.803
 6868SOL    HW121503   3.303   5.197   3.814
 6868SOL    HW221504   3.164   5.283   3.823
 6869SOL     OW21505   3.115   0.869   6.002
 6869SOL    HW121506   3.195   0.812   6.020
 6869SOL    HW221507   3.111   0.943   6.069
 6870SOL     OW21508   5.947   2.158   0.034
 6870SOL    HW121509   6.033   2.109   0.048
 6870SOL    HW221510   5.952   2.248   0.079
 6871SOL     OW21511   6.723   3.548   2.417
 6871SOL    HW121512   6.758   3.606   2.491
 6871SOL    HW221513   6.652   3.598   2.367
 6872SOL     OW21514   1.750   4.288   1.110
 6872SOL    HW121515   1.761   4.324   1.202
 6872SOL    HW221516   1.789   4.352   1.044
 6873SOL     OW21517   0.814   4.308   2.986
 6873SOL    HW121518   0.731   4.272   3.028
 6873SOL    HW221519   0.837   4.253   2.905
 6874SOL     OW21520   5.174   6.147   2.895
 6874SOL    HW121521   5.139   6.099   2.975
 6874SOL    HW221522   5.213   6.081   2.831
 6875SOL     OW21523   2.287   1.217   0.686
 6875SOL    HW121524   2.287   1.121   0.658
 6875SOL    HW221525   2.376   1.257   0.666
 6876SOL     OW21526   5.272   5.373   3.569
 6876SOL    HW121527   5.297   5.381   3.473
 6876SOL    HW221528   5.204   5.301   3.580
 6877SOL     OW21529   0.642   3.424   1.916
 6877SOL    HW121530   0.587   3.341   1.910
 6877SOL    HW221531   0.662   3.458   1.824
 6878SOL     OW21532   2.185   0.768   4.584
 6878SOL    HW121533   2.196   0.706   4.507
 6878SOL    HW221534   2.222   0.725   4.667
 6879SOL     OW21535   1.398   1.270   1.201
 6879SOL    HW121536   1.332   1.248   1.130
 6879SOL    HW221537   1.473   1.324   1.162
 6880SOL     OW21538   1.387   5.746   0.455
 6880SOL    HW121539   1.355   5.739   0.360
 6880SOL    HW221540   1.313   5.720   0.517
 6881SOL     OW21541   0.231   2.783   0.345
 6881SOL    HW121542   0.273   2.743   0.263
 6881SOL    HW221543   0.252   2.726   0.424
 6882SOL     OW21544   2.722   6.307   6.858
 6882SOL    HW121545   2.638   6.255   6.841
 6882SOL    HW221546   2.710   6.361   6.942
 6883SOL     OW21547   4.934   0.417   1.369
 6883SOL    HW121548   4.924   0.464   1.282
 6883SOL    HW221549   4.843   0.402   1.410
 6884SOL     OW21550   1.712   4.075   3.269
 6884SOL    HW121551   1.759   4.140   3.329
 6884SOL    HW221552   1.755   4.076   3.179
 6885SOL     OW21553   6.241   4.600   4.834
 6885SOL    HW121554   6.165   4.651   4.794
 6885SOL    HW221555   6.221   4.502   4.830
 6886SOL     OW21556   5.084   2.718   0.354
 6886SOL    HW121557   5.016   2.781   0.391
 6886SOL    HW221558   5.043   2.666   0.278
 6887SOL     OW21559   5.602   5.892   5.790
 6887SOL    HW121560   5.644   5.810   5.828
 6887SOL    HW221561   5.520   5.916   5.842
 6888SOL     OW21562   6.213   3.998   6.628
 6888SOL    HW121563   6.197   3.901   6.608
 6888SOL    HW221564   6.311   4.013   6.640
 6889SOL     OW21565   0.237   1.996   5.928
 6889SOL    HW121566   0.191   1.936   5.993
 6889SOL    HW221567   0.220   2.091   5.952
 6890SOL     OW21568   4.670   4.328   3.520
 6890SOL    HW121569   4.575   4.358   3.508
 6890SOL    HW221570   4.694   4.331   3.617
 6891SOL     OW21571   1.402   1.566   1.264
 6891SOL    HW121572   1.333   1.636   1.243
 6891SOL    HW221573   1.378   1.481   1.217
 6892SOL     OW21574   2.906   1.266   4.762
 6892SOL    HW121575   2.889   1.316   4.847
 6892SOL    HW221576   2.965   1.322   4.702
 6893SOL     OW21577   5.952   3.363   0.570
 6893SOL    HW121578   5.949   3.265   0.556
 6893SOL    HW221579   6.009   3.406   0.499
 6894SOL     OW21580   6.026   4.967   0.525
 6894SOL    HW121581   5.991   4.985   0.617
 6894SOL    HW221582   6.121   4.998   0.519
 6895SOL     OW21583   1.055   6.247   2.648
 6895SOL    HW121584   1.047   6.287   2.740
 6895SOL    HW221585   1.031   6.316   2.580
 6896SOL     OW21586   4.880   1.204   5.051
 6896SOL    HW121587   4.833   1.116   5.047
 6896SOL    HW221588   4.896   1.237   4.957
 6897SOL     OW21589   4.417   2.569   5.222
 6897SOL    HW121590   4.331   2.531   5.256
 6897SOL    HW221591   4.448   2.516   5.144
 6898SOL     OW21592   1.405   6.581   1.146
 6898SOL    HW121593   1.448   6.494   1.123
 6898SOL    HW221594   1.411   6.597   1.244
 6899SOL     OW21595   6.198   5.957   2.474
 6899SOL    HW121596   6.170   6.052   2.467
 6899SOL    HW221597   6.158   5.904   2.399
 6900SOL     OW21598   6.535   3.536   5.168
 6900SOL    HW121599   6.491   3.528   5.079
 6900SOL    HW221600   6.468   3.566   5.236
 6901SOL     OW21601   5.614   5.049   6.205
 6901SOL    HW121602   5.547   5.079   6.272
 6901SOL    HW221603   5.669   4.975   6.243
 6902SOL     OW21604   0.230   5.566   5.957
 6902SOL    HW121605   0.203   5.519   5.873
 6902SOL    HW221606   0.204   5.511   6.037
 6903SOL     OW21607   1.274   6.046   4.310
 6903SOL    HW121608   1.367   6.010   4.314
 6903SOL    HW221609   1.232   6.040   4.400
 6904SOL     OW21610   0.048   0.452   6.033
 6904SOL    HW121611   0.058   0.354   6.049
 6904SOL    HW221612   0.134   0.490   5.998
 6905SOL     OW21613   5.171   6.171   5.832
 6905SOL    HW121614   5.172   6.216   5.743
 6905SOL    HW221615   5.120   6.085   5.826
 6906SOL     OW21616   3.187   0.906   3.854
 6906SOL    HW121617   3.262   0.971   3.845
 6906SOL    HW221618   3.111   0.949   3.904
 6907SOL     OW21619   6.175   1.760   0.690
 6907SOL    HW121620   6.086   1.806   0.694
 6907SOL    HW221621   6.160   1.662   0.677
 6908SOL     OW21622   3.160   5.103   0.415
 6908SOL    HW121623   3.080   5.083   0.473
 6908SOL    HW221624   3.130   5.115   0.321
 6909SOL     OW21625   5.668   4.738   2.355
 6909SOL    HW121626   5.729   4.666   2.387
 6909SOL    HW221627   5.701   4.774   2.269
 6910SOL     OW21628   0.788   2.124   2.589
 6910SOL    HW121629   0.789   2.092   2.684
 6910SOL    HW221630   0.828   2.215   2.584
 6911SOL     OW21631   1.956   6.188   5.617
 6911SOL    HW121632   1.952   6.137   5.531
 6911SOL    HW221633   2.047   6.227   5.628
 6912SOL     OW21634   2.714   4.121   0.050
 6912SOL    HW121635   2.693   4.111   6.972
 6912SOL    HW221636   2.813   4.125   0.062
 6913SOL     OW21637   4.548   5.934   5.890
 6913SOL    HW121638   4.528   6.008   5.826
 6913SOL    HW221639   4.510   5.957   5.980
 6914SOL     OW21640   5.728   2.454   1.907
 6914SOL    HW121641   5.752   2.437   2.002
 6914SOL    HW221642   5.670   2.379   1.873
 6915SOL     OW21643   6.796   3.488   3.725
 6915SOL    HW121644   6.852   3.484   3.808
 6915SOL    HW221645   6.829   3.562   3.667
 6916SOL     OW21646   4.686   6.356   6.251
 6916SOL    HW121647   4.765   6.297   6.236
 6916SOL    HW221648   4.667   6.408   6.167
 6917SOL     OW21649   3.704   6.461   2.131
 6917SOL    HW121650   3.777   6.508   2.181
 6917SOL    HW221651   3.622   6.457   2.189
 6918SOL     OW21652   2.088   3.632   0.455
 6918SOL    HW121653   1.995   3.664   0.475
 6918SOL    HW221654   2.091   3.533   0.462
 6919SOL     OW21655   6.003   6.168   3.751
 6919SOL    HW121656   6.005   6.218   3.838
 6919SOL    HW221657   5.917   6.186   3.704
 6920SOL     OW21658   6.127   1.521   5.893
 6920SOL    HW121659   6.142   1.609   5.848
 6920SOL    HW221660   6.216   1.479   5.914
 6921SOL     OW21661   4.279   0.181   4.504
 6921SOL    HW121662   4.319   0.269   4.477
 6921SOL    HW221663   4.297   0.165   4.601
 6922SOL     OW21664   1.949   5.425   6.767
 6922SOL    HW121665   2.033   5.454   6.721
 6922SOL    HW221666   1.922   5.334   6.733
 6923SOL     OW21667   5.414   0.102   2.632
 6923SOL    HW121668   5.508   0.096   2.665
 6923SOL    HW221669   5.413   0.102   2.532
 6924SOL     OW21670   3.167   5.541   1.864
 6924SOL    HW121671   3.164   5.638   1.887
 6924SOL    HW221672   3.189   5.531   1.767
 6925SOL     OW21673   5.906   6.696   5.054
 6925SOL    HW121674   5.858   6.762   5.113
 6925SOL    HW221675   5.851   6.677   4.973
 6926SOL     OW21676   2.966   2.429   0.072
 6926SOL    HW121677   2.926   2.341   0.047
 6926SOL    HW221678   2.902   2.479   0.131
 6927SOL     OW21679   4.289   0.150   0.389
 6927SOL    HW121680   4.198   0.180   0.360
 6927SOL    HW221681   4.312   0.064   0.344
 6928SOL     OW21682   3.544   5.211   7.002
 6928SOL    HW121683   3.607   5.162   0.043
 6928SOL    HW221684   3.596   5.272   6.943
 6929SOL     OW21685   4.973   5.172   2.459
 6929SOL    HW121686   4.988   5.142   2.553
 6929SOL    HW221687   4.902   5.243   2.458
 6930SOL     OW21688   0.756   6.662   1.883
 6930SOL    HW121689   0.685   6.593   1.894
 6930SOL    HW221690   0.821   6.631   1.813
 6931SOL     OW21691   3.086   3.341   1.026
 6931SOL    HW121692   3.047   3.322   0.935
 6931SOL    HW221693   3.042   3.282   1.094
 6932SOL     OW21694   3.680   0.131   6.106
 6932SOL    HW121695   3.729   0.115   6.021
 6932SOL    HW221696   3.582   0.142   6.087
 6933SOL     OW21697   3.075   5.240   6.137
 6933SOL    HW121698   3.133   5.306   6.185
 6933SOL    HW221699   2.979   5.265   6.149
 6934SOL     OW21700   4.919   5.313   6.928
 6934SOL    HW121701   4.923   5.257   6.845
 6934SOL    HW221702   4.833   5.297   6.975
 6935SOL     OW21703   4.080   5.867   1.821
 6935SOL    HW121704   4.076   5.798   1.893
 6935SOL    HW221705   4.063   5.824   1.733
 6936SOL     OW21706   0.779   1.863   5.754
 6936SOL    HW121707   0.702   1.815   5.713
 6936SOL    HW221708   0.842   1.798   5.795
 6937SOL     OW21709   5.872   5.391   0.324
 6937SOL    HW121710   5.863   5.490   0.313
 6937SOL    HW221711   5.957   5.370   0.372
 6938SOL     OW21712   2.521   1.417   4.926
 6938SOL    HW121713   2.459   1.492   4.952
 6938SOL    HW221714   2.468   1.333   4.913
 6939SOL     OW21715   5.604   3.611   3.869
 6939SOL    HW121716   5.557   3.537   3.916
 6939SOL    HW221717   5.590   3.603   3.771
 6940SOL     OW21718   2.574   6.455   0.867
 6940SOL    HW121719   2.513   6.377   0.878
 6940SOL    HW221720   2.665   6.423   0.840
 6941SOL     OW21721   3.662   3.703   2.613
 6941SOL    HW121722   3.744   3.758   2.621
 6941SOL    HW221723   3.655   3.640   2.691
 6942SOL     OW21724   6.111   5.224   2.633
 6942SOL    HW121725   6.174   5.208   2.708
 6942SOL    HW221726   6.092   5.138   2.585
 6943SOL     OW21727   4.843   4.776   6.734
 6943SOL    HW121728   4.793   4.760   6.819
 6943SOL    HW221729   4.869   4.688   6.693
 6944SOL     OW21730   1.283   4.580   5.211
 6944SOL    HW121731   1.222   4.656   5.189
 6944SOL    HW221732   1.260   4.501   5.154
 6945SOL     OW21733   5.599   1.746   0.813
 6945SOL    HW121734   5.586   1.835   0.857
 6945SOL    HW221735   5.583   1.673   0.879
 6946SOL     OW21736   5.476   6.332   2.799
 6946SOL    HW121737   5.550   6.330   2.866
 6946SOL    HW221738   5.391   6.361   2.845
 6947SOL     OW21739   6.348   4.065   5.289
 6947SOL    HW121740   6.248   4.067   5.279
 6947SOL    HW221741   6.390   4.122   5.219
 6948SOL     OW21742   0.132   4.376   6.831
 6948SOL    HW121743   0.196   4.398   6.758
 6948SOL    HW221744   0.058   4.443   6.832
 6949SOL     OW21745   2.581   1.374   2.942
 6949SOL    HW121746   2.515   1.374   2.866
 6949SOL    HW221747   2.536   1.409   3.024
 6950SOL     OW21748   1.089   0.799   4.231
 6950SOL    HW121749   1.022   0.828   4.300
 6950SOL    HW221750   1.101   0.700   4.235
 6951SOL     OW21751   1.152   3.894   6.906
 6951SOL    HW121752   1.199   3.966   6.955
 6951SOL    HW221753   1.110   3.932   6.823
 6952SOL     OW21754   5.320   5.751   4.168
 6952SOL    HW121755   5.381   5.706   4.234
 6952SOL    HW221756   5.345   5.848   4.161
 6953SOL     OW21757   6.273   1.291   1.346
 6953SOL    HW121758   6.292   1.200   1.381
 6953SOL    HW221759   6.358   1.339   1.328
 6954SOL     OW21760   0.023   4.699   6.518
 6954SOL    HW121761   0.121   4.686   6.528
 6954SOL    HW221762   6.999   4.695   6.608
 6955SOL     OW21763   4.939   5.971   2.783
 6955SOL    HW121764   4.961   6.058   2.827
 6955SOL    HW221765   4.953   5.896   2.849
 6956SOL     OW21766   5.397   5.114   2.325
 6956SOL    HW121767   5.448   5.123   2.239
 6956SOL    HW221768   5.326   5.044   2.315
 6957SOL     OW21769   6.336   5.114   5.040
 6957SOL    HW121770   6.283   5.160   5.111
 6957SOL    HW221771   6.414   5.067   5.081
 6958SOL     OW21772   3.814   3.267   2.844
 6958SOL    HW121773   3.775   3.317   2.766
 6958SOL    HW221774   3.742   3.216   2.890
 6959SOL     OW21775   1.771   3.788   2.854
 6959SOL    HW121776   1.837   3.849   2.900
 6959SOL    HW221777   1.817   3.740   2.779
 6960SOL     OW21778   4.329   4.530   0.190
 6960SOL    HW121779   4.235   4.525   0.223
 6960SOL    HW221780   4.388   4.475   0.250
 6961SOL     OW21781   4.660   2.515   5.411
 6961SOL    HW121782   4.585   2.576   5.385
 6961SOL    HW221783   4.660   2.435   5.352
 6962SOL     OW21784   2.655   6.304   0.224
 6962SOL    HW121785   2.675   6.292   0.321
 6962SOL    HW221786   2.602   6.227   0.191
 6963SOL     OW21787   6.564   6.051   6.772
 6963SOL    HW121788   6.626   6.127   6.795
 6963SOL    HW221789   6.530   6.010   6.857
 6964SOL     OW21790   2.089   1.154   5.409
 6964SOL    HW121791   2.067   1.057   5.400
 6964SOL    HW221792   2.047   1.205   5.335
 6965SOL     OW21793   1.496   1.190   6.782
 6965SOL    HW121794   1.465   1.179   6.688
 6965SOL    HW221795   1.433   1.250   6.831
 6966SOL     OW21796   0.700   6.553   1.219
 6966SOL    HW121797   0.701   6.478   1.285
 6966SOL    HW221798   0.781   6.610   1.232
 6967SOL     OW21799   4.231   1.070   6.658
 6967SOL    HW121800   4.327   1.084   6.682
 6967SOL    HW221801   4.189   1.157   6.634
 6968SOL     OW21802   3.782   0.442   2.803
 6968SOL    HW121803   3.879   0.454   2.784
 6968SOL    HW221804   3.764   0.346   2.824
 6969SOL     OW21805   2.220   2.424   2.012
 6969SOL    HW121806   2.295   2.490   2.004
 6969SOL    HW221807   2.138   2.462   1.970
 6970SOL     OW21808   3.690   5.170   5.552
 6970SOL    HW121809   3.745   5.097   5.511
 6970SOL    HW221810   3.699   5.254   5.498
 6971SOL     OW21811   6.339   4.235   0.365
 6971SOL    HW121812   6.242   4.246   0.344
 6971SOL    HW221813   6.373   4.151   0.322
 6972SOL     OW21814   5.521   4.016   1.474
 6972SOL    HW121815   5.490   3.922   1.488
 6972SOL    HW221816   5.447   4.080   1.499
 6973SOL     OW21817   1.541   1.668   2.425
 6973SOL    HW121818   1.630   1.629   2.399
 6973SOL    HW221819   1.497   1.607   2.491
 6974SOL     OW21820   3.969   3.419   3.383
 6974SOL    HW121821   3.990   3.361   3.462
 6974SOL    HW221822   3.908   3.370   3.321
 6975SOL     OW21823   3.055   5.749   4.287
 6975SOL    HW121824   3.124   5.813   4.253
 6975SOL    HW221825   3.092   5.698   4.365
 6976SOL     OW21826   4.705   4.485   5.770
 6976SOL    HW121827   4.799   4.468   5.741
 6976SOL    HW221828   4.655   4.529   5.696
 6977SOL     OW21829   4.873   4.817   1.990
 6977SOL    HW121830   4.787   4.778   2.024
 6977SOL    HW221831   4.939   4.821   2.065
 6978SOL     OW21832   0.256   3.570   0.631
 6978SOL    HW121833   0.226   3.598   0.722
 6978SOL    HW221834   0.182   3.523   0.584
 6979SOL     OW21835   0.887   3.552   2.868
 6979SOL    HW121836   0.979   3.518   2.852
 6979SOL    HW221837   0.833   3.483   2.916
 6980SOL     OW21838   2.595   5.042   3.445
 6980SOL    HW121839   2.570   4.958   3.495
 6980SOL    HW221840   2.664   5.021   3.377
 6981SOL     OW21841   4.469   2.908   6.849
 6981SOL    HW121842   4.471   2.824   6.903
 6981SOL    HW221843   4.556   2.918   6.800
 6982SOL     OW21844   0.600   0.939   1.999
 6982SOL    HW121845   0.663   1.016   2.004
 6982SOL    HW221846   0.640   0.867   1.943
 6983SOL     OW21847   6.333   0.535   4.599
 6983SOL    HW121848   6.239   0.560   4.576
 6983SOL    HW221849   6.356   0.572   4.689
 6984SOL     OW21850   1.387   2.959   3.109
 6984SOL    HW121851   1.288   2.954   3.119
 6984SOL    HW221852   1.417   3.053   3.123
 6985SOL     OW21853   5.233   3.069   6.667
 6985SOL    HW121854   5.309   3.005   6.658
 6985SOL    HW221855   5.240   3.141   6.598
 6986SOL     OW21856   4.786   4.780   5.342
 6986SOL    HW121857   4.875   4.779   5.388
 6986SOL    HW221858   4.798   4.807   5.247
 6987SOL     OW21859   0.027   1.175   6.711
 6987SOL    HW121860   6.946   1.175   6.706
 6987SOL    HW221861   0.055   1.171   6.806
 6988SOL     OW21862   2.426   1.536   6.477
 6988SOL    HW121863   2.490   1.522   6.402
 6988SOL    HW221864   2.354   1.598   6.448
 6989SOL     OW21865   0.885   3.531   2.566
 6989SOL    HW121866   0.793   3.556   2.536
 6989SOL    HW221867   0.898   3.558   2.661
 6990SOL     OW21868   4.346   3.504   6.913
 6990SOL    HW121869   4.359   3.480   6.817
 6990SOL    HW221870   4.333   3.421   6.967
 6991SOL     OW21871   5.787   3.481   2.614
 6991SOL    HW121872   5.747   3.537   2.687
 6991SOL    HW221873   5.714   3.428   2.569
 6992SOL     OW21874   0.831   5.325   0.186
 6992SOL    HW121875   0.753   5.270   0.214
 6992SOL    HW221876   0.908   5.311   0.249
 6993SOL     OW21877   3.630   2.435   1.489
 6993SOL    HW121878   3.703   2.380   1.530
 6993SOL    HW221879   3.564   2.374   1.445
 6994SOL     OW21880   2.886   1.393   3.249
 6994SOL    HW121881   2.862   1.442   3.333
 6994SOL    HW221882   2.985   1.395   3.236
 6995SOL     OW21883   0.365   3.946   1.031
 6995SOL    HW121884   0.279   3.919   1.076
 6995SOL    HW221885   0.364   4.044   1.013
 6996SOL     OW21886   1.365   0.951   6.540
 6996SOL    HW121887   1.431   0.882   6.570
 6996SOL    HW221888   1.290   0.906   6.492
 6997SOL     OW21889   6.491   6.353   6.148
 6997SOL    HW121890   6.588   6.367   6.169
 6997SOL    HW221891   6.439   6.346   6.234
 6998SOL     OW21892   0.204   0.501   0.183
 6998SOL    HW121893   0.220   0.539   0.274
 6998SOL    HW221894   0.289   0.460   0.149
 6999SOL     OW21895   0.095   2.633   0.020
 6999SOL    HW121896   0.061   2.578   0.096
 6999SOL    HW221897   0.019   2.684   6.998
 7000SOL     OW21898   0.239   5.471   3.691
 7000SOL    HW121899   0.205   5.397   3.634
 7000SOL    HW221900   0.202   5.558   3.659
 7001SOL     OW21901   6.727   1.716   4.677
 7001SOL    HW121902   6.630   1.695   4.689
 7001SOL    HW221903   6.749   1.803   4.721
 7002SOL     OW21904   1.177   5.214   2.594
 7002SOL    HW121905   1.131   5.295   2.559
 7002SOL    HW221906   1.276   5.223   2.581
 7003SOL     OW21907   0.536   4.746   0.155
 7003SOL    HW121908   0.477   4.720   0.231
 7003SOL    HW221909   0.563   4.664   0.104
 7004SOL     OW21910   1.727   0.092   0.241
 7004SOL    HW121911   1.629   0.074   0.235
 7004SOL    HW221912   1.758   0.081   0.335
 7005SOL     OW21913   1.198   5.917   0.078
 7005SOL    HW121914   1.194   5.825   0.039
 7005SOL    HW221915   1.106   5.950   0.095
 7006SOL     OW21916   0.438   0.141   3.982
 7006SOL    HW121917   0.516   0.078   3.990
 7006SOL    HW221918   0.453   0.220   4.041
 7007SOL     OW21919   2.187   0.340   5.972
 7007SOL    HW121920   2.108   0.284   5.996
 7007SOL    HW221921   2.218   0.390   6.052
 7008SOL     OW21922   5.550   3.596   3.605
 7008SOL    HW121923   5.570   3.692   3.589
 7008SOL    HW221924   5.562   3.544   3.521
 7009SOL     OW21925   5.128   5.773   2.420
 7009SOL    HW121926   5.157   5.788   2.515
 7009SOL    HW221927   5.199   5.723   2.371
 7010SOL     OW21928   4.784   2.952   2.532
 7010SOL    HW121929   4.821   2.970   2.441
 7010SOL    HW221930   4.720   3.024   2.557
 7011SOL     OW21931   2.408   6.666   5.752
 7011SOL    HW121932   2.405   6.721   5.836
 7011SOL    HW221933   2.336   6.696   5.690
 7012SOL     OW21934   6.938   2.948   0.549
 7012SOL    HW121935   6.847   2.989   0.538
 7012SOL    HW221936   6.963   2.945   0.645
 7013SOL     OW21937   3.203   2.862   0.439
 7013SOL    HW121938   3.104   2.862   0.453
 7013SOL    HW221939   3.243   2.939   0.490
 7014SOL     OW21940   5.447   3.338   0.794
 7014SOL    HW121941   5.471   3.426   0.834
 7014SOL    HW221942   5.524   3.275   0.803
 7015SOL     OW21943   5.796   6.424   1.592
 7015SOL    HW121944   5.838   6.370   1.519
 7015SOL    HW221945   5.845   6.511   1.602
 7016SOL     OW21946   3.236   4.813   0.893
 7016SOL    HW121947   3.246   4.863   0.807
 7016SOL    HW221948   3.324   4.813   0.942
 7017SOL     OW21949   6.156   4.712   5.708
 7017SOL    HW121950   6.075   4.681   5.758
 7017SOL    HW221951   6.190   4.638   5.650
 7018SOL     OW21952   5.185   3.775   5.082
 7018SOL    HW121953   5.107   3.744   5.136
 7018SOL    HW221954   5.152   3.829   5.004
 7019SOL     OW21955   3.975   5.231   2.237
 7019SOL    HW121956   3.917   5.240   2.157
 7019SOL    HW221957   3.926   5.262   2.318
 7020SOL     OW21958   0.955   2.157   5.986
 7020SOL    HW121959   0.884   2.121   6.046
 7020SOL    HW221960   1.021   2.210   6.041
 7021SOL     OW21961   0.871   1.938   4.753
 7021SOL    HW121962   0.840   2.029   4.779
 7021SOL    HW221963   0.837   1.916   4.661
 7022SOL     OW21964   2.481   3.303   0.991
 7022SOL    HW121965   2.449   3.301   0.896
 7022SOL    HW221966   2.523   3.392   1.010
 7023SOL     OW21967   0.574   1.643   0.872
 7023SOL    HW121968   0.522   1.567   0.910
 7023SOL    HW221969   0.601   1.706   0.946
 7024SOL     OW21970   3.221   4.056   4.697
 7024SOL    HW121971   3.241   4.082   4.602
 7024SOL    HW221972   3.204   3.958   4.701
 7025SOL     OW21973   3.039   0.554   1.154
 7025SOL    HW121974   2.969   0.616   1.119
 7025SOL    HW221975   3.116   0.607   1.190
 7026SOL     OW21976   3.161   2.462   0.930
 7026SOL    HW121977   3.220   2.501   0.859
 7026SOL    HW221978   3.175   2.512   1.016
 7027SOL     OW21979   3.284   4.847   2.039
 7027SOL    HW121980   3.382   4.835   2.027
 7027SOL    HW221981   3.243   4.761   2.070
 7028SOL     OW21982   3.324   0.157   3.360
 7028SOL    HW121983   3.423   0.172   3.367
 7028SOL    HW221984   3.304   0.062   3.380
 7029SOL     OW21985   3.285   3.640   3.587
 7029SOL    HW121986   3.205   3.635   3.528
 7029SOL    HW221987   3.358   3.582   3.551
 7030SOL     OW21988   6.406   0.173   4.693
 7030SOL    HW121989   6.308   0.174   4.714
 7030SOL    HW221990   6.445   0.084   4.715
 7031SOL     OW21991   4.790   5.976   0.484
 7031SOL    HW121992   4.866   5.919   0.454
 7031SOL    HW221993   4.718   5.976   0.414
 7032SOL     OW21994   4.593   4.884   4.108
 7032SOL    HW121995   4.667   4.944   4.139
 7032SOL    HW221996   4.527   4.872   4.181
 7033SOL     OW21997   1.374   1.201   5.673
 7033SOL    HW121998   1.440   1.138   5.714
 7033SOL    HW221999   1.409   1.295   5.681
 7034SOL     OW22000   6.081   1.015   2.089
 7034SOL    HW122001   6.089   1.056   2.180
 7034SOL    HW222002   6.171   0.982   2.059
 7035SOL     OW22003   2.717   0.933   1.412
 7035SOL    HW122004   2.714   0.928   1.511
 7035SOL    HW222005   2.793   0.992   1.384
 7036SOL     OW22006   6.284   1.455   1.703
 7036SOL    HW122007   6.261   1.370   1.658
 7036SOL    HW222008   6.201   1.501   1.733
 7037SOL     OW22009   1.490   0.583   6.137
 7037SOL    HW122010   1.499   0.488   6.109
 7037SOL    HW222011   1.461   0.586   6.233
 7038SOL     OW22012   1.293   4.202   0.399
 7038SOL    HW122013   1.309   4.114   0.355
 7038SOL    HW222014   1.224   4.192   0.471
 7039SOL     OW22015   0.095   6.886   1.892
 7039SOL    HW122016   0.189   6.897   1.860
 7039SOL    HW222017   0.077   6.952   1.965
 7040SOL     OW22018   5.604   2.229   4.546
 7040SOL    HW122019   5.632   2.245   4.640
 7040SOL    HW222020   5.534   2.158   4.543
 7041SOL     OW22021   1.065   0.255   4.282
 7041SOL    HW122022   1.139   0.200   4.321
 7041SOL    HW222023   1.034   0.212   4.197
 7042SOL     OW22024   5.695   6.190   5.485
 7042SOL    HW122025   5.756   6.117   5.455
 7042SOL    HW222026   5.605   6.153   5.506
 7043SOL     OW22027   1.606   6.075   0.882
 7043SOL    HW122028   1.666   6.045   0.957
 7043SOL    HW222029   1.659   6.078   0.797
 7044SOL     OW22030   4.958   6.052   5.036
 7044SOL    HW122031   4.893   6.115   4.994
 7044SOL    HW222032   4.938   5.959   5.006
 7045SOL     OW22033   6.132   5.838   1.766
 7045SOL    HW122034   6.195   5.762   1.774
 7045SOL    HW222035   6.038   5.804   1.762
 7046SOL     OW22036   2.203   1.827   3.834
 7046SOL    HW122037   2.294   1.864   3.852
 7046SOL    HW222038   2.165   1.790   3.919
 7047SOL     OW22039   1.027   6.622   0.474
 7047SOL    HW122040   1.051   6.675   0.555
 7047SOL    HW222041   1.105   6.568   0.445
 7048SOL     OW22042   1.002   6.270   3.406
 7048SOL    HW122043   1.082   6.283   3.464
 7048SOL    HW222044   0.920   6.299   3.455
 7049SOL     OW22045   3.698   1.696   4.311
 7049SOL    HW122046   3.634   1.732   4.244
 7049SOL    HW222047   3.665   1.607   4.344
 7050SOL     OW22048   4.018   4.238   0.637
 7050SOL    HW122049   3.985   4.330   0.613
 7050SOL    HW222050   4.099   4.246   0.695
 7051SOL     OW22051   1.140   2.102   1.563
 7051SOL    HW122052   1.105   2.029   1.504
 7051SOL    HW222053   1.094   2.098   1.652
 7052SOL     OW22054   4.372   1.653   2.513
 7052SOL    HW122055   4.310   1.714   2.562
 7052SOL    HW222056   4.464   1.692   2.512
 7053SOL     OW22057   1.113   3.601   3.511
 7053SOL    HW122058   1.164   3.622   3.428
 7053SOL    HW222059   1.016   3.619   3.497
 7054SOL     OW22060   4.933   6.973   6.867
 7054SOL    HW122061   5.016   7.004   6.915
 7054SOL    HW222062   4.948   6.980   6.768
 7055SOL     OW22063   2.425   0.504   0.438
 7055SOL    HW122064   2.361   0.487   0.363
 7055SOL    HW222065   2.400   0.447   0.516
 7056SOL     OW22066   6.999   4.972   1.143
 7056SOL    HW122067   0.035   4.910   1.198
 7056SOL    HW222068   0.036   5.014   1.073
 7057SOL     OW22069   3.174   5.615   4.498
 7057SOL    HW122070   3.259   5.565   4.486
 7057SOL    HW222071   3.186   5.683   4.570
 7058SOL     OW22072   6.443   2.314   6.399
 7058SOL    HW122073   6.396   2.356   6.321
 7058SOL    HW222074   6.515   2.376   6.431
 7059SOL     OW22075   1.851   6.953   5.331
 7059SOL    HW122076   1.763   7.000   5.343
 7059SOL    HW222077   1.871   6.899   5.412
 7060SOL     OW22078   3.362   2.361   1.389
 7060SOL    HW122079   3.321   2.412   1.314
 7060SOL    HW222080   3.324   2.393   1.476
 7061SOL     OW22081   1.236   1.162   1.381
 7061SOL    HW122082   1.230   1.063   1.371
 7061SOL    HW222083   1.293   1.200   1.308
 7062SOL     OW22084   3.423   0.485   4.286
 7062SOL    HW122085   3.454   0.398   4.324
 7062SOL    HW222086   3.331   0.473   4.247
 7063SOL     OW22087   0.073   1.531   1.325
 7063SOL    HW122088   0.002   1.483   1.378
 7063SOL    HW222089   0.083   1.487   1.236
 7064SOL     OW22090   2.988   1.651   5.270
 7064SOL    HW122091   2.908   1.702   5.302
 7064SOL    HW222092   2.999   1.569   5.327
 7065SOL     OW22093   3.984   5.398   5.303
 7065SOL    HW122094   4.081   5.375   5.307
 7065SOL    HW222095   3.971   5.495   5.324
 7066SOL     OW22096   3.616   6.906   1.329
 7066SOL    HW122097   3.539   6.856   1.369
 7066SOL    HW222098   3.583   6.991   1.289
 7067SOL     OW22099   2.467   3.703   6.010
 7067SOL    HW122100   2.424   3.754   6.085
 7067SOL    HW222101   2.407   3.705   5.931
 7068SOL     OW22102   5.118   4.558   4.494
 7068SOL    HW122103   5.053   4.483   4.484
 7068SOL    HW222104   5.183   4.556   4.418
 7069SOL     OW22105   5.035   0.960   6.067
 7069SOL    HW122106   4.951   0.931   6.112
 7069SOL    HW222107   5.089   0.880   6.041
 7070SOL     OW22108   0.880   0.452   5.794
 7070SOL    HW122109   0.882   0.371   5.734
 7070SOL    HW222110   0.881   0.422   5.890
 7071SOL     OW22111   4.631   6.265   6.648
 7071SOL    HW122112   4.649   6.360   6.622
 7071SOL    HW222113   4.696   6.205   6.602
 7072SOL     OW22114   0.699   3.786   6.407
 7072SOL    HW122115   0.651   3.731   6.476
 7072SOL    HW222116   0.639   3.860   6.376
 7073SOL     OW22117   4.934   1.559   3.616
 7073SOL    HW122118   4.872   1.481   3.613
 7073SOL    HW222119   4.891   1.634   3.667
 7074SOL     OW22120   5.442   3.919   2.729
 7074SOL    HW122121   5.347   3.932   2.701
 7074SOL    HW222122   5.503   3.947   2.656
 7075SOL     OW22123   2.409   5.207   3.074
 7075SOL    HW122124   2.312   5.211   3.047
 7075SOL    HW222125   2.421   5.136   3.143
 7076SOL     OW22126   5.548   1.975   0.971
 7076SOL    HW122127   5.449   1.987   0.963
 7076SOL    HW222128   5.571   1.950   1.065
 7077SOL     OW22129   3.675   5.978   1.611
 7077SOL    HW122130   3.686   5.982   1.710
 7077SOL    HW222131   3.677   5.882   1.581
 7078SOL     OW22132   6.516   1.099   6.916
 7078SOL    HW122133   6.445   1.049   6.866
 7078SOL    HW222134   6.602   1.048   6.910
 7079SOL     OW22135   1.791   5.487   4.759
 7079SOL    HW122136   1.868   5.532   4.805
 7079SOL    HW222137   1.706   5.533   4.785
 7080SOL     OW22138   3.946   1.796   6.232
 7080SOL    HW122139   3.927   1.893   6.216
 7080SOL    HW222140   4.000   1.760   6.156
 7081SOL     OW22141   2.319   6.817   0.284
 7081SOL    HW122142   2.272   6.905   0.279
 7081SOL    HW222143   2.294   6.772   0.370
 7082SOL     OW22144   0.639   3.573   2.503
 7082SOL    HW122145   0.623   3.629   2.421
 7082SOL    HW222146   0.623   3.477   2.482
 7083SOL     OW22147   5.074   2.648   3.382
 7083SOL    HW122148   5.036   2.692   3.300
 7083SOL    HW222149   5.003   2.638   3.451
 7084SOL     OW22150   1.072   4.850   0.697
 7084SOL    HW122151   1.115   4.820   0.612
 7084SOL    HW222152   1.040   4.771   0.748
 7085SOL     OW22153   0.514   4.080   2.328
 7085SOL    HW122154   0.442   4.030   2.281
 7085SOL    HW222155   0.535   4.164   2.278
 7086SOL     OW22156   5.371   0.700   3.756
 7086SOL    HW122157   5.407   0.667   3.669
 7086SOL    HW222158   5.300   0.769   3.738
 7087SOL     OW22159   4.873   2.536   3.506
 7087SOL    HW122160   4.816   2.609   3.468
 7087SOL    HW222161   4.823   2.450   3.504
 7088SOL     OW22162   6.675   2.498   5.115
 7088SOL    HW122163   6.677   2.502   5.215
 7088SOL    HW222164   6.708   2.409   5.085
 7089SOL     OW22165   2.505   5.458   1.001
 7089SOL    HW122166   2.596   5.494   0.980
 7089SOL    HW222167   2.445   5.534   1.026
 7090SOL     OW22168   4.376   3.046   0.793
 7090SOL    HW122169   4.283   3.027   0.823
 7090SOL    HW222170   4.376   3.066   0.695
 7091SOL     OW22171   6.762   6.676   0.182
 7091SOL    HW122172   6.772   6.697   0.279
 7091SOL    HW222173   6.749   6.760   0.130
 7092SOL     OW22174   4.434   6.956   6.729
 7092SOL    HW122175   4.433   6.867   6.684
 7092SOL    HW222176   4.370   7.017   6.683
 7093SOL     OW22177   3.479   3.374   0.357
 7093SOL    HW122178   3.442   3.356   0.448
 7093SOL    HW222179   3.566   3.325   0.346
 7094SOL     OW22180   4.392   0.803   5.453
 7094SOL    HW122181   4.341   0.747   5.519
 7094SOL    HW222182   4.465   0.851   5.500
 7095SOL     OW22183   2.539   5.227   4.391
 7095SOL    HW122184   2.495   5.137   4.396
 7095SOL    HW222185   2.615   5.230   4.455
 7096SOL     OW22186   6.480   6.613   0.808
 7096SOL    HW122187   6.528   6.610   0.896
 7096SOL    HW222188   6.543   6.642   0.737
 7097SOL     OW22189   4.731   1.329   2.555
 7097SOL    HW122190   4.641   1.311   2.516
 7097SOL    HW222191   4.798   1.338   2.482
 7098SOL     OW22192   0.875   1.348   3.321
 7098SOL    HW122193   0.961   1.395   3.338
 7098SOL    HW222194   0.892   1.251   3.303
 7099SOL     OW22195   3.447   2.045   4.521
 7099SOL    HW122196   3.543   2.071   4.531
 7099SOL    HW222197   3.406   2.035   4.612
 7100SOL     OW22198   0.244   3.792   1.442
 7100SOL    HW122199   0.324   3.757   1.394
 7100SOL    HW222200   0.261   3.886   1.471
 7101SOL     OW22201   2.678   5.832   4.520
 7101SOL    HW122202   2.681   5.767   4.445
 7101SOL    HW222203   2.770   5.846   4.556
 7102SOL     OW22204   5.851   1.372   3.210
 7102SOL    HW122205   5.933   1.330   3.248
 7102SOL    HW222206   5.867   1.470   3.196
 7103SOL     OW22207   4.847   3.755   4.038
 7103SOL    HW122208   4.933   3.797   4.065
 7103SOL    HW222209   4.857   3.712   3.948
 7104SOL     OW22210   5.469   3.080   4.812
 7104SOL    HW122211   5.491   3.021   4.890
 7104SOL    HW222212   5.520   3.050   4.732
 7105SOL     OW22213   3.335   4.076   2.755
 7105SOL    HW122214   3.314   4.132   2.835
 7105SOL    HW222215   3.433   4.060   2.750
 7106SOL     OW22216   3.038   1.652   2.663
 7106SOL    HW122217   2.955   1.643   2.718
 7106SOL    HW222218   3.014   1.669   2.568
 7107SOL     OW22219   3.633   1.522   6.348
 7107SOL    HW122220   3.670   1.455   6.284
 7107SOL    HW222221   3.679   1.513   6.437
 7108SOL     OW22222   3.981   0.051   1.950
 7108SOL    HW122223   4.075   0.082   1.967
 7108SOL    HW222224   3.979   6.971   1.949
 7109SOL     OW22225   3.245   5.544   6.032
 7109SOL    HW122226   3.289   5.480   5.969
 7109SOL    HW222227   3.262   5.515   6.127
 7110SOL     OW22228   2.579   6.181   4.848
 7110SOL    HW122229   2.590   6.230   4.761
 7110SOL    HW222230   2.655   6.118   4.860
 7111SOL     OW22231   6.555   0.851   5.226
 7111SOL    HW122232   6.646   0.831   5.263
 7111SOL    HW222233   6.564   0.914   5.148
 7112SOL     OW22234   0.667   4.900   5.111
 7112SOL    HW122235   0.679   4.961   5.032
 7112SOL    HW222236   0.686   4.950   5.195
 7113SOL     OW22237   3.251   6.402   4.674
 7113SOL    HW122238   3.298   6.332   4.728
 7113SOL    HW222239   3.152   6.391   4.685
 7114SOL     OW22240   6.071   4.171   1.320
 7114SOL    HW122241   5.988   4.163   1.375
 7114SOL    HW222242   6.080   4.264   1.286
 7115SOL     OW22243   5.329   3.186   5.921
 7115SOL    HW122244   5.343   3.278   5.957
 7115SOL    HW222245   5.315   3.122   5.996
 7116SOL     OW22246   6.910   3.947   5.046
 7116SOL    HW122247   6.939   3.858   5.082
 7116SOL    HW222248   6.903   4.012   5.122
 7117SOL     OW22249   5.325   6.774   2.948
 7117SOL    HW122250   5.277   6.776   3.035
 7117SOL    HW222251   5.393   6.847   2.945
 7118SOL     OW22252   4.553   4.549   6.009
 7118SOL    HW122253   4.586   4.625   6.065
 7118SOL    HW222254   4.596   4.553   5.919
 7119SOL     OW22255   2.976   6.866   5.160
 7119SOL    HW122256   2.906   6.828   5.099
 7119SOL    HW222257   2.961   6.832   5.252
 7120SOL     OW22258   4.022   1.614   1.178
 7120SOL    HW122259   3.946   1.611   1.243
 7120SOL    HW222260   4.031   1.524   1.134
 7121SOL     OW22261   1.271   6.236   2.453
 7121SOL    HW122262   1.230   6.171   2.389
 7121SOL    HW222263   1.240   6.215   2.546
 7122SOL     OW22264   3.963   2.186   6.742
 7122SOL    HW122265   4.061   2.181   6.764
 7122SOL    HW222266   3.913   2.217   6.822
 7123SOL     OW22267   5.489   5.134   5.799
 7123SOL    HW122268   5.447   5.190   5.728
 7123SOL    HW222269   5.420   5.113   5.869
 7124SOL     OW22270   2.193   3.086   0.762
 7124SOL    HW122271   2.260   3.158   0.779
 7124SOL    HW222272   2.232   2.998   0.787
 7125SOL     OW22273   0.646   6.550   2.365
 7125SOL    HW122274   0.574   6.589   2.307
 7125SOL    HW222275   0.736   6.570   2.324
 7126SOL     OW22276   3.900   5.064   1.331
 7126SOL    HW122277   3.923   4.969   1.309
 7126SOL    HW222278   3.801   5.074   1.336
 7127SOL     OW22279   2.714   6.196   5.905
 7127SOL    HW122280   2.650   6.178   5.980
 7127SOL    HW222281   2.805   6.214   5.943
 7128SOL     OW22282   3.313   4.166   0.064
 7128SOL    HW122283   3.357   4.215   0.139
 7128SOL    HW222284   3.282   4.076   0.096
 7129SOL     OW22285   0.125   0.077   0.008
 7129SOL    HW122286   0.057   0.150   0.003
 7129SOL    HW222287   0.084   7.011   6.994
 7130SOL     OW22288   3.206   0.084   4.019
 7130SOL    HW122289   3.145   0.104   4.095
 7130SOL    HW222290   3.291   0.135   4.030
 7131SOL     OW22291   2.436   1.235   1.978
 7131SOL    HW122292   2.496   1.239   2.058
 7131SOL    HW222293   2.377   1.315   1.975
 7132SOL     OW22294   4.939   4.267   1.764
 7132SOL    HW122295   4.849   4.310   1.759
 7132SOL    HW222296   4.977   4.281   1.856
 7133SOL     OW22297   4.720   5.865   2.475
 7133SOL    HW122298   4.799   5.898   2.527
 7133SOL    HW222299   4.752   5.824   2.390
 7134SOL     OW22300   5.212   5.184   0.304
 7134SOL    HW122301   5.159   5.214   0.225
 7134SOL    HW222302   5.286   5.124   0.275
 7135SOL     OW22303   1.906   3.892   1.558
 7135SOL    HW122304   1.921   3.991   1.557
 7135SOL    HW222305   1.943   3.854   1.643
 7136SOL     OW22306   1.045   2.619   1.853
 7136SOL    HW122307   1.134   2.633   1.810
 7136SOL    HW222308   1.024   2.521   1.855
 7137SOL     OW22309   2.944   1.025   2.599
 7137SOL    HW122310   2.957   1.089   2.524
 7137SOL    HW222311   2.949   1.074   2.686
 7138SOL     OW22312   0.192   3.544   0.334
 7138SOL    HW122313   0.196   3.446   0.349
 7138SOL    HW222314   0.285   3.580   0.326
 7139SOL     OW22315   5.850   6.276   0.895
 7139SOL    HW122316   5.787   6.210   0.935
 7139SOL    HW222317   5.944   6.251   0.918
 7140SOL     OW22318   6.920   4.906   0.080
 7140SOL    HW122319   6.903   4.810   0.100
 7140SOL    HW222320   6.835   4.958   0.091
 7141SOL     OW22321   2.935   0.746   0.918
 7141SOL    HW122322   2.859   0.751   0.852
 7141SOL    HW222323   2.928   0.822   0.982
 7142SOL     OW22324   4.846   0.427   5.230
 7142SOL    HW122325   4.921   0.432   5.163
 7142SOL    HW222326   4.763   0.396   5.184
 7143SOL     OW22327   2.927   3.018   6.260
 7143SOL    HW122328   2.939   3.058   6.351
 7143SOL    HW222329   3.002   2.954   6.242
 7144SOL     OW22330   0.142   0.889   6.082
 7144SOL    HW122331   0.087   0.832   6.022
 7144SOL    HW222332   0.095   0.901   6.170
 7145SOL     OW22333   5.785   2.167   5.907
 7145SOL    HW122334   5.833   2.125   5.830
 7145SOL    HW222335   5.770   2.098   5.978
 7146SOL     OW22336   0.684   2.369   5.514
 7146SOL    HW122337   0.755   2.438   5.505
 7146SOL    HW222338   0.722   2.279   5.492
 7147SOL     OW22339   6.721   6.594   1.646
 7147SOL    HW122340   6.728   6.497   1.668
 7147SOL    HW222341   6.634   6.630   1.678
 7148SOL     OW22342   6.272   6.830   1.118
 7148SOL    HW122343   6.339   6.884   1.168
 7148SOL    HW222344   6.280   6.734   1.143
 7149SOL     OW22345   5.451   4.475   5.728
 7149SOL    HW122346   5.419   4.504   5.638
 7149SOL    HW222347   5.384   4.414   5.770
 7150SOL     OW22348   3.066   2.473   6.823
 7150SOL    HW122349   3.150   2.526   6.810
 7150SOL    HW222350   3.035   2.481   6.918
 7151SOL     OW22351   5.385   1.415   6.914
 7151SOL    HW122352   5.442   1.371   6.984
 7151SOL    HW222353   5.291   1.422   6.947
 7152SOL     OW22354   4.719   0.392   5.494
 7152SOL    HW122355   4.735   0.294   5.487
 7152SOL    HW222356   4.772   0.440   5.423
 7153SOL     OW22357   3.325   5.572   0.551
 7153SOL    HW122358   3.352   5.546   0.644
 7153SOL    HW222359   3.383   5.523   0.485
 7154SOL     OW22360   4.646   0.997   1.995
 7154SOL    HW122361   4.718   1.055   1.956
 7154SOL    HW222362   4.567   0.997   1.934
 7155SOL     OW22363   1.516   0.114   1.944
 7155SOL    HW122364   1.461   0.122   2.027
 7155SOL    HW222365   1.459   0.080   1.869
 7156SOL     OW22366   6.513   4.013   5.514
 7156SOL    HW122367   6.488   4.075   5.439
 7156SOL    HW222368   6.430   3.975   5.554
 7157SOL     OW22369   0.233   4.279   5.874
 7157SOL    HW122370   0.261   4.195   5.920
 7157SOL    HW222371   0.208   4.259   5.780
 7158SOL     OW22372   5.437   0.273   3.926
 7158SOL    HW122373   5.394   0.360   3.905
 7158SOL    HW222374   5.465   0.271   4.022
 7159SOL     OW22375   0.525   6.296   2.940
 7159SOL    HW122376   0.528   6.341   3.029
 7159SOL    HW222377   0.604   6.235   2.931
 7160SOL     OW22378   5.744   6.931   2.788
 7160SOL    HW122379   5.812   6.895   2.851
 7160SOL    HW222380   5.764   6.901   2.695
 7161SOL     OW22381   3.903   3.945   2.328
 7161SOL    HW122382   3.969   3.874   2.352
 7161SOL    HW222383   3.906   3.961   2.229
 7162SOL     OW22384   0.043   6.115   0.916
 7162SOL    HW122385   0.040   6.215   0.917
 7162SOL    HW222386   0.103   6.083   0.989
 7163SOL     OW22387   6.623   0.467   1.534
 7163SOL    HW122388   6.656   0.560   1.540
 7163SOL    HW222389   6.526   0.468   1.506
 7164SOL     OW22390   1.527   1.158   0.240
 7164SOL    HW122391   1.478   1.083   0.196
 7164SOL    HW222392   1.620   1.163   0.205
 7165SOL     OW22393   5.247   2.120   6.800
 7165SOL    HW122394   5.292   2.114   6.889
 7165SOL    HW222395   5.255   2.032   6.753
 7166SOL     OW22396   0.349   5.422   5.531
 7166SOL    HW122397   0.442   5.446   5.560
 7166SOL    HW222398   0.301   5.504   5.501
 7167SOL     OW22399   6.888   3.023   5.453
 7167SOL    HW122400   6.859   2.970   5.373
 7167SOL    HW222401   6.984   3.048   5.443
 7168SOL     OW22402   1.448   1.957   2.374
 7168SOL    HW122403   1.399   1.872   2.392
 7168SOL    HW222404   1.429   1.988   2.281
 7169SOL     OW22405   1.778   4.514   5.560
 7169SOL    HW122406   1.871   4.480   5.551
 7169SOL    HW222407   1.778   4.614   5.555
 7170SOL     OW22408   3.617   1.354   0.893
 7170SOL    HW122409   3.593   1.257   0.899
 7170SOL    HW222410   3.692   1.366   0.828
 7171SOL     OW22411   6.829   3.814   0.998
 7171SOL    HW122412   6.810   3.850   0.907
 7171SOL    HW222413   6.801   3.718   1.002
 7172SOL     OW22414   0.535   2.195   3.714
 7172SOL    HW122415   0.595   2.272   3.691
 7172SOL    HW222416   0.589   2.111   3.719
 7173SOL     OW22417   4.290   5.649   5.790
 7173SOL    HW122418   4.237   5.705   5.854
 7173SOL    HW222419   4.386   5.678   5.792
 7174SOL     OW22420   6.296   4.129   2.132
 7174SOL    HW122421   6.353   4.206   2.102
 7174SOL    HW222422   6.211   4.129   2.079
 7175SOL     OW22423   6.382   4.229   5.857
 7175SOL    HW122424   6.311   4.240   5.787
 7175SOL    HW222425   6.364   4.145   5.909
 7176SOL     OW22426   0.269   1.147   6.225
 7176SOL    HW122427   0.365   1.148   6.198
 7176SOL    HW222428   0.215   1.195   6.157
 7177SOL     OW22429   1.602   6.096   3.694
 7177SOL    HW122430   1.601   6.171   3.761
 7177SOL    HW222431   1.601   6.134   3.602
 7178SOL     OW22432   1.371   6.965   4.850
 7178SOL    HW122433   1.442   6.962   4.779
 7178SOL    HW222434   1.368   6.878   4.898
 7179SOL     OW22435   4.777   4.906   5.936
 7179SOL    HW122436   4.745   4.866   6.022
 7179SOL    HW222437   4.709   4.971   5.902
 7180SOL     OW22438   1.775   2.785   1.972
 7180SOL    HW122439   1.780   2.787   2.071
 7180SOL    HW222440   1.814   2.868   1.934
 7181SOL     OW22441   2.044   1.038   0.265
 7181SOL    HW122442   1.951   1.040   0.228
 7181SOL    HW222443   2.106   1.001   0.197
 7182SOL     OW22444   1.858   1.147   3.582
 7182SOL    HW122445   1.873   1.244   3.603
 7182SOL    HW222446   1.935   1.112   3.529
 7183SOL     OW22447   1.885   6.746   1.614
 7183SOL    HW122448   1.932   6.812   1.673
 7183SOL    HW222449   1.906   6.766   1.518
 7184SOL     OW22450   6.920   0.742   3.794
 7184SOL    HW122451   6.891   0.819   3.852
 7184SOL    HW222452   6.993   0.772   3.733
 7185SOL     OW22453   3.856   0.347   3.918
 7185SOL    HW122454   3.794   0.426   3.912
 7185SOL    HW222455   3.881   0.332   4.014
 7186SOL     OW22456   6.296   0.883   6.806
 7186SOL    HW122457   6.217   0.919   6.756
 7186SOL    HW222458   6.267   0.808   6.865
 7187SOL     OW22459   3.813   3.546   4.088
 7187SOL    HW122460   3.888   3.482   4.078
 7187SOL    HW222461   3.799   3.567   4.185
 7188SOL     OW22462   4.528   4.340   0.252
 7188SOL    HW122463   4.535   4.343   0.352
 7188SOL    HW222464   4.618   4.352   0.212
 7189SOL     OW22465   6.872   2.489   5.830
 7189SOL    HW122466   6.969   2.514   5.821
 7189SOL    HW222467   6.859   2.394   5.802
 7190SOL     OW22468   6.352   5.182   6.695
 7190SOL    HW122469   6.400   5.228   6.620
 7190SOL    HW222470   6.254   5.190   6.681
 7191SOL     OW22471   6.485   4.731   2.207
 7191SOL    HW122472   6.516   4.658   2.267
 7191SOL    HW222473   6.388   4.720   2.188
 7192SOL     OW22474   2.411   4.172   5.384
 7192SOL    HW122475   2.428   4.260   5.339
 7192SOL    HW222476   2.367   4.110   5.319
 7193SOL     OW22477   3.695   1.790   3.271
 7193SOL    HW122478   3.703   1.699   3.310
 7193SOL    HW222479   3.767   1.805   3.204
 7194SOL     OW22480   2.580   2.535   6.342
 7194SOL    HW122481   2.634   2.620   6.348
 7194SOL    HW222482   2.545   2.525   6.249
 7195SOL     OW22483   1.378   4.003   5.814
 7195SOL    HW122484   1.356   4.057   5.733
 7195SOL    HW222485   1.474   4.017   5.839
 7196SOL     OW22486   3.396   4.228   1.577
 7196SOL    HW122487   3.481   4.232   1.630
 7196SOL    HW222488   3.340   4.308   1.597
 7197SOL     OW22489   3.367   4.859   6.828
 7197SOL    HW122490   3.293   4.801   6.793
 7197SOL    HW222491   3.455   4.823   6.799
 7198SOL     OW22492   0.931   0.301   1.922
 7198SOL    HW122493   0.901   0.229   1.985
 7198SOL    HW222494   0.965   0.379   1.974
 7199SOL     OW22495   6.148   1.526   2.988
 7199SOL    HW122496   6.059   1.512   3.031
 7199SOL    HW222497   6.144   1.499   2.892
 7200SOL     OW22498   1.038   2.774   6.889
 7200SOL    HW122499   1.072   2.767   6.983
 7200SOL    HW222500   1.011   2.684   6.857
 7201SOL     OW22501   6.025   6.060   4.117
 7201SOL    HW122502   6.095   6.011   4.169
 7201SOL    HW222503   5.994   6.003   4.041
 7202SOL     OW22504   4.597   6.630   5.802
 7202SOL    HW122505   4.594   6.641   5.702
 7202SOL    HW222506   4.678   6.577   5.826
 7203SOL     OW22507   0.283   2.027   0.957
 7203SOL    HW122508   0.353   2.055   0.891
 7203SOL    HW222509   0.192   2.038   0.915
 7204SOL     OW22510   6.413   1.221   2.243
 7204SOL    HW122511   6.319   1.196   2.220
 7204SOL    HW222512   6.432   1.193   2.337
 7205SOL     OW22513   3.170   1.879   4.330
 7205SOL    HW122514   3.240   1.819   4.369
 7205SOL    HW222515   3.177   1.970   4.371
 7206SOL     OW22516   2.020   3.801   6.687
 7206SOL    HW122517   2.021   3.843   6.778
 7206SOL    HW222518   2.057   3.708   6.693
 7207SOL     OW22519   2.093   1.494   3.399
 7207SOL    HW122520   2.039   1.436   3.338
 7207SOL    HW222521   2.046   1.504   3.486
 7208SOL     OW22522   4.213   0.903   3.991
 7208SOL    HW122523   4.262   0.892   3.904
 7208SOL    HW222524   4.154   0.984   3.986
 7209SOL     OW22525   3.374   0.709   2.133
 7209SOL    HW122526   3.448   0.674   2.190
 7209SOL    HW222527   3.407   0.722   2.039
 7210SOL     OW22528   4.073   1.115   3.980
 7210SOL    HW122529   4.085   1.162   3.892
 7210SOL    HW222530   4.095   1.178   4.054
 7211SOL     OW22531   4.424   6.111   5.732
 7211SOL    HW122532   4.453   6.154   5.646
 7211SOL    HW222533   4.412   6.182   5.802
 7212SOL     OW22534   0.725   5.461   5.454
 7212SOL    HW122535   0.806   5.439   5.509
 7212SOL    HW222536   0.657   5.388   5.463
 7213SOL     OW22537   4.322   2.653   6.923
 7213SOL    HW122538   4.234   2.687   6.892
 7213SOL    HW222539   4.327   2.554   6.909
 7214SOL     OW22540   6.280   0.619   6.265
 7214SOL    HW122541   6.349   0.610   6.337
 7214SOL    HW222542   6.219   0.539   6.268
 7215SOL     OW22543   6.558   1.496   2.368
 7215SOL    HW122544   6.520   1.407   2.345
 7215SOL    HW222545   6.569   1.504   2.467
 7216SOL     OW22546   5.350   0.065   3.523
 7216SOL    HW122547   5.319   0.030   3.435
 7216SOL    HW222548   5.284   0.131   3.558
 7217SOL     OW22549   1.173   2.489   3.188
 7217SOL    HW122550   1.145   2.571   3.237
 7217SOL    HW222551   1.272   2.486   3.181
 7218SOL     OW22552   6.600   2.566   4.556
 7218SOL    HW122553   6.611   2.649   4.502
 7218SOL    HW222554   6.637   2.580   4.647
 7219SOL     OW22555   3.169   6.158   2.498
 7219SOL    HW122556   3.215   6.226   2.554
 7219SOL    HW222557   3.072   6.182   2.490
 7220SOL     OW22558   6.128   4.086   3.418
 7220SOL    HW122559   6.162   4.107   3.510
 7220SOL    HW222560   6.205   4.077   3.355
 7221SOL     OW22561   4.045   5.335   3.527
 7221SOL    HW122562   4.102   5.382   3.593
 7221SOL    HW222563   4.103   5.287   3.461
 7222SOL     OW22564   6.779   6.232   4.275
 7222SOL    HW122565   6.823   6.223   4.186
 7222SOL    HW222566   6.845   6.268   4.341
 7223SOL     OW22567   0.044   4.351   1.332
 7223SOL    HW122568   6.981   4.383   1.286
 7223SOL    HW222569   0.046   4.251   1.330
 7224SOL     OW22570   4.340   2.390   2.223
 7224SOL    HW122571   4.394   2.377   2.306
 7224SOL    HW222572   4.264   2.452   2.243
 7225SOL     OW22573   0.986   6.261   0.494
 7225SOL    HW122574   1.077   6.220   0.491
 7225SOL    HW222575   0.976   6.316   0.576
 7226SOL     OW22576   6.248   6.474   0.195
 7226SOL    HW122577   6.260   6.569   0.223
 7226SOL    HW222578   6.265   6.465   0.097
 7227SOL     OW22579   1.835   1.399   2.693
 7227SOL    HW122580   1.786   1.338   2.755
 7227SOL    HW222581   1.880   1.346   2.622
 7228SOL     OW22582   6.087   3.163   2.274
 7228SOL    HW122583   6.002   3.191   2.318
 7228SOL    HW222584   6.165   3.202   2.323
 7229SOL     OW22585   6.019   0.834   5.040
 7229SOL    HW122586   6.027   0.931   5.016
 7229SOL    HW222587   6.082   0.814   5.115
 7230SOL     OW22588   2.462   5.264   4.722
 7230SOL    HW122589   2.517   5.188   4.690
 7230SOL    HW222590   2.384   5.277   4.661
 7231SOL     OW22591   4.282   2.970   6.058
 7231SOL    HW122592   4.183   2.955   6.063
 7231SOL    HW222593   4.322   2.905   5.994
 7232SOL     OW22594   4.634   6.240   3.509
 7232SOL    HW122595   4.592   6.208   3.594
 7232SOL    HW222596   4.721   6.284   3.529
 7233SOL     OW22597   0.434   1.153   5.454
 7233SOL    HW122598   0.479   1.219   5.394
 7233SOL    HW222599   0.454   1.060   5.424
 7234SOL     OW22600   5.491   4.347   3.430
 7234SOL    HW122601   5.417   4.286   3.458
 7234SOL    HW222602   5.479   4.436   3.475
 7235SOL     OW22603   6.240   6.483   1.729
 7235SOL    HW122604   6.282   6.398   1.699
 7235SOL    HW222605   6.166   6.463   1.795
 7236SOL     OW22606   2.072   3.635   2.856
 7236SOL    HW122607   2.089   3.732   2.870
 7236SOL    HW222608   2.041   3.620   2.762
 7237SOL     OW22609   5.483   1.025   0.463
 7237SOL    HW122610   5.499   0.928   0.481
 7237SOL    HW222611   5.548   1.058   0.394
 7238SOL     OW22612   4.245   3.957   0.184
 7238SOL    HW122613   4.217   3.861   0.174
 7238SOL    HW222614   4.344   3.965   0.167
 7239SOL     OW22615   5.796   2.444   2.179
 7239SOL    HW122616   5.790   2.529   2.231
 7239SOL    HW222617   5.881   2.397   2.202
 7240SOL     OW22618   6.768   1.583   0.730
 7240SOL    HW122619   6.778   1.651   0.657
 7240SOL    HW222620   6.701   1.514   0.702
 7241SOL     OW22621   2.109   0.766   2.431
 7241SOL    HW122622   2.035   0.803   2.375
 7241SOL    HW222623   2.082   0.769   2.527
 7242SOL     OW22624   6.943   4.372   4.778
 7242SOL    HW122625   6.982   4.364   4.686
 7242SOL    HW222626   6.888   4.456   4.784
 7243SOL     OW22627   5.607   4.819   6.027
 7243SOL    HW122628   5.632   4.803   6.122
 7243SOL    HW222629   5.589   4.916   6.013
 7244SOL     OW22630   6.999   5.867   6.922
 7244SOL    HW122631   6.929   5.850   6.991
 7244SOL    HW222632   0.040   5.941   6.952
 7245SOL     OW22633   1.100   3.092   0.658
 7245SOL    HW122634   1.098   3.184   0.697
 7245SOL    HW222635   1.194   3.069   0.630
 7246SOL     OW22636   4.275   0.000   3.005
 7246SOL    HW122637   4.265   0.027   2.909
 7246SOL    HW222638   4.219   0.060   3.062
 7247SOL     OW22639   3.040   3.953   4.458
 7247SOL    HW122640   2.975   4.022   4.427
 7247SOL    HW222641   3.011   3.919   4.547
 7248SOL     OW22642   2.834   1.449   5.451
 7248SOL    HW122643   2.882   1.376   5.499
 7248SOL    HW222644   2.848   1.535   5.498
 7249SOL     OW22645   4.108   4.955   2.507
 7249SOL    HW122646   4.035   4.928   2.443
 7249SOL    HW222647   4.163   5.027   2.465
 7250SOL     OW22648   5.815   5.197   5.227
 7250SOL    HW122649   5.794   5.106   5.262
 7250SOL    HW222650   5.840   5.192   5.131
 7251SOL     OW22651   0.360   5.715   5.084
 7251SOL    HW122652   0.295   5.789   5.063
 7251SOL    HW222653   0.382   5.666   4.999
 7252SOL     OW22654   3.874   3.877   2.626
 7252SOL    HW122655   3.949   3.880   2.692
 7252SOL    HW222656   3.894   3.940   2.551
 7253SOL     OW22657   2.671   5.360   4.861
 7253SOL    HW122658   2.684   5.458   4.845
 7253SOL    HW222659   2.583   5.332   4.824
 7254SOL     OW22660   5.976   2.993   4.345
 7254SOL    HW122661   5.978   3.027   4.439
 7254SOL    HW222662   5.882   2.994   4.311
 7255SOL     OW22663   5.185   3.870   6.881
 7255SOL    HW122664   5.192   3.784   6.830
 7255SOL    HW222665   5.107   3.923   6.848
 7256SOL     OW22666   3.061   0.082   5.027
 7256SOL    HW122667   3.040   0.092   4.930
 7256SOL    HW222668   3.025   7.014   5.060
 7257SOL     OW22669   0.891   1.274   4.641
 7257SOL    HW122670   0.845   1.240   4.559
 7257SOL    HW222671   0.989   1.284   4.623
 7258SOL     OW22672   5.833   3.246   2.400
 7258SOL    HW122673   5.753   3.188   2.414
 7258SOL    HW222674   5.849   3.302   2.482
 7259SOL     OW22675   1.519   4.209   2.849
 7259SOL    HW122676   1.478   4.232   2.761
 7259SOL    HW222677   1.479   4.266   2.920
 7260SOL     OW22678   5.620   3.095   0.869
 7260SOL    HW122679   5.706   3.085   0.919
 7260SOL    HW222680   5.560   3.018   0.889
 7261SOL     OW22681   6.757   4.571   6.997
 7261SOL    HW122682   6.819   4.564   0.056
 7261SOL    HW222683   6.662   4.576   0.010
 7262SOL     OW22684   5.673   1.636   5.211
 7262SOL    HW122685   5.752   1.609   5.156
 7262SOL    HW222686   5.609   1.559   5.218
 7263SOL     OW22687   6.831   5.702   6.669
 7263SOL    HW122688   6.856   5.769   6.599
 7263SOL    HW222689   6.899   5.704   6.742
 7264SOL     OW22690   5.657   1.398   1.140
 7264SOL    HW122691   5.726   1.423   1.207
 7264SOL    HW222692   5.696   1.406   1.048
 7265SOL     OW22693   3.983   0.379   5.974
 7265SOL    HW122694   4.042   0.459   5.959
 7265SOL    HW222695   4.038   0.296   5.972
 7266SOL     OW22696   0.305   0.991   3.734
 7266SOL    HW122697   0.360   0.946   3.805
 7266SOL    HW222698   0.272   0.923   3.669
 7267SOL     OW22699   6.599   4.340   4.416
 7267SOL    HW122700   6.520   4.278   4.413
 7267SOL    HW222701   6.578   4.418   4.475
 7268SOL     OW22702   6.359   6.804   4.002
 7268SOL    HW122703   6.313   6.748   4.070
 7268SOL    HW222704   6.368   6.898   4.036
 7269SOL     OW22705   2.488   4.654   4.536
 7269SOL    HW122706   2.552   4.718   4.577
 7269SOL    HW222707   2.472   4.578   4.598
 7270SOL     OW22708   0.813   1.170   4.889
 7270SOL    HW122709   0.843   1.221   4.808
 7270SOL    HW222710   0.892   1.124   4.930
 7271SOL     OW22711   0.795   4.584   2.860
 7271SOL    HW122712   0.803   4.499   2.914
 7271SOL    HW222713   0.701   4.618   2.866
 7272SOL     OW22714   6.320   4.399   1.563
 7272SOL    HW122715   6.353   4.465   1.495
 7272SOL    HW222716   6.329   4.306   1.527
 7273SOL     OW22717   0.800   2.093   5.610
 7273SOL    HW122718   0.792   2.016   5.674
 7273SOL    HW222719   0.897   2.107   5.588
 7274SOL     OW22720   0.852   4.904   6.378
 7274SOL    HW122721   0.846   4.826   6.316
 7274SOL    HW222722   0.809   4.882   6.465
 7275SOL     OW22723   0.615   6.083   3.393
 7275SOL    HW122724   0.694   6.046   3.442
 7275SOL    HW222725   0.593   6.174   3.428
 7276SOL     OW22726   5.204   6.274   3.787
 7276SOL    HW122727   5.293   6.301   3.825
 7276SOL    HW222728   5.195   6.175   3.790
 7277SOL     OW22729   4.656   0.459   6.789
 7277SOL    HW122730   4.705   0.373   6.774
 7277SOL    HW222731   4.656   0.481   6.886
 7278SOL     OW22732   3.407   2.846   2.083
 7278SOL    HW122733   3.382   2.925   2.139
 7278SOL    HW222734   3.378   2.762   2.129
 7279SOL     OW22735   3.052   6.445   6.227
 7279SOL    HW122736   2.979   6.511   6.245
 7279SOL    HW222737   3.024   6.382   6.155
 7280SOL     OW22738   4.558   1.680   5.916
 7280SOL    HW122739   4.566   1.777   5.936
 7280SOL    HW222740   4.611   1.627   5.983
 7281SOL     OW22741   5.177   1.379   6.032
 7281SOL    HW122742   5.201   1.461   6.083
 7281SOL    HW222743   5.208   1.298   6.083
 7282SOL     OW22744   5.355   5.385   2.150
 7282SOL    HW122745   5.417   5.320   2.107
 7282SOL    HW222746   5.301   5.339   2.221
 7283SOL     OW22747   1.936   1.069   3.980
 7283SOL    HW122748   1.980   1.029   4.061
 7283SOL    HW222749   1.968   1.022   3.898
 7284SOL     OW22750   0.513   2.505   5.282
 7284SOL    HW122751   0.589   2.492   5.346
 7284SOL    HW222752   0.475   2.416   5.257
 7285SOL     OW22753   5.532   5.002   1.677
 7285SOL    HW122754   5.486   5.083   1.714
 7285SOL    HW222755   5.544   5.013   1.579
 7286SOL     OW22756   2.219   3.839   1.180
 7286SOL    HW122757   2.143   3.813   1.239
 7286SOL    HW222758   2.238   3.937   1.190
 7287SOL     OW22759   5.857   1.561   6.133
 7287SOL    HW122760   5.886   1.484   6.076
 7287SOL    HW222761   5.936   1.597   6.183
 7288SOL     OW22762   3.267   6.784   6.148
 7288SOL    HW122763   3.331   6.829   6.210
 7288SOL    HW222764   3.184   6.760   6.198
 7289SOL     OW22765   5.576   2.027   3.854
 7289SOL    HW122766   5.632   2.002   3.932
 7289SOL    HW222767   5.567   2.127   3.850
 7290SOL     OW22768   2.889   4.801   4.116
 7290SOL    HW122769   2.850   4.791   4.207
 7290SOL    HW222770   2.987   4.818   4.123
 7291SOL     OW22771   3.187   5.059   2.176
 7291SOL    HW122772   3.214   4.985   2.114
 7291SOL    HW222773   3.088   5.072   2.171
 7292SOL     OW22774   2.860   6.862   4.663
 7292SOL    HW122775   2.956   6.850   4.689
 7292SOL    HW222776   2.825   6.948   4.700
 7293SOL     OW22777   1.639   2.521   6.050
 7293SOL    HW122778   1.623   2.567   5.963
 7293SOL    HW222779   1.583   2.438   6.055
 7294SOL     OW22780   3.632   5.844   0.520
 7294SOL    HW122781   3.637   5.873   0.425
 7294SOL    HW222782   3.707   5.887   0.572
 7295SOL     OW22783   5.354   0.012   1.658
 7295SOL    HW122784   5.436   0.022   1.602
 7295SOL    HW222785   5.379   6.990   1.746
 7296SOL     OW22786   4.224   5.116   1.771
 7296SOL    HW122787   4.293   5.117   1.843
 7296SOL    HW222788   4.190   5.208   1.755
 7297SOL     OW22789   5.341   6.935   2.188
 7297SOL    HW122790   5.270   6.870   2.216
 7297SOL    HW222791   5.369   6.990   2.267
 7298SOL     OW22792   6.033   3.776   3.970
 7298SOL    HW122793   6.012   3.748   3.876
 7298SOL    HW222794   6.113   3.835   3.970
 7299SOL     OW22795   6.089   3.499   6.652
 7299SOL    HW122796   6.132   3.454   6.731
 7299SOL    HW222797   6.104   3.445   6.570
 7300SOL     OW22798   4.515   4.939   1.081
 7300SOL    HW122799   4.550   4.870   1.018
 7300SOL    HW222800   4.566   5.025   1.069
 7301SOL     OW22801   6.948   0.866   6.257
 7301SOL    HW122802   6.872   0.918   6.217
 7301SOL    HW222803   6.961   0.782   6.205
 7302SOL     OW22804   4.794   0.892   6.143
 7302SOL    HW122805   4.765   0.963   6.079
 7302SOL    HW222806   4.716   0.864   6.200
 7303SOL     OW22807   3.307   1.060   0.739
 7303SOL    HW122808   3.378   0.990   0.727
 7303SOL    HW222809   3.226   1.034   0.686
 7304SOL     OW22810   3.341   4.237   5.204
 7304SOL    HW122811   3.430   4.281   5.220
 7304SOL    HW222812   3.353   4.161   5.140
 7305SOL     OW22813   5.393   0.713   6.975
 7305SOL    HW122814   5.357   0.806   6.989
 7305SOL    HW222815   5.361   0.654   0.030
 7306SOL     OW22816   4.749   5.215   1.794
 7306SOL    HW122817   4.680   5.156   1.752
 7306SOL    HW222818   4.828   5.160   1.819
 7307SOL     OW22819   4.308   6.713   2.675
 7307SOL    HW122820   4.234   6.661   2.633
 7307SOL    HW222821   4.390   6.707   2.618
 7308SOL     OW22822   6.381   1.391   4.570
 7308SOL    HW122823   6.394   1.449   4.490
 7308SOL    HW222824   6.333   1.307   4.544
 7309SOL     OW22825   4.371   5.860   1.986
 7309SOL    HW122826   4.306   5.931   1.959
 7309SOL    HW222827   4.383   5.795   1.911
 7310SOL     OW22828   2.218   5.315   1.587
 7310SOL    HW122829   2.271   5.382   1.535
 7310SOL    HW222830   2.263   5.226   1.583
 7311SOL     OW22831   2.672   2.391   2.225
 7311SOL    HW122832   2.740   2.383   2.152
 7311SOL    HW222833   2.625   2.479   2.217
 7312SOL     OW22834   6.709   1.672   6.043
 7312SOL    HW122835   6.661   1.594   6.084
 7312SOL    HW222836   6.807   1.662   6.059
 7313SOL     OW22837   4.280   2.841   6.672
 7313SOL    HW122838   4.339   2.895   6.731
 7313SOL    HW222839   4.195   2.820   6.719
 7314SOL     OW22840   0.492   2.927   4.520
 7314SOL    HW122841   0.405   2.882   4.499
 7314SOL    HW222842   0.518   2.985   4.442
 7315SOL     OW22843   0.017   0.391   5.365
 7315SOL    HW122844   6.954   0.432   5.326
 7315SOL    HW222845   0.018   0.407   5.464
 7316SOL     OW22846   3.791   4.069   5.398
 7316SOL    HW122847   3.852   4.052   5.476
 7316SOL    HW222848   3.759   3.981   5.362
 7317SOL     OW22849   2.829   1.021   3.741
 7317SOL    HW122850   2.873   1.047   3.827
 7317SOL    HW222851   2.796   1.103   3.694
 7318SOL     OW22852   1.494   1.769   1.529
 7318SOL    HW122853   1.593   1.770   1.545
 7318SOL    HW222854   1.449   1.720   1.604
 7319SOL     OW22855   6.904   4.181   6.814
 7319SOL    HW122856   6.866   4.248   6.750
 7319SOL    HW222857   7.000   4.204   6.832
 7320SOL     OW22858   6.605   2.567   1.925
 7320SOL    HW122859   6.682   2.632   1.922
 7320SOL    HW222860   6.584   2.536   1.833
 7321SOL     OW22861   2.708   1.152   4.626
 7321SOL    HW122862   2.774   1.189   4.691
 7321SOL    HW222863   2.752   1.139   4.537
 7322SOL     OW22864   0.487   3.285   2.683
 7322SOL    HW122865   0.465   3.365   2.738
 7322SOL    HW222866   0.407   3.226   2.676
 7323SOL     OW22867   2.032   3.772   3.320
 7323SOL    HW122868   2.059   3.678   3.298
 7323SOL    HW222869   2.015   3.780   3.418
 7324SOL     OW22870   5.581   5.990   2.478
 7324SOL    HW122871   5.541   6.081   2.482
 7324SOL    HW222872   5.648   5.979   2.552
 7325SOL     OW22873   2.919   6.329   0.270
 7325SOL    HW122874   2.840   6.356   0.213
 7325SOL    HW222875   2.887   6.300   0.360
 7326SOL     OW22876   2.805   6.761   4.974
 7326SOL    HW122877   2.710   6.788   4.994
 7326SOL    HW222878   2.810   6.721   4.883
 7327SOL     OW22879   1.754   2.401   5.483
 7327SOL    HW122880   1.804   2.323   5.447
 7327SOL    HW222881   1.674   2.420   5.427
 7328SOL     OW22882   2.631   0.089   0.155
 7328SOL    HW122883   2.541   0.125   0.133
 7328SOL    HW222884   2.676   0.055   0.072
 7329SOL     OW22885   4.325   3.444   1.403
 7329SOL    HW122886   4.411   3.447   1.351
 7329SOL    HW222887   4.307   3.350   1.431
 7330SOL     OW22888   4.214   1.831   0.222
 7330SOL    HW122889   4.213   1.799   0.317
 7330SOL    HW222890   4.211   1.931   0.221
 7331SOL     OW22891   5.513   1.114   1.307
 7331SOL    HW122892   5.550   1.181   1.243
 7331SOL    HW222893   5.558   1.026   1.294
 7332SOL     OW22894   3.751   5.528   1.011
 7332SOL    HW122895   3.780   5.467   1.085
 7332SOL    HW222896   3.826   5.590   0.987
 7333SOL     OW22897   0.774   5.306   2.292
 7333SOL    HW122898   0.835   5.342   2.222
 7333SOL    HW222899   0.828   5.274   2.370
 7334SOL     OW22900   3.943   6.673   4.345
 7334SOL    HW122901   3.901   6.730   4.275
 7334SOL    HW222902   3.895   6.686   4.432
 7335SOL     OW22903   1.644   2.409   2.734
 7335SOL    HW122904   1.675   2.476   2.802
 7335SOL    HW222905   1.548   2.385   2.752
 7336SOL     OW22906   1.962   6.693   3.830
 7336SOL    HW122907   1.906   6.773   3.810
 7336SOL    HW222908   2.047   6.723   3.875
 7337SOL     OW22909   5.791   2.747   2.241
 7337SOL    HW122910   5.862   2.728   2.310
 7337SOL    HW222911   5.803   2.839   2.206
 7338SOL     OW22912   6.392   3.237   0.141
 7338SOL    HW122913   6.397   3.335   0.123
 7338SOL    HW222914   6.328   3.220   0.216
 7339SOL     OW22915   0.870   5.120   4.664
 7339SOL    HW122916   0.953   5.122   4.609
 7339SOL    HW222917   0.815   5.202   4.644
 7340SOL     OW22918   1.929   0.232   6.420
 7340SOL    HW122919   1.844   0.224   6.369
 7340SOL    HW222920   1.969   0.141   6.434
 7341SOL     OW22921   6.474   2.381   6.999
 7341SOL    HW122922   6.448   2.297   6.952
 7341SOL    HW222923   6.569   2.402   6.980
 7342SOL     OW22924   6.888   0.001   2.383
 7342SOL    HW122925   6.898   0.095   2.415
 7342SOL    HW222926   6.978   6.976   2.384
 7343SOL     OW22927   5.237   2.990   0.561
 7343SOL    HW122928   5.302   2.954   0.494
 7343SOL    HW222929   5.150   2.941   0.552
 7344SOL     OW22930   1.122   6.490   5.907
 7344SOL    HW122931   1.069   6.560   5.859
 7344SOL    HW222932   1.206   6.530   5.943
 7345SOL     OW22933   3.200   5.014   6.261
 7345SOL    HW122934   3.125   5.070   6.226
 7345SOL    HW222935   3.179   4.918   6.247
 7346SOL     OW22936   4.771   4.847   2.537
 7346SOL    HW122937   4.727   4.936   2.519
 7346SOL    HW222938   4.818   4.851   2.625
 7347SOL     OW22939   6.052   1.990   6.428
 7347SOL    HW122940   5.995   2.071   6.417
 7347SOL    HW222941   6.000   1.909   6.400
 7348SOL     OW22942   6.618   4.388   1.472
 7348SOL    HW122943   6.613   4.296   1.510
 7348SOL    HW222944   6.665   4.448   1.537
 7349SOL     OW22945   3.440   1.839   2.197
 7349SOL    HW122946   3.426   1.798   2.286
 7349SOL    HW222947   3.457   1.937   2.208
 7350SOL     OW22948   3.444   0.958   4.308
 7350SOL    HW122949   3.491   0.901   4.241
 7350SOL    HW222950   3.422   0.903   4.389
 7351SOL     OW22951   3.174   4.874   4.104
 7351SOL    HW122952   3.136   4.896   4.015
 7351SOL    HW222953   3.274   4.883   4.101
 7352SOL     OW22954   6.115   3.083   4.056
 7352SOL    HW122955   6.100   3.001   4.113
 7352SOL    HW222956   6.179   3.144   4.102
 7353SOL     OW22957   6.564   0.553   6.437
 7353SOL    HW122958   6.514   0.581   6.519
 7353SOL    HW222959   6.575   0.631   6.376
 7354SOL     OW22960   0.049   1.676   3.589
 7354SOL    HW122961   6.981   1.671   3.637
 7354SOL    HW222962   0.047   1.617   3.508
 7355SOL     OW22963   2.582   1.868   0.081
 7355SOL    HW122964   2.508   1.802   0.087
 7355SOL    HW222965   2.544   1.960   0.069
 7356SOL     OW22966   4.528   3.831   5.952
 7356SOL    HW122967   4.594   3.775   6.002
 7356SOL    HW222968   4.437   3.820   5.993
 7357SOL     OW22969   4.904   5.793   2.287
 7357SOL    HW122970   4.989   5.769   2.334
 7357SOL    HW222971   4.894   5.737   2.206
 7358SOL     OW22972   5.730   1.004   2.900
 7358SOL    HW122973   5.759   1.092   2.863
 7358SOL    HW222974   5.630   1.002   2.906
 7359SOL     OW22975   5.009   0.345   1.740
 7359SOL    HW122976   4.954   0.419   1.778
 7359SOL    HW222977   5.059   0.378   1.661
 7360SOL     OW22978   3.135   3.451   5.072
 7360SOL    HW122979   3.169   3.505   4.996
 7360SOL    HW222980   3.035   3.459   5.077
 7361SOL     OW22981   6.698   0.439   3.271
 7361SOL    HW122982   6.791   0.416   3.301
 7361SOL    HW222983   6.646   0.354   3.257
 7362SOL     OW22984   2.830   5.413   6.669
 7362SOL    HW122985   2.742   5.383   6.634
 7362SOL    HW222986   2.902   5.385   6.605
 7363SOL     OW22987   3.749   1.042   0.181
 7363SOL    HW122988   3.767   1.023   0.084
 7363SOL    HW222989   3.690   1.123   0.189
 7364SOL     OW22990   5.525   6.611   1.498
 7364SOL    HW122991   5.567   6.687   1.449
 7364SOL    HW222992   5.584   6.584   1.575
 7365SOL     OW22993   5.181   4.736   2.483
 7365SOL    HW122994   5.251   4.681   2.437
 7365SOL    HW222995   5.091   4.712   2.445
 7366SOL     OW22996   1.654   0.581   4.075
 7366SOL    HW122997   1.697   0.615   3.991
 7366SOL    HW222998   1.601   0.654   4.117
 7367SOL     OW22999   3.828   0.737   0.205
 7367SOL    HW123000   3.783   0.813   0.252
 7367SOL    HW223001   3.927   0.744   0.217
 7368SOL     OW23002   3.693   3.486   3.658
 7368SOL    HW123003   3.767   3.549   3.683
 7368SOL    HW223004   3.641   3.524   3.581
 7369SOL     OW23005   5.307   2.114   0.054
 7369SOL    HW123006   5.266   2.157   0.134
 7369SOL    HW223007   5.372   2.044   0.083
 7370SOL     OW23008   1.900   1.202   4.337
 7370SOL    HW123009   1.877   1.120   4.389
 7370SOL    HW223010   1.934   1.176   4.246
 7371SOL     OW23011   4.278   1.435   3.814
 7371SOL    HW123012   4.220   1.479   3.883
 7371SOL    HW223013   4.331   1.362   3.858
 7372SOL     OW23014   5.755   1.174   5.519
 7372SOL    HW123015   5.764   1.242   5.591
 7372SOL    HW223016   5.845   1.154   5.481
 7373SOL     OW23017   6.063   3.497   4.643
 7373SOL    HW123018   6.061   3.466   4.548
 7373SOL    HW223019   6.028   3.590   4.649
 7374SOL     OW23020   6.518   2.770   5.759
 7374SOL    HW123021   6.505   2.868   5.747
 7374SOL    HW223022   6.459   2.720   5.695
 7375SOL     OW23023   1.396   3.697   1.869
 7375SOL    HW123024   1.330   3.758   1.911
 7375SOL    HW223025   1.463   3.751   1.816
 7376SOL     OW23026   0.047   3.339   0.612
 7376SOL    HW123027   0.100   3.254   0.615
 7376SOL    HW223028   6.981   3.323   0.561
 7377SOL     OW23029   2.191   6.470   1.012
 7377SOL    HW123030   2.100   6.430   1.002
 7377SOL    HW223031   2.188   6.544   1.080
 7378SOL     OW23032   1.194   5.381   4.546
 7378SOL    HW123033   1.210   5.457   4.482
 7378SOL    HW223034   1.187   5.417   4.639
 7379SOL     OW23035   4.040   1.030   1.773
 7379SOL    HW123036   4.114   0.987   1.721
 7379SOL    HW223037   4.051   1.008   1.870
 7380SOL     OW23038   5.004   4.206   1.453
 7380SOL    HW123039   4.988   4.253   1.540
 7380SOL    HW223040   4.943   4.127   1.446
 7381SOL     OW23041   3.781   0.181   1.526
 7381SOL    HW123042   3.734   0.217   1.607
 7381SOL    HW223043   3.738   0.217   1.444
 7382SOL     OW23044   6.013   1.334   6.001
 7382SOL    HW123045   6.071   1.306   6.078
 7382SOL    HW223046   6.051   1.416   5.959
 7383SOL     OW23047   2.308   0.794   1.004
 7383SOL    HW123048   2.277   0.701   0.983
 7383SOL    HW223049   2.229   0.853   1.021
 7384SOL     OW23050   6.565   6.817   0.628
 7384SOL    HW123051   6.561   6.864   0.715
 7384SOL    HW223052   6.500   6.859   0.564
 7385SOL     OW23053   6.295   4.042   2.968
 7385SOL    HW123054   6.269   3.977   3.040
 7385SOL    HW223055   6.391   4.067   2.980
 7386SOL     OW23056   5.439   3.470   6.906
 7386SOL    HW123057   5.428   3.479   7.005
 7386SOL    HW223058   5.404   3.381   6.876
 7387SOL     OW23059   6.525   5.847   4.778
 7387SOL    HW123060   6.438   5.800   4.795
 7387SOL    HW223061   6.532   5.870   4.680
 7388SOL     OW23062   2.255   4.638   3.210
 7388SOL    HW123063   2.205   4.723   3.195
 7388SOL    HW223064   2.218   4.566   3.150
 7389SOL     OW23065   6.161   3.166   0.284
 7389SOL    HW123066   6.110   3.126   0.361
 7389SOL    HW223067   6.145   3.111   0.202
 7390SOL     OW23068   2.450   2.684   3.711
 7390SOL    HW123069   2.511   2.665   3.634
 7390SOL    HW223070   2.361   2.714   3.677
 7391SOL     OW23071   3.074   3.701   3.424
 7391SOL    HW123072   2.987   3.657   3.402
 7391SOL    HW223073   3.123   3.722   3.339
 7392SOL     OW23074   3.327   7.001   6.518
 7392SOL    HW123075   3.279   6.991   6.605
 7392SOL    HW223076   3.342   6.910   6.478
 7393SOL     OW23077   5.536   5.116   4.205
 7393SOL    HW123078   5.486   5.029   4.200
 7393SOL    HW223079   5.551   5.150   4.112
 7394SOL     OW23080   2.363   1.744   5.568
 7394SOL    HW123081   2.349   1.808   5.492
 7394SOL    HW223082   2.315   1.658   5.549
 7395SOL     OW23083   2.465   6.196   0.874
 7395SOL    HW123084   2.426   6.149   0.794
 7395SOL    HW223085   2.488   6.129   0.944
 7396SOL     OW23086   2.111   5.148   2.540
 7396SOL    HW123087   2.151   5.134   2.450
 7396SOL    HW223088   2.038   5.217   2.534
 7397SOL     OW23089   5.815   4.344   3.888
 7397SOL    HW123090   5.757   4.271   3.926
 7397SOL    HW223091   5.757   4.410   3.840
 7398SOL     OW23092   2.761   4.752   2.497
 7398SOL    HW123093   2.853   4.730   2.527
 7398SOL    HW223094   2.760   4.764   2.398
 7399SOL     OW23095   5.251   1.923   5.797
 7399SOL    HW123096   5.177   1.889   5.739
 7399SOL    HW223097   5.320   1.967   5.739
 7400SOL     OW23098   5.316   3.448   5.728
 7400SOL    HW123099   5.274   3.527   5.684
 7400SOL    HW223100   5.245   3.385   5.759
 7401SOL     OW23101   1.694   2.400   4.373
 7401SOL    HW123102   1.598   2.372   4.374
 7401SOL    HW223103   1.709   2.465   4.299
 7402SOL     OW23104   3.968   5.507   4.334
 7402SOL    HW123105   3.889   5.548   4.288
 7402SOL    HW223106   3.936   5.441   4.402
 7403SOL     OW23107   1.549   4.343   4.465
 7403SOL    HW123108   1.589   4.253   4.450
 7403SOL    HW223109   1.576   4.377   4.556
 7404SOL     OW23110   3.350   3.328   0.936
 7404SOL    HW123111   3.274   3.311   0.999
 7404SOL    HW223112   3.388   3.419   0.954
 7405SOL     OW23113   4.016   6.514   3.896
 7405SOL    HW123114   4.035   6.509   3.994
 7405SOL    HW223115   4.044   6.428   3.852
 7406SOL     OW23116   1.123   1.896   4.830
 7406SOL    HW123117   1.031   1.923   4.803
 7406SOL    HW223118   1.190   1.952   4.781
 7407SOL     OW23119   0.988   5.728   5.280
 7407SOL    HW123120   1.059   5.660   5.297
 7407SOL    HW223121   1.016   5.815   5.320
 7408SOL     OW23122   4.240   5.100   5.526
 7408SOL    HW123123   4.207   5.166   5.593
 7408SOL    HW223124   4.208   5.009   5.551
 7409SOL     OW23125   6.808   3.602   1.286
 7409SOL    HW123126   6.900   3.638   1.299
 7409SOL    HW223127   6.803   3.553   1.199
 7410SOL     OW23128   6.891   0.849   0.778
 7410SOL    HW123129   6.915   0.839   0.874
 7410SOL    HW223130   6.971   0.831   0.721
 7411SOL     OW23131   2.646   1.607   5.204
 7411SOL    HW123132   2.688   1.697   5.195
 7411SOL    HW223133   2.703   1.538   5.158
 7412SOL     OW23134   3.595   6.935   6.997
 7412SOL    HW123135   3.607   0.004   6.952
 7412SOL    HW223136   3.669   6.919   0.043
 7413SOL     OW23137   4.572   0.842   2.986
 7413SOL    HW123138   4.549   0.745   2.989
 7413SOL    HW223139   4.624   0.861   2.902
 7414SOL     OW23140   2.875   0.800   3.536
 7414SOL    HW123141   2.829   0.842   3.614
 7414SOL    HW223142   2.972   0.826   3.537
 7415SOL     OW23143   4.043   6.595   6.426
 7415SOL    HW123144   4.046   6.648   6.511
 7415SOL    HW223145   4.050   6.657   6.348
 7416SOL     OW23146   1.684   0.696   1.827
 7416SOL    HW123147   1.720   0.769   1.768
 7416SOL    HW223148   1.760   0.645   1.867
 7417SOL     OW23149   0.706   0.757   2.592
 7417SOL    HW123150   0.728   0.854   2.580
 7417SOL    HW223151   0.764   0.718   2.664
 7418SOL     OW23152   1.331   4.424   5.911
 7418SOL    HW123153   1.322   4.498   5.844
 7418SOL    HW223154   1.397   4.357   5.877
 7419SOL     OW23155   6.832   3.753   4.040
 7419SOL    HW123156   6.849   3.718   4.133
 7419SOL    HW223157   6.746   3.715   4.006
 7420SOL     OW23158   0.383   6.643   1.297
 7420SOL    HW123159   0.404   6.737   1.272
 7420SOL    HW223160   0.447   6.611   1.367
 7421SOL     OW23161   6.086   3.951   1.117
 7421SOL    HW123162   6.057   3.864   1.156
 7421SOL    HW223163   6.069   4.024   1.182
 7422SOL     OW23164   5.536   2.723   2.334
 7422SOL    HW123165   5.624   2.753   2.298
 7422SOL    HW223166   5.506   2.786   2.406
 7423SOL     OW23167   4.934   2.170   5.688
 7423SOL    HW123168   5.007   2.223   5.644
 7423SOL    HW223169   4.970   2.127   5.771
 7424SOL     OW23170   6.789   2.525   3.710
 7424SOL    HW123171   6.754   2.438   3.744
 7424SOL    HW223172   6.858   2.560   3.773
 7425SOL     OW23173   5.500   1.187   0.959
 7425SOL    HW123174   5.550   1.124   0.900
 7425SOL    HW223175   5.561   1.260   0.988
 7426SOL     OW23176   3.270   2.768   5.892
 7426SOL    HW123177   3.218   2.828   5.952
 7426SOL    HW223178   3.208   2.723   5.828
 7427SOL     OW23179   3.434   0.756   3.221
 7427SOL    HW123180   3.495   0.817   3.170
 7427SOL    HW223181   3.486   0.679   3.257
 7428SOL     OW23182   3.931   6.241   4.795
 7428SOL    HW123183   3.996   6.275   4.863
 7428SOL    HW223184   3.934   6.141   4.793
 7429SOL     OW23185   0.517   0.078   2.283
 7429SOL    HW123186   0.460   0.153   2.249
 7429SOL    HW223187   0.459   0.004   2.317
 7430SOL     OW23188   6.769   4.991   2.960
 7430SOL    HW123189   6.671   4.980   2.978
 7430SOL    HW223190   6.800   5.077   3.002
 7431SOL     OW23191   1.101   1.481   3.423
 7431SOL    HW123192   1.185   1.473   3.370
 7431SOL    HW223193   1.110   1.427   3.508
 7432SOL     OW23194   2.286   0.999   3.125
 7432SOL    HW123195   2.364   1.054   3.096
 7432SOL    HW223196   2.306   0.902   3.112
 7433SOL     OW23197   2.737   6.521   6.615
 7433SOL    HW123198   2.772   6.465   6.690
 7433SOL    HW223199   2.712   6.463   6.538
 7434SOL     OW23200   3.739   6.571   3.993
 7434SOL    HW123201   3.818   6.599   3.938
 7434SOL    HW223202   3.715   6.645   4.056
 7435SOL     OW23203   4.992   4.152   2.838
 7435SOL    HW123204   5.046   4.077   2.877
 7435SOL    HW223205   4.923   4.115   2.777
 7436SOL     OW23206   5.432   2.977   5.786
 7436SOL    HW123207   5.386   3.064   5.805
 7436SOL    HW223208   5.372   2.901   5.813
 7437SOL     OW23209   3.098   0.025   1.041
 7437SOL    HW123210   3.086   0.002   0.945
 7437SOL    HW223211   3.073   0.121   1.056
 7438SOL     OW23212   1.874   0.278   0.087
 7438SOL    HW123213   1.832   0.216   0.154
 7438SOL    HW223214   1.962   0.310   0.122
 7439SOL     OW23215   1.169   4.663   6.508
 7439SOL    HW123216   1.222   4.747   6.502
 7439SOL    HW223217   1.110   4.666   6.589
 7440SOL     OW23218   5.703   4.083   4.020
 7440SOL    HW123219   5.651   4.143   4.080
 7440SOL    HW223220   5.700   3.989   4.056
 7441SOL     OW23221   5.276   6.056   0.902
 7441SOL    HW123222   5.232   5.976   0.860
 7441SOL    HW223223   5.369   6.032   0.928
 7442SOL     OW23224   5.199   0.650   6.259
 7442SOL    HW123225   5.194   0.691   6.168
 7442SOL    HW223226   5.269   0.579   6.260
 7443SOL     OW23227   0.344   0.839   1.636
 7443SOL    HW123228   0.431   0.885   1.617
 7443SOL    HW223229   0.330   0.833   1.734
 7444SOL     OW23230   1.723   6.758   0.304
 7444SOL    HW123231   1.752   6.663   0.309
 7444SOL    HW223232   1.734   6.792   0.211
 7445SOL     OW23233   3.754   5.764   1.247
 7445SOL    HW123234   3.662   5.782   1.213
 7445SOL    HW223235   3.790   5.847   1.290
 7446SOL     OW23236   5.537   4.685   6.796
 7446SOL    HW123237   5.443   4.710   6.772
 7446SOL    HW223238   5.586   4.656   6.715
 7447SOL     OW23239   0.230   4.996   0.270
 7447SOL    HW123240   0.243   4.897   0.266
 7447SOL    HW223241   0.233   5.026   0.366
 7448SOL     OW23242   4.668   5.893   6.768
 7448SOL    HW123243   4.704   5.984   6.742
 7448SOL    HW223244   4.665   5.885   6.867
 7449SOL     OW23245   0.143   4.719   5.788
 7449SOL    HW123246   0.121   4.774   5.869
 7449SOL    HW223247   0.060   4.706   5.734
 7450SOL     OW23248   5.622   2.406   5.926
 7450SOL    HW123249   5.635   2.308   5.914
 7450SOL    HW223250   5.649   2.454   5.843
 7451SOL     OW23251   4.596   4.343   3.202
 7451SOL    HW123252   4.629   4.351   3.296
 7451SOL    HW223253   4.648   4.271   3.155
 7452SOL     OW23254   6.381   5.819   5.875
 7452SOL    HW123255   6.292   5.788   5.910
 7452SOL    HW223256   6.388   5.794   5.779
 7453SOL     OW23257   3.906   5.635   6.415
 7453SOL    HW123258   3.973   5.612   6.344
 7453SOL    HW223259   3.909   5.733   6.433
 7454SOL     OW23260   3.949   2.515   1.076
 7454SOL    HW123261   3.886   2.526   0.999
 7454SOL    HW223262   3.898   2.485   1.156
 7455SOL     OW23263   6.570   1.469   3.289
 7455SOL    HW123264   6.567   1.542   3.221
 7455SOL    HW223265   6.662   1.462   3.327
 7456SOL     OW23266   2.587   2.084   6.183
 7456SOL    HW123267   2.668   2.056   6.131
 7456SOL    HW223268   2.505   2.051   6.137
 7457SOL     OW23269   1.404   1.287   2.271
 7457SOL    HW123270   1.500   1.311   2.257
 7457SOL    HW223271   1.367   1.248   2.187
 7458SOL     OW23272   1.733   5.415   5.549
 7458SOL    HW123273   1.679   5.332   5.566
 7458SOL    HW223274   1.767   5.414   5.455
 7459SOL     OW23275   5.931   0.166   2.519
 7459SOL    HW123276   5.996   0.096   2.490
 7459SOL    HW223277   5.982   0.247   2.551
 7460SOL     OW23278   1.439   6.689   1.436
 7460SOL    HW123279   1.448   6.779   1.480
 7460SOL    HW223280   1.512   6.629   1.468
 7461SOL     OW23281   2.500   4.703   5.380
 7461SOL    HW123282   2.489   4.720   5.282
 7461SOL    HW223283   2.465   4.781   5.432
 7462SOL     OW23284   1.438   3.821   1.040
 7462SOL    HW123285   1.353   3.859   1.006
 7462SOL    HW223286   1.501   3.895   1.063
 7463SOL     OW23287   3.864   5.130   0.837
 7463SOL    HW123288   3.819   5.044   0.863
 7463SOL    HW223289   3.920   5.163   0.914
 7464SOL     OW23290   5.865   6.734   5.473
 7464SOL    HW123291   5.811   6.655   5.502
 7464SOL    HW223292   5.958   6.703   5.449
 7465SOL     OW23293   1.619   4.978   0.194
 7465SOL    HW123294   1.571   5.007   0.111
 7465SOL    HW223295   1.641   4.881   0.188
 7466SOL     OW23296   0.458   0.168   5.407
 7466SOL    HW123297   0.519   0.187   5.331
 7466SOL    HW223298   0.399   0.091   5.384
 7467SOL     OW23299   1.221   3.750   4.958
 7467SOL    HW123300   1.173   3.817   4.902
 7467SOL    HW223301   1.220   3.780   5.054
 7468SOL     OW23302   5.582   3.438   5.820
 7468SOL    HW123303   5.496   3.457   5.772
 7468SOL    HW223304   5.611   3.519   5.870
 7469SOL     OW23305   0.469   2.082   0.404
 7469SOL    HW123306   0.438   2.161   0.458
 7469SOL    HW223307   0.547   2.040   0.450
 7470SOL     OW23308   5.686   2.606   3.133
 7470SOL    HW123309   5.613   2.579   3.195
 7470SOL    HW223310   5.773   2.610   3.183
 7471SOL     OW23311   3.797   6.916   6.762
 7471SOL    HW123312   3.833   6.897   6.670
 7471SOL    HW223313   3.704   6.881   6.770
 7472SOL     OW23314   6.281   0.030   6.084
 7472SOL    HW123315   6.350   6.981   6.060
 7472SOL    HW223316   6.198   7.004   6.115
 7473SOL     OW23317   3.573   5.727   3.615
 7473SOL    HW123318   3.473   5.726   3.610
 7473SOL    HW223319   3.610   5.728   3.522
 7474SOL     OW23320   5.921   1.910   6.893
 7474SOL    HW123321   5.939   1.982   6.826
 7474SOL    HW223322   5.885   1.952   6.977
 7475SOL     OW23323   4.949   2.124   1.014
 7475SOL    HW123324   4.918   2.074   0.933
 7475SOL    HW223325   4.935   2.222   1.000
 7476SOL     OW23326   2.586   0.552   3.252
 7476SOL    HW123327   2.491   0.575   3.273
 7476SOL    HW223328   2.647   0.625   3.286
 7477SOL     OW23329   1.419   2.896   5.641
 7477SOL    HW123330   1.481   2.920   5.566
 7477SOL    HW223331   1.420   2.969   5.709
 7478SOL     OW23332   0.346   1.227   5.694
 7478SOL    HW123333   0.337   1.148   5.754
 7478SOL    HW223334   0.383   1.198   5.606
 7479SOL     OW23335   4.797   2.797   1.239
 7479SOL    HW123336   4.785   2.812   1.337
 7479SOL    HW223337   4.710   2.809   1.193
 7480SOL     OW23338   3.778   4.852   2.532
 7480SOL    HW123339   3.686   4.819   2.514
 7480SOL    HW223340   3.830   4.851   2.446
 7481SOL     OW23341   0.092   3.655   6.839
 7481SOL    HW123342   0.099   3.745   6.797
 7481SOL    HW223343   0.152   3.591   6.791
 7482SOL     OW23344   5.429   2.063   3.272
 7482SOL    HW123345   5.344   2.114   3.263
 7482SOL    HW223346   5.442   2.006   3.191
 7483SOL     OW23347   4.077   1.658   6.029
 7483SOL    HW123348   4.155   1.614   5.985
 7483SOL    HW223349   3.994   1.635   5.979
 7484SOL     OW23350   3.238   0.315   3.553
 7484SOL    HW123351   3.325   0.353   3.584
 7484SOL    HW223352   3.249   0.272   3.463
 7485SOL     OW23353   3.554   6.499   6.342
 7485SOL    HW123354   3.555   6.550   6.256
 7485SOL    HW223355   3.569   6.402   6.323
 7486SOL     OW23356   3.260   6.845   0.623
 7486SOL    HW123357   3.275   6.923   0.562
 7486SOL    HW223358   3.334   6.840   0.690
 7487SOL     OW23359   3.559   6.421   4.662
 7487SOL    HW123360   3.611   6.339   4.639
 7487SOL    HW223361   3.488   6.398   4.729
 7488SOL     OW23362   1.273   6.064   3.993
 7488SOL    HW123363   1.201   6.012   4.039
 7488SOL    HW223364   1.236   6.151   3.960
 7489SOL     OW23365   5.690   3.066   6.764
 7489SOL    HW123366   5.597   3.047   6.735
 7489SOL    HW223367   5.750   2.989   6.741
 7490SOL     OW23368   1.483   2.740   2.404
 7490SOL    HW123369   1.522   2.661   2.451
 7490SOL    HW223370   1.479   2.721   2.306
 7491SOL     OW23371   4.234   3.743   6.838
 7491SOL    HW123372   4.272   3.658   6.873
 7491SOL    HW223373   4.257   3.753   6.741
 7492SOL     OW23374   1.345   0.414   3.866
 7492SOL    HW123375   1.252   0.397   3.832
 7492SOL    HW223376   1.355   0.511   3.888
 7493SOL     OW23377   6.271   4.530   5.118
 7493SOL    HW123378   6.175   4.503   5.117
 7493SOL    HW223379   6.297   4.566   5.028
 7494SOL     OW23380   6.293   1.077   1.813
 7494SOL    HW123381   6.315   1.035   1.901
 7494SOL    HW223382   6.214   1.138   1.825
 7495SOL     OW23383   1.509   2.974   4.723
 7495SOL    HW123384   1.448   3.010   4.793
 7495SOL    HW223385   1.460   2.965   4.636
 7496SOL     OW23386   5.924   4.010   2.658
 7496SOL    HW123387   5.992   4.062   2.709
 7496SOL    HW223388   5.970   3.953   2.589
 7497SOL     OW23389   6.349   6.374   1.387
 7497SOL    HW123390   6.334   6.351   1.483
 7497SOL    HW223391   6.431   6.327   1.353
 7498SOL     OW23392   3.252   6.421   3.283
 7498SOL    HW123393   3.173   6.469   3.244
 7498SOL    HW223394   3.302   6.374   3.210
 7499SOL     OW23395   2.779   1.299   3.725
 7499SOL    HW123396   2.736   1.327   3.639
 7499SOL    HW223397   2.787   1.379   3.786
 7500SOL     OW23398   4.208   1.008   3.580
 7500SOL    HW123399   4.246   0.929   3.629
 7500SOL    HW223400   4.111   0.993   3.563
 7501SOL     OW23401   6.741   2.529   5.412
 7501SOL    HW123402   6.737   2.591   5.490
 7501SOL    HW223403   6.820   2.551   5.356
 7502SOL     OW23404   4.365   0.522   4.034
 7502SOL    HW123405   4.317   0.458   4.094
 7502SOL    HW223406   4.392   0.603   4.086
 7503SOL     OW23407   1.969   5.735   1.965
 7503SOL    HW123408   1.981   5.834   1.968
 7503SOL    HW223409   1.894   5.708   2.026
 7504SOL     OW23410   5.755   6.615   4.558
 7504SOL    HW123411   5.689   6.551   4.597
 7504SOL    HW223412   5.731   6.708   4.584
 7505SOL     OW23413   6.918   6.391   5.161
 7505SOL    HW123414   6.986   6.449   5.115
 7505SOL    HW223415   6.853   6.357   5.093
 7506SOL     OW23416   3.481   1.834   3.704
 7506SOL    HW123417   3.560   1.838   3.765
 7506SOL    HW223418   3.417   1.908   3.727
 7507SOL     OW23419   6.243   4.299   6.321
 7507SOL    HW123420   6.316   4.305   6.253
 7507SOL    HW223421   6.211   4.205   6.328
 7508SOL     OW23422   2.849   5.776   0.348
 7508SOL    HW123423   2.946   5.783   0.327
 7508SOL    HW223424   2.796   5.793   0.265
 7509SOL     OW23425   5.953   4.647   2.516
 7509SOL    HW123426   6.035   4.591   2.521
 7509SOL    HW223427   5.947   4.704   2.598
 7510SOL     OW23428   3.310   3.977   2.479
 7510SOL    HW123429   3.396   3.931   2.456
 7510SOL    HW223430   3.313   4.007   2.575
 7511SOL     OW23431   4.913   6.179   4.301
 7511SOL    HW123432   4.917   6.209   4.396
 7511SOL    HW223433   4.842   6.230   4.253
 7512SOL     OW23434   3.599   1.092   0.889
 7512SOL    HW123435   3.649   1.063   0.971
 7512SOL    HW223436   3.597   1.017   0.823
 7513SOL     OW23437   1.397   1.822   1.953
 7513SOL    HW123438   1.407   1.756   2.028
 7513SOL    HW223439   1.463   1.896   1.966
 7514SOL     OW23440   1.060   6.205   1.986
 7514SOL    HW123441   0.968   6.168   1.994
 7514SOL    HW223442   1.089   6.204   1.890
 7515SOL     OW23443   0.513   4.296   5.339
 7515SOL    HW123444   0.441   4.267   5.275
 7515SOL    HW223445   0.486   4.383   5.381
 7516SOL     OW23446   1.740   6.835   5.586
 7516SOL    HW123447   1.676   6.768   5.549
 7516SOL    HW223448   1.826   6.789   5.609
 7517SOL     OW23449   1.129   1.522   5.922
 7517SOL    HW123450   1.191   1.490   5.994
 7517SOL    HW223451   1.182   1.543   5.840
 7518SOL     OW23452   4.762   1.933   4.189
 7518SOL    HW123453   4.780   1.870   4.113
 7518SOL    HW223454   4.762   1.881   4.275
 7519SOL     OW23455   4.062   6.202   4.111
 7519SOL    HW123456   4.040   6.299   4.120
 7519SOL    HW223457   4.143   6.182   4.166
 7520SOL     OW23458   1.228   1.669   0.680
 7520SOL    HW123459   1.277   1.619   0.608
 7520SOL    HW223460   1.180   1.747   0.640
 7521SOL     OW23461   3.872   1.337   4.409
 7521SOL    HW123462   3.946   1.404   4.420
 7521SOL    HW223463   3.907   1.257   4.361
 7522SOL     OW23464   2.544   6.783   3.991
 7522SOL    HW123465   2.508   6.706   4.042
 7522SOL    HW223466   2.545   6.761   3.893
 7523SOL     OW23467   5.689   0.913   0.799
 7523SOL    HW123468   5.613   0.893   0.860
 7523SOL    HW223469   5.776   0.903   0.848
 7524SOL     OW23470   0.662   3.636   4.343
 7524SOL    HW123471   0.617   3.577   4.276
 7524SOL    HW223472   0.737   3.685   4.300
 7525SOL     OW23473   3.709   4.997   6.001
 7525SOL    HW123474   3.801   4.980   5.966
 7525SOL    HW223475   3.642   4.976   5.929
 7526SOL     OW23476   2.374   3.631   1.091
 7526SOL    HW123477   2.446   3.639   1.022
 7526SOL    HW223478   2.312   3.709   1.083
 7527SOL     OW23479   3.885   5.258   3.294
 7527SOL    HW123480   3.917   5.301   3.379
 7527SOL    HW223481   3.944   5.179   3.273
 7528SOL     OW23482   6.624   2.705   6.007
 7528SOL    HW123483   6.649   2.791   6.052
 7528SOL    HW223484   6.582   2.725   5.919
 7529SOL     OW23485   6.248   3.642   3.723
 7529SOL    HW123486   6.305   3.602   3.795
 7529SOL    HW223487   6.152   3.632   3.747
 7530SOL     OW23488   0.780   2.364   2.260
 7530SOL    HW123489   0.721   2.297   2.304
 7530SOL    HW223490   0.783   2.447   2.315
 7531SOL     OW23491   3.633   2.091   4.035
 7531SOL    HW123492   3.597   2.127   4.121
 7531SOL    HW223493   3.732   2.100   4.033
 7532SOL     OW23494   4.984   5.677   6.206
 7532SOL    HW123495   4.975   5.637   6.297
 7532SOL    HW223496   4.900   5.662   6.154
 7533SOL     OW23497   4.329   4.425   1.688
 7533SOL    HW123498   4.423   4.447   1.660
 7533SOL    HW223499   4.332   4.359   1.763
 7534SOL     OW23500   4.412   6.728   5.268
 7534SOL    HW123501   4.507   6.725   5.238
 7534SOL    HW223502   4.392   6.647   5.323
 7535SOL     OW23503   0.562   6.368   3.517
 7535SOL    HW123504   0.657   6.355   3.546
 7535SOL    HW223505   0.523   6.447   3.564
 7536SOL     OW23506   6.073   6.480   3.811
 7536SOL    HW123507   6.010   6.416   3.856
 7536SOL    HW223508   6.051   6.573   3.839
 7537SOL     OW23509   2.057   6.578   2.615
 7537SOL    HW123510   2.118   6.514   2.662
 7537SOL    HW223511   2.110   6.630   2.547
 7538SOL     OW23512   1.108   4.177   0.612
 7538SOL    HW123513   1.135   4.082   0.629
 7538SOL    HW223514   1.140   4.234   0.687
 7539SOL     OW23515   6.929   0.101   4.730
 7539SOL    HW123516   6.867   0.038   4.684
 7539SOL    HW223517   6.968   0.057   4.811
 7540SOL     OW23518   5.701   4.923   3.156
 7540SOL    HW123519   5.764   4.867   3.102
 7540SOL    HW223520   5.622   4.868   3.182
 7541SOL     OW23521   2.688   4.167   5.436
 7541SOL    HW123522   2.737   4.236   5.382
 7541SOL    HW223523   2.643   4.103   5.374
 7542SOL     OW23524   6.266   6.183   4.460
 7542SOL    HW123525   6.303   6.165   4.551
 7542SOL    HW223526   6.333   6.158   4.391
 7543SOL     OW23527   2.952   1.515   0.298
 7543SOL    HW123528   2.978   1.538   0.392
 7543SOL    HW223529   2.950   1.598   0.243
 7544SOL     OW23530   6.681   1.503   4.541
 7544SOL    HW123531   6.696   1.593   4.582
 7544SOL    HW223532   6.667   1.514   4.443
 7545SOL     OW23533   1.915   5.686   5.666
 7545SOL    HW123534   1.840   5.676   5.601
 7545SOL    HW223535   2.001   5.694   5.616
 7546SOL     OW23536   2.394   2.675   2.238
 7546SOL    HW123537   2.422   2.597   2.294
 7546SOL    HW223538   2.426   2.663   2.145
 7547SOL     OW23539   4.066   0.227   1.734
 7547SOL    HW123540   4.021   0.201   1.648
 7547SOL    HW223541   4.026   0.175   1.809
 7548SOL     OW23542   3.361   3.069   6.295
 7548SOL    HW123543   3.362   2.986   6.351
 7548SOL    HW223544   3.431   3.062   6.225
 7549SOL     OW23545   5.335   1.152   4.812
 7549SOL    HW123546   5.376   1.132   4.901
 7549SOL    HW223547   5.346   1.073   4.752
 7550SOL     OW23548   2.705   5.222   4.601
 7550SOL    HW123549   2.794   5.176   4.598
 7550SOL    HW223550   2.713   5.306   4.655
 7551SOL     OW23551   6.550   2.404   5.965
 7551SOL    HW123552   6.625   2.343   5.938
 7551SOL    HW223553   6.575   2.498   5.941
 7552SOL     OW23554   2.515   6.823   5.056
 7552SOL    HW123555   2.486   6.903   5.003
 7552SOL    HW223556   2.473   6.741   5.017
 7553SOL     OW23557   5.706   6.513   5.550
 7553SOL    HW123558   5.691   6.414   5.557
 7553SOL    HW223559   5.642   6.561   5.610
 7554SOL     OW23560   4.100   1.328   0.841
 7554SOL    HW123561   4.179   1.268   0.827
 7554SOL    HW223562   4.131   1.423   0.849
 7555SOL     OW23563   4.367   4.861   4.273
 7555SOL    HW123564   4.313   4.889   4.352
 7555SOL    HW223565   4.357   4.762   4.259
 7556SOL     OW23566   0.597   6.641   1.523
 7556SOL    HW123567   0.577   6.650   1.621
 7556SOL    HW223568   0.656   6.561   1.509
 7557SOL     OW23569   4.721   6.788   1.425
 7557SOL    HW123570   4.804   6.753   1.381
 7557SOL    HW223571   4.663   6.834   1.358
 7558SOL     OW23572   0.496   2.000   3.981
 7558SOL    HW123573   0.503   1.942   4.062
 7558SOL    HW223574   0.468   2.092   4.008
 7559SOL     OW23575   2.626   2.062   4.755
 7559SOL    HW123576   2.585   2.007   4.828
 7559SOL    HW223577   2.569   2.141   4.736
 7560SOL     OW23578   1.507   1.024   5.883
 7560SOL    HW123579   1.440   1.040   5.957
 7560SOL    HW223580   1.569   1.102   5.877
 7561SOL     OW23581   6.170   1.669   5.293
 7561SOL    HW123582   6.120   1.625   5.218
 7561SOL    HW223583   6.268   1.664   5.275
 7562SOL     OW23584   1.934   5.625   3.217
 7562SOL    HW123585   1.915   5.717   3.183
 7562SOL    HW223586   1.854   5.590   3.265
 7563SOL     OW23587   3.659   5.953   2.481
 7563SOL    HW123588   3.713   5.982   2.402
 7563SOL    HW223589   3.699   5.871   2.520
 7564SOL     OW23590   3.572   1.463   5.288
 7564SOL    HW123591   3.647   1.484   5.226
 7564SOL    HW223592   3.486   1.499   5.250
 7565SOL     OW23593   6.610   3.823   5.712
 7565SOL    HW123594   6.586   3.916   5.686
 7565SOL    HW223595   6.547   3.758   5.669
 7566SOL     OW23596   4.535   4.819   1.537
 7566SOL    HW123597   4.547   4.719   1.537
 7566SOL    HW223598   4.481   4.845   1.457
 7567SOL     OW23599   0.813   6.976   4.130
 7567SOL    HW123600   0.835   6.969   4.228
 7567SOL    HW223601   0.839   0.047   4.097
 7568SOL     OW23602   6.053   5.365   1.448
 7568SOL    HW123603   6.132   5.352   1.388
 7568SOL    HW223604   6.036   5.463   1.459
 7569SOL     OW23605   5.028   3.586   0.261
 7569SOL    HW123606   5.055   3.513   0.197
 7569SOL    HW223607   4.928   3.588   0.268
 7570SOL     OW23608   0.897   3.299   2.396
 7570SOL    HW123609   0.913   3.355   2.477
 7570SOL    HW223610   0.800   3.306   2.370
 7571SOL     OW23611   4.504   2.033   2.368
 7571SOL    HW123612   4.418   1.983   2.362
 7571SOL    HW223613   4.488   2.130   2.356
 7572SOL     OW23614   4.716   6.709   3.728
 7572SOL    HW123615   4.713   6.800   3.768
 7572SOL    HW223616   4.809   6.689   3.696
 7573SOL     OW23617   4.058   6.734   6.202
 7573SOL    HW123618   4.082   6.721   6.106
 7573SOL    HW223619   4.080   6.827   6.230
 7574SOL     OW23620   0.489   2.269   3.958
 7574SOL    HW123621   0.577   2.316   3.966
 7574SOL    HW223622   0.479   2.232   3.866
 7575SOL     OW23623   0.238   6.283   2.630
 7575SOL    HW123624   0.174   6.355   2.605
 7575SOL    HW223625   0.327   6.322   2.651
 7576SOL     OW23626   5.203   2.385   6.901
 7576SOL    HW123627   5.202   2.286   6.883
 7576SOL    HW223628   5.251   2.431   6.826
 7577SOL     OW23629   0.736   0.944   0.265
 7577SOL    HW123630   0.759   1.024   0.320
 7577SOL    HW223631   0.756   0.861   0.317
 7578SOL     OW23632   6.581   5.948   3.615
 7578SOL    HW123633   6.482   5.966   3.613
 7578SOL    HW223634   6.604   5.903   3.702
 7579SOL     OW23635   0.803   1.876   6.807
 7579SOL    HW123636   0.728   1.810   6.802
 7579SOL    HW223637   0.766   1.967   6.825
 7580SOL     OW23638   2.323   4.969   3.744
 7580SOL    HW123639   2.240   5.021   3.723
 7580SOL    HW223640   2.312   4.921   3.831
 7581SOL     OW23641   6.951   0.595   2.283
 7581SOL    HW123642   6.928   0.624   2.375
 7581SOL    HW223643   0.027   0.618   2.264
 7582SOL     OW23644   2.113   1.928   6.488
 7582SOL    HW123645   2.053   2.007   6.473
 7582SOL    HW223646   2.189   1.931   6.424
 7583SOL     OW23647   5.423   3.310   2.787
 7583SOL    HW123648   5.327   3.330   2.804
 7583SOL    HW223649   5.445   3.219   2.822
 7584SOL     OW23650   0.606   1.314   3.384
 7584SOL    HW123651   0.549   1.238   3.355
 7584SOL    HW223652   0.682   1.325   3.320
 7585SOL     OW23653   0.723   1.140   5.886
 7585SOL    HW123654   0.646   1.193   5.921
 7585SOL    HW223655   0.805   1.198   5.885
 7586SOL     OW23656   1.801   0.215   3.038
 7586SOL    HW123657   1.744   0.142   3.075
 7586SOL    HW223658   1.820   0.197   2.942
 7587SOL     OW23659   3.889   0.159   1.165
 7587SOL    HW123660   3.900   0.082   1.102
 7587SOL    HW223661   3.934   0.138   1.252
 7588SOL     OW23662   2.439   2.624   4.486
 7588SOL    HW123663   2.410   2.577   4.403
 7588SOL    HW223664   2.510   2.571   4.532
 7589SOL     OW23665   0.485   0.139   2.901
 7589SOL    HW123666   0.391   0.106   2.907
 7589SOL    HW223667   0.485   0.232   2.863
 7590SOL     OW23668   6.364   0.893   0.168
 7590SOL    HW123669   6.315   0.974   0.135
 7590SOL    HW223670   6.322   0.862   0.254
 7591SOL     OW23671   3.274   2.975   4.967
 7591SOL    HW123672   3.207   2.922   5.019
 7591SOL    HW223673   3.231   3.058   4.933
 7592SOL     OW23674   6.557   6.529   3.959
 7592SOL    HW123675   6.555   6.608   3.899
 7592SOL    HW223676   6.541   6.446   3.905
 7593SOL     OW23677   0.432   0.888   5.393
 7593SOL    HW123678   0.367   0.813   5.404
 7593SOL    HW223679   0.523   0.852   5.377
 7594SOL     OW23680   0.129   3.917   6.691
 7594SOL    HW123681   0.132   3.972   6.774
 7594SOL    HW223682   0.222   3.886   6.669
 7595SOL     OW23683   1.359   3.453   0.035
 7595SOL    HW123684   1.354   3.487   0.129
 7595SOL    HW223685   1.270   3.415   0.008
 7596SOL     OW23686   2.994   1.670   6.004
 7596SOL    HW123687   3.017   1.573   6.018
 7596SOL    HW223688   2.902   1.678   5.967
 7597SOL     OW23689   1.742   4.931   1.894
 7597SOL    HW123690   1.802   4.947   1.815
 7597SOL    HW223691   1.735   5.014   1.948
 7598SOL     OW23692   6.285   0.496   1.998
 7598SOL    HW123693   6.202   0.551   2.003
 7598SOL    HW223694   6.308   0.461   2.089
 7599SOL     OW23695   3.022   3.843   1.212
 7599SOL    HW123696   3.050   3.749   1.195
 7599SOL    HW223697   2.926   3.856   1.186
 7600SOL     OW23698   1.116   6.985   4.021
 7600SOL    HW123699   1.071   6.938   4.096
 7600SOL    HW223700   1.213   6.961   4.018
 7601SOL     OW23701   2.875   6.951   2.000
 7601SOL    HW123702   2.938   6.910   2.065
 7601SOL    HW223703   2.908   6.936   1.907
 7602SOL     OW23704   0.416   1.464   0.993
 7602SOL    HW123705   0.338   1.404   0.973
 7602SOL    HW223706   0.436   1.462   1.091
 7603SOL     OW23707   3.731   0.857   5.884
 7603SOL    HW123708   3.814   0.803   5.867
 7603SOL    HW223709   3.727   0.933   5.819
 7604SOL     OW23710   0.630   2.455   4.891
 7604SOL    HW123711   0.707   2.476   4.951
 7604SOL    HW223712   0.547   2.499   4.926
 7605SOL     OW23713   2.155   6.206   6.973
 7605SOL    HW123714   2.155   6.270   6.896
 7605SOL    HW223715   2.175   6.255   0.038
 7606SOL     OW23716   6.706   0.972   3.642
 7606SOL    HW123717   6.683   0.956   3.738
 7606SOL    HW223718   6.668   0.898   3.586
 7607SOL     OW23719   1.622   6.162   5.343
 7607SOL    HW123720   1.566   6.240   5.316
 7607SOL    HW223721   1.595   6.081   5.291
 7608SOL     OW23722   6.401   2.134   6.600
 7608SOL    HW123723   6.360   2.046   6.577
 7608SOL    HW223724   6.415   2.187   6.516
 7609SOL     OW23725   2.691   1.468   4.670
 7609SOL    HW123726   2.648   1.379   4.654
 7609SOL    HW223727   2.682   1.493   4.766
 7610SOL     OW23728   4.467   5.329   4.501
 7610SOL    HW123729   4.549   5.325   4.558
 7610SOL    HW223730   4.399   5.264   4.536
 7611SOL     OW23731   4.554   2.842   0.825
 7611SOL    HW123732   4.522   2.761   0.776
 7611SOL    HW223733   4.496   2.920   0.803
 7612SOL     OW23734   4.061   2.037   2.871
 7612SOL    HW123735   3.999   2.066   2.798
 7612SOL    HW223736   4.039   2.087   2.955
 7613SOL     OW23737   0.894   0.515   1.003
 7613SOL    HW123738   0.863   0.499   1.097
 7613SOL    HW223739   0.818   0.498   0.940
 7614SOL     OW23740   5.653   4.066   0.042
 7614SOL    HW123741   5.666   3.979   0.089
 7614SOL    HW223742   5.559   4.073   0.010
 7615SOL     OW23743   6.155   3.101   4.835
 7615SOL    HW123744   6.133   3.045   4.755
 7615SOL    HW223745   6.240   3.150   4.819
 7616SOL     OW23746   6.613   0.004   3.131
 7616SOL    HW123747   6.686   6.967   3.169
 7616SOL    HW223748   6.529   6.969   3.124
 7617SOL     OW23749   6.391   4.070   3.349
 7617SOL    HW123750   6.373   3.986   3.400
 7617SOL    HW223751   6.490   4.078   3.332
 7618SOL     OW23752   2.314   2.605   0.108
 7618SOL    HW123753   2.281   2.698   0.091
 7618SOL    HW223754   2.349   2.566   0.023
 7619SOL     OW23755   1.854   1.417   4.524
 7619SOL    HW123756   1.915   1.494   4.501
 7619SOL    HW223757   1.855   1.350   4.451
 7620SOL     OW23758   2.991   4.650   0.992
 7620SOL    HW123759   3.090   4.664   0.996
 7620SOL    HW223760   2.957   4.676   0.901
 7621SOL     OW23761   6.070   3.962   0.151
 7621SOL    HW123762   6.007   3.983   0.076
 7621SOL    HW223763   6.062   4.033   0.222
 7622SOL     OW23764   3.156   3.889   1.796
 7622SOL    HW123765   3.147   3.790   1.787
 7622SOL    HW223766   3.066   3.932   1.784
 7623SOL     OW23767   5.324   4.078   1.833
 7623SOL    HW123768   5.242   4.038   1.791
 7623SOL    HW223769   5.309   4.087   1.932
 7624SOL     OW23770   1.271   3.526   2.593
 7624SOL    HW123771   1.322   3.448   2.556
 7624SOL    HW223772   1.238   3.503   2.684
 7625SOL     OW23773   5.315   0.645   1.987
 7625SOL    HW123774   5.344   0.718   1.925
 7625SOL    HW223775   5.238   0.595   1.947
 7626SOL     OW23776   4.631   0.531   6.542
 7626SOL    HW123777   4.543   0.491   6.517
 7626SOL    HW223778   4.640   0.530   6.642
 7627SOL     OW23779   3.768   3.134   6.302
 7627SOL    HW123780   3.860   3.145   6.263
 7627SOL    HW223781   3.720   3.221   6.301
 7628SOL     OW23782   3.387   2.670   0.363
 7628SOL    HW123783   3.327   2.747   0.383
 7628SOL    HW223784   3.348   2.616   0.289
 7629SOL     OW23785   5.803   2.308   2.959
 7629SOL    HW123786   5.744   2.383   2.926
 7629SOL    HW223787   5.896   2.321   2.925
 7630SOL     OW23788   1.331   6.715   3.743
 7630SOL    HW123789   1.254   6.708   3.807
 7630SOL    HW223790   1.384   6.798   3.764
 7631SOL     OW23791   1.117   0.503   5.265
 7631SOL    HW123792   1.109   0.536   5.171
 7631SOL    HW223793   1.052   0.428   5.279
 7632SOL     OW23794   5.162   5.774   0.829
 7632SOL    HW123795   5.145   5.769   0.928
 7632SOL    HW223796   5.117   5.698   0.784
 7633SOL     OW23797   6.200   0.971   1.577
 7633SOL    HW123798   6.158   0.884   1.601
 7633SOL    HW223799   6.242   1.012   1.658
 7634SOL     OW23800   6.696   2.192   6.721
 7634SOL    HW123801   6.736   2.101   6.711
 7634SOL    HW223802   6.597   2.185   6.736
 7635SOL     OW23803   1.907   3.174   5.771
 7635SOL    HW123804   1.883   3.083   5.739
 7635SOL    HW223805   1.986   3.208   5.720
 7636SOL     OW23806   6.579   3.969   4.263
 7636SOL    HW123807   6.608   3.988   4.357
 7636SOL    HW223808   6.488   3.929   4.263
 7637SOL     OW23809   0.789   4.361   4.538
 7637SOL    HW123810   0.820   4.315   4.454
 7637SOL    HW223811   0.750   4.294   4.601
 7638SOL     OW23812   0.201   5.921   1.080
 7638SOL    HW123813   0.241   5.896   0.992
 7638SOL    HW223814   0.250   6.000   1.117
 7639SOL     OW23815   1.704   1.006   0.556
 7639SOL    HW123816   1.654   1.093   0.548
 7639SOL    HW223817   1.640   0.930   0.545
 7640SOL     OW23818   3.060   1.275   0.939
 7640SOL    HW123819   3.031   1.329   1.018
 7640SOL    HW223820   3.129   1.208   0.968
 7641SOL     OW23821   7.005   3.863   4.472
 7641SOL    HW123822   0.044   3.940   4.446
 7641SOL    HW223823   6.979   3.872   4.568
 7642SOL     OW23824   5.382   0.493   3.066
 7642SOL    HW123825   5.357   0.578   3.112
 7642SOL    HW223826   5.443   0.513   2.989
 7643SOL     OW23827   5.150   3.706   4.240
 7643SOL    HW123828   5.160   3.678   4.335
 7643SOL    HW223829   5.195   3.639   4.181
 7644SOL     OW23830   5.099   3.513   0.906
 7644SOL    HW123831   5.102   3.452   0.827
 7644SOL    HW223832   5.182   3.569   0.908
 7645SOL     OW23833   3.654   4.742   0.104
 7645SOL    HW123834   3.588   4.675   0.070
 7645SOL    HW223835   3.734   4.695   0.140
 7646SOL     OW23836   6.647   1.657   0.305
 7646SOL    HW123837   6.593   1.648   0.388
 7646SOL    HW223838   6.742   1.635   0.324
 7647SOL     OW23839   6.954   2.429   4.169
 7647SOL    HW123840   6.926   2.333   4.176
 7647SOL    HW223841   6.892   2.486   4.223
 7648SOL     OW23842   1.985   2.096   1.915
 7648SOL    HW123843   2.051   2.094   1.990
 7648SOL    HW223844   2.026   2.140   1.836
 7649SOL     OW23845   3.882   1.241   6.695
 7649SOL    HW123846   3.918   1.259   6.786
 7649SOL    HW223847   3.940   1.285   6.627
 7650SOL     OW23848   4.184   2.476   0.234
 7650SOL    HW123849   4.252   2.411   0.200
 7650SOL    HW223850   4.154   2.448   0.325
 7651SOL     OW23851   3.370   5.145   6.426
 7651SOL    HW123852   3.310   5.104   6.358
 7651SOL    HW223853   3.316   5.182   6.501
 7652SOL     OW23854   1.009   0.835   3.947
 7652SOL    HW123855   1.031   0.784   4.030
 7652SOL    HW223856   1.089   0.888   3.918
 7653SOL     OW23857   2.424   0.600   6.765
 7653SOL    HW123858   2.448   0.569   6.673
 7653SOL    HW223859   2.449   0.697   6.775
 7654SOL     OW23860   6.521   1.888   6.255
 7654SOL    HW123861   6.435   1.930   6.284
 7654SOL    HW223862   6.533   1.900   6.156
 7655SOL     OW23863   3.599   1.465   4.399
 7655SOL    HW123864   3.527   1.406   4.363
 7655SOL    HW223865   3.661   1.411   4.456
 7656SOL     OW23866   5.886   4.000   6.962
 7656SOL    HW123867   5.885   3.913   6.913
 7656SOL    HW223868   5.792   4.027   6.985
 7657SOL     OW23869   1.438   4.083   4.844
 7657SOL    HW123870   1.527   4.117   4.875
 7657SOL    HW223871   1.375   4.081   4.921
 7658SOL     OW23872   2.709   0.692   0.653
 7658SOL    HW123873   2.753   0.778   0.628
 7658SOL    HW223874   2.767   0.616   0.626
 7659SOL     OW23875   4.955   4.227   5.888
 7659SOL    HW123876   4.905   4.263   5.967
 7659SOL    HW223877   4.999   4.140   5.913
 7660SOL     OW23878   6.727   5.449   5.670
 7660SOL    HW123879   6.788   5.373   5.691
 7660SOL    HW223880   6.721   5.510   5.749
 7661SOL     OW23881   3.934   1.282   5.051
 7661SOL    HW123882   3.888   1.280   5.139
 7661SOL    HW223883   3.867   1.298   4.979
 7662SOL     OW23884   6.810   6.067   1.269
 7662SOL    HW123885   6.745   6.020   1.329
 7662SOL    HW223886   6.800   6.032   1.176
 7663SOL     OW23887   0.493   5.184   4.885
 7663SOL    HW123888   0.576   5.136   4.914
 7663SOL    HW223889   0.518   5.265   4.833
 7664SOL     OW23890   3.790   2.106   2.444
 7664SOL    HW123891   3.794   2.008   2.465
 7664SOL    HW223892   3.697   2.131   2.420
 7665SOL     OW23893   3.795   0.326   5.703
 7665SOL    HW123894   3.842   0.314   5.791
 7665SOL    HW223895   3.781   0.237   5.660
 7666SOL     OW23896   5.476   4.510   3.988
 7666SOL    HW123897   5.393   4.501   3.934
 7666SOL    HW223898   5.523   4.595   3.963
 7667SOL     OW23899   4.206   6.331   2.610
 7667SOL    HW123900   4.215   6.420   2.566
 7667SOL    HW223901   4.235   6.259   2.547
 7668SOL     OW23902   1.734   5.760   0.786
 7668SOL    HW123903   1.638   5.782   0.807
 7668SOL    HW223904   1.768   5.693   0.852
 7669SOL     OW23905   2.613   1.180   6.739
 7669SOL    HW123906   2.568   1.137   6.661
 7669SOL    HW223907   2.557   1.256   6.772
 7670SOL     OW23908   1.095   0.751   0.978
 7670SOL    HW123909   1.084   0.846   0.948
 7670SOL    HW223910   1.033   0.733   1.054
 7671SOL     OW23911   3.317   6.866   1.140
 7671SOL    HW123912   3.247   6.927   1.103
 7671SOL    HW223913   3.276   6.804   1.207
 7672SOL     OW23914   5.051   4.344   1.990
 7672SOL    HW123915   5.048   4.426   2.048
 7672SOL    HW223916   5.105   4.273   2.035
 7673SOL     OW23917   1.788   6.812   4.916
 7673SOL    HW123918   1.771   6.910   4.927
 7673SOL    HW223919   1.701   6.765   4.901
 7674SOL     OW23920   4.199   6.075   5.013
 7674SOL    HW123921   4.293   6.105   5.000
 7674SOL    HW223922   4.167   6.029   4.929
 7675SOL     OW23923   5.077   6.012   3.092
 7675SOL    HW123924   5.155   6.011   3.154
 7675SOL    HW223925   5.056   5.919   3.063
 7676SOL     OW23926   3.704   3.030   5.333
 7676SOL    HW123927   3.663   3.055   5.421
 7676SOL    HW223928   3.663   3.086   5.261
 7677SOL     OW23929   6.566   4.887   0.054
 7677SOL    HW123930   6.500   4.923   0.120
 7677SOL    HW223931   6.549   4.789   0.041
 7678SOL     OW23932   2.933   1.699   4.948
 7678SOL    HW123933   2.875   1.618   4.948
 7678SOL    HW223934   2.980   1.706   5.036
 7679SOL     OW23935   3.782   5.835   4.713
 7679SOL    HW123936   3.748   5.895   4.641
 7679SOL    HW223937   3.874   5.802   4.689
 7680SOL     OW23938   1.840   6.743   4.653
 7680SOL    HW123939   1.806   6.745   4.747
 7680SOL    HW223940   1.926   6.692   4.650
 7681SOL     OW23941   2.242   2.753   5.828
 7681SOL    HW123942   2.338   2.748   5.802
 7681SOL    HW223943   2.230   2.820   5.901
 7682SOL     OW23944   3.253   1.095   2.761
 7682SOL    HW123945   3.169   1.080   2.813
 7682SOL    HW223946   3.237   1.163   2.690
 7683SOL     OW23947   1.146   4.489   4.418
 7683SOL    HW123948   1.230   4.522   4.462
 7683SOL    HW223949   1.156   4.392   4.397
 7684SOL     OW23950   5.025   3.439   1.352
 7684SOL    HW123951   5.096   3.466   1.417
 7684SOL    HW223952   5.045   3.347   1.318
 7685SOL     OW23953   2.464   0.412   0.842
 7685SOL    HW123954   2.506   0.356   0.770
 7685SOL    HW223955   2.526   0.488   0.865
 7686SOL     OW23956   6.792   6.838   4.699
 7686SOL    HW123957   6.884   6.798   4.700
 7686SOL    HW223958   6.736   6.794   4.769
 7687SOL     OW23959   5.401   3.410   6.109
 7687SOL    HW123960   5.480   3.415   6.049
 7687SOL    HW223961   5.398   3.491   6.168
 7688SOL     OW23962   6.608   3.265   6.381
 7688SOL    HW123963   6.672   3.226   6.447
 7688SOL    HW223964   6.550   3.333   6.427
 7689SOL     OW23965   5.031   0.683   1.966
 7689SOL    HW123966   5.013   0.589   1.993
 7689SOL    HW223967   4.977   0.707   1.885
 7690SOL     OW23968   6.044   4.992   2.512
 7690SOL    HW123969   5.999   4.924   2.570
 7690SOL    HW223970   6.091   4.945   2.437
 7691SOL     OW23971   4.882   3.340   4.105
 7691SOL    HW123972   4.915   3.259   4.153
 7691SOL    HW223973   4.880   3.418   4.168
 7692SOL     OW23974   2.898   6.705   2.338
 7692SOL    HW123975   2.923   6.625   2.392
 7692SOL    HW223976   2.847   6.676   2.257
 7693SOL     OW23977   3.020   0.810   1.551
 7693SOL    HW123978   3.049   0.903   1.531
 7693SOL    HW223979   2.950   0.812   1.622
 7694SOL     OW23980   4.531   1.834   6.708
 7694SOL    HW123981   4.473   1.753   6.717
 7694SOL    HW223982   4.627   1.805   6.697
 7695SOL     OW23983   5.104   0.226   3.820
 7695SOL    HW123984   5.083   0.131   3.844
 7695SOL    HW223985   5.055   0.251   3.737
 7696SOL     OW23986   2.029   2.511   5.945
 7696SOL    HW123987   2.052   2.553   5.857
 7696SOL    HW223988   2.104   2.527   6.010
 7697SOL     OW23989   5.968   6.753   3.261
 7697SOL    HW123990   5.914   6.784   3.339
 7697SOL    HW223991   6.056   6.801   3.260
 7698SOL     OW23992   6.123   3.247   1.075
 7698SOL    HW123993   6.175   3.331   1.056
 7698SOL    HW223994   6.076   3.217   0.992
 7699SOL     OW23995   4.723   6.242   5.769
 7699SOL    HW123996   4.776   6.191   5.836
 7699SOL    HW223997   4.780   6.313   5.728
 7700SOL     OW23998   5.328   5.638   1.630
 7700SOL    HW123999   5.238   5.597   1.644
 7700SOL    HW224000   5.392   5.603   1.699
 7701SOL     OW24001   1.445   2.354   6.141
 7701SOL    HW124002   1.422   2.431   6.200
 7701SOL    HW224003   1.422   2.269   6.187
 7702SOL     OW24004   5.106   6.834   4.555
 7702SOL    HW124005   5.175   6.789   4.611
 7702SOL    HW224006   5.062   6.906   4.607
 7703SOL     OW24007   0.146   6.610   5.259
 7703SOL    HW124008   0.218   6.677   5.278
 7703SOL    HW224009   0.189   6.522   5.235
 7704SOL     OW24010   1.062   1.606   4.912
 7704SOL    HW124011   1.103   1.692   4.881
 7704SOL    HW224012   1.134   1.545   4.945
 7705SOL     OW24013   1.177   5.133   6.905
 7705SOL    HW124014   1.202   5.044   6.944
 7705SOL    HW224015   1.232   5.148   6.822
 7706SOL     OW24016   3.568   3.181   2.630
 7706SOL    HW124017   3.619   3.249   2.578
 7706SOL    HW224018   3.623   3.098   2.640
 7707SOL     OW24019   6.464   4.339   6.885
 7707SOL    HW124020   6.446   4.400   6.962
 7707SOL    HW224021   6.398   4.357   6.812
 7708SOL     OW24022   1.803   0.345   4.131
 7708SOL    HW124023   1.807   0.374   4.227
 7708SOL    HW224024   1.745   0.408   4.080
 7709SOL     OW24025   6.790   4.825   1.349
 7709SOL    HW124026   6.876   4.788   1.382
 7709SOL    HW224027   6.775   4.916   1.387
 7710SOL     OW24028   6.264   2.797   1.187
 7710SOL    HW124029   6.268   2.896   1.173
 7710SOL    HW224030   6.201   2.756   1.121
 7711SOL     OW24031   0.259   4.454   4.759
 7711SOL    HW124032   0.328   4.388   4.730
 7711SOL    HW224033   0.174   4.437   4.708
 7712SOL     OW24034   0.142   5.051   5.261
 7712SOL    HW124035   0.137   5.135   5.316
 7712SOL    HW224036   0.061   5.045   5.202
 7713SOL     OW24037   1.317   4.603   0.114
 7713SOL    HW124038   1.398   4.645   0.072
 7713SOL    HW224039   1.329   4.504   0.116
 7714SOL     OW24040   6.214   1.950   5.113
 7714SOL    HW124041   6.226   2.018   5.185
 7714SOL    HW224042   6.117   1.932   5.099
 7715SOL     OW24043   3.516   3.158   5.482
 7715SOL    HW124044   3.556   3.223   5.546
 7715SOL    HW224045   3.424   3.189   5.456
 7716SOL     OW24046   1.185   6.831   5.990
 7716SOL    HW124047   1.103   6.784   5.958
 7716SOL    HW224048   1.242   6.766   6.040
 7717SOL     OW24049   0.281   2.469   6.430
 7717SOL    HW124050   0.334   2.471   6.515
 7717SOL    HW224051   0.193   2.515   6.445
 7718SOL     OW24052   0.346   3.418   3.107
 7718SOL    HW124053   0.383   3.325   3.112
 7718SOL    HW224054   0.282   3.433   3.182
 7719SOL     OW24055   1.741   5.428   5.107
 7719SOL    HW124056   1.685   5.347   5.093
 7719SOL    HW224057   1.822   5.424   5.048
 7720SOL     OW24058   4.382   0.933   6.358
 7720SOL    HW124059   4.479   0.913   6.372
 7720SOL    HW224060   4.327   0.858   6.396
 7721SOL     OW24061   6.567   6.372   2.376
 7721SOL    HW124062   6.629   6.312   2.326
 7721SOL    HW224063   6.614   6.457   2.399
 7722SOL     OW24064   1.308   6.055   3.563
 7722SOL    HW124065   1.239   6.037   3.493
 7722SOL    HW224066   1.399   6.041   3.524
 7723SOL     OW24067   4.949   4.059   6.828
 7723SOL    HW124068   4.865   4.004   6.826
 7723SOL    HW224069   4.951   4.113   6.913
 7724SOL     OW24070   1.932   3.735   0.953
 7724SOL    HW124071   1.942   3.648   1.002
 7724SOL    HW224072   1.880   3.799   1.010
 7725SOL     OW24073   5.481   2.924   4.566
 7725SOL    HW124074   5.570   2.889   4.595
 7725SOL    HW224075   5.409   2.863   4.600
 7726SOL     OW24076   1.738   3.623   6.682
 7726SOL    HW124077   1.704   3.707   6.723
 7726SOL    HW224078   1.794   3.645   6.602
 7727SOL     OW24079   5.013   0.882   2.167
 7727SOL    HW124080   5.016   0.807   2.101
 7727SOL    HW224081   4.929   0.876   2.221
 7728SOL     OW24082   1.849   4.052   4.735
 7728SOL    HW124083   1.778   4.062   4.805
 7728SOL    HW224084   1.936   4.032   4.779
 7729SOL     OW24085   0.043   1.014   2.813
 7729SOL    HW124086   0.114   1.045   2.875
 7729SOL    HW224087   6.983   0.983   2.866
 7730SOL     OW24088   6.690   4.435   5.241
 7730SOL    HW124089   6.781   4.476   5.236
 7730SOL    HW224090   6.685   4.373   5.320
 7731SOL     OW24091   6.311   0.073   5.731
 7731SOL    HW124092   6.283   0.161   5.770
 7731SOL    HW224093   6.411   0.067   5.731
 7732SOL     OW24094   4.047   0.456   6.345
 7732SOL    HW124095   4.102   0.522   6.294
 7732SOL    HW224096   3.968   0.429   6.291
 7733SOL     OW24097   6.869   5.189   1.777
 7733SOL    HW124098   6.843   5.093   1.774
 7733SOL    HW224099   6.969   5.196   1.779
 7734SOL     OW24100   3.730   4.048   3.569
 7734SOL    HW124101   3.809   4.036   3.628
 7734SOL    HW224102   3.648   4.060   3.625
 7735SOL     OW24103   0.336   6.190   1.052
 7735SOL    HW124104   0.373   6.279   1.080
 7735SOL    HW224105   0.320   6.189   0.954
 7736SOL     OW24106   1.528   2.454   0.022
 7736SOL    HW124107   1.539   2.358   7.015
 7736SOL    HW224108   1.453   2.495   6.990
 7737SOL     OW24109   4.379   4.352   6.849
 7737SOL    HW124110   4.378   4.293   6.929
 7737SOL    HW224111   4.293   4.344   6.800
 7738SOL     OW24112   1.999   0.597   5.168
 7738SOL    HW124113   1.955   0.520   5.213
 7738SOL    HW224114   2.098   0.583   5.167
 7739SOL     OW24115   1.755   2.403   0.216
 7739SOL    HW124116   1.745   2.490   0.262
 7739SOL    HW224117   1.837   2.356   0.249
 7740SOL     OW24118   2.408   0.481   5.012
 7740SOL    HW124119   2.338   0.517   5.073
 7740SOL    HW224120   2.496   0.524   5.035
 7741SOL     OW24121   0.498   4.706   6.174
 7741SOL    HW124122   0.596   4.718   6.163
 7741SOL    HW224123   0.457   4.680   6.086
 7742SOL     OW24124   4.594   2.268   4.055
 7742SOL    HW124125   4.546   2.343   4.010
 7742SOL    HW224126   4.687   2.297   4.079
 7743SOL     OW24127   3.778   1.656   5.891
 7743SOL    HW124128   3.819   1.693   5.808
 7743SOL    HW224129   3.762   1.731   5.956
 7744SOL     OW24130   0.946   6.969   4.404
 7744SOL    HW124131   1.035   6.925   4.395
 7744SOL    HW224132   0.886   6.912   4.460
 7745SOL     OW24133   3.027   7.018   1.322
 7745SOL    HW124134   2.960   0.071   1.339
 7745SOL    HW224135   3.059   0.005   1.228
 7746SOL     OW24136   0.496   5.681   1.822
 7746SOL    HW124137   0.532   5.611   1.760
 7746SOL    HW224138   0.439   5.745   1.770
 7747SOL     OW24139   6.813   6.025   0.456
 7747SOL    HW124140   6.789   5.928   0.457
 7747SOL    HW224141   6.769   6.071   0.533
 7748SOL     OW24142   4.285   1.579   5.885
 7748SOL    HW124143   4.344   1.639   5.940
 7748SOL    HW224144   4.338   1.502   5.850
 7749SOL     OW24145   4.043   3.142   3.087
 7749SOL    HW124146   3.994   3.071   3.036
 7749SOL    HW224147   4.060   3.110   3.180
 7750SOL     OW24148   5.152   5.037   5.664
 7750SOL    HW124149   5.186   5.131   5.655
 7750SOL    HW224150   5.224   4.974   5.634
 7751SOL     OW24151   6.879   1.305   4.622
 7751SOL    HW124152   6.900   1.360   4.702
 7751SOL    HW224153   6.782   1.316   4.598
 7752SOL     OW24154   6.521   4.976   5.184
 7752SOL    HW124155   6.519   4.876   5.187
 7752SOL    HW224156   6.610   5.009   5.213
 7753SOL     OW24157   2.513   0.830   5.126
 7753SOL    HW124158   2.557   0.832   5.215
 7753SOL    HW224159   2.415   0.847   5.137
 7754SOL     OW24160   6.410   1.077   1.438
 7754SOL    HW124161   6.494   1.076   1.493
 7754SOL    HW224162   6.335   1.038   1.491
 7755SOL     OW24163   1.664   5.922   5.127
 7755SOL    HW124164   1.707   5.839   5.161
 7755SOL    HW224165   1.701   5.944   5.036
 7756SOL     OW24166   4.085   5.772   3.121
 7756SOL    HW124167   4.045   5.697   3.174
 7756SOL    HW224168   4.169   5.803   3.166
 7757SOL     OW24169   3.616   6.712   5.723
 7757SOL    HW124170   3.562   6.711   5.806
 7757SOL    HW224171   3.700   6.660   5.737
 7758SOL     OW24172   3.213   2.652   6.501
 7758SOL    HW124173   3.186   2.572   6.448
 7758SOL    HW224174   3.137   2.717   6.503
 7759SOL     OW24175   2.117   0.939   5.029
 7759SOL    HW124176   2.022   0.971   5.026
 7759SOL    HW224177   2.158   0.948   4.938
 7760SOL     OW24178   5.377   1.711   3.355
 7760SOL    HW124179   5.412   1.739   3.445
 7760SOL    HW224180   5.284   1.745   3.343
 7761SOL     OW24181   4.023   0.575   6.604
 7761SOL    HW124182   4.013   0.529   6.516
 7761SOL    HW224183   3.933   0.596   6.642
 7762SOL     OW24184   1.530   2.172   0.238
 7762SOL    HW124185   1.567   2.128   0.320
 7762SOL    HW224186   1.583   2.254   0.217
 7763SOL     OW24187   2.325   2.233   1.650
 7763SOL    HW124188   2.419   2.202   1.657
 7763SOL    HW224189   2.322   2.319   1.599
 7764SOL     OW24190   4.107   3.731   2.374
 7764SOL    HW124191   4.111   3.702   2.470
 7764SOL    HW224192   4.198   3.756   2.343
 7765SOL     OW24193   0.182   1.836   2.539
 7765SOL    HW124194   0.260   1.894   2.565
 7765SOL    HW224195   0.155   1.858   2.445
 7766SOL     OW24196   0.004   3.692   0.462
 7766SOL    HW124197   6.968   3.631   0.520
 7766SOL    HW224198   0.088   3.644   0.434
 7767SOL     OW24199   5.784   4.243   5.291
 7767SOL    HW124200   5.832   4.202   5.368
 7767SOL    HW224201   5.686   4.251   5.312
 7768SOL     OW24202   4.293   5.288   1.443
 7768SOL    HW124203   4.317   5.365   1.502
 7768SOL    HW224204   4.200   5.301   1.407
 7769SOL     OW24205   6.529   1.994   2.180
 7769SOL    HW124206   6.623   2.024   2.168
 7769SOL    HW224207   6.507   1.990   2.278
 7770SOL     OW24208   3.372   5.511   0.835
 7770SOL    HW124209   3.454   5.520   0.892
 7770SOL    HW224210   3.294   5.554   0.880
 7771SOL     OW24211   2.741   0.822   4.547
 7771SOL    HW124212   2.813   0.791   4.484
 7771SOL    HW224213   2.774   0.902   4.598
 7772SOL     OW24214   5.602   1.097   5.005
 7772SOL    HW124215   5.626   1.138   5.093
 7772SOL    HW224216   5.643   1.007   4.998
 7773SOL     OW24217   3.935   4.469   5.594
 7773SOL    HW124218   4.029   4.443   5.571
 7773SOL    HW224219   3.905   4.415   5.673
 7774SOL     OW24220   4.621   1.325   6.679
 7774SOL    HW124221   4.673   1.362   6.602
 7774SOL    HW224222   4.664   1.241   6.710
 7775SOL     OW24223   2.441   6.662   2.163
 7775SOL    HW124224   2.540   6.676   2.159
 7775SOL    HW224225   2.419   6.569   2.133
 7776SOL     OW24226   3.815   4.003   0.952
 7776SOL    HW124227   3.772   4.016   0.863
 7776SOL    HW224228   3.907   4.043   0.952
 7777SOL     OW24229   1.297   0.311   6.872
 7777SOL    HW124230   1.378   0.258   6.898
 7777SOL    HW224231   1.277   0.378   6.943
 7778SOL     OW24232   5.027   1.056   1.476
 7778SOL    HW124233   5.028   1.129   1.408
 7778SOL    HW224234   5.111   1.003   1.470
 7779SOL     OW24235   4.174   2.841   0.221
 7779SOL    HW124236   4.145   2.836   0.316
 7779SOL    HW224237   4.195   2.749   0.188
 7780SOL     OW24238   0.973   0.205   4.654
 7780SOL    HW124239   1.040   0.156   4.709
 7780SOL    HW224240   0.998   0.198   4.557
 7781SOL     OW24241   1.377   4.738   5.410
 7781SOL    HW124242   1.352   4.647   5.375
 7781SOL    HW224243   1.370   4.805   5.336
 7782SOL     OW24244   4.345   4.802   0.276
 7782SOL    HW124245   4.421   4.737   0.269
 7782SOL    HW224246   4.346   4.864   0.197
 7783SOL     OW24247   2.377   5.134   6.633
 7783SOL    HW124248   2.418   5.163   6.546
 7783SOL    HW224249   2.426   5.175   6.709
 7784SOL     OW24250   0.433   2.843   6.848
 7784SOL    HW124251   0.441   2.807   6.755
 7784SOL    HW224252   0.521   2.880   6.878
 7785SOL     OW24253   2.005   5.498   4.974
 7785SOL    HW124254   2.030   5.404   4.995
 7785SOL    HW224255   2.001   5.551   5.059
 7786SOL     OW24256   3.364   4.175   4.448
 7786SOL    HW124257   3.351   4.272   4.427
 7786SOL    HW224258   3.461   4.156   4.460
 7787SOL     OW24259   2.925   2.471   5.275
 7787SOL    HW124260   2.861   2.398   5.250
 7787SOL    HW224261   3.016   2.449   5.239
 7788SOL     OW24262   0.584   1.672   0.173
 7788SOL    HW124263   0.524   1.746   0.142
 7788SOL    HW224264   0.555   1.641   0.263
 7789SOL     OW24265   2.036   0.383   1.382
 7789SOL    HW124266   2.087   0.396   1.467
 7789SOL    HW224267   1.938   0.376   1.402
 7790SOL     OW24268   6.199   3.719   2.913
 7790SOL    HW124269   6.158   3.710   2.822
 7790SOL    HW224270   6.296   3.741   2.903
 7791SOL     OW24271   0.684   4.457   4.883
 7791SOL    HW124272   0.727   4.491   4.967
 7791SOL    HW224273   0.645   4.534   4.832
 7792SOL     OW24274   2.328   5.818   6.199
 7792SOL    HW124275   2.244   5.821   6.144
 7792SOL    HW224276   2.380   5.735   6.176
 7793SOL     OW24277   1.705   0.959   6.714
 7793SOL    HW124278   1.793   0.914   6.701
 7793SOL    HW224279   1.699   1.039   6.654
 7794SOL     OW24280   5.225   5.554   3.052
 7794SOL    HW124281   5.214   5.454   3.059
 7794SOL    HW224282   5.290   5.575   2.979
 7795SOL     OW24283   1.860   5.066   5.874
 7795SOL    HW124284   1.836   4.977   5.914
 7795SOL    HW224285   1.788   5.132   5.894
 7796SOL     OW24286   3.856   3.169   4.437
 7796SOL    HW124287   3.908   3.162   4.522
 7796SOL    HW224288   3.849   3.264   4.409
 7797SOL     OW24289   0.977   7.013   3.044
 7797SOL    HW124290   1.066   0.011   3.086
 7797SOL    HW224291   0.980   6.927   2.994
 7798SOL     OW24292   4.011   5.978   6.586
 7798SOL    HW124293   4.077   5.918   6.632
 7798SOL    HW224294   4.058   6.031   6.516
 7799SOL     OW24295   6.176   4.666   1.306
 7799SOL    HW124296   6.108   4.593   1.312
 7799SOL    HW224297   6.251   4.647   1.370
 7800SOL     OW24298   0.637   6.307   2.082
 7800SOL    HW124299   0.700   6.234   2.053
 7800SOL    HW224300   0.613   6.295   2.178
 7801SOL     OW24301   3.716   2.513   5.346
 7801SOL    HW124302   3.719   2.608   5.314
 7801SOL    HW224303   3.720   2.511   5.446
 7802SOL     OW24304   5.921   1.867   0.698
 7802SOL    HW124305   5.841   1.832   0.648
 7802SOL    HW224306   5.969   1.933   0.642
 7803SOL     OW24307   3.092   4.011   5.642
 7803SOL    HW124308   2.996   4.010   5.615
 7803SOL    HW224309   3.142   4.077   5.586
 7804SOL     OW24310   4.774   1.421   6.467
 7804SOL    HW124311   4.813   1.348   6.411
 7804SOL    HW224312   4.847   1.478   6.504
 7805SOL     OW24313   5.530   3.449   2.118
 7805SOL    HW124314   5.601   3.484   2.179
 7805SOL    HW224315   5.440   3.469   2.156
 7806SOL     OW24316   4.940   3.277   6.721
 7806SOL    HW124317   4.954   3.183   6.752
 7806SOL    HW224318   4.856   3.283   6.668
 7807SOL     OW24319   0.070   3.237   0.089
 7807SOL    HW124320   0.168   3.217   0.101
 7807SOL    HW224321   0.036   3.284   0.170
 7808SOL     OW24322   0.900   1.569   5.265
 7808SOL    HW124323   0.886   1.475   5.234
 7808SOL    HW224324   0.872   1.632   5.192
 7809SOL     OW24325   1.553   5.288   5.795
 7809SOL    HW124326   1.532   5.377   5.837
 7809SOL    HW224327   1.558   5.218   5.867
 7810SOL     OW24328   2.285   1.165   6.802
 7810SOL    HW124329   2.326   1.237   6.858
 7810SOL    HW224330   2.232   1.205   6.728
 7811SOL     OW24331   0.473   4.649   4.731
 7811SOL    HW124332   0.386   4.606   4.755
 7811SOL    HW224333   0.467   4.747   4.751
 7812SOL     OW24334   0.427   1.875   4.191
 7812SOL    HW124335   0.354   1.943   4.197
 7812SOL    HW224336   0.391   1.786   4.217
 7813SOL     OW24337   6.510   2.547   1.041
 7813SOL    HW124338   6.498   2.584   1.133
 7813SOL    HW224339   6.445   2.473   1.026
 7814SOL     OW24340   1.673   3.905   4.084
 7814SOL    HW124341   1.747   3.866   4.029
 7814SOL    HW224342   1.656   3.999   4.055
 7815SOL     OW24343   0.208   1.538   6.297
 7815SOL    HW124344   0.194   1.534   6.199
 7815SOL    HW224345   0.303   1.560   6.317
 7816SOL     OW24346   1.223   4.080   5.022
 7816SOL    HW124347   1.210   4.017   5.099
 7816SOL    HW224348   1.162   4.054   4.947
 7817SOL     OW24349   5.342   3.541   5.147
 7817SOL    HW124350   5.333   3.527   5.246
 7817SOL    HW224351   5.270   3.603   5.115
 7818SOL     OW24352   4.946   5.079   2.746
 7818SOL    HW124353   4.945   4.979   2.754
 7818SOL    HW224354   5.035   5.114   2.777
 7819SOL     OW24355   0.257   1.726   1.362
 7819SOL    HW124356   0.235   1.783   1.282
 7819SOL    HW224357   0.193   1.650   1.368
 7820SOL     OW24358   2.073   7.010   6.249
 7820SOL    HW124359   2.040   0.055   6.180
 7820SOL    HW224360   2.162   6.973   6.221
 7821SOL     OW24361   2.711   5.483   0.740
 7821SOL    HW124362   2.733   5.418   0.668
 7821SOL    HW224363   2.767   5.464   0.821
 7822SOL     OW24364   1.403   6.645   5.725
 7822SOL    HW124365   1.478   6.681   5.782
 7822SOL    HW224366   1.437   6.628   5.632
 7823SOL     OW24367   1.889   4.352   4.989
 7823SOL    HW124368   1.973   4.302   4.970
 7823SOL    HW224369   1.889   4.385   5.083
 7824SOL     OW24370   0.508   3.462   5.490
 7824SOL    HW124371   0.508   3.379   5.547
 7824SOL    HW224372   0.565   3.531   5.533
 7825SOL     OW24373   3.143   0.809   6.927
 7825SOL    HW124374   3.205   0.800   6.849
 7825SOL    HW224375   3.073   0.877   6.906
 7826SOL     OW24376   0.842   3.429   5.757
 7826SOL    HW124377   0.860   3.342   5.710
 7826SOL    HW224378   0.928   3.466   5.792
 7827SOL     OW24379   6.400   5.382   4.628
 7827SOL    HW124380   6.399   5.369   4.727
 7827SOL    HW224381   6.493   5.398   4.597
 7828SOL     OW24382   0.720   4.856   6.623
 7828SOL    HW124383   0.697   4.819   6.714
 7828SOL    HW224384   0.657   4.931   6.602
 7829SOL     OW24385   4.173   3.629   0.742
 7829SOL    HW124386   4.266   3.601   0.764
 7829SOL    HW224387   4.165   3.729   0.747
 7830SOL     OW24388   2.610   5.824   3.852
 7830SOL    HW124389   2.622   5.735   3.806
 7830SOL    HW224390   2.619   5.897   3.784
 7831SOL     OW24391   1.712   7.015   6.817
 7831SOL    HW124392   1.789   0.055   6.837
 7831SOL    HW224393   1.713   6.989   6.721
 7832SOL     OW24394   6.410   0.955   4.852
 7832SOL    HW124395   6.507   0.960   4.878
 7832SOL    HW224396   6.360   0.903   4.922
 7833SOL     OW24397   0.931   0.671   3.175
 7833SOL    HW124398   0.884   0.610   3.239
 7833SOL    HW224399   0.995   0.729   3.226
 7834SOL     OW24400   6.580   3.392   5.687
 7834SOL    HW124401   6.560   3.485   5.656
 7834SOL    HW224402   6.541   3.326   5.622
 7835SOL     OW24403   4.351   2.567   5.766
 7835SOL    HW124404   4.261   2.603   5.742
 7835SOL    HW224405   4.376   2.494   5.703
 7836SOL     OW24406   3.271   3.698   4.232
 7836SOL    HW124407   3.369   3.700   4.212
 7836SOL    HW224408   3.238   3.791   4.247
 7837SOL     OW24409   0.465   5.868   6.752
 7837SOL    HW124410   0.470   5.952   6.698
 7837SOL    HW224411   0.485   5.889   6.848
 7838SOL     OW24412   4.525   5.458   2.420
 7838SOL    HW124413   4.487   5.473   2.328
 7838SOL    HW224414   4.487   5.525   2.483
 7839SOL     OW24415   5.978   3.283   4.216
 7839SOL    HW124416   5.948   3.285   4.120
 7839SOL    HW224417   5.962   3.192   4.254
 7840SOL     OW24418   1.904   3.106   4.203
 7840SOL    HW124419   1.906   3.084   4.301
 7840SOL    HW224420   1.837   3.179   4.187
 7841SOL     OW24421   3.845   2.310   6.392
 7841SOL    HW124422   3.753   2.347   6.377
 7841SOL    HW224423   3.908   2.385   6.413
 7842SOL     OW24424   1.141   0.679   1.743
 7842SOL    HW124425   1.065   0.741   1.759
 7842SOL    HW224426   1.212   0.725   1.689
 7843SOL     OW24427   0.164   6.176   2.909
 7843SOL    HW124428   0.163   6.193   2.810
 7843SOL    HW224429   0.224   6.100   2.930
 7844SOL     OW24430   3.771   0.018   2.244
 7844SOL    HW124431   3.798   0.094   2.303
 7844SOL    HW224432   3.852   6.992   2.209
 7845SOL     OW24433   6.476   2.624   1.289
 7845SOL    HW124434   6.445   2.530   1.305
 7845SOL    HW224435   6.399   2.681   1.261
 7846SOL     OW24436   1.139   1.089   0.663
 7846SOL    HW124437   1.209   1.037   0.614
 7846SOL    HW224438   1.146   1.186   0.639
 7847SOL     OW24439   5.616   4.774   6.297
 7847SOL    HW124440   5.647   4.680   6.306
 7847SOL    HW224441   5.623   4.820   6.386
 7848SOL     OW24442   3.268   4.648   0.454
 7848SOL    HW124443   3.205   4.679   0.383
 7848SOL    HW224444   3.362   4.671   0.429
 7849SOL     OW24445   4.255   5.336   0.116
 7849SOL    HW124446   4.203   5.350   0.032
 7849SOL    HW224447   4.193   5.339   0.195
 7850SOL     OW24448   0.004   1.147   4.427
 7850SOL    HW124449   0.095   1.135   4.466
 7850SOL    HW224450   6.961   1.180   4.498
 7851SOL     OW24451   0.099   4.593   1.086
 7851SOL    HW124452   0.024   4.544   1.130
 7851SOL    HW224453   0.071   4.624   0.995
 7852SOL     OW24454   1.487   2.912   6.920
 7852SOL    HW124455   1.519   2.996   6.877
 7852SOL    HW224456   1.442   2.854   6.853
 7853SOL     OW24457   4.265   2.932   1.599
 7853SOL    HW124458   4.209   2.957   1.520
 7853SOL    HW224459   4.354   2.977   1.592
 7854SOL     OW24460   4.628   1.165   0.167
 7854SOL    HW124461   4.702   1.190   0.105
 7854SOL    HW224462   4.544   1.212   0.140
 7855SOL     OW24463   5.199   6.523   3.943
 7855SOL    HW124464   5.284   6.541   3.894
 7855SOL    HW224465   5.215   6.455   4.014
 7856SOL     OW24466   2.167   6.474   5.397
 7856SOL    HW124467   2.222   6.424   5.331
 7856SOL    HW224468   2.163   6.423   5.483
 7857SOL     OW24469   6.248   4.199   0.860
 7857SOL    HW124470   6.167   4.258   0.867
 7857SOL    HW224471   6.318   4.231   0.923
 7858SOL     OW24472   6.905   3.975   6.357
 7858SOL    HW124473   6.900   4.075   6.359
 7858SOL    HW224474   6.821   3.936   6.394
 7859SOL     OW24475   5.098   1.853   0.507
 7859SOL    HW124476   5.061   1.945   0.496
 7859SOL    HW224477   5.165   1.835   0.436
 7860SOL     OW24478   2.779   1.110   4.357
 7860SOL    HW124479   2.699   1.061   4.323
 7860SOL    HW224480   2.766   1.208   4.345
 7861SOL     OW24481   2.250   6.468   0.469
 7861SOL    HW124482   2.258   6.551   0.524
 7861SOL    HW224483   2.195   6.486   0.388
 7862SOL     OW24484   1.521   6.477   0.064
 7862SOL    HW124485   1.577   6.396   0.047
 7862SOL    HW224486   1.529   6.540   7.005
 7863SOL     OW24487   1.420   4.055   3.946
 7863SOL    HW124488   1.408   4.137   3.890
 7863SOL    HW224489   1.331   4.011   3.960
 7864SOL     OW24490   2.242   5.935   5.451
 7864SOL    HW124491   2.274   5.955   5.358
 7864SOL    HW224492   2.163   5.992   5.472
 7865SOL     OW24493   5.911   4.023   3.037
 7865SOL    HW124494   5.822   4.006   2.994
 7865SOL    HW224495   5.963   4.087   2.980
 7866SOL     OW24496   0.890   0.875   5.616
 7866SOL    HW124497   0.973   0.876   5.672
 7866SOL    HW224498   0.832   0.952   5.642
 7867SOL     OW24499   4.268   5.262   3.728
 7867SOL    HW124500   4.227   5.319   3.800
 7867SOL    HW224501   4.202   5.195   3.696
 7868SOL     OW24502   3.002   6.225   1.670
 7868SOL    HW124503   2.904   6.218   1.690
 7868SOL    HW224504   3.014   6.258   1.576
 7869SOL     OW24505   6.089   5.003   6.947
 7869SOL    HW124506   6.012   5.005   6.884
 7869SOL    HW224507   6.174   4.994   6.895
 7870SOL     OW24508   5.955   6.300   3.994
 7870SOL    HW124509   5.989   6.216   4.037
 7870SOL    HW224510   5.900   6.351   4.060
 7871SOL     OW24511   4.330   1.250   0.685
 7871SOL    HW124512   4.333   1.350   0.678
 7871SOL    HW224513   4.356   1.210   0.597
 7872SOL     OW24514   0.877   5.384   2.923
 7872SOL    HW124515   0.925   5.326   2.989
 7872SOL    HW224516   0.933   5.465   2.904
 7873SOL     OW24517   4.862   1.860   0.144
 7873SOL    HW124518   4.765   1.881   0.130
 7873SOL    HW224519   4.916   1.944   0.141
 7874SOL     OW24520   5.766   2.238   0.634
 7874SOL    HW124521   5.740   2.222   0.730
 7874SOL    HW224522   5.726   2.166   0.577
 7875SOL     OW24523   5.902   4.403   6.523
 7875SOL    HW124524   5.971   4.355   6.578
 7875SOL    HW224525   5.946   4.444   6.444
 7876SOL     OW24526   1.080   0.126   3.621
 7876SOL    HW124527   1.039   0.192   3.559
 7876SOL    HW224528   1.175   0.108   3.592
 7877SOL     OW24529   6.797   2.709   3.169
 7877SOL    HW124530   6.868   2.693   3.238
 7877SOL    HW224531   6.787   2.627   3.112
 7878SOL     OW24532   4.213   6.047   2.917
 7878SOL    HW124533   4.309   6.019   2.915
 7878SOL    HW224534   4.196   6.101   2.999
 7879SOL     OW24535   3.112   5.116   2.947
 7879SOL    HW124536   3.118   5.194   3.010
 7879SOL    HW224537   3.138   5.146   2.855
 7880SOL     OW24538   1.318   4.796   2.457
 7880SOL    HW124539   1.230   4.807   2.410
 7880SOL    HW224540   1.307   4.735   2.535
 7881SOL     OW24541   4.990   4.040   3.763
 7881SOL    HW124542   4.960   3.991   3.681
 7881SOL    HW224543   4.918   4.036   3.832
 7882SOL     OW24544   0.637   3.327   0.211
 7882SOL    HW124545   0.630   3.315   0.112
 7882SOL    HW224546   0.725   3.290   0.242
 7883SOL     OW24547   0.824   0.463   5.165
 7883SOL    HW124548   0.772   0.424   5.089
 7883SOL    HW224549   0.889   0.530   5.130
 7884SOL     OW24550   0.826   2.957   4.439
 7884SOL    HW124551   0.842   2.866   4.402
 7884SOL    HW224552   0.913   3.005   4.448
 7885SOL     OW24553   0.077   6.323   6.755
 7885SOL    HW124554   0.130   6.344   6.838
 7885SOL    HW224555   0.020   6.402   6.732
 7886SOL     OW24556   5.369   4.303   1.214
 7886SOL    HW124557   5.368   4.267   1.308
 7886SOL    HW224558   5.278   4.335   1.190
 7887SOL     OW24559   4.607   3.354   6.051
 7887SOL    HW124560   4.650   3.392   5.969
 7887SOL    HW224561   4.538   3.287   6.024
 7888SOL     OW24562   5.340   6.091   4.985
 7888SOL    HW124563   5.368   6.121   4.894
 7888SOL    HW224564   5.306   5.997   4.980
 7889SOL     OW24565   0.050   5.041   3.197
 7889SOL    HW124566   0.118   5.008   3.261
 7889SOL    HW224567   0.051   4.984   3.114
 7890SOL     OW24568   1.816   3.061   2.191
 7890SOL    HW124569   1.791   3.134   2.128
 7890SOL    HW224570   1.861   3.099   2.271
 7891SOL     OW24571   1.100   4.818   2.741
 7891SOL    HW124572   1.192   4.791   2.768
 7891SOL    HW224573   1.091   4.917   2.746
 7892SOL     OW24574   2.243   2.236   5.232
 7892SOL    HW124575   2.295   2.231   5.147
 7892SOL    HW224576   2.277   2.312   5.287
 7893SOL     OW24577   6.403   6.688   1.600
 7893SOL    HW124578   6.452   6.730   1.677
 7893SOL    HW224579   6.367   6.600   1.628
 7894SOL     OW24580   2.850   0.262   1.935
 7894SOL    HW124581   2.819   0.191   1.997
 7894SOL    HW224582   2.922   0.225   1.876
 7895SOL     OW24583   6.838   1.366   3.358
 7895SOL    HW124584   6.785   1.334   3.437
 7895SOL    HW224585   6.863   1.288   3.301
 7896SOL     OW24586   4.351   1.922   6.551
 7896SOL    HW124587   4.430   1.892   6.605
 7896SOL    HW224588   4.380   1.940   6.457
 7897SOL     OW24589   3.133   3.046   6.483
 7897SOL    HW124590   3.208   3.094   6.437
 7897SOL    HW224591   3.110   3.094   6.568
 7898SOL     OW24592   5.166   1.895   3.379
 7898SOL    HW124593   5.078   1.849   3.366
 7898SOL    HW224594   5.163   1.986   3.337
 7899SOL     OW24595   4.314   1.387   2.478
 7899SOL    HW124596   4.328   1.486   2.485
 7899SOL    HW224597   4.260   1.356   2.556
 7900SOL     OW24598   1.348   5.628   0.959
 7900SOL    HW124599   1.406   5.683   1.019
 7900SOL    HW224600   1.389   5.623   0.868
 7901SOL     OW24601   6.432   5.536   0.978
 7901SOL    HW124602   6.389   5.626   0.987
 7901SOL    HW224603   6.364   5.469   0.949
 7902SOL     OW24604   5.183   4.624   5.976
 7902SOL    HW124605   5.197   4.532   6.012
 7902SOL    HW224606   5.271   4.667   5.959
 7903SOL     OW24607   0.245   2.442   6.890
 7903SOL    HW124608   0.189   2.502   6.946
 7903SOL    HW224609   0.318   2.403   6.946
 7904SOL     OW24610   6.067   1.777   2.285
 7904SOL    HW124611   6.092   1.872   2.270
 7904SOL    HW224612   5.969   1.770   2.304
 7905SOL     OW24613   2.104   2.323   1.792
 7905SOL    HW124614   2.157   2.322   1.877
 7905SOL    HW224615   2.166   2.309   1.715
 7906SOL     OW24616   0.637   4.280   0.699
 7906SOL    HW124617   0.649   4.330   0.613
 7906SOL    HW224618   0.715   4.219   0.713
 7907SOL     OW24619   6.378   2.714   2.053
 7907SOL    HW124620   6.306   2.705   1.984
 7907SOL    HW224621   6.453   2.652   2.031
 7908SOL     OW24622   6.836   1.185   3.165
 7908SOL    HW124623   6.851   1.241   3.084
 7908SOL    HW224624   6.908   1.116   3.171
 7909SOL     OW24625   4.082   6.310   4.994
 7909SOL    HW124626   4.123   6.221   5.013
 7909SOL    HW224627   4.147   6.382   5.020
 7910SOL     OW24628   5.864   3.223   6.187
 7910SOL    HW124629   5.940   3.251   6.129
 7910SOL    HW224630   5.899   3.181   6.271
 7911SOL     OW24631   6.953   5.387   6.772
 7911SOL    HW124632   6.982   5.476   6.809
 7911SOL    HW224633   6.854   5.386   6.760
 7912SOL     OW24634   0.302   4.874   5.427
 7912SOL    HW124635   0.241   4.915   5.495
 7912SOL    HW224636   0.291   4.922   5.339
 7913SOL     OW24637   1.253   6.377   6.566
 7913SOL    HW124638   1.310   6.294   6.573
 7913SOL    HW224639   1.215   6.383   6.474
 7914SOL     OW24640   6.505   3.962   1.336
 7914SOL    HW124641   6.523   3.866   1.357
 7914SOL    HW224642   6.566   3.992   1.262
 7915SOL     OW24643   3.746   1.098   2.331
 7915SOL    HW124644   3.703   1.018   2.373
 7915SOL    HW224645   3.790   1.072   2.245
 7916SOL     OW24646   4.873   3.777   5.614
 7916SOL    HW124647   4.819   3.807   5.693
 7916SOL    HW224648   4.826   3.803   5.530
 7917SOL     OW24649   4.170   3.625   3.485
 7917SOL    HW124650   4.136   3.564   3.412
 7917SOL    HW224651   4.249   3.675   3.451
 7918SOL     OW24652   6.811   2.567   2.306
 7918SOL    HW124653   6.850   2.612   2.386
 7918SOL    HW224654   6.724   2.610   2.282
 7919SOL     OW24655   5.700   4.455   1.835
 7919SOL    HW124656   5.627   4.404   1.789
 7919SOL    HW224657   5.679   4.552   1.834
 7920SOL     OW24658   0.375   6.698   2.103
 7920SOL    HW124659   0.467   6.731   2.125
 7920SOL    HW224660   0.382   6.612   2.052
 7921SOL     OW24661   2.827   6.445   2.025
 7921SOL    HW124662   2.819   6.363   2.082
 7921SOL    HW224663   2.922   6.476   2.024
 7922SOL     OW24664   0.937   4.520   6.231
 7922SOL    HW124665   1.014   4.503   6.292
 7922SOL    HW224666   0.965   4.503   6.137
 7923SOL     OW24667   0.731   1.991   3.072
 7923SOL    HW124668   0.756   1.916   3.133
 7923SOL    HW224669   0.699   2.069   3.126
 7924SOL     OW24670   2.088   0.941   3.776
 7924SOL    HW124671   2.145   1.001   3.721
 7924SOL    HW224672   2.038   0.878   3.716
 7925SOL     OW24673   0.146   1.771   6.774
 7925SOL    HW124674   0.087   1.767   6.694
 7925SOL    HW224675   0.126   1.854   6.827
 7926SOL     OW24676   3.404   6.872   1.761
 7926SOL    HW124677   3.330   6.805   1.766
 7926SOL    HW224678   3.372   6.960   1.797
 7927SOL     OW24679   4.765   4.113   4.464
 7927SOL    HW124680   4.725   4.021   4.471
 7927SOL    HW224681   4.724   4.172   4.534
 7928SOL     OW24682   0.968   4.347   6.868
 7928SOL    HW124683   1.001   4.312   6.781
 7928SOL    HW224684   0.894   4.289   6.902
 7929SOL     OW24685   4.105   3.663   4.450
 7929SOL    HW124686   4.120   3.751   4.494
 7929SOL    HW224687   4.106   3.675   4.351
 7930SOL     OW24688   5.673   6.157   3.342
 7930SOL    HW124689   5.627   6.192   3.423
 7930SOL    HW224690   5.611   6.162   3.264
 7931SOL     OW24691   2.624   3.247   0.034
 7931SOL    HW124692   2.630   3.276   6.958
 7931SOL    HW224693   2.693   3.295   0.088
 7932SOL     OW24694   3.063   0.214   0.420
 7932SOL    HW124695   2.998   0.196   0.345
 7932SOL    HW224696   3.026   0.179   0.505
 7933SOL     OW24697   1.828   0.981   6.010
 7933SOL    HW124698   1.827   0.953   5.914
 7933SOL    HW224699   1.751   1.042   6.028
 7934SOL     OW24700   4.086   2.741   5.713
 7934SOL    HW124701   4.015   2.726   5.781
 7934SOL    HW224702   4.130   2.830   5.730
 7935SOL     OW24703   4.738   5.984   1.649
 7935SOL    HW124704   4.665   5.919   1.627
 7935SOL    HW224705   4.821   5.959   1.599
 7936SOL     OW24706   4.049   6.260   2.810
 7936SOL    HW124707   4.105   6.291   2.733
 7936SOL    HW224708   4.100   6.193   2.864
 7937SOL     OW24709   6.317   0.597   5.789
 7937SOL    HW124710   6.401   0.601   5.734
 7937SOL    HW224711   6.341   0.602   5.886
 7938SOL     OW24712   6.016   4.928   4.211
 7938SOL    HW124713   6.072   4.970   4.139
 7938SOL    HW224714   6.074   4.896   4.285
 7939SOL     OW24715   0.137   6.475   4.175
 7939SOL    HW124716   0.161   6.378   4.182
 7939SOL    HW224717   0.220   6.528   4.155
 7940SOL     OW24718   1.903   5.974   0.768
 7940SOL    HW124719   1.834   6.032   0.725
 7940SOL    HW224720   1.865   5.883   0.782
 7941SOL     OW24721   0.066   0.533   0.745
 7941SOL    HW124722   0.142   0.571   0.799
 7941SOL    HW224723   7.000   0.541   0.797
 7942SOL     OW24724   1.225   1.142   1.032
 7942SOL    HW124725   1.295   1.095   0.978
 7942SOL    HW224726   1.134   1.110   1.004
 7943SOL     OW24727   6.186   2.355   0.293
 7943SOL    HW124728   6.109   2.395   0.244
 7943SOL    HW224729   6.271   2.402   0.268
 7944SOL     OW24730   6.936   3.163   1.953
 7944SOL    HW124731   6.868   3.156   2.026
 7944SOL    HW224732   6.894   3.135   1.866
 7945SOL     OW24733   5.252   6.579   1.132
 7945SOL    HW124734   5.341   6.542   1.104
 7945SOL    HW224735   5.189   6.578   1.055
 7946SOL     OW24736   1.377   1.368   6.160
 7946SOL    HW124737   1.453   1.348   6.221
 7946SOL    HW224738   1.385   1.461   6.125
 7947SOL     OW24739   4.430   5.285   6.288
 7947SOL    HW124740   4.525   5.316   6.282
 7947SOL    HW224741   4.384   5.302   6.200
 7948SOL     OW24742   0.882   4.934   5.927
 7948SOL    HW124743   0.793   4.903   5.894
 7948SOL    HW224744   0.888   5.034   5.918
 7949SOL     OW24745   6.272   3.877   3.980
 7949SOL    HW124746   6.333   3.952   3.955
 7949SOL    HW224747   6.288   3.850   4.075
 7950SOL     OW24748   3.638   5.214   4.296
 7950SOL    HW124749   3.724   5.237   4.343
 7950SOL    HW224750   3.656   5.203   4.198
 7951SOL     OW24751   2.978   3.205   0.444
 7951SOL    HW124752   2.891   3.248   0.468
 7951SOL    HW224753   3.006   3.142   0.516
 7952SOL     OW24754   4.877   4.852   0.433
 7952SOL    HW124755   4.889   4.852   0.333
 7952SOL    HW224756   4.946   4.912   0.474
 7953SOL     OW24757   2.153   3.330   2.855
 7953SOL    HW124758   2.143   3.272   2.937
 7953SOL    HW224759   2.148   3.426   2.882
 7954SOL     OW24760   5.240   5.568   4.549
 7954SOL    HW124761   5.215   5.512   4.628
 7954SOL    HW224762   5.183   5.543   4.470
 7955SOL     OW24763   1.366   6.640   6.089
 7955SOL    HW124764   1.383   6.562   6.150
 7955SOL    HW224765   1.454   6.682   6.065
 7956SOL     OW24766   6.377   6.869   3.001
 7956SOL    HW124767   6.438   6.790   2.998
 7956SOL    HW224768   6.329   6.878   2.914
 7957SOL     OW24769   0.632   2.197   1.060
 7957SOL    HW124770   0.551   2.254   1.046
 7957SOL    HW224771   0.686   2.234   1.136
 7958SOL     OW24772   2.397   5.204   3.548
 7958SOL    HW124773   2.485   5.169   3.514
 7958SOL    HW224774   2.398   5.204   3.648
 7959SOL     OW24775   5.182   5.557   1.207
 7959SOL    HW124776   5.100   5.502   1.227
 7959SOL    HW224777   5.154   5.647   1.174
 7960SOL     OW24778   2.316   2.491   0.837
 7960SOL    HW124779   2.384   2.522   0.771
 7960SOL    HW224780   2.352   2.504   0.930
 7961SOL     OW24781   1.603   6.159   0.321
 7961SOL    HW124782   1.523   6.202   0.279
 7961SOL    HW224783   1.664   6.229   0.357
 7962SOL     OW24784   1.641   6.606   1.917
 7962SOL    HW124785   1.603   6.674   1.980
 7962SOL    HW224786   1.740   6.606   1.924
 7963SOL     OW24787   0.919   6.376   4.884
 7963SOL    HW124788   0.975   6.446   4.929
 7963SOL    HW224789   0.948   6.285   4.915
 7964SOL     OW24790   6.423   5.430   3.678
 7964SOL    HW124791   6.425   5.347   3.735
 7964SOL    HW224792   6.341   5.428   3.621
 7965SOL     OW24793   5.257   1.818   0.315
 7965SOL    HW124794   5.187   1.833   0.245
 7965SOL    HW224795   5.347   1.815   0.271
 7966SOL     OW24796   0.084   6.392   3.607
 7966SOL    HW124797   0.001   6.337   3.597
 7966SOL    HW224798   0.070   6.483   3.568
 7967SOL     OW24799   3.187   6.940   2.933
 7967SOL    HW124800   3.141   0.001   2.971
 7967SOL    HW224801   3.137   6.907   2.854
 7968SOL     OW24802   1.909   0.816   1.644
 7968SOL    HW124803   1.866   0.768   1.568
 7968SOL    HW224804   1.998   0.775   1.665
 7969SOL     OW24805   3.195   1.806   3.408
 7969SOL    HW124806   3.272   1.864   3.436
 7969SOL    HW224807   3.213   1.768   3.317
 7970SOL     OW24808   0.345   5.094   3.127
 7970SOL    HW124809   0.442   5.068   3.125
 7970SOL    HW224810   0.294   5.030   3.185
 7971SOL     OW24811   3.057   1.589   2.191
 7971SOL    HW124812   2.968   1.562   2.156
 7971SOL    HW224813   3.065   1.689   2.188
 7972SOL     OW24814   0.122   5.172   1.778
 7972SOL    HW124815   0.140   5.148   1.683
 7972SOL    HW224816   0.165   5.105   1.838
 7973SOL     OW24817   4.587   2.126   2.850
 7973SOL    HW124818   4.618   2.121   2.756
 7973SOL    HW224819   4.526   2.049   2.870
 7974SOL     OW24820   5.829   6.389   3.323
 7974SOL    HW124821   5.896   6.409   3.395
 7974SOL    HW224822   5.796   6.295   3.334
 7975SOL     OW24823   2.053   1.147   3.106
 7975SOL    HW124824   2.144   1.108   3.120
 7975SOL    HW224825   2.040   1.225   3.167
 7976SOL     OW24826   0.859   6.120   6.061
 7976SOL    HW124827   0.942   6.094   6.012
 7976SOL    HW224828   0.814   6.195   6.012
 7977SOL     OW24829   4.807   6.586   1.639
 7977SOL    HW124830   4.762   6.497   1.650
 7977SOL    HW224831   4.764   6.636   1.564
 7978SOL     OW24832   3.531   2.676   5.904
 7978SOL    HW124833   3.441   2.720   5.903
 7978SOL    HW224834   3.588   2.714   5.831
 7979SOL     OW24835   5.242   6.889   4.308
 7979SOL    HW124836   5.265   6.986   4.305
 7979SOL    HW224837   5.186   6.871   4.389
 7980SOL     OW24838   2.743   0.635   2.286
 7980SOL    HW124839   2.728   0.575   2.207
 7980SOL    HW224840   2.655   0.661   2.325
 7981SOL     OW24841   1.110   5.904   2.687
 7981SOL    HW124842   1.172   5.983   2.692
 7981SOL    HW224843   1.162   5.821   2.703
 7982SOL     OW24844   0.323   2.449   0.366
 7982SOL    HW124845   0.234   2.468   0.324
 7982SOL    HW224846   0.396   2.481   0.304
 7983SOL     OW24847   4.680   2.719   2.137
 7983SOL    HW124848   4.678   2.819   2.127
 7983SOL    HW224849   4.762   2.692   2.186
 7984SOL     OW24850   7.002   0.346   0.109
 7984SOL    HW124851   6.961   0.318   0.196
 7984SOL    HW224852   0.061   0.405   0.127
 7985SOL     OW24853   0.401   1.159   1.164
 7985SOL    HW124854   0.359   1.227   1.224
 7985SOL    HW224855   0.466   1.204   1.103
 7986SOL     OW24856   4.737   3.109   0.064
 7986SOL    HW124857   4.688   3.128   6.998
 7986SOL    HW224858   4.734   3.190   0.123
 7987SOL     OW24859   1.097   2.302   4.680
 7987SOL    HW124860   1.110   2.401   4.692
 7987SOL    HW224861   1.139   2.273   4.595
 7988SOL     OW24862   2.771   2.029   5.609
 7988SOL    HW124863   2.711   1.956   5.643
 7988SOL    HW224864   2.780   2.100   5.679
 7989SOL     OW24865   3.670   3.542   5.968
 7989SOL    HW124866   3.648   3.481   5.892
 7989SOL    HW224867   3.720   3.622   5.932
 7990SOL     OW24868   2.290   2.777   4.628
 7990SOL    HW124869   2.297   2.759   4.726
 7990SOL    HW224870   2.349   2.712   4.578
 7991SOL     OW24871   1.185   3.385   5.548
 7991SOL    HW124872   1.269   3.388   5.602
 7991SOL    HW224873   1.207   3.362   5.453
 7992SOL     OW24874   2.523   1.556   0.728
 7992SOL    HW124875   2.518   1.528   0.824
 7992SOL    HW224876   2.584   1.495   0.678
 7993SOL     OW24877   2.439   6.313   6.256
 7993SOL    HW124878   2.389   6.235   6.218
 7993SOL    HW224879   2.504   6.347   6.188
 7994SOL     OW24880   5.949   0.956   4.719
 7994SOL    HW124881   6.049   0.954   4.706
 7994SOL    HW224882   5.907   0.882   4.667
 7995SOL     OW24883   4.408   5.629   3.546
 7995SOL    HW124884   4.386   5.560   3.477
 7995SOL    HW224885   4.484   5.597   3.601
 7996SOL     OW24886   4.359   1.142   5.216
 7996SOL    HW124887   4.408   1.055   5.217
 7996SOL    HW224888   4.372   1.186   5.128
 7997SOL     OW24889   5.361   2.504   2.257
 7997SOL    HW124890   5.386   2.419   2.303
 7997SOL    HW224891   5.414   2.579   2.295
 7998SOL     OW24892   6.137   5.028   6.423
 7998SOL    HW124893   6.095   5.099   6.479
 7998SOL    HW224894   6.236   5.026   6.441
 7999SOL     OW24895   1.707   0.360   5.667
 7999SOL    HW124896   1.676   0.399   5.581
 7999SOL    HW224897   1.786   0.302   5.652
 8000SOL     OW24898   5.304   0.435   5.822
 8000SOL    HW124899   5.382   0.457   5.763
 8000SOL    HW224900   5.235   0.508   5.816
 8001SOL     OW24901   2.596   6.119   1.404
 8001SOL    HW124902   2.653   6.158   1.332
 8001SOL    HW224903   2.614   6.021   1.411
 8002SOL     OW24904   5.050   2.791   5.243
 8002SOL    HW124905   4.956   2.763   5.223
 8002SOL    HW224906   5.103   2.794   5.157
 8003SOL     OW24907   3.568   5.977   3.726
 8003SOL    HW124908   3.570   5.884   3.691
 8003SOL    HW224909   3.473   6.008   3.733
 8004SOL     OW24910   1.122   4.260   2.765
 8004SOL    HW124911   1.060   4.220   2.698
 8004SOL    HW224912   1.135   4.195   2.841
 8005SOL     OW24913   2.402   0.391   2.410
 8005SOL    HW124914   2.461   0.339   2.472
 8005SOL    HW224915   2.337   0.444   2.463
 8006SOL     OW24916   3.885   6.295   1.465
 8006SOL    HW124917   3.873   6.240   1.547
 8006SOL    HW224918   3.837   6.381   1.475
 8007SOL     OW24919   0.501   1.429   4.268
 8007SOL    HW124920   0.510   1.356   4.335
 8007SOL    HW224921   0.519   1.393   4.177
 8008SOL     OW24922   6.016   5.670   0.580
 8008SOL    HW124923   5.943   5.737   0.568
 8008SOL    HW224924   6.031   5.621   0.494
 8009SOL     OW24925   0.001   6.828   4.310
 8009SOL    HW124926   6.987   6.792   4.223
 8009SOL    HW224927   6.945   6.830   4.376
 8010SOL     OW24928   1.776   3.247   6.550
 8010SOL    HW124929   1.775   3.280   6.644
 8010SOL    HW224930   1.742   3.320   6.489
 8011SOL     OW24931   1.964   2.707   0.457
 8011SOL    HW124932   2.063   2.718   0.452
 8011SOL    HW224933   1.935   2.714   0.552
 8012SOL     OW24934   3.071   0.481   3.697
 8012SOL    HW124935   3.129   0.425   3.638
 8012SOL    HW224936   2.985   0.501   3.650
 8013SOL     OW24937   5.708   5.336   4.687
 8013SOL    HW124938   5.790   5.392   4.677
 8013SOL    HW224939   5.656   5.366   4.767
 8014SOL     OW24940   2.244   6.944   6.667
 8014SOL    HW124941   2.315   6.880   6.637
 8014SOL    HW224942   2.247   6.952   6.767
 8015SOL     OW24943   1.566   2.074   6.055
 8015SOL    HW124944   1.506   2.067   5.976
 8015SOL    HW224945   1.639   2.140   6.036
 8016SOL     OW24946   3.682   5.992   1.877
 8016SOL    HW124947   3.641   6.059   1.940
 8016SOL    HW224948   3.727   5.920   1.930
 8017SOL     OW24949   5.839   3.967   5.344
 8017SOL    HW124950   5.754   3.913   5.350
 8017SOL    HW224951   5.828   4.038   5.275
 8018SOL     OW24952   5.726   2.820   4.683
 8018SOL    HW124953   5.767   2.870   4.759
 8018SOL    HW224954   5.653   2.761   4.717
 8019SOL     OW24955   1.861   4.956   1.423
 8019SOL    HW124956   1.797   5.030   1.406
 8019SOL    HW224957   1.813   4.878   1.462
 8020SOL     OW24958   5.728   6.302   6.323
 8020SOL    HW124959   5.699   6.273   6.232
 8020SOL    HW224960   5.688   6.392   6.343
 8021SOL     OW24961   6.948   0.813   1.047
 8021SOL    HW124962   6.946   0.910   1.075
 8021SOL    HW224963   7.016   0.765   1.103
 8022SOL     OW24964   4.279   5.449   3.263
 8022SOL    HW124965   4.242   5.360   3.291
 8022SOL    HW224966   4.224   5.486   3.188
 8023SOL     OW24967   6.635   6.383   3.275
 8023SOL    HW124968   6.546   6.338   3.271
 8023SOL    HW224969   6.708   6.316   3.258
 8024SOL     OW24970   4.547   5.519   4.862
 8024SOL    HW124971   4.575   5.471   4.778
 8024SOL    HW224972   4.505   5.606   4.838
 8025SOL     OW24973   2.771   5.971   0.539
 8025SOL    HW124974   2.785   5.894   0.477
 8025SOL    HW224975   2.857   6.019   0.553
 8026SOL     OW24976   2.171   2.975   0.478
 8026SOL    HW124977   2.102   2.936   0.418
 8026SOL    HW224978   2.137   2.978   0.571
 8027SOL     OW24979   4.984   2.999   5.526
 8027SOL    HW124980   5.056   2.930   5.536
 8027SOL    HW224981   5.010   3.064   5.455
 8028SOL     OW24982   5.384   5.730   0.558
 8028SOL    HW124983   5.334   5.728   0.472
 8028SOL    HW224984   5.478   5.700   0.542
 8029SOL     OW24985   3.261   4.469   0.047
 8029SOL    HW124986   3.350   4.431   0.022
 8029SOL    HW224987   3.206   4.398   0.090
 8030SOL     OW24988   6.035   3.776   0.718
 8030SOL    HW124989   6.102   3.836   0.762
 8030SOL    HW224990   6.077   3.733   0.638
 8031SOL     OW24991   3.428   6.175   1.254
 8031SOL    HW124992   3.495   6.219   1.196
 8031SOL    HW224993   3.381   6.244   1.309
 8032SOL     OW24994   4.983   4.796   5.575
 8032SOL    HW124995   4.968   4.743   5.659
 8032SOL    HW224996   5.065   4.853   5.587
 8033SOL     OW24997   6.250   2.263   0.547
 8033SOL    HW124998   6.205   2.291   0.462
 8033SOL    HW224999   6.312   2.188   0.528
 8034SOL     OW25000   6.224   1.555   4.859
 8034SOL    HW125001   6.175   1.486   4.806
 8034SOL    HW225002   6.282   1.511   4.927
 8035SOL     OW25003   5.410   5.938   0.049
 8035SOL    HW125004   5.405   6.021   7.012
 8035SOL    HW225005   5.504   5.904   0.049
 8036SOL     OW25006   1.180   4.714   1.448
 8036SOL    HW125007   1.090   4.689   1.484
 8036SOL    HW225008   1.232   4.631   1.427
 8037SOL     OW25009   2.211   2.896   1.760
 8037SOL    HW125010   2.188   2.954   1.682
 8037SOL    HW225011   2.201   2.948   1.844
 8038SOL     OW25012   6.373   1.462   4.089
 8038SOL    HW125013   6.315   1.527   4.041
 8038SOL    HW225014   6.462   1.457   4.044
 8039SOL     OW25015   3.151   6.780   4.756
 8039SOL    HW125016   3.188   6.720   4.685
 8039SOL    HW225017   3.177   6.875   4.736
 8040SOL     OW25018   6.122   5.932   0.638
 8040SOL    HW125019   6.037   5.887   0.667
 8040SOL    HW225020   6.103   6.028   0.619
 8041SOL     OW25021   4.074   2.001   0.715
 8041SOL    HW125022   4.157   2.057   0.723
 8041SOL    HW225023   3.995   2.052   0.750
 8042SOL     OW25024   2.518   3.893   0.979
 8042SOL    HW125025   2.443   3.956   0.996
 8042SOL    HW225026   2.542   3.895   0.882
 8043SOL     OW25027   2.530   0.348   1.396
 8043SOL    HW125028   2.464   0.418   1.424
 8043SOL    HW225029   2.622   0.382   1.411
 8044SOL     OW25030   3.258   3.997   1.548
 8044SOL    HW125031   3.218   3.949   1.626
 8044SOL    HW225032   3.298   4.083   1.579
 8045SOL     OW25033   6.319   2.820   3.477
 8045SOL    HW125034   6.360   2.843   3.388
 8045SOL    HW225035   6.392   2.807   3.544
 8046SOL     OW25036   0.113   5.397   5.760
 8046SOL    HW125037   0.084   5.490   5.739
 8046SOL    HW225038   0.165   5.359   5.684
 8047SOL     OW25039   2.867   6.614   4.555
 8047SOL    HW125040   2.847   6.705   4.592
 8047SOL    HW225041   2.899   6.555   4.629
 8048SOL     OW25042   6.293   0.911   5.982
 8048SOL    HW125043   6.335   0.821   5.994
 8048SOL    HW225044   6.233   0.909   5.902
 8049SOL     OW25045   1.446   6.555   0.303
 8049SOL    HW125046   1.460   6.531   0.207
 8049SOL    HW225047   1.490   6.643   0.323
 8050SOL     OW25048   0.591   3.097   1.051
 8050SOL    HW125049   0.556   3.175   0.999
 8050SOL    HW225050   0.586   3.015   0.995
 8051SOL     OW25051   3.446   2.104   3.823
 8051SOL    HW125052   3.443   2.153   3.736
 8051SOL    HW225053   3.520   2.142   3.880
 8052SOL     OW25054   3.959   2.161   3.085
 8052SOL    HW125055   3.931   2.134   3.177
 8052SOL    HW225056   3.888   2.218   3.044
 8053SOL     OW25057   3.854   3.283   1.875
 8053SOL    HW125058   3.904   3.236   1.948
 8053SOL    HW225059   3.806   3.216   1.819
 8054SOL     OW25060   4.654   5.713   4.509
 8054SOL    HW125061   4.668   5.798   4.457
 8054SOL    HW225062   4.613   5.735   4.598
 8055SOL     OW25063   0.844   6.996   4.967
 8055SOL    HW125064   0.927   0.007   4.920
 8055SOL    HW225065   0.863   6.987   5.065
 8056SOL     OW25066   4.421   1.177   2.317
 8056SOL    HW125067   4.381   1.256   2.363
 8056SOL    HW225068   4.503   1.205   2.267
 8057SOL     OW25069   3.303   6.721   3.061
 8057SOL    HW125070   3.254   6.805   3.038
 8057SOL    HW225071   3.386   6.744   3.112
 8058SOL     OW25072   2.574   0.195   3.699
 8058SOL    HW125073   2.617   0.285   3.700
 8058SOL    HW225074   2.633   0.130   3.650
 8059SOL     OW25075   2.616   0.847   3.767
 8059SOL    HW125076   2.699   0.903   3.771
 8059SOL    HW225077   2.584   0.828   3.860
 8060SOL     OW25078   0.854   2.323   5.053
 8060SOL    HW125079   0.910   2.388   5.106
 8060SOL    HW225080   0.855   2.234   5.098
 8061SOL     OW25081   6.868   5.864   1.875
 8061SOL    HW125082   6.817   5.886   1.958
 8061SOL    HW225083   6.842   5.927   1.802
 8062SOL     OW25084   2.114   3.570   2.293
 8062SOL    HW125085   2.140   3.520   2.376
 8062SOL    HW225086   2.161   3.531   2.214
 8063SOL     OW25087   2.538   3.288   6.779
 8063SOL    HW125088   2.607   3.337   6.725
 8063SOL    HW225089   2.537   3.192   6.754
 8064SOL     OW25090   6.389   2.859   6.951
 8064SOL    HW125091   6.390   2.825   6.857
 8064SOL    HW225092   6.295   2.877   6.979
 8065SOL     OW25093   4.819   0.086   6.380
 8065SOL    HW125094   4.777   0.114   6.294
 8065SOL    HW225095   4.748   0.068   6.448
 8066SOL     OW25096   2.601   0.095   1.851
 8066SOL    HW125097   2.624   0.075   1.946
 8066SOL    HW225098   2.522   0.041   1.823
 8067SOL     OW25099   4.786   2.049   2.250
 8067SOL    HW125100   4.794   2.132   2.194
 8067SOL    HW225101   4.698   2.049   2.296
 8068SOL     OW25102   6.225   4.758   4.309
 8068SOL    HW125103   6.281   4.800   4.238
 8068SOL    HW225104   6.258   4.665   4.326
 8069SOL     OW25105   1.138   6.488   2.406
 8069SOL    HW125106   1.187   6.406   2.375
 8069SOL    HW225107   1.154   6.501   2.504
 8070SOL     OW25108   3.965   0.111   2.555
 8070SOL    HW125109   3.977   0.185   2.489
 8070SOL    HW225110   3.980   0.023   2.510
 8071SOL     OW25111   3.531   6.650   0.357
 8071SOL    HW125112   3.506   6.747   0.347
 8071SOL    HW225113   3.596   6.641   0.432
 8072SOL     OW25114   5.274   0.593   2.648
 8072SOL    HW125115   5.285   0.495   2.664
 8072SOL    HW225116   5.197   0.627   2.701
 8073SOL     OW25117   4.726   0.195   6.148
 8073SOL    HW125118   4.646   0.162   6.198
 8073SOL    HW225119   4.697   0.264   6.082
 8074SOL     OW25120   3.391   3.987   6.653
 8074SOL    HW125121   3.437   3.906   6.690
 8074SOL    HW225122   3.416   4.067   6.707
 8075SOL     OW25123   5.532   2.336   2.880
 8075SOL    HW125124   5.585   2.252   2.866
 8075SOL    HW225125   5.505   2.342   2.977
 8076SOL     OW25126   4.664   2.921   6.150
 8076SOL    HW125127   4.750   2.944   6.196
 8076SOL    HW225128   4.681   2.848   6.083
 8077SOL     OW25129   1.209   0.584   0.494
 8077SOL    HW125130   1.286   0.606   0.554
 8077SOL    HW225131   1.192   0.660   0.431
 8078SOL     OW25132   6.027   2.736   0.691
 8078SOL    HW125133   5.989   2.647   0.663
 8078SOL    HW225134   5.956   2.806   0.682
 8079SOL     OW25135   0.749   1.641   1.774
 8079SOL    HW125136   0.702   1.631   1.686
 8079SOL    HW225137   0.848   1.640   1.760
 8080SOL     OW25138   3.357   4.891   0.326
 8080SOL    HW125139   3.379   4.863   0.233
 8080SOL    HW225140   3.282   4.957   0.325
 8081SOL     OW25141   5.800   2.187   5.304
 8081SOL    HW125142   5.754   2.102   5.277
 8081SOL    HW225143   5.733   2.261   5.307
 8082SOL     OW25144   6.686   3.427   4.247
 8082SOL    HW125145   6.634   3.493   4.300
 8082SOL    HW225146   6.757   3.387   4.305
 8083SOL     OW25147   6.044   2.215   4.628
 8083SOL    HW125148   6.142   2.235   4.626
 8083SOL    HW225149   5.996   2.277   4.565
 8084SOL     OW25150   6.750   0.426   0.987
 8084SOL    HW125151   6.680   0.457   1.051
 8084SOL    HW225152   6.806   0.355   1.030
 8085SOL     OW25153   6.010   2.109   0.564
 8085SOL    HW125154   6.089   2.170   0.567
 8085SOL    HW225155   5.926   2.163   0.574
 8086SOL     OW25156   2.701   6.002   5.707
 8086SOL    HW125157   2.685   6.081   5.765
 8086SOL    HW225158   2.773   5.945   5.747
 8087SOL     OW25159   2.670   4.073   0.580
 8087SOL    HW125160   2.725   4.113   0.653
 8087SOL    HW225161   2.595   4.021   0.619
 8088SOL     OW25162   4.527   0.529   2.621
 8088SOL    HW125163   4.520   0.437   2.583
 8088SOL    HW225164   4.611   0.572   2.588
 8089SOL     OW25165   6.195   2.776   0.465
 8089SOL    HW125166   6.146   2.757   0.550
 8089SOL    HW225167   6.136   2.829   0.404
 8090SOL     OW25168   4.211   2.282   5.275
 8090SOL    HW125169   4.184   2.375   5.249
 8090SOL    HW225170   4.272   2.245   5.206
 8091SOL     OW25171   2.520   4.728   5.710
 8091SOL    HW125172   2.596   4.781   5.674
 8091SOL    HW225173   2.442   4.788   5.728
 8092SOL     OW25174   6.658   2.007   4.153
 8092SOL    HW125175   6.568   2.032   4.188
 8092SOL    HW225176   6.710   1.960   4.224
 8093SOL     OW25177   5.907   5.291   1.027
 8093SOL    HW125178   5.853   5.243   0.957
 8093SOL    HW225179   5.893   5.248   1.116
 8094SOL     OW25180   0.953   3.805   4.480
 8094SOL    HW125181   1.025   3.811   4.411
 8094SOL    HW225182   0.954   3.887   4.537
 8095SOL     OW25183   6.232   3.443   4.998
 8095SOL    HW125184   6.141   3.402   5.011
 8095SOL    HW225185   6.239   3.526   5.053
 8096SOL     OW25186   3.733   0.909   0.448
 8096SOL    HW125187   3.798   0.833   0.452
 8096SOL    HW225188   3.758   0.971   0.375
 8097SOL     OW25189   4.682   1.297   4.337
 8097SOL    HW125190   4.678   1.309   4.436
 8097SOL    HW225191   4.607   1.347   4.294
 8098SOL     OW25192   2.499   1.511   4.216
 8098SOL    HW125193   2.486   1.580   4.145
 8098SOL    HW225194   2.497   1.555   4.306
 8099SOL     OW25195   4.454   6.160   5.001
 8099SOL    HW125196   4.499   6.089   5.055
 8099SOL    HW225197   4.431   6.237   5.061
 8100SOL     OW25198   6.922   6.424   0.708
 8100SOL    HW125199   6.948   6.407   0.802
 8100SOL    HW225200   6.854   6.357   0.678
 8101SOL     OW25201   0.910   5.132   2.526
 8101SOL    HW125202   0.851   5.162   2.602
 8101SOL    HW225203   0.994   5.186   2.526
 8102SOL     OW25204   6.536   0.142   6.172
 8102SOL    HW125205   6.466   0.088   6.127
 8102SOL    HW225206   6.513   0.154   6.269
 8103SOL     OW25207   2.314   1.938   2.317
 8103SOL    HW125208   2.278   2.025   2.351
 8103SOL    HW225209   2.242   1.869   2.319
 8104SOL     OW25210   3.251   6.170   5.948
 8104SOL    HW125211   3.246   6.090   6.007
 8104SOL    HW225212   3.228   6.144   5.854
 8105SOL     OW25213   2.167   2.646   2.650
 8105SOL    HW125214   2.265   2.653   2.667
 8105SOL    HW225215   2.142   2.704   2.572
 8106SOL     OW25216   0.077   4.348   5.070
 8106SOL    HW125217   0.019   4.325   4.992
 8106SOL    HW225218   0.136   4.426   5.045
 8107SOL     OW25219   0.981   5.688   6.431
 8107SOL    HW125220   0.909   5.618   6.430
 8107SOL    HW225221   0.939   5.778   6.441
 8108SOL     OW25222   1.969   3.770   5.141
 8108SOL    HW125223   1.876   3.736   5.158
 8108SOL    HW225224   2.030   3.692   5.128
 8109SOL     OW25225   0.707   5.657   4.940
 8109SOL    HW125226   0.656   5.638   5.024
 8109SOL    HW225227   0.805   5.647   4.958
 8110SOL     OW25228   1.295   4.619   1.110
 8110SOL    HW125229   1.252   4.599   1.198
 8110SOL    HW225230   1.355   4.544   1.084
 8111SOL     OW25231   3.210   5.927   4.154
 8111SOL    HW125232   3.251   5.855   4.099
 8111SOL    HW225233   3.128   5.962   4.108
 8112SOL     OW25234   4.392   1.094   4.471
 8112SOL    HW125235   4.436   1.073   4.384
 8112SOL    HW225236   4.366   1.191   4.473
 8113SOL     OW25237   3.476   3.046   5.815
 8113SOL    HW125238   3.505   3.128   5.764
 8113SOL    HW225239   3.525   2.966   5.780
 8114SOL     OW25240   3.188   3.602   1.784
 8114SOL    HW125241   3.126   3.523   1.776
 8114SOL    HW225242   3.282   3.571   1.772
 8115SOL     OW25243   3.736   2.396   1.227
 8115SOL    HW125244   3.682   2.413   1.144
 8115SOL    HW225245   3.677   2.403   1.307
 8116SOL     OW25246   4.904   1.687   5.379
 8116SOL    HW125247   4.839   1.754   5.413
 8116SOL    HW225248   4.892   1.600   5.428
 8117SOL     OW25249   2.544   1.875   5.686
 8117SOL    HW125250   2.495   1.957   5.716
 8117SOL    HW225251   2.480   1.812   5.641
 8118SOL     OW25252   1.439   2.382   4.276
 8118SOL    HW125253   1.504   2.312   4.245
 8118SOL    HW225254   1.383   2.412   4.199
 8119SOL     OW25255   0.917   6.136   1.659
 8119SOL    HW125256   0.963   6.081   1.728
 8119SOL    HW225257   0.978   6.149   1.580
 8120SOL     OW25258   4.595   4.051   1.714
 8120SOL    HW125259   4.539   4.108   1.773
 8120SOL    HW225260   4.557   3.959   1.711
 8121SOL     OW25261   6.595   6.713   3.061
 8121SOL    HW125262   6.610   6.639   2.996
 8121SOL    HW225263   6.646   6.794   3.031
 8122SOL     OW25264   0.574   5.777   1.364
 8122SOL    HW125265   0.667   5.807   1.346
 8122SOL    HW225266   0.565   5.751   1.460
 8123SOL     OW25267   1.083   5.561   0.296
 8123SOL    HW125268   1.000   5.560   0.240
 8123SOL    HW225269   1.061   5.535   0.390
 8124SOL     OW25270   1.364   6.314   3.147
 8124SOL    HW125271   1.379   6.216   3.150
 8124SOL    HW225272   1.266   6.333   3.144
 8125SOL     OW25273   5.652   5.174   3.094
 8125SOL    HW125274   5.668   5.079   3.121
 8125SOL    HW225275   5.636   5.179   2.996
 8126SOL     OW25276   6.728   4.269   2.629
 8126SOL    HW125277   6.672   4.349   2.652
 8126SOL    HW225278   6.674   4.205   2.574
 8127SOL     OW25279   3.601   5.077   1.363
 8127SOL    HW125280   3.536   5.004   1.342
 8127SOL    HW225281   3.566   5.164   1.329
 8128SOL     OW25282   3.431   2.308   5.751
 8128SOL    HW125283   3.393   2.269   5.668
 8128SOL    HW225284   3.476   2.237   5.805
 8129SOL     OW25285   5.066   6.512   6.329
 8129SOL    HW125286   5.048   6.487   6.424
 8129SOL    HW225287   5.163   6.535   6.317
 8130SOL     OW25288   0.692   6.910   0.105
 8130SOL    HW125289   0.779   6.947   0.136
 8130SOL    HW225290   0.648   6.860   0.180
 8131SOL     OW25291   1.862   1.422   0.959
 8131SOL    HW125292   1.948   1.373   0.975
 8131SOL    HW225293   1.881   1.519   0.947
 8132SOL     OW25294   6.400   4.612   2.983
 8132SOL    HW125295   6.384   4.667   3.065
 8132SOL    HW225296   6.488   4.566   2.990
 8133SOL     OW25297   0.609   5.845   2.296
 8133SOL    HW125298   0.628   5.794   2.213
 8133SOL    HW225299   0.510   5.852   2.309
 8134SOL     OW25300   1.542   2.624   2.136
 8134SOL    HW125301   1.622   2.591   2.186
 8134SOL    HW225302   1.534   2.723   2.148
 8135SOL     OW25303   4.075   6.157   2.305
 8135SOL    HW125304   4.061   6.139   2.207
 8135SOL    HW225305   3.986   6.156   2.352
 8136SOL     OW25306   2.140   5.945   1.460
 8136SOL    HW125307   2.213   5.936   1.527
 8136SOL    HW225308   2.056   5.905   1.496
 8137SOL     OW25309   3.179   3.863   4.998
 8137SOL    HW125310   3.167   3.811   5.082
 8137SOL    HW225311   3.102   3.926   4.987
 8138SOL     OW25312   4.853   1.065   3.300
 8138SOL    HW125313   4.952   1.075   3.288
 8138SOL    HW225314   4.805   1.116   3.229
 8139SOL     OW25315   1.360   3.067   4.925
 8139SOL    HW125316   1.342   3.035   5.018
 8139SOL    HW225317   1.276   3.103   4.885
 8140SOL     OW25318   4.383   0.849   0.860
 8140SOL    HW125319   4.436   0.934   0.855
 8140SOL    HW225320   4.326   0.840   0.778
 8141SOL     OW25321   5.972   0.347   5.789
 8141SOL    HW125322   5.982   0.436   5.833
 8141SOL    HW225323   6.051   0.329   5.730
 8142SOL     OW25324   2.486   5.637   0.646
 8142SOL    HW125325   2.520   5.729   0.668
 8142SOL    HW225326   2.552   5.569   0.677
 8143SOL     OW25327   5.726   4.833   0.565
 8143SOL    HW125328   5.809   4.815   0.619
 8143SOL    HW225329   5.701   4.929   0.573
 8144SOL     OW25330   0.907   5.857   6.930
 8144SOL    HW125331   0.847   5.810   6.865
 8144SOL    HW225332   0.896   5.955   6.920
 8145SOL     OW25333   5.452   5.505   6.913
 8145SOL    HW125334   5.525   5.541   6.973
 8145SOL    HW225335   5.399   5.581   6.877
 8146SOL     OW25336   6.635   6.184   4.717
 8146SOL    HW125337   6.608   6.234   4.635
 8146SOL    HW225338   6.555   6.139   4.757
 8147SOL     OW25339   2.142   0.737   5.665
 8147SOL    HW125340   2.223   0.740   5.723
 8147SOL    HW225341   2.059   0.735   5.721
 8148SOL     OW25342   4.821   3.877   0.522
 8148SOL    HW125343   4.819   3.935   0.603
 8148SOL    HW225344   4.881   3.799   0.538
 8149SOL     OW25345   1.468   0.022   5.121
 8149SOL    HW125346   1.398   0.045   5.053
 8149SOL    HW225347   1.557   0.020   5.077
 8150SOL     OW25348   0.854   4.147   0.732
 8150SOL    HW125349   0.849   4.085   0.811
 8150SOL    HW225350   0.950   4.167   0.713
 8151SOL     OW25351   6.546   5.309   3.007
 8151SOL    HW125352   6.507   5.240   3.068
 8151SOL    HW225353   6.530   5.400   3.046
 8152SOL     OW25354   5.237   1.438   2.946
 8152SOL    HW125355   5.292   1.497   3.004
 8152SOL    HW225356   5.258   1.456   2.850
 8153SOL     OW25357   0.304   1.771   2.158
 8153SOL    HW125358   0.370   1.822   2.214
 8153SOL    HW225359   0.353   1.714   2.092
 8154SOL     OW25360   1.737   0.641   3.224
 8154SOL    HW125361   1.644   0.648   3.261
 8154SOL    HW225362   1.787   0.571   3.274
 8155SOL     OW25363   1.671   5.140   4.200
 8155SOL    HW125364   1.669   5.041   4.195
 8155SOL    HW225365   1.763   5.173   4.175
 8156SOL     OW25366   1.489   4.378   0.499
 8156SOL    HW125367   1.439   4.313   0.443
 8156SOL    HW225368   1.426   4.423   0.562
 8157SOL     OW25369   6.430   4.319   5.165
 8157SOL    HW125370   6.390   4.405   5.132
 8157SOL    HW225371   6.530   4.325   5.159
 8158SOL     OW25372   6.037   5.356   6.188
 8158SOL    HW125373   6.103   5.415   6.142
 8158SOL    HW225374   6.005   5.285   6.125
 8159SOL     OW25375   2.690   0.372   4.902
 8159SOL    HW125376   2.688   0.433   4.982
 8159SOL    HW225377   2.690   0.427   4.819
 8160SOL     OW25378   5.854   1.501   2.524
 8160SOL    HW125379   5.830   1.568   2.453
 8160SOL    HW225380   5.818   1.532   2.612
 8161SOL     OW25381   6.142   2.216   1.929
 8161SOL    HW125382   6.127   2.272   1.848
 8161SOL    HW225383   6.236   2.229   1.961
 8162SOL     OW25384   0.629   5.693   4.643
 8162SOL    HW125385   0.726   5.678   4.627
 8162SOL    HW225386   0.610   5.690   4.742
 8163SOL     OW25387   3.925   4.712   5.735
 8163SOL    HW125388   3.849   4.727   5.799
 8163SOL    HW225389   3.918   4.621   5.695
 8164SOL     OW25390   5.357   1.715   0.555
 8164SOL    HW125391   5.336   1.702   0.458
 8164SOL    HW225392   5.389   1.808   0.570
 8165SOL     OW25393   0.542   1.970   6.000
 8165SOL    HW125394   0.507   2.060   6.027
 8165SOL    HW225395   0.520   1.954   5.903
 8166SOL     OW25396   1.913   1.552   5.080
 8166SOL    HW125397   1.905   1.603   4.994
 8166SOL    HW225398   1.945   1.459   5.061
 8167SOL     OW25399   1.825   3.287   3.668
 8167SOL    HW125400   1.819   3.202   3.719
 8167SOL    HW225401   1.752   3.349   3.697
 8168SOL     OW25402   1.688   6.993   2.503
 8168SOL    HW125403   1.752   6.955   2.570
 8168SOL    HW225404   1.738   0.019   2.430
 8169SOL     OW25405   4.547   3.531   1.261
 8169SOL    HW125406   4.559   3.614   1.316
 8169SOL    HW225407   4.637   3.495   1.237
 8170SOL     OW25408   6.584   4.517   2.718
 8170SOL    HW125409   6.546   4.487   2.805
 8170SOL    HW225410   6.592   4.617   2.717
 8171SOL     OW25411   2.376   2.000   1.490
 8171SOL    HW125412   2.384   2.078   1.429
 8171SOL    HW225413   2.291   2.006   1.542
 8172SOL     OW25414   1.322   3.242   1.308
 8172SOL    HW125415   1.362   3.163   1.354
 8172SOL    HW225416   1.312   3.318   1.372
 8173SOL     OW25417   5.766   0.311   1.695
 8173SOL    HW125418   5.767   0.312   1.595
 8173SOL    HW225419   5.720   0.393   1.729
 8174SOL     OW25420   2.301   6.428   3.795
 8174SOL    HW125421   2.344   6.437   3.884
 8174SOL    HW225422   2.310   6.334   3.763
 8175SOL     OW25423   0.792   2.299   5.800
 8175SOL    HW125424   0.784   2.239   5.720
 8175SOL    HW225425   0.844   2.251   5.871
 8176SOL     OW25426   2.648   4.785   0.504
 8176SOL    HW125427   2.701   4.858   0.462
 8176SOL    HW225428   2.708   4.729   0.561
 8177SOL     OW25429   2.852   0.882   3.277
 8177SOL    HW125430   2.917   0.956   3.292
 8177SOL    HW225431   2.830   0.839   3.364
 8178SOL     OW25432   2.486   6.422   1.462
 8178SOL    HW125433   2.442   6.450   1.377
 8178SOL    HW225434   2.521   6.329   1.453
 8179SOL     OW25435   5.770   0.576   3.513
 8179SOL    HW125436   5.848   0.616   3.561
 8179SOL    HW225437   5.724   0.511   3.573
 8180SOL     OW25438   4.991   5.780   0.413
 8180SOL    HW125439   4.960   5.695   0.371
 8180SOL    HW225440   5.089   5.792   0.394
 8181SOL     OW25441   6.823   0.476   6.459
 8181SOL    HW125442   6.732   0.508   6.483
 8181SOL    HW225443   6.848   0.509   6.367
 8182SOL     OW25444   3.431   3.744   3.776
 8182SOL    HW125445   3.447   3.662   3.831
 8182SOL    HW225446   3.365   3.723   3.704
 8183SOL     OW25447   6.575   0.319   5.795
 8183SOL    HW125448   6.656   0.302   5.851
 8183SOL    HW225449   6.493   0.297   5.846
 8184SOL     OW25450   6.980   5.598   6.196
 8184SOL    HW125451   0.011   5.671   6.242
 8184SOL    HW225452   7.002   5.511   6.239
 8185SOL     OW25453   0.200   5.793   6.129
 8185SOL    HW125454   0.220   5.713   6.072
 8185SOL    HW225455   0.121   5.841   6.092
 8186SOL     OW25456   1.778   5.765   0.523
 8186SOL    HW125457   1.778   5.757   0.623
 8186SOL    HW225458   1.850   5.828   0.495
 8187SOL     OW25459   1.702   0.051   4.979
 8187SOL    HW125460   1.718   0.131   5.035
 8187SOL    HW225461   1.676   0.079   4.887
 8188SOL     OW25462   2.123   3.088   2.714
 8188SOL    HW125463   2.129   3.181   2.750
 8188SOL    HW225464   2.211   3.043   2.722
 8189SOL     OW25465   5.997   5.243   3.481
 8189SOL    HW125466   5.946   5.325   3.456
 8189SOL    HW225467   5.958   5.164   3.433
 8190SOL     OW25468   6.592   4.058   3.054
 8190SOL    HW125469   6.556   3.970   3.026
 8190SOL    HW225470   6.691   4.050   3.070
 8191SOL     OW25471   4.070   4.834   0.913
 8191SOL    HW125472   3.986   4.887   0.903
 8191SOL    HW225473   4.131   4.853   0.836
 8192SOL     OW25474   0.433   5.813   3.255
 8192SOL    HW125475   0.471   5.722   3.272
 8192SOL    HW225476   0.506   5.876   3.229
 8193SOL     OW25477   0.863   4.521   3.766
 8193SOL    HW125478   0.877   4.511   3.668
 8193SOL    HW225479   0.929   4.587   3.803
 8194SOL     OW25480   4.444   0.356   1.583
 8194SOL    HW125481   4.386   0.423   1.629
 8194SOL    HW225482   4.391   0.310   1.512
 8195SOL     OW25483   6.407   0.061   4.050
 8195SOL    HW125484   6.354   0.144   4.071
 8195SOL    HW225485   6.459   0.076   3.966
 8196SOL     OW25486   5.027   1.091   1.975
 8196SOL    HW125487   5.020   1.012   2.036
 8196SOL    HW225488   5.006   1.064   1.881
 8197SOL     OW25489   4.024   1.652   3.255
 8197SOL    HW125490   4.116   1.688   3.245
 8197SOL    HW225491   3.972   1.669   3.171
 8198SOL     OW25492   1.750   5.756   1.304
 8198SOL    HW125493   1.764   5.743   1.402
 8198SOL    HW225494   1.814   5.697   1.253
 8199SOL     OW25495   5.987   2.406   0.103
 8199SOL    HW125496   5.900   2.427   0.148
 8199SOL    HW225497   5.979   2.425   0.005
 8200SOL     OW25498   4.781   3.560   0.686
 8200SOL    HW125499   4.800   3.534   0.781
 8200SOL    HW225500   4.864   3.597   0.644
 8201SOL     OW25501   5.881   6.974   5.623
 8201SOL    HW125502   5.967   7.015   5.591
 8201SOL    HW225503   5.857   6.897   5.565
 8202SOL     OW25504   1.179   6.305   1.748
 8202SOL    HW125505   1.225   6.393   1.759
 8202SOL    HW225506   1.187   6.275   1.653
 8203SOL     OW25507   1.760   3.368   1.273
 8203SOL    HW125508   1.778   3.316   1.356
 8203SOL    HW225509   1.725   3.306   1.202
 8204SOL     OW25510   2.619   3.553   0.870
 8204SOL    HW125511   2.714   3.524   0.854
 8204SOL    HW225512   2.575   3.570   0.782
 8205SOL     OW25513   0.884   4.472   0.230
 8205SOL    HW125514   0.809   4.419   0.189
 8205SOL    HW225515   0.930   4.524   0.158
 8206SOL     OW25516   2.935   1.070   1.322
 8206SOL    HW125517   2.914   1.030   1.233
 8206SOL    HW225518   3.034   1.071   1.336
 8207SOL     OW25519   3.892   3.929   4.000
 8207SOL    HW125520   3.799   3.895   3.991
 8207SOL    HW225521   3.902   3.979   4.086
 8208SOL     OW25522   2.081   0.298   0.251
 8208SOL    HW125523   2.172   0.339   0.258
 8208SOL    HW225524   2.023   0.332   0.325
 8209SOL     OW25525   5.972   1.705   4.818
 8209SOL    HW125526   5.946   1.713   4.722
 8209SOL    HW225527   6.046   1.638   4.827
 8210SOL     OW25528   2.245   2.640   6.710
 8210SOL    HW125529   2.168   2.668   6.767
 8210SOL    HW225530   2.223   2.554   6.664
 8211SOL     OW25531   4.028   4.790   1.331
 8211SOL    HW125532   3.940   4.746   1.313
 8211SOL    HW225533   4.097   4.754   1.268
 8212SOL     OW25534   1.780   2.585   2.878
 8212SOL    HW125535   1.862   2.587   2.821
 8212SOL    HW225536   1.791   2.648   2.954
 8213SOL     OW25537   6.364   4.970   1.553
 8213SOL    HW125538   6.299   4.924   1.613
 8213SOL    HW225539   6.432   4.905   1.520
 8214SOL     OW25540   5.436   3.502   3.028
 8214SOL    HW125541   5.372   3.490   2.952
 8214SOL    HW225542   5.527   3.473   2.999
 8215SOL     OW25543   3.432   5.035   2.972
 8215SOL    HW125544   3.397   5.078   2.889
 8215SOL    HW225545   3.356   4.991   3.021
 8216SOL     OW25546   5.890   3.766   3.723
 8216SOL    HW125547   5.856   3.853   3.686
 8216SOL    HW225548   5.813   3.712   3.756
 8217SOL     OW25549   1.990   6.280   0.910
 8217SOL    HW125550   1.890   6.288   0.912
 8217SOL    HW225551   2.021   6.271   0.815
 8218SOL     OW25552   6.141   2.301   6.731
 8218SOL    HW125553   6.100   2.357   6.803
 8218SOL    HW225554   6.236   2.280   6.754
 8219SOL     OW25555   5.633   1.482   6.812
 8219SOL    HW125556   5.538   1.464   6.835
 8219SOL    HW225557   5.692   1.450   6.886
 8220SOL     OW25558   4.070   3.657   1.647
 8220SOL    HW125559   4.116   3.587   1.702
 8220SOL    HW225560   4.053   3.738   1.705
 8221SOL     OW25561   5.054   5.088   3.081
 8221SOL    HW125562   5.071   4.993   3.054
 8221SOL    HW225563   4.956   5.102   3.093
 8222SOL     OW25564   6.460   1.958   2.647
 8222SOL    HW125565   6.447   1.950   2.745
 8222SOL    HW225566   6.557   1.945   2.625
 8223SOL     OW25567   0.120   5.023   5.580
 8223SOL    HW125568   0.033   4.991   5.619
 8223SOL    HW225569   0.105   5.109   5.532
 8224SOL     OW25570   1.085   3.318   3.252
 8224SOL    HW125571   1.055   3.238   3.199
 8224SOL    HW225572   1.134   3.381   3.193
 8225SOL     OW25573   4.572   0.950   0.543
 8225SOL    HW125574   4.662   0.905   0.537
 8225SOL    HW225575   4.582   1.047   0.523
 8226SOL     OW25576   3.993   0.644   0.879
 8226SOL    HW125577   3.959   0.738   0.881
 8226SOL    HW225578   3.918   0.581   0.863
 8227SOL     OW25579   5.857   3.712   2.792
 8227SOL    HW125580   5.807   3.768   2.726
 8227SOL    HW225581   5.810   3.712   2.879
 8228SOL     OW25582   0.252   2.058   4.873
 8228SOL    HW125583   0.316   2.118   4.825
 8228SOL    HW225584   0.174   2.038   4.812
 8229SOL     OW25585   3.681   5.293   0.693
 8229SOL    HW125586   3.709   5.387   0.677
 8229SOL    HW225587   3.744   5.249   0.757
 8230SOL     OW25588   5.046   6.971   3.905
 8230SOL    HW125589   5.122   6.908   3.891
 8230SOL    HW225590   4.960   6.921   3.903
 8231SOL     OW25591   4.083   5.871   1.198
 8231SOL    HW125592   4.058   5.952   1.252
 8231SOL    HW225593   4.167   5.832   1.234
 8232SOL     OW25594   2.740   1.790   6.608
 8232SOL    HW125595   2.819   1.769   6.551
 8232SOL    HW225596   2.666   1.827   6.550
 8233SOL     OW25597   0.333   5.053   6.124
 8233SOL    HW125598   0.279   4.993   6.064
 8233SOL    HW225599   0.280   5.074   6.206
 8234SOL     OW25600   3.471   3.340   6.912
 8234SOL    HW125601   3.378   3.373   6.898
 8234SOL    HW225602   3.510   3.310   6.824
 8235SOL     OW25603   4.692   2.461   0.005
 8235SOL    HW125604   4.667   2.376   6.978
 8235SOL    HW225605   4.704   2.534   6.957
 8236SOL     OW25606   5.697   2.183   0.881
 8236SOL    HW125607   5.643   2.102   0.900
 8236SOL    HW225608   5.669   2.258   0.941
 8237SOL     OW25609   3.974   6.113   5.560
 8237SOL    HW125610   4.036   6.081   5.488
 8237SOL    HW225611   3.969   6.213   5.557
 8238SOL     OW25612   1.992   1.095   6.876
 8238SOL    HW125613   1.995   1.048   6.788
 8238SOL    HW225614   1.908   1.072   6.923
 8239SOL     OW25615   6.751   1.193   6.720
 8239SOL    HW125616   6.752   1.114   6.781
 8239SOL    HW225617   6.711   1.272   6.767
 8240SOL     OW25618   4.039   3.548   3.154
 8240SOL    HW125619   4.084   3.481   3.096
 8240SOL    HW225620   4.023   3.509   3.245
 8241SOL     OW25621   4.342   6.694   1.729
 8241SOL    HW125622   4.421   6.702   1.668
 8241SOL    HW225623   4.309   6.785   1.754
 8242SOL     OW25624   0.938   4.051   5.274
 8242SOL    HW125625   0.869   3.999   5.224
 8242SOL    HW225626   0.959   4.136   5.225
 8243SOL     OW25627   1.082   3.469   4.897
 8243SOL    HW125628   1.104   3.565   4.915
 8243SOL    HW225629   1.155   3.412   4.934
 8244SOL     OW25630   1.084   5.757   4.781
 8244SOL    HW125631   1.029   5.736   4.862
 8244SOL    HW225632   1.158   5.819   4.807
 8245SOL     OW25633   3.465   3.581   0.986
 8245SOL    HW125634   3.532   3.650   0.958
 8245SOL    HW225635   3.421   3.610   1.071
 8246SOL     OW25636   5.259   4.064   5.871
 8246SOL    HW125637   5.210   4.038   5.955
 8246SOL    HW225638   5.243   3.995   5.801
 8247SOL     OW25639   1.008   6.839   1.582
 8247SOL    HW125640   1.076   6.838   1.508
 8247SOL    HW225641   0.998   6.932   1.617
 8248SOL     OW25642   0.111   4.170   3.328
 8248SOL    HW125643   0.064   4.082   3.323
 8248SOL    HW225644   0.120   4.198   3.423
 8249SOL     OW25645   1.603   5.629   3.149
 8249SOL    HW125646   1.696   5.619   3.113
 8249SOL    HW225647   1.605   5.683   3.233
 8250SOL     OW25648   3.836   3.871   2.042
 8250SOL    HW125649   3.783   3.793   2.074
 8250SOL    HW225650   3.903   3.840   1.974
 8251SOL     OW25651   6.425   1.774   5.007
 8251SOL    HW125652   6.343   1.807   5.053
 8251SOL    HW225653   6.427   1.674   5.011
 8252SOL     OW25654   1.319   3.269   4.149
 8252SOL    HW125655   1.363   3.272   4.239
 8252SOL    HW225656   1.345   3.186   4.101
 8253SOL     OW25657   2.466   2.700   5.416
 8253SOL    HW125658   2.553   2.722   5.373
 8253SOL    HW225659   2.394   2.756   5.376
 8254SOL     OW25660   4.329   5.884   3.659
 8254SOL    HW125661   4.384   5.807   3.627
 8254SOL    HW225662   4.261   5.908   3.589
 8255SOL     OW25663   4.337   4.974   3.989
 8255SOL    HW125664   4.359   5.071   4.002
 8255SOL    HW225665   4.374   4.920   4.065
 8256SOL     OW25666   6.227   2.527   4.251
 8256SOL    HW125667   6.303   2.487   4.303
 8256SOL    HW225668   6.261   2.558   4.162
 8257SOL     OW25669   6.283   4.137   4.916
 8257SOL    HW125670   6.368   4.156   4.867
 8257SOL    HW225671   6.222   4.216   4.908
 8258SOL     OW25672   4.931   1.573   0.076
 8258SOL    HW125673   4.863   1.552   0.006
 8258SOL    HW225674   4.917   1.666   0.110
 8259SOL     OW25675   3.667   1.192   1.507
 8259SOL    HW125676   3.681   1.146   1.419
 8259SOL    HW225677   3.749   1.181   1.564
 8260SOL     OW25678   2.752   6.256   0.471
 8260SOL    HW125679   2.757   6.343   0.518
 8260SOL    HW225680   2.740   6.182   0.537
 8261SOL     OW25681   5.353   1.207   1.577
 8261SOL    HW125682   5.265   1.246   1.548
 8261SOL    HW225683   5.395   1.159   1.500
 8262SOL     OW25684   0.939   1.948   0.602
 8262SOL    HW125685   1.026   1.987   0.634
 8262SOL    HW225686   0.927   1.968   0.505
 8263SOL     OW25687   5.698   1.080   0.275
 8263SOL    HW125688   5.771   1.013   0.258
 8263SOL    HW225689   5.681   1.132   0.191
 8264SOL     OW25690   1.764   4.421   2.786
 8264SOL    HW125691   1.828   4.422   2.862
 8264SOL    HW225692   1.758   4.329   2.747
 8265SOL     OW25693   1.693   0.952   2.017
 8265SOL    HW125694   1.772   0.998   1.977
 8265SOL    HW225695   1.631   0.923   1.944
 8266SOL     OW25696   3.069   0.191   3.013
 8266SOL    HW125697   3.084   0.259   2.942
 8266SOL    HW225698   2.986   0.215   3.065
 8267SOL     OW25699   0.449   3.630   0.426
 8267SOL    HW125700   0.407   3.577   0.500
 8267SOL    HW225701   0.462   3.724   0.457
 8268SOL     OW25702   3.592   5.800   6.416
 8268SOL    HW125703   3.640   5.780   6.501
 8268SOL    HW225704   3.512   5.857   6.435
 8269SOL     OW25705   5.960   1.993   0.962
 8269SOL    HW125706   5.864   2.018   0.971
 8269SOL    HW225707   5.974   1.945   0.876
 8270SOL     OW25708   3.253   6.121   3.946
 8270SOL    HW125709   3.247   6.085   3.852
 8270SOL    HW225710   3.327   6.075   3.994
 8271SOL     OW25711   6.725   2.201   1.926
 8271SOL    HW125712   6.714   2.109   1.963
 8271SOL    HW225713   6.745   2.264   2.001
 8272SOL     OW25714   3.436   1.354   4.215
 8272SOL    HW125715   3.346   1.342   4.173
 8272SOL    HW225716   3.504   1.370   4.144
 8273SOL     OW25717   1.913   6.497   1.164
 8273SOL    HW125718   1.938   6.435   1.238
 8273SOL    HW225719   1.853   6.450   1.099
 8274SOL     OW25720   5.312   4.158   3.535
 8274SOL    HW125721   5.224   4.206   3.542
 8274SOL    HW225722   5.333   4.114   3.622
 8275SOL     OW25723   4.884   2.516   6.398
 8275SOL    HW125724   4.900   2.438   6.337
 8275SOL    HW225725   4.786   2.532   6.406
 8276SOL     OW25726   0.560   2.254   2.966
 8276SOL    HW125727   0.568   2.312   2.885
 8276SOL    HW225728   0.495   2.181   2.948
 8277SOL     OW25729   6.223   0.500   0.060
 8277SOL    HW125730   6.289   0.554   0.112
 8277SOL    HW225731   6.232   0.403   0.084
 8278SOL     OW25732   1.903   2.720   6.631
 8278SOL    HW125733   1.885   2.811   6.667
 8278SOL    HW225734   1.929   2.659   6.706
 8279SOL     OW25735   6.962   6.168   4.090
 8279SOL    HW125736   6.966   6.234   4.016
 8279SOL    HW225737   6.979   6.076   4.055
 8280SOL     OW25738   2.488   2.154   5.818
 8280SOL    HW125739   2.500   2.128   5.914
 8280SOL    HW225740   2.568   2.205   5.787
 8281SOL     OW25741   6.174   5.627   2.084
 8281SOL    HW125742   6.136   5.548   2.132
 8281SOL    HW225743   6.100   5.687   2.054
 8282SOL     OW25744   5.781   3.030   6.003
 8282SOL    HW125745   5.754   3.100   6.069
 8282SOL    HW225746   5.820   3.074   5.921
 8283SOL     OW25747   1.723   3.225   5.959
 8283SOL    HW125748   1.680   3.147   6.004
 8283SOL    HW225749   1.780   3.192   5.884
 8284SOL     OW25750   6.142   4.077   1.687
 8284SOL    HW125751   6.181   4.106   1.599
 8284SOL    HW225752   6.104   3.984   1.677
 8285SOL     OW25753   3.850   3.454   4.415
 8285SOL    HW125754   3.944   3.419   4.421
 8285SOL    HW225755   3.848   3.549   4.445
 8286SOL     OW25756   6.819   1.794   6.401
 8286SOL    HW125757   6.842   1.699   6.420
 8286SOL    HW225758   6.769   1.800   6.315
 8287SOL     OW25759   1.168   5.758   4.312
 8287SOL    HW125760   1.207   5.727   4.399
 8287SOL    HW225761   1.200   5.851   4.293
 8288SOL     OW25762   2.681   2.006   2.973
 8288SOL    HW125763   2.775   2.026   2.999
 8288SOL    HW225764   2.648   1.927   3.025
 8289SOL     OW25765   0.053   6.009   6.631
 8289SOL    HW125766   0.058   6.010   6.731
 8289SOL    HW225767   6.977   5.994   6.603
 8290SOL     OW25768   6.696   2.911   0.808
 8290SOL    HW125769   6.686   3.010   0.801
 8290SOL    HW225770   6.645   2.867   0.734
 8291SOL     OW25771   3.950   6.710   1.162
 8291SOL    HW125772   3.883   6.656   1.110
 8291SOL    HW225773   3.905   6.754   1.239
 8292SOL     OW25774   2.840   6.598   6.346
 8292SOL    HW125775   2.783   6.655   6.288
 8292SOL    HW225776   2.795   6.584   6.434
 8293SOL     OW25777   5.392   5.747   5.032
 8293SOL    HW125778   5.321   5.676   5.032
 8293SOL    HW225779   5.400   5.785   5.124
 8294SOL     OW25780   5.424   2.497   0.030
 8294SOL    HW125781   5.498   2.548   7.006
 8294SOL    HW225782   5.353   2.477   6.981
 8295SOL     OW25783   4.952   4.055   0.257
 8295SOL    HW125784   4.862   4.075   0.295
 8295SOL    HW225785   4.954   3.961   0.224
 8296SOL     OW25786   1.010   5.371   6.637
 8296SOL    HW125787   1.026   5.345   6.732
 8296SOL    HW225788   0.915   5.352   6.613
 8297SOL     OW25789   0.677   2.422   3.609
 8297SOL    HW125790   0.625   2.490   3.558
 8297SOL    HW225791   0.734   2.369   3.546
 8298SOL     OW25792   4.664   1.450   1.867
 8298SOL    HW125793   4.581   1.480   1.821
 8298SOL    HW225794   4.742   1.462   1.806
 8299SOL     OW25795   6.564   2.191   1.375
 8299SOL    HW125796   6.645   2.137   1.399
 8299SOL    HW225797   6.590   2.261   1.308
 8300SOL     OW25798   0.893   4.439   3.519
 8300SOL    HW125799   0.808   4.396   3.490
 8300SOL    HW225800   0.961   4.430   3.446
 8301SOL     OW25801   3.350   2.947   6.649
 8301SOL    HW125802   3.339   2.933   6.747
 8301SOL    HW225803   3.261   2.938   6.604
 8302SOL     OW25804   5.497   5.637   6.083
 8302SOL    HW125805   5.591   5.641   6.051
 8302SOL    HW225806   5.461   5.544   6.069
 8303SOL     OW25807   0.497   0.510   5.769
 8303SOL    HW125808   0.474   0.457   5.687
 8303SOL    HW225809   0.583   0.476   5.808
 8304SOL     OW25810   0.315   3.387   6.980
 8304SOL    HW125811   0.273   3.445   6.911
 8304SOL    HW225812   0.332   3.441   0.043
 8305SOL     OW25813   3.295   6.010   3.716
 8305SOL    HW125814   3.278   5.930   3.658
 8305SOL    HW225815   3.299   6.092   3.660
 8306SOL     OW25816   0.632   3.475   4.104
 8306SOL    HW125817   0.605   3.421   4.024
 8306SOL    HW225818   0.697   3.423   4.159
 8307SOL     OW25819   2.789   5.781   0.935
 8307SOL    HW125820   2.764   5.723   1.013
 8307SOL    HW225821   2.888   5.780   0.923
 8308SOL     OW25822   3.796   6.825   3.212
 8308SOL    HW125823   3.830   6.904   3.262
 8308SOL    HW225824   3.824   6.741   3.258
 8309SOL     OW25825   5.399   5.842   2.044
 8309SOL    HW125826   5.480   5.871   2.094
 8309SOL    HW225827   5.407   5.745   2.022
 8310SOL     OW25828   6.909   4.652   0.197
 8310SOL    HW125829   6.822   4.648   0.246
 8310SOL    HW225830   6.974   4.708   0.249
 8311SOL     OW25831   5.946   0.168   0.245
 8311SOL    HW125832   5.967   0.121   0.331
 8311SOL    HW225833   5.859   0.134   0.210
 8312SOL     OW25834   5.227   6.428   1.357
 8312SOL    HW125835   5.186   6.339   1.334
 8312SOL    HW225836   5.208   6.493   1.284
 8313SOL     OW25837   3.285   1.339   2.889
 8313SOL    HW125838   3.364   1.395   2.866
 8313SOL    HW225839   3.275   1.266   2.821
 8314SOL     OW25840   6.520   0.082   3.813
 8314SOL    HW125841   6.498   0.150   3.743
 8314SOL    HW225842   6.612   0.100   3.849
 8315SOL     OW25843   5.084   4.794   6.527
 8315SOL    HW125844   5.006   4.766   6.583
 8315SOL    HW225845   5.095   4.730   6.451
 8316SOL     OW25846   2.254   5.501   6.832
 8316SOL    HW125847   2.344   5.537   6.856
 8316SOL    HW225848   2.189   5.522   6.906
 8317SOL     OW25849   2.102   4.392   2.320
 8317SOL    HW125850   2.033   4.410   2.389
 8317SOL    HW225851   2.133   4.479   2.281
 8318SOL     OW25852   3.757   0.918   5.397
 8318SOL    HW125853   3.680   0.918   5.334
 8318SOL    HW225854   3.725   0.894   5.489
 8319SOL     OW25855   3.698   0.571   4.668
 8319SOL    HW125856   3.717   0.665   4.640
 8319SOL    HW225857   3.617   0.570   4.726
 8320SOL     OW25858   3.777   4.494   1.628
 8320SOL    HW125859   3.717   4.537   1.694
 8320SOL    HW225860   3.865   4.542   1.625
 8321SOL     OW25861   0.521   0.666   1.250
 8321SOL    HW125862   0.581   0.723   1.306
 8321SOL    HW225863   0.427   0.673   1.284
 8322SOL     OW25864   5.756   6.568   0.149
 8322SOL    HW125865   5.837   6.530   0.193
 8322SOL    HW225866   5.716   6.500   0.087
 8323SOL     OW25867   1.561   2.062   1.498
 8323SOL    HW125868   1.509   1.978   1.518
 8323SOL    HW225869   1.659   2.040   1.497
 8324SOL     OW25870   6.984   1.263   1.938
 8324SOL    HW125871   6.927   1.249   2.018
 8324SOL    HW225872   0.055   1.296   1.966
 8325SOL     OW25873   3.181   2.957   3.917
 8325SOL    HW125874   3.158   3.040   3.866
 8325SOL    HW225875   3.121   2.882   3.887
 8326SOL     OW25876   3.371   3.479   5.835
 8326SOL    HW125877   3.274   3.458   5.838
 8326SOL    HW225878   3.402   3.513   5.923
 8327SOL     OW25879   4.872   1.795   5.967
 8327SOL    HW125880   4.781   1.833   5.954
 8327SOL    HW225881   4.870   1.727   6.041
 8328SOL     OW25882   2.602   2.506   5.210
 8328SOL    HW125883   2.637   2.551   5.292
 8328SOL    HW225884   2.645   2.417   5.200
 8329SOL     OW25885   0.089   2.736   5.455
 8329SOL    HW125886   0.189   2.729   5.456
 8329SOL    HW225887   0.058   2.777   5.540
 8330SOL     OW25888   3.060   6.984   0.226
 8330SOL    HW125889   3.014   6.937   0.301
 8330SOL    HW225890   3.030   6.945   0.139
 8331SOL     OW25891   2.506   6.968   1.111
 8331SOL    HW125892   2.579   6.933   1.169
 8331SOL    HW225893   2.458   0.023   1.159
 8332SOL     OW25894   5.191   5.694   2.748
 8332SOL    HW125895   5.284   5.725   2.730
 8332SOL    HW225896   5.161   5.729   2.837
 8333SOL     OW25897   0.648   5.969   6.163
 8333SOL    HW125898   0.718   6.017   6.110
 8333SOL    HW225899   0.630   6.020   6.247
 8334SOL     OW25900   5.884   1.105   3.741
 8334SOL    HW125901   5.947   1.119   3.665
 8334SOL    HW225902   5.925   1.140   3.825
 8335SOL     OW25903   5.693   6.861   5.820
 8335SOL    HW125904   5.776   6.872   5.764
 8335SOL    HW225905   5.624   6.927   5.792
 8336SOL     OW25906   0.177   2.418   2.174
 8336SOL    HW125907   0.140   2.405   2.266
 8336SOL    HW225908   0.172   2.515   2.150
 8337SOL     OW25909   0.224   6.095   2.400
 8337SOL    HW125910   0.166   6.014   2.415
 8337SOL    HW225911   0.204   6.163   2.470
 8338SOL     OW25912   1.569   4.920   0.571
 8338SOL    HW125913   1.539   4.992   0.509
 8338SOL    HW225914   1.583   4.958   0.663
 8339SOL     OW25915   5.591   1.262   2.835
 8339SOL    HW125916   5.561   1.253   2.930
 8339SOL    HW225917   5.687   1.290   2.832
 8340SOL     OW25918   4.701   3.421   0.462
 8340SOL    HW125919   4.606   3.391   0.454
 8340SOL    HW225920   4.712   3.474   0.546
 8341SOL     OW25921   2.052   0.070   0.951
 8341SOL    HW125922   1.975   0.008   0.935
 8341SOL    HW225923   2.130   0.018   0.988
 8342SOL     OW25924   4.331   1.112   1.159
 8342SOL    HW125925   4.391   1.138   1.084
 8342SOL    HW225926   4.353   1.167   1.240
 8343SOL     OW25927   1.627   5.151   6.009
 8343SOL    HW125928   1.568   5.072   5.994
 8343SOL    HW225929   1.615   5.185   6.102
 8344SOL     OW25930   3.879   0.031   5.095
 8344SOL    HW125931   3.971   0.033   5.136
 8344SOL    HW225932   3.869   0.108   5.031
 8345SOL     OW25933   6.548   1.232   2.486
 8345SOL    HW125934   6.487   1.229   2.565
 8345SOL    HW225935   6.639   1.262   2.515
 8346SOL     OW25936   3.240   5.187   1.812
 8346SOL    HW125937   3.151   5.169   1.853
 8346SOL    HW225938   3.307   5.121   1.845
 8347SOL     OW25939   3.707   5.406   3.953
 8347SOL    HW125940   3.707   5.321   4.007
 8347SOL    HW225941   3.760   5.392   3.869
 8348SOL     OW25942   1.655   0.476   0.349
 8348SOL    HW125943   1.639   0.456   0.252
 8348SOL    HW225944   1.726   0.545   0.358
 8349SOL     OW25945   5.807   5.186   1.905
 8349SOL    HW125946   5.788   5.203   1.808
 8349SOL    HW225947   5.905   5.194   1.922
 8350SOL     OW25948   6.377   0.735   5.040
 8350SOL    HW125949   6.447   0.775   5.099
 8350SOL    HW225950   6.348   0.647   5.078
 8351SOL     OW25951   3.072   6.233   2.199
 8351SOL    HW125952   3.028   6.145   2.217
 8351SOL    HW225953   3.135   6.255   2.274
 8352SOL     OW25954   6.867   6.499   1.205
 8352SOL    HW125955   6.929   6.422   1.193
 8352SOL    HW225956   6.887   6.546   1.291
 8353SOL     OW25957   0.220   3.892   2.346
 8353SOL    HW125958   0.122   3.876   2.336
 8353SOL    HW225959   0.267   3.804   2.358
 8354SOL     OW25960   2.104   0.825   0.726
 8354SOL    HW125961   2.201   0.848   0.721
 8354SOL    HW225962   2.050   0.900   0.690
 8355SOL     OW25963   3.051   1.023   0.297
 8355SOL    HW125964   3.005   0.940   0.327
 8355SOL    HW225965   2.997   1.067   0.225
 8356SOL     OW25966   2.153   5.222   6.961
 8356SOL    HW125967   2.146   5.139   6.906
 8356SOL    HW225968   2.104   5.297   6.915
 8357SOL     OW25969   5.069   5.472   4.362
 8357SOL    HW125970   5.078   5.531   4.281
 8357SOL    HW225971   5.069   5.376   4.334
 8358SOL     OW25972   2.279   2.310   5.702
 8358SOL    HW125973   2.328   2.379   5.648
 8358SOL    HW225974   2.345   2.250   5.747
 8359SOL     OW25975   4.455   4.831   3.715
 8359SOL    HW125976   4.462   4.889   3.796
 8359SOL    HW225977   4.385   4.761   3.731
 8360SOL     OW25978   4.994   0.296   3.584
 8360SOL    HW125979   4.897   0.274   3.595
 8360SOL    HW225980   5.003   0.375   3.523
 8361SOL     OW25981   2.012   0.868   3.181
 8361SOL    HW125982   1.958   0.835   3.103
 8361SOL    HW225983   2.095   0.911   3.147
 8362SOL     OW25984   2.608   3.181   0.613
 8362SOL    HW125985   2.616   3.101   0.672
 8362SOL    HW225986   2.523   3.176   0.561
 8363SOL     OW25987   0.156   3.104   0.669
 8363SOL    HW125988   0.086   3.054   0.721
 8363SOL    HW225989   0.155   3.073   0.574
 8364SOL     OW25990   6.667   4.539   3.762
 8364SOL    HW125991   6.631   4.510   3.673
 8364SOL    HW225992   6.605   4.509   3.834
 8365SOL     OW25993   1.729   3.503   6.007
 8365SOL    HW125994   1.766   3.538   6.093
 8365SOL    HW225995   1.766   3.412   5.990
 8366SOL     OW25996   3.226   6.569   2.859
 8366SOL    HW125997   3.263   6.624   2.933
 8366SOL    HW225998   3.273   6.593   2.773
 8367SOL     OW25999   5.732   5.817   3.741
 8367SOL    HW126000   5.769   5.794   3.831
 8367SOL    HW226001   5.803   5.808   3.672
 8368SOL     OW26002   2.961   5.103   6.571
 8368SOL    HW126003   3.054   5.136   6.557
 8368SOL    HW226004   2.896   5.168   6.530
 8369SOL     OW26005   2.148   1.485   1.276
 8369SOL    HW126006   2.089   1.495   1.355
 8369SOL    HW226007   2.243   1.502   1.303
 8370SOL     OW26008   1.538   1.623   6.813
 8370SOL    HW126009   1.504   1.711   6.845
 8370SOL    HW226010   1.462   1.559   6.803
 8371SOL     OW26011   1.847   3.427   0.673
 8371SOL    HW126012   1.893   3.391   0.755
 8371SOL    HW226013   1.856   3.526   0.671
 8372SOL     OW26014   0.373   0.602   2.034
 8372SOL    HW126015   0.302   0.576   1.968
 8372SOL    HW226016   0.407   0.693   2.012
 8373SOL     OW26017   1.445   6.791   5.247
 8373SOL    HW126018   1.524   6.735   5.223
 8373SOL    HW226019   1.474   6.885   5.263
 8374SOL     OW26020   6.335   0.026   6.485
 8374SOL    HW126021   6.380   0.109   6.452
 8374SOL    HW226022   6.344   0.020   6.584
 8375SOL     OW26023   3.688   0.696   6.335
 8375SOL    HW126024   3.748   0.703   6.256
 8375SOL    HW226025   3.718   0.620   6.393
 8376SOL     OW26026   3.948   0.290   4.890
 8376SOL    HW126027   4.008   0.306   4.812
 8376SOL    HW226028   3.854   0.311   4.864
 8377SOL     OW26029   5.565   4.428   0.647
 8377SOL    HW126030   5.469   4.408   0.629
 8377SOL    HW226031   5.603   4.358   0.708
 8378SOL     OW26032   4.845   3.122   3.679
 8378SOL    HW126033   4.880   3.101   3.587
 8378SOL    HW226034   4.779   3.052   3.706
 8379SOL     OW26035   5.590   2.212   1.874
 8379SOL    HW126036   5.542   2.204   1.961
 8379SOL    HW226037   5.653   2.135   1.863
 8380SOL     OW26038   5.203   1.793   3.092
 8380SOL    HW126039   5.227   1.796   3.189
 8380SOL    HW226040   5.254   1.863   3.043
 8381SOL     OW26041   2.088   5.487   4.487
 8381SOL    HW126042   2.103   5.552   4.562
 8381SOL    HW226043   2.022   5.526   4.422
 8382SOL     OW26044   1.160   3.052   2.245
 8382SOL    HW126045   1.176   3.150   2.256
 8382SOL    HW226046   1.231   3.014   2.185
 8383SOL     OW26047   3.473   2.057   6.458
 8383SOL    HW126048   3.483   1.974   6.514
 8383SOL    HW226049   3.385   2.055   6.410
 8384SOL     OW26050   0.735   6.408   1.474
 8384SOL    HW126051   0.738   6.345   1.397
 8384SOL    HW226052   0.818   6.400   1.529
 8385SOL     OW26053   4.434   2.258   0.997
 8385SOL    HW126054   4.409   2.353   1.018
 8385SOL    HW226055   4.477   2.217   1.078
 8386SOL     OW26056   1.489   4.548   2.685
 8386SOL    HW126057   1.428   4.473   2.658
 8386SOL    HW226058   1.577   4.511   2.715
 8387SOL     OW26059   0.499   1.992   1.180
 8387SOL    HW126060   0.435   1.978   1.105
 8387SOL    HW226061   0.574   2.050   1.149
 8388SOL     OW26062   1.017   6.876   2.664
 8388SOL    HW126063   0.938   6.918   2.618
 8388SOL    HW226064   1.099   6.890   2.609
 8389SOL     OW26065   5.009   2.374   2.577
 8389SOL    HW126066   4.921   2.331   2.594
 8389SOL    HW226067   5.070   2.358   2.655
 8390SOL     OW26068   5.673   1.730   6.003
 8390SOL    HW126069   5.635   1.796   6.068
 8390SOL    HW226070   5.744   1.675   6.048
 8391SOL     OW26071   6.649   6.794   1.353
 8391SOL    HW126072   6.733   6.742   1.364
 8391SOL    HW226073   6.650   6.873   1.414
 8392SOL     OW26074   4.949   2.754   5.852
 8392SOL    HW126075   4.859   2.762   5.893
 8392SOL    HW226076   4.941   2.712   5.761
 8393SOL     OW26077   5.080   0.056   1.643
 8393SOL    HW126078   5.048   0.125   1.707
 8393SOL    HW226079   5.180   0.053   1.645
 8394SOL     OW26080   5.777   3.026   2.139
 8394SOL    HW126081   5.845   3.092   2.106
 8394SOL    HW226082   5.740   3.058   2.226
 8395SOL     OW26083   2.341   1.226   4.819
 8395SOL    HW126084   2.351   1.253   4.723
 8395SOL    HW226085   2.318   1.129   4.824
 8396SOL     OW26086   4.617   5.635   4.236
 8396SOL    HW126087   4.570   5.547   4.224
 8396SOL    HW226088   4.635   5.651   4.333
 8397SOL     OW26089   6.111   0.850   3.144
 8397SOL    HW126090   6.155   0.774   3.095
 8397SOL    HW226091   6.013   0.831   3.154
 8398SOL     OW26092   4.971   2.239   6.223
 8398SOL    HW126093   4.977   2.148   6.181
 8398SOL    HW226094   5.061   2.265   6.258
 8399SOL     OW26095   0.388   4.539   1.158
 8399SOL    HW126096   0.378   4.535   1.258
 8399SOL    HW226097   0.312   4.489   1.115
 8400SOL     OW26098   1.550   1.217   4.798
 8400SOL    HW126099   1.600   1.264   4.870
 8400SOL    HW226100   1.609   1.149   4.755
 8401SOL     OW26101   2.196   6.866   5.705
 8401SOL    HW126102   2.174   6.875   5.803
 8401SOL    HW226103   2.249   6.944   5.676
 8402SOL     OW26104   3.364   0.749   6.017
 8402SOL    HW126105   3.411   0.673   5.970
 8402SOL    HW226106   3.432   0.805   6.065
 8403SOL     OW26107   5.574   4.518   4.487
 8403SOL    HW126108   5.642   4.534   4.415
 8403SOL    HW226109   5.504   4.590   4.482
 8404SOL     OW26110   0.987   1.794   6.426
 8404SOL    HW126111   0.940   1.719   6.472
 8404SOL    HW226112   1.032   1.761   6.343
 8405SOL     OW26113   4.296   0.139   5.844
 8405SOL    HW126114   4.349   0.220   5.820
 8405SOL    HW226115   4.292   0.077   5.766
 8406SOL     OW26116   5.366   0.439   6.168
 8406SOL    HW126117   5.304   0.376   6.121
 8406SOL    HW226118   5.385   0.403   6.260
 8407SOL     OW26119   3.781   6.811   4.158
 8407SOL    HW126120   3.720   6.770   4.226
 8407SOL    HW226121   3.811   6.900   4.190
 8408SOL     OW26122   3.721   1.466   1.121
 8408SOL    HW126123   3.676   1.420   1.045
 8408SOL    HW226124   3.774   1.400   1.174
 8409SOL     OW26125   4.384   2.289   1.988
 8409SOL    HW126126   4.390   2.331   2.078
 8409SOL    HW226127   4.326   2.345   1.929
 8410SOL     OW26128   6.858   1.785   1.798
 8410SOL    HW126129   6.932   1.849   1.777
 8410SOL    HW226130   6.864   1.757   1.894
 8411SOL     OW26131   1.009   6.389   0.744
 8411SOL    HW126132   0.963   6.327   0.808
 8411SOL    HW226133   1.004   6.483   0.778
 8412SOL     OW26134   2.586   1.958   6.479
 8412SOL    HW126135   2.593   2.028   6.408
 8412SOL    HW226136   2.527   1.991   6.552
 8413SOL     OW26137   4.199   5.614   4.232
 8413SOL    HW126138   4.224   5.707   4.257
 8413SOL    HW226139   4.112   5.590   4.276
 8414SOL     OW26140   1.062   0.267   1.401
 8414SOL    HW126141   1.040   0.213   1.319
 8414SOL    HW226142   1.157   0.298   1.396
 8415SOL     OW26143   2.581   1.231   5.558
 8415SOL    HW126144   2.678   1.212   5.577
 8415SOL    HW226145   2.570   1.327   5.535
 8416SOL     OW26146   6.656   1.842   5.709
 8416SOL    HW126147   6.745   1.887   5.717
 8416SOL    HW226148   6.617   1.862   5.619
 8417SOL     OW26149   1.354   3.561   5.836
 8417SOL    HW126150   1.373   3.608   5.749
 8417SOL    HW226151   1.390   3.615   5.912
 8418SOL     OW26152   0.696   6.061   2.425
 8418SOL    HW126153   0.678   5.993   2.355
 8418SOL    HW226154   0.642   6.144   2.406
 8419SOL     OW26155   4.470   1.991   4.220
 8419SOL    HW126156   4.453   2.038   4.134
 8419SOL    HW226157   4.569   1.980   4.233
 8420SOL     OW26158   3.473   0.420   2.008
 8420SOL    HW126159   3.527   0.473   2.073
 8420SOL    HW226160   3.508   0.434   1.915
 8421SOL     OW26161   4.751   6.800   6.580
 8421SOL    HW126162   4.805   6.763   6.504
 8421SOL    HW226163   4.749   6.900   6.574
 8422SOL     OW26164   5.270   2.409   3.354
 8422SOL    HW126165   5.282   2.365   3.442
 8422SOL    HW226166   5.196   2.476   3.360
 8423SOL     OW26167   0.071   5.155   6.682
 8423SOL    HW126168   0.051   5.095   6.760
 8423SOL    HW226169   0.030   5.245   6.697
 8424SOL     OW26170   3.287   0.488   4.750
 8424SOL    HW126171   3.360   0.556   4.751
 8424SOL    HW226172   3.326   0.398   4.730
 8425SOL     OW26173   3.528   4.045   2.151
 8425SOL    HW126174   3.594   3.983   2.108
 8425SOL    HW226175   3.562   4.072   2.242
 8426SOL     OW26176   4.115   3.000   1.810
 8426SOL    HW126177   4.169   3.033   1.733
 8426SOL    HW226178   4.111   2.900   1.808
 8427SOL     OW26179   3.607   3.866   3.964
 8427SOL    HW126180   3.555   3.846   3.880
 8427SOL    HW226181   3.582   3.798   4.034
 8428SOL     OW26182   5.828   6.994   1.637
 8428SOL    HW126183   5.868   0.006   1.723
 8428SOL    HW226184   5.843   6.896   1.627
 8429SOL     OW26185   3.109   5.509   5.578
 8429SOL    HW126186   3.064   5.593   5.547
 8429SOL    HW226187   3.045   5.432   5.569
 8430SOL     OW26188   4.995   0.185   4.992
 8430SOL    HW126189   5.036   0.239   4.918
 8430SOL    HW226190   4.900   0.212   5.005
 8431SOL     OW26191   1.990   3.790   5.825
 8431SOL    HW126192   1.892   3.777   5.810
 8431SOL    HW226193   2.025   3.856   5.758
 8432SOL     OW26194   6.093   5.302   5.810
 8432SOL    HW126195   6.044   5.238   5.870
 8432SOL    HW226196   6.101   5.262   5.719
 8433SOL     OW26197   5.297   2.278   0.956
 8433SOL    HW126198   5.265   2.191   0.918
 8433SOL    HW226199   5.251   2.296   1.042
 8434SOL     OW26200   2.774   5.532   4.664
 8434SOL    HW126201   2.777   5.616   4.718
 8434SOL    HW226202   2.865   5.490   4.664
 8435SOL     OW26203   5.484   1.703   2.877
 8435SOL    HW126204   5.561   1.735   2.933
 8435SOL    HW226205   5.417   1.776   2.868
 8436SOL     OW26206   2.291   5.564   2.020
 8436SOL    HW126207   2.359   5.572   2.093
 8436SOL    HW226208   2.263   5.468   2.011
 8437SOL     OW26209   0.976   5.575   2.081
 8437SOL    HW126210   1.065   5.566   2.037
 8437SOL    HW226211   0.919   5.496   2.059
 8438SOL     OW26212   0.752   3.986   2.427
 8438SOL    HW126213   0.667   4.008   2.379
 8438SOL    HW226214   0.806   3.922   2.372
 8439SOL     OW26215   6.047   4.496   2.857
 8439SOL    HW126216   6.091   4.585   2.845
 8439SOL    HW226217   5.948   4.507   2.847
 8440SOL     OW26218   1.774   1.896   2.690
 8440SOL    HW126219   1.792   1.899   2.591
 8440SOL    HW226220   1.715   1.972   2.715
 8441SOL     OW26221   6.695   1.584   5.777
 8441SOL    HW126222   6.673   1.669   5.728
 8441SOL    HW226223   6.710   1.605   5.874
 8442SOL     OW26224   3.935   2.063   6.282
 8442SOL    HW126225   3.937   2.155   6.241
 8442SOL    HW226226   3.909   2.071   6.378
 8443SOL     OW26227   1.562   3.952   2.945
 8443SOL    HW126228   1.620   3.883   2.903
 8443SOL    HW226229   1.562   4.035   2.889
 8444SOL     OW26230   5.564   5.104   5.160
 8444SOL    HW126231   5.634   5.175   5.163
 8444SOL    HW226232   5.511   5.105   5.245
 8445SOL     OW26233   4.337   6.354   6.503
 8445SOL    HW126234   4.354   6.435   6.446
 8445SOL    HW226235   4.287   6.381   6.585
 8446SOL     OW26236   6.725   5.169   4.843
 8446SOL    HW126237   6.726   5.145   4.940
 8446SOL    HW226238   6.699   5.265   4.833
 8447SOL     OW26239   4.204   1.760   3.600
 8447SOL    HW126240   4.273   1.734   3.533
 8447SOL    HW226241   4.191   1.685   3.665
 8448SOL     OW26242   3.109   6.099   3.336
 8448SOL    HW126243   3.179   6.148   3.389
 8448SOL    HW226244   3.107   6.134   3.243
 8449SOL     OW26245   1.989   2.244   3.093
 8449SOL    HW126246   1.909   2.303   3.099
 8449SOL    HW226247   1.978   2.181   3.017
 8450SOL     OW26248   0.119   1.470   6.662
 8450SOL    HW126249   0.137   1.564   6.633
 8450SOL    HW226250   0.202   1.431   6.702
 8451SOL     OW26251   4.163   2.221   0.853
 8451SOL    HW126252   4.256   2.231   0.887
 8451SOL    HW226253   4.107   2.172   0.920
 8452SOL     OW26254   5.017   1.755   5.752
 8452SOL    HW126255   4.978   1.753   5.844
 8452SOL    HW226256   4.949   1.788   5.687
 8453SOL     OW26257   6.610   6.296   0.340
 8453SOL    HW126258   6.532   6.247   0.301
 8453SOL    HW226259   6.681   6.306   0.270
 8454SOL     OW26260   6.679   4.144   6.977
 8454SOL    HW126261   6.598   4.192   6.943
 8454SOL    HW226262   6.758   4.171   6.922
 8455SOL     OW26263   6.950   1.241   2.754
 8455SOL    HW126264   6.896   1.271   2.833
 8455SOL    HW226265   6.986   1.149   2.772
 8456SOL     OW26266   6.880   0.188   3.160
 8456SOL    HW126267   6.860   0.241   3.077
 8456SOL    HW226268   6.908   0.251   3.233
 8457SOL     OW26269   6.917   6.715   5.207
 8457SOL    HW126270   7.017   6.726   5.202
 8457SOL    HW226271   6.894   6.664   5.290
 8458SOL     OW26272   0.596   0.150   6.589
 8458SOL    HW126273   0.548   0.237   6.575
 8458SOL    HW226274   0.543   0.092   6.651
 8459SOL     OW26275   1.431   6.460   3.716
 8459SOL    HW126276   1.388   6.551   3.720
 8459SOL    HW226277   1.500   6.459   3.644
 8460SOL     OW26278   3.877   3.884   3.363
 8460SOL    HW126279   3.886   3.953   3.435
 8460SOL    HW226280   3.876   3.793   3.404
 8461SOL     OW26281   6.609   3.646   3.983
 8461SOL    HW126282   6.578   3.614   4.072
 8461SOL    HW226283   6.546   3.614   3.912
 8462SOL     OW26284   2.480   2.789   1.740
 8462SOL    HW126285   2.555   2.856   1.742
 8462SOL    HW226286   2.393   2.838   1.734
 8463SOL     OW26287   5.431   0.782   2.193
 8463SOL    HW126288   5.380   0.771   2.278
 8463SOL    HW226289   5.390   0.724   2.122
 8464SOL     OW26290   6.670   1.855   5.051
 8464SOL    HW126291   6.583   1.805   5.052
 8464SOL    HW226292   6.652   1.953   5.056
 8465SOL     OW26293   1.545   2.226   6.917
 8465SOL    HW126294   1.636   2.185   6.923
 8465SOL    HW226295   1.479   2.166   6.962
 8466SOL     OW26296   0.464   6.726   3.963
 8466SOL    HW126297   0.504   6.802   3.912
 8466SOL    HW226298   0.367   6.744   3.980
 8467SOL     OW26299   3.496   5.303   1.262
 8467SOL    HW126300   3.527   5.363   1.335
 8467SOL    HW226301   3.489   5.354   1.177
 8468SOL     OW26302   4.413   2.500   0.441
 8468SOL    HW126303   4.392   2.402   0.430
 8468SOL    HW226304   4.344   2.554   0.394
 8469SOL     OW26305   3.860   2.529   6.706
 8469SOL    HW126306   3.916   2.450   6.679
 8469SOL    HW226307   3.785   2.540   6.641
 8470SOL     OW26308   1.772   3.280   6.817
 8470SOL    HW126309   1.726   3.351   6.869
 8470SOL    HW226310   1.818   3.217   6.880
 8471SOL     OW26311   5.108   1.232   4.070
 8471SOL    HW126312   5.142   1.305   4.011
 8471SOL    HW226313   5.008   1.231   4.066
 8472SOL     OW26314   1.499   0.248   2.898
 8472SOL    HW126315   1.446   0.332   2.909
 8472SOL    HW226316   1.494   0.194   2.982
 8473SOL     OW26317   6.437   5.503   6.586
 8473SOL    HW126318   6.499   5.476   6.660
 8473SOL    HW226319   6.490   5.546   6.513
 8474SOL     OW26320   3.779   5.183   0.355
 8474SOL    HW126321   3.792   5.118   0.280
 8474SOL    HW226322   3.682   5.194   0.373
 8475SOL     OW26323   4.593   1.609   2.840
 8475SOL    HW126324   4.683   1.590   2.880
 8475SOL    HW226325   4.547   1.523   2.818
 8476SOL     OW26326   4.208   0.561   2.720
 8476SOL    HW126327   4.274   0.503   2.674
 8476SOL    HW226328   4.255   0.637   2.764
 8477SOL     OW26329   2.472   0.678   2.398
 8477SOL    HW126330   2.420   0.592   2.398
 8477SOL    HW226331   2.421   0.748   2.446
 8478SOL     OW26332   1.482   0.349   5.421
 8478SOL    HW126333   1.401   0.383   5.468
 8478SOL    HW226334   1.557   0.415   5.431
 8479SOL     OW26335   5.076   1.641   2.434
 8479SOL    HW126336   5.039   1.553   2.404
 8479SOL    HW226337   5.009   1.713   2.418
 8480SOL     OW26338   1.033   1.452   1.293
 8480SOL    HW126339   1.013   1.413   1.203
 8480SOL    HW226340   0.948   1.472   1.340
 8481SOL     OW26341   4.528   0.006   4.999
 8481SOL    HW126342   4.440   7.010   4.953
 8481SOL    HW226343   4.594   6.957   4.968
 8482SOL     OW26344   0.471   0.376   2.215
 8482SOL    HW126345   0.476   0.415   2.123
 8482SOL    HW226346   0.492   0.447   2.283
 8483SOL     OW26347   5.005   6.199   2.096
 8483SOL    HW126348   5.007   6.264   2.020
 8483SOL    HW226349   5.098   6.171   2.120
 8484SOL     OW26350   0.564   4.502   4.466
 8484SOL    HW126351   0.519   4.544   4.545
 8484SOL    HW226352   0.656   4.473   4.492
 8485SOL     OW26353   2.404   3.517   5.633
 8485SOL    HW126354   2.318   3.497   5.680
 8485SOL    HW226355   2.480   3.477   5.684
 8486SOL     OW26356   4.177   0.124   2.769
 8486SOL    HW126357   4.135   0.143   2.858
 8486SOL    HW226358   4.109   0.137   2.697
 8487SOL     OW26359   4.910   0.375   0.958
 8487SOL    HW126360   4.820   0.377   1.002
 8487SOL    HW226361   4.950   0.284   0.970
 8488SOL     OW26362   5.470   3.367   4.842
 8488SOL    HW126363   5.509   3.365   4.934
 8488SOL    HW226364   5.482   3.278   4.799
 8489SOL     OW26365   4.157   5.487   2.518
 8489SOL    HW126366   4.226   5.550   2.553
 8489SOL    HW226367   4.072   5.501   2.569
 8490SOL     OW26368   3.705   5.119   2.621
 8490SOL    HW126369   3.705   5.019   2.625
 8490SOL    HW226370   3.615   5.151   2.592
 8491SOL     OW26371   1.198   1.016   2.277
 8491SOL    HW126372   1.110   1.041   2.237
 8491SOL    HW226373   1.272   1.061   2.227
 8492SOL     OW26374   5.344   3.986   4.489
 8492SOL    HW126375   5.264   3.929   4.510
 8492SOL    HW226376   5.386   4.017   4.575
 8493SOL     OW26377   3.583   2.502   0.985
 8493SOL    HW126378   3.667   2.537   0.943
 8493SOL    HW226379   3.526   2.579   1.014
 8494SOL     OW26380   3.516   5.814   6.917
 8494SOL    HW126381   3.495   5.754   6.839
 8494SOL    HW226382   3.565   5.895   6.884
 8495SOL     OW26383   0.582   2.461   0.209
 8495SOL    HW126384   0.631   2.445   0.295
 8495SOL    HW226385   0.600   2.553   0.176
 8496SOL     OW26386   6.677   2.225   3.212
 8496SOL    HW126387   6.663   2.323   3.198
 8496SOL    HW226388   6.774   2.204   3.202
 8497SOL     OW26389   6.068   4.864   3.588
 8497SOL    HW126390   6.154   4.814   3.594
 8497SOL    HW226391   6.082   4.956   3.626
 8498SOL     OW26392   6.397   0.905   0.794
 8498SOL    HW126393   6.396   0.854   0.880
 8498SOL    HW226394   6.420   1.000   0.812
 8499SOL     OW26395   2.473   4.062   6.082
 8499SOL    HW126396   2.526   3.997   6.137
 8499SOL    HW226397   2.534   4.112   6.021
 8500SOL     OW26398   3.217   0.436   5.990
 8500SOL    HW126399   3.306   0.463   6.026
 8500SOL    HW226400   3.229   0.376   5.911
 8501SOL     OW26401   2.672   4.392   6.039
 8501SOL    HW126402   2.738   4.323   6.070
 8501SOL    HW226403   2.587   4.382   6.091
 8502SOL     OW26404   0.377   6.894   1.858
 8502SOL    HW126405   0.468   6.926   1.831
 8502SOL    HW226406   0.382   6.848   1.946
 8503SOL     OW26407   3.066   6.313   2.872
 8503SOL    HW126408   3.151   6.284   2.827
 8503SOL    HW226409   3.018   6.378   2.813
 8504SOL     OW26410   1.426   5.449   3.424
 8504SOL    HW126411   1.462   5.387   3.493
 8504SOL    HW226412   1.465   5.540   3.438
 8505SOL     OW26413   4.831   2.931   4.063
 8505SOL    HW126414   4.918   2.886   4.082
 8505SOL    HW226415   4.805   2.915   3.968
 8506SOL     OW26416   0.593   6.270   0.618
 8506SOL    HW126417   0.663   6.198   0.622
 8506SOL    HW226418   0.631   6.356   0.651
 8507SOL     OW26419   1.753   0.367   4.623
 8507SOL    HW126420   1.740   0.419   4.539
 8507SOL    HW226421   1.767   0.430   4.699
 8508SOL     OW26422   1.215   3.184   6.332
 8508SOL    HW126423   1.260   3.095   6.343
 8508SOL    HW226424   1.119   3.169   6.307
 8509SOL     OW26425   6.301   2.380   4.828
 8509SOL    HW126426   6.230   2.401   4.761
 8509SOL    HW226427   6.263   2.390   4.920
 8510SOL     OW26428   5.077   0.378   2.481
 8510SOL    HW126429   5.146   0.362   2.410
 8510SOL    HW226430   5.121   0.381   2.571
 8511SOL     OW26431   6.738   4.941   1.736
 8511SOL    HW126432   6.668   4.924   1.806
 8511SOL    HW226433   6.697   4.932   1.646
 8512SOL     OW26434   4.094   2.659   0.726
 8512SOL    HW126435   4.019   2.723   0.736
 8512SOL    HW226436   4.112   2.614   0.814
 8513SOL     OW26437   0.539   4.405   1.681
 8513SOL    HW126438   0.536   4.305   1.678
 8513SOL    HW226439   0.493   4.438   1.763
 8514SOL     OW26440   2.417   2.479   5.581
 8514SOL    HW126441   2.483   2.407   5.562
 8514SOL    HW226442   2.446   2.563   5.534
 8515SOL     OW26443   2.088   0.731   0.456
 8515SOL    HW126444   2.059   0.770   0.544
 8515SOL    HW226445   2.180   0.762   0.434
 8516SOL     OW26446   5.486   2.303   3.839
 8516SOL    HW126447   5.422   2.228   3.855
 8516SOL    HW226448   5.485   2.365   3.917
 8517SOL     OW26449   1.920   1.693   6.256
 8517SOL    HW126450   2.001   1.700   6.314
 8517SOL    HW226451   1.867   1.777   6.264
 8518SOL     OW26452   5.675   4.900   6.938
 8518SOL    HW126453   5.673   4.883   0.018
 8518SOL    HW226454   5.611   4.839   6.893
 8519SOL     OW26455   0.939   2.902   1.078
 8519SOL    HW126456   0.886   2.829   1.121
 8519SOL    HW226457   1.027   2.866   1.047
 8520SOL     OW26458   3.789   3.925   6.131
 8520SOL    HW126459   3.778   3.988   6.207
 8520SOL    HW226460   3.792   3.976   6.045
 8521SOL     OW26461   1.981   6.382   5.069
 8521SOL    HW126462   1.992   6.294   5.024
 8521SOL    HW226463   2.052   6.445   5.039
 8522SOL     OW26464   0.544   0.139   0.083
 8522SOL    HW126465   0.610   0.064   0.089
 8522SOL    HW226466   0.578   0.208   0.018
 8523SOL     OW26467   3.523   1.796   0.380
 8523SOL    HW126468   3.478   1.708   0.367
 8523SOL    HW226469   3.481   1.864   0.321
 8524SOL     OW26470   2.550   5.468   5.115
 8524SOL    HW126471   2.542   5.419   5.202
 8524SOL    HW226472   2.575   5.404   5.042
 8525SOL     OW26473   6.086   4.064   1.955
 8525SOL    HW126474   6.116   4.101   1.867
 8525SOL    HW226475   6.080   3.964   1.949
 8526SOL     OW26476   0.472   4.401   0.848
 8526SOL    HW126477   0.500   4.491   0.883
 8526SOL    HW226478   0.521   4.382   0.763
 8527SOL     OW26479   2.924   0.575   5.512
 8527SOL    HW126480   2.922   0.623   5.599
 8527SOL    HW226481   3.009   0.522   5.505
 8528SOL     OW26482   4.937   0.743   0.387
 8528SOL    HW126483   5.030   0.741   0.424
 8528SOL    HW226484   4.941   0.757   0.288
 8529SOL     OW26485   1.231   6.301   6.862
 8529SOL    HW126486   1.235   6.321   6.764
 8529SOL    HW226487   1.203   6.205   6.875
 8530SOL     OW26488   3.527   4.035   3.323
 8530SOL    HW126489   3.603   4.030   3.387
 8530SOL    HW226490   3.560   4.068   3.235
 8531SOL     OW26491   6.697   5.085   4.400
 8531SOL    HW126492   6.650   5.017   4.456
 8531SOL    HW226493   6.767   5.040   4.345
 8532SOL     OW26494   2.985   4.779   6.546
 8532SOL    HW126495   2.961   4.682   6.555
 8532SOL    HW226496   2.928   4.833   6.607
 8533SOL     OW26497   2.904   6.515   5.061
 8533SOL    HW126498   2.900   6.611   5.033
 8533SOL    HW226499   2.821   6.492   5.112
 8534SOL     OW26500   2.193   2.419   3.021
 8534SOL    HW126501   2.146   2.332   3.033
 8534SOL    HW226502   2.138   2.493   3.061
 8535SOL     OW26503   6.592   0.456   2.658
 8535SOL    HW126504   6.547   0.425   2.741
 8535SOL    HW226505   6.661   0.524   2.680
 8536SOL     OW26506   0.603   1.545   4.609
 8536SOL    HW126507   0.699   1.539   4.584
 8536SOL    HW226508   0.591   1.618   4.676
 8537SOL     OW26509   6.531   1.521   2.682
 8537SOL    HW126510   6.552   1.617   2.704
 8537SOL    HW226511   6.616   1.473   2.661
 8538SOL     OW26512   0.897   2.562   0.230
 8538SOL    HW126513   0.826   2.586   0.164
 8538SOL    HW226514   0.855   2.542   0.319
 8539SOL     OW26515   5.443   2.907   2.520
 8539SOL    HW126516   5.497   2.903   2.604
 8539SOL    HW226517   5.379   2.984   2.526
 8540SOL     OW26518   3.563   0.598   0.629
 8540SOL    HW126519   3.478   0.630   0.587
 8540SOL    HW226520   3.588   0.509   0.592
 8541SOL     OW26521   2.044   2.813   4.211
 8541SOL    HW126522   1.987   2.781   4.287
 8541SOL    HW226523   2.136   2.832   4.244
 8542SOL     OW26524   3.254   4.938   0.657
 8542SOL    HW126525   3.278   5.018   0.603
 8542SOL    HW226526   3.210   4.870   0.599
 8543SOL     OW26527   2.334   1.943   6.308
 8543SOL    HW126528   2.341   1.950   6.208
 8543SOL    HW226529   2.424   1.951   6.349
 8544SOL     OW26530   6.051   2.778   3.423
 8544SOL    HW126531   6.139   2.811   3.457
 8544SOL    HW226532   5.991   2.855   3.405
 8545SOL     OW26533   4.459   6.366   4.703
 8545SOL    HW126534   4.388   6.307   4.664
 8545SOL    HW226535   4.423   6.459   4.712
 8546SOL     OW26536   4.760   2.227   6.638
 8546SOL    HW126537   4.745   2.324   6.620
 8546SOL    HW226538   4.734   2.206   6.733
 8547SOL     OW26539   1.040   4.844   2.299
 8547SOL    HW126540   0.981   4.911   2.344
 8547SOL    HW226541   0.986   4.766   2.269
 8548SOL     OW26542   6.461   1.611   5.313
 8548SOL    HW126543   6.548   1.627   5.358
 8548SOL    HW226544   6.417   1.531   5.354
 8549SOL     OW26545   5.291   3.085   5.348
 8549SOL    HW126546   5.350   3.139   5.408
 8549SOL    HW226547   5.220   3.144   5.308
 8550SOL     OW26548   1.188   4.466   6.336
 8550SOL    HW126549   1.286   4.449   6.328
 8550SOL    HW226550   1.172   4.543   6.398
 8551SOL     OW26551   2.646   3.979   1.344
 8551SOL    HW126552   2.565   3.926   1.369
 8551SOL    HW226553   2.624   4.076   1.346
 8552SOL     OW26554   3.270   6.650   4.565
 8552SOL    HW126555   3.265   6.637   4.466
 8552SOL    HW226556   3.261   6.561   4.611
 8553SOL     OW26557   6.336   4.967   6.840
 8553SOL    HW126558   6.368   4.984   6.932
 8553SOL    HW226559   6.353   5.047   6.782
 8554SOL     OW26560   5.915   3.725   6.862
 8554SOL    HW126561   5.971   3.667   6.804
 8554SOL    HW226562   5.818   3.701   6.849
 8555SOL     OW26563   1.501   6.867   3.993
 8555SOL    HW126564   1.561   6.835   3.920
 8555SOL    HW226565   1.451   6.789   4.031
 8556SOL     OW26566   6.123   0.269   4.047
 8556SOL    HW126567   6.029   0.288   4.019
 8556SOL    HW226568   6.133   0.288   4.144
 8557SOL     OW26569   6.905   0.803   0.168
 8557SOL    HW126570   6.814   0.820   0.207
 8557SOL    HW226571   6.972   0.794   0.242
 8558SOL     OW26572   1.067   5.650   2.430
 8558SOL    HW126573   1.030   5.742   2.442
 8558SOL    HW226574   1.166   5.652   2.446
 8559SOL     OW26575   0.234   1.506   5.592
 8559SOL    HW126576   0.321   1.544   5.623
 8559SOL    HW226577   0.240   1.407   5.586
 8560SOL     OW26578   6.737   2.541   6.183
 8560SOL    HW126579   6.696   2.589   6.105
 8560SOL    HW226580   6.674   2.546   6.261
 8561SOL     OW26581   4.892   6.404   5.541
 8561SOL    HW126582   4.889   6.306   5.521
 8561SOL    HW226583   4.827   6.452   5.482
 8562SOL     OW26584   3.531   6.998   4.476
 8562SOL    HW126585   3.558   6.905   4.452
 8562SOL    HW226586   3.442   7.018   4.434
 8563SOL     OW26587   3.008   2.829   6.591
 8563SOL    HW126588   3.019   2.924   6.562
 8563SOL    HW226589   2.990   2.826   6.689
 8564SOL     OW26590   6.921   6.402   3.861
 8564SOL    HW126591   7.006   6.399   3.807
 8564SOL    HW226592   6.851   6.346   3.816
 8565SOL     OW26593   3.777   0.460   1.830
 8565SOL    HW126594   3.790   0.418   1.920
 8565SOL    HW226595   3.718   0.401   1.775
 8566SOL     OW26596   2.148   3.684   3.762
 8566SOL    HW126597   2.169   3.604   3.706
 8566SOL    HW226598   2.049   3.696   3.767
 8567SOL     OW26599   5.343   6.062   0.554
 8567SOL    HW126600   5.341   5.965   0.579
 8567SOL    HW226601   5.311   6.073   0.460
 8568SOL     OW26602   5.201   1.075   6.903
 8568SOL    HW126603   5.114   1.025   6.909
 8568SOL    HW226604   5.242   1.080   6.993
 8569SOL     OW26605   4.066   1.454   5.545
 8569SOL    HW126606   4.106   1.412   5.464
 8569SOL    HW226607   3.968   1.468   5.531
 8570SOL     OW26608   0.384   3.823   6.636
 8570SOL    HW126609   0.438   3.845   6.717
 8570SOL    HW226610   0.436   3.761   6.577
 8571SOL     OW26611   0.038   4.310   4.521
 8571SOL    HW126612   0.103   4.374   4.482
 8571SOL    HW226613   0.079   4.219   4.525
 8572SOL     OW26614   3.158   5.083   5.707
 8572SOL    HW126615   3.144   4.987   5.685
 8572SOL    HW226616   3.253   5.108   5.689
 8573SOL     OW26617   4.373   5.895   4.549
 8573SOL    HW126618   4.345   5.851   4.464
 8573SOL    HW226619   4.424   5.979   4.529
 8574SOL     OW26620   0.230   3.667   4.545
 8574SOL    HW126621   0.288   3.728   4.490
 8574SOL    HW226622   0.157   3.721   4.588
 8575SOL     OW26623   2.740   3.596   6.371
 8575SOL    HW126624   2.802   3.520   6.353
 8575SOL    HW226625   2.679   3.608   6.293
 8576SOL     OW26626   1.702   0.113   1.102
 8576SOL    HW126627   1.765   0.062   1.160
 8576SOL    HW226628   1.664   0.190   1.154
 8577SOL     OW26629   6.594   5.373   4.019
 8577SOL    HW126630   6.604   5.339   3.925
 8577SOL    HW226631   6.685   5.393   4.056
 8578SOL     OW26632   4.827   6.867   3.319
 8578SOL    HW126633   4.839   6.876   3.221
 8578SOL    HW226634   4.731   6.847   3.339
 8579SOL     OW26635   0.570   5.049   2.860
 8579SOL    HW126636   0.549   5.145   2.845
 8579SOL    HW226637   0.505   4.992   2.809
 8580SOL     OW26638   3.123   4.575   5.984
 8580SOL    HW126639   3.167   4.663   5.963
 8580SOL    HW226640   3.031   4.591   6.019
 8581SOL     OW26641   3.337   2.970   0.232
 8581SOL    HW126642   3.404   3.032   0.274
 8581SOL    HW226643   3.276   2.935   0.303
 8582SOL     OW26644   4.542   4.421   1.325
 8582SOL    HW126645   4.543   4.323   1.308
 8582SOL    HW226646   4.452   4.448   1.360
 8583SOL     OW26647   5.160   0.256   5.268
 8583SOL    HW126648   5.078   0.223   5.314
 8583SOL    HW226649   5.142   0.346   5.228
 8584SOL     OW26650   0.782   5.501   6.403
 8584SOL    HW126651   0.729   5.450   6.470
 8584SOL    HW226652   0.729   5.512   6.319
 8585SOL     OW26653   0.839   1.283   1.098
 8585SOL    HW126654   0.806   1.247   1.010
 8585SOL    HW226655   0.817   1.380   1.104
 8586SOL     OW26656   4.130   5.467   3.943
 8586SOL    HW126657   4.222   5.504   3.929
 8586SOL    HW226658   4.091   5.503   4.028
 8587SOL     OW26659   6.696   2.328   1.694
 8587SOL    HW126660   6.712   2.311   1.791
 8587SOL    HW226661   6.713   2.244   1.642
 8588SOL     OW26662   3.985   2.097   0.419
 8588SOL    HW126663   3.971   2.083   0.321
 8588SOL    HW226664   4.052   2.030   0.453
 8589SOL     OW26665   2.865   1.676   4.661
 8589SOL    HW126666   2.802   1.598   4.661
 8589SOL    HW226667   2.889   1.699   4.755
 8590SOL     OW26668   6.231   5.365   5.467
 8590SOL    HW126669   6.310   5.421   5.489
 8590SOL    HW226670   6.225   5.352   5.368
 8591SOL     OW26671   0.767   3.036   0.168
 8591SOL    HW126672   0.799   2.999   0.256
 8591SOL    HW226673   0.846   3.052   0.108
 8592SOL     OW26674   6.508   5.989   6.280
 8592SOL    HW126675   6.541   5.898   6.306
 8592SOL    HW226676   6.413   5.999   6.311
 8593SOL     OW26677   0.244   6.210   3.513
 8593SOL    HW126678   0.172   6.269   3.549
 8593SOL    HW226679   0.330   6.229   3.560
 8594SOL     OW26680   2.928   3.382   3.495
 8594SOL    HW126681   2.920   3.404   3.593
 8594SOL    HW226682   2.886   3.455   3.441
 8595SOL     OW26683   2.061   2.690   1.715
 8595SOL    HW126684   2.066   2.614   1.780
 8595SOL    HW226685   2.129   2.759   1.739
 8596SOL     OW26686   6.622   4.093   2.428
 8596SOL    HW126687   6.698   4.062   2.371
 8596SOL    HW226688   6.567   4.159   2.377
 8597SOL     OW26689   2.435   2.114   0.076
 8597SOL    HW126690   2.370   2.115   7.018
 8597SOL    HW226691   2.496   2.193   0.069
 8598SOL     OW26692   5.137   3.806   1.429
 8598SOL    HW126693   5.213   3.762   1.477
 8598SOL    HW226694   5.061   3.819   1.493
 8599SOL     OW26695   0.715   3.113   1.280
 8599SOL    HW126696   0.674   3.095   1.191
 8599SOL    HW226697   0.798   3.167   1.268
 8600SOL     OW26698   6.077   3.273   6.008
 8600SOL    HW126699   6.150   3.320   6.058
 8600SOL    HW226700   6.116   3.203   5.948
 8601SOL     OW26701   0.229   0.322   5.203
 8601SOL    HW126702   0.305   0.376   5.240
 8601SOL    HW226703   0.143   0.357   5.240
 8602SOL     OW26704   2.034   6.001   2.001
 8602SOL    HW126705   1.952   6.057   1.993
 8602SOL    HW226706   2.106   6.038   1.942
 8603SOL     OW26707   4.604   3.770   1.699
 8603SOL    HW126708   4.681   3.744   1.640
 8603SOL    HW226709   4.529   3.706   1.684
 8604SOL     OW26710   5.579   2.050   2.817
 8604SOL    HW126711   5.603   2.072   2.723
 8604SOL    HW226712   5.662   2.022   2.867
 8605SOL     OW26713   3.111   5.940   2.328
 8605SOL    HW126714   3.183   5.902   2.270
 8605SOL    HW226715   3.152   5.990   2.404
 8606SOL     OW26716   3.949   5.607   5.794
 8606SOL    HW126717   3.897   5.655   5.724
 8606SOL    HW226718   4.014   5.545   5.750
 8607SOL     OW26719   2.982   5.626   1.571
 8607SOL    HW126720   2.931   5.544   1.547
 8607SOL    HW226721   2.931   5.678   1.640
 8608SOL     OW26722   5.817   6.323   1.960
 8608SOL    HW126723   5.741   6.336   1.896
 8608SOL    HW226724   5.823   6.226   1.986
 8609SOL     OW26725   4.180   0.802   6.588
 8609SOL    HW126726   4.169   0.898   6.612
 8609SOL    HW226727   4.094   0.754   6.603
 8610SOL     OW26728   6.999   6.540   4.955
 8610SOL    HW126729   6.961   6.616   4.902
 8610SOL    HW226730   6.968   6.454   4.915
 8611SOL     OW26731   1.521   2.142   3.366
 8611SOL    HW126732   1.505   2.045   3.347
 8611SOL    HW226733   1.434   2.190   3.374
 8612SOL     OW26734   4.803   3.062   4.777
 8612SOL    HW126735   4.862   3.042   4.855
 8612SOL    HW226736   4.734   3.129   4.803
 8613SOL     OW26737   1.312   1.773   6.990
 8613SOL    HW126738   1.245   1.806   6.924
 8613SOL    HW226739   1.296   1.676   7.010
 8614SOL     OW26740   1.257   1.167   3.669
 8614SOL    HW126741   1.183   1.232   3.650
 8614SOL    HW226742   1.334   1.216   3.710
 8615SOL     OW26743   4.429   2.249   5.081
 8615SOL    HW126744   4.346   2.305   5.069
 8615SOL    HW226745   4.440   2.189   5.002
 8616SOL     OW26746   1.346   3.168   0.258
 8616SOL    HW126747   1.382   3.078   0.233
 8616SOL    HW226748   1.422   3.229   0.281
 8617SOL     OW26749   6.353   3.045   1.135
 8617SOL    HW126750   6.417   3.053   1.058
 8617SOL    HW226751   6.282   3.115   1.127
 8618SOL     OW26752   4.396   0.599   3.208
 8618SOL    HW126753   4.451   0.593   3.124
 8618SOL    HW226754   4.425   0.528   3.272
 8619SOL     OW26755   4.144   5.812   0.615
 8619SOL    HW126756   4.150   5.826   0.516
 8619SOL    HW226757   4.231   5.778   0.650
 8620SOL     OW26758   6.912   6.644   2.924
 8620SOL    HW126759   6.943   6.725   2.875
 8620SOL    HW226760   6.832   6.605   2.877
 8621SOL     OW26761   5.728   0.633   3.052
 8621SOL    HW126762   5.707   0.582   3.135
 8621SOL    HW226763   5.736   0.731   3.074
 8622SOL     OW26764   5.385   5.297   6.787
 8622SOL    HW126765   5.414   5.382   6.831
 8622SOL    HW226766   5.315   5.317   6.719
 8623SOL     OW26767   6.084   2.677   2.814
 8623SOL    HW126768   6.152   2.632   2.756
 8623SOL    HW226769   5.997   2.682   2.766
 8624SOL     OW26770   0.005   4.131   4.163
 8624SOL    HW126771   0.007   4.221   4.118
 8624SOL    HW226772   6.930   4.105   4.182
 8625SOL     OW26773   3.520   0.921   6.332
 8625SOL    HW126774   3.509   0.944   6.236
 8625SOL    HW226775   3.582   0.844   6.341
 8626SOL     OW26776   3.425   3.375   2.776
 8626SOL    HW126777   3.442   3.297   2.717
 8626SOL    HW226778   3.429   3.346   2.872
 8627SOL     OW26779   2.413   6.950   6.427
 8627SOL    HW126780   2.495   7.007   6.420
 8627SOL    HW226781   2.342   6.999   6.477
 8628SOL     OW26782   5.666   0.798   0.055
 8628SOL    HW126783   5.569   0.790   0.031
 8628SOL    HW226784   5.685   0.741   0.135
 8629SOL     OW26785   1.478   5.281   3.628
 8629SOL    HW126786   1.390   5.320   3.655
 8629SOL    HW226787   1.476   5.182   3.639
 8630SOL     OW26788   5.587   4.751   4.004
 8630SOL    HW126789   5.686   4.767   3.994
 8630SOL    HW226790   5.564   4.747   4.101
 8631SOL     OW26791   4.516   6.086   3.707
 8631SOL    HW126792   4.435   6.029   3.691
 8631SOL    HW226793   4.592   6.029   3.738
 8632SOL     OW26794   3.796   0.627   3.514
 8632SOL    HW126795   3.817   0.650   3.610
 8632SOL    HW226796   3.875   0.650   3.457
 8633SOL     OW26797   6.158   0.154   3.319
 8633SOL    HW126798   6.208   0.070   3.297
 8633SOL    HW226799   6.119   0.147   3.410
 8634SOL     OW26800   6.359   5.424   1.692
 8634SOL    HW126801   6.456   5.434   1.712
 8634SOL    HW226802   6.323   5.346   1.744
 8635SOL     OW26803   6.301   3.722   5.862
 8635SOL    HW126804   6.211   3.693   5.896
 8635SOL    HW226805   6.363   3.644   5.861
 8636SOL     OW26806   5.480   5.626   0.165
 8636SOL    HW126807   5.558   5.576   0.204
 8636SOL    HW226808   5.513   5.699   0.106
 8637SOL     OW26809   1.763   0.408   1.445
 8637SOL    HW126810   1.669   0.397   1.478
 8637SOL    HW226811   1.788   0.505   1.448
 8638SOL     OW26812   4.823   5.239   0.858
 8638SOL    HW126813   4.844   5.180   0.780
 8638SOL    HW226814   4.739   5.290   0.840
 8639SOL     OW26815   6.351   3.167   2.036
 8639SOL    HW126816   6.367   3.100   2.109
 8639SOL    HW226817   6.362   3.123   1.947
 8640SOL     OW26818   4.943   6.400   1.206
 8640SOL    HW126819   4.902   6.484   1.171
 8640SOL    HW226820   4.964   6.339   1.130
 8641SOL     OW26821   5.405   5.041   3.550
 8641SOL    HW126822   5.377   5.035   3.646
 8641SOL    HW226823   5.504   5.023   3.543
 8642SOL     OW26824   4.677   1.617   1.488
 8642SOL    HW126825   4.684   1.698   1.430
 8642SOL    HW226826   4.597   1.625   1.548
 8643SOL     OW26827   4.429   0.752   6.754
 8643SOL    HW126828   4.446   0.660   6.719
 8643SOL    HW226829   4.385   0.807   6.683
 8644SOL     OW26830   6.488   3.612   5.556
 8644SOL    HW126831   6.398   3.572   5.538
 8644SOL    HW226832   6.505   3.685   5.490
 8645SOL     OW26833   5.960   4.409   1.795
 8645SOL    HW126834   5.963   4.342   1.721
 8645SOL    HW226835   5.866   4.436   1.812
 8646SOL     OW26836   5.426   6.991   1.051
 8646SOL    HW126837   5.377   6.939   0.982
 8646SOL    HW226838   5.497   0.027   1.007
 8647SOL     OW26839   4.586   5.090   1.636
 8647SOL    HW126840   4.523   5.148   1.585
 8647SOL    HW226841   4.569   4.994   1.613
 8648SOL     OW26842   5.610   1.617   4.642
 8648SOL    HW126843   5.697   1.648   4.604
 8648SOL    HW226844   5.608   1.517   4.641
 8649SOL     OW26845   0.569   4.579   5.748
 8649SOL    HW126846   0.585   4.677   5.745
 8649SOL    HW226847   0.634   4.533   5.687
 8650SOL     OW26848   0.544   4.776   1.648
 8650SOL    HW126849   0.532   4.837   1.570
 8650SOL    HW226850   0.471   4.708   1.649
 8651SOL     OW26851   3.441   2.978   1.288
 8651SOL    HW126852   3.372   2.938   1.349
 8651SOL    HW226853   3.526   2.926   1.297
 8652SOL     OW26854   1.181   3.106   3.748
 8652SOL    HW126855   1.181   3.203   3.724
 8652SOL    HW226856   1.264   3.062   3.713
 8653SOL     OW26857   6.055   3.074   6.397
 8653SOL    HW126858   6.108   3.018   6.333
 8653SOL    HW226859   6.074   3.043   6.491
 8654SOL     OW26860   0.003   6.100   2.652
 8654SOL    HW126861   7.006   6.130   2.747
 8654SOL    HW226862   0.026   6.180   2.596
 8655SOL     OW26863   6.108   6.151   3.497
 8655SOL    HW126864   6.079   6.154   3.592
 8655SOL    HW226865   6.082   6.237   3.452
 8656SOL     OW26866   6.483   1.865   1.315
 8656SOL    HW126867   6.498   1.934   1.385
 8656SOL    HW226868   6.569   1.820   1.293
 8657SOL     OW26869   3.066   3.888   0.659
 8657SOL    HW126870   3.015   3.895   0.745
 8657SOL    HW226871   3.164   3.877   0.679
 8658SOL     OW26872   0.531   5.066   6.555
 8658SOL    HW126873   0.468   4.989   6.564
 8658SOL    HW226874   0.526   5.123   6.637
 8659SOL     OW26875   4.514   0.631   3.792
 8659SOL    HW126876   4.614   0.619   3.797
 8659SOL    HW226877   4.474   0.621   3.883
 8660SOL     OW26878   5.341   4.700   0.690
 8660SOL    HW126879   5.382   4.782   0.649
 8660SOL    HW226880   5.375   4.689   0.783
 8661SOL     OW26881   6.381   3.458   1.349
 8661SOL    HW126882   6.389   3.555   1.372
 8661SOL    HW226883   6.440   3.404   1.408
 8662SOL     OW26884   0.258   0.598   0.434
 8662SOL    HW126885   0.315   0.530   0.480
 8662SOL    HW226886   0.240   0.674   0.497
 8663SOL     OW26887   2.138   5.957   0.614
 8663SOL    HW126888   2.215   6.017   0.636
 8663SOL    HW226889   2.061   5.978   0.674
 8664SOL     OW26890   4.544   5.186   1.371
 8664SOL    HW126891   4.590   5.186   1.282
 8664SOL    HW226892   4.454   5.228   1.362
 8665SOL     OW26893   4.890   5.280   4.941
 8665SOL    HW126894   4.866   5.204   4.880
 8665SOL    HW226895   4.892   5.365   4.888
 8666SOL     OW26896   5.922   3.861   4.815
 8666SOL    HW126897   5.888   3.808   4.737
 8666SOL    HW226898   6.014   3.829   4.838
 8667SOL     OW26899   5.304   2.581   2.960
 8667SOL    HW126900   5.208   2.553   2.949
 8667SOL    HW226901   5.344   2.598   2.870
 8668SOL     OW26902   3.251   1.293   3.993
 8668SOL    HW126903   3.319   1.224   3.969
 8668SOL    HW226904   3.163   1.270   3.951
 8669SOL     OW26905   4.434   6.968   5.646
 8669SOL    HW126906   4.488   6.893   5.608
 8669SOL    HW226907   4.338   6.954   5.623
 8670SOL     OW26908   4.151   4.797   3.539
 8670SOL    HW126909   4.106   4.734   3.602
 8670SOL    HW226910   4.189   4.745   3.462
 8671SOL     OW26911   6.012   6.161   2.743
 8671SOL    HW126912   6.035   6.175   2.647
 8671SOL    HW226913   6.030   6.246   2.794
 8672SOL     OW26914   3.474   4.894   5.535
 8672SOL    HW126915   3.568   4.913   5.506
 8672SOL    HW226916   3.410   4.943   5.475
 8673SOL     OW26917   5.681   2.018   0.486
 8673SOL    HW126918   5.693   1.926   0.525
 8673SOL    HW226919   5.606   2.016   0.419
 8674SOL     OW26920   0.605   0.351   2.677
 8674SOL    HW126921   0.608   0.387   2.770
 8674SOL    HW226922   0.691   0.374   2.630
 8675SOL     OW26923   1.863   2.326   2.603
 8675SOL    HW126924   1.952   2.351   2.638
 8675SOL    HW226925   1.791   2.371   2.656
 8676SOL     OW26926   4.802   7.009   3.769
 8676SOL    HW126927   4.841   0.081   3.768
 8676SOL    HW226928   4.704   7.014   3.750
 8677SOL     OW26929   2.350   4.463   5.127
 8677SOL    HW126930   2.283   4.490   5.196
 8677SOL    HW226931   2.439   4.453   5.170
 8678SOL     OW26932   1.641   0.842   6.182
 8678SOL    HW126933   1.702   0.850   6.103
 8678SOL    HW226934   1.585   0.759   6.174
 8679SOL     OW26935   6.696   2.598   4.791
 8679SOL    HW126936   6.637   2.521   4.812
 8679SOL    HW226937   6.712   2.652   4.873
 8680SOL     OW26938   0.951   3.698   0.780
 8680SOL    HW126939   0.956   3.604   0.812
 8680SOL    HW226940   1.031   3.749   0.812
 8681SOL     OW26941   4.121   3.634   1.395
 8681SOL    HW126942   4.187   3.560   1.385
 8681SOL    HW226943   4.112   3.657   1.492
 8682SOL     OW26944   2.367   6.063   2.944
 8682SOL    HW126945   2.408   6.076   2.854
 8682SOL    HW226946   2.278   6.018   2.933
 8683SOL     OW26947   6.149   2.929   6.650
 8683SOL    HW126948   6.170   2.832   6.663
 8683SOL    HW226949   6.233   2.979   6.630
 8684SOL     OW26950   6.319   2.922   4.302
 8684SOL    HW126951   6.328   2.875   4.214
 8684SOL    HW226952   6.304   3.019   4.286
 8685SOL     OW26953   0.363   2.139   5.511
 8685SOL    HW126954   0.336   2.235   5.497
 8685SOL    HW226955   0.453   2.124   5.471
 8686SOL     OW26956   6.563   1.783   3.724
 8686SOL    HW126957   6.539   1.741   3.812
 8686SOL    HW226958   6.490   1.765   3.658
 8687SOL     OW26959   3.941   0.707   2.914
 8687SOL    HW126960   3.985   0.619   2.932
 8687SOL    HW226961   3.907   0.708   2.820
 8688SOL     OW26962   1.726   6.857   2.169
 8688SOL    HW126963   1.634   6.848   2.207
 8688SOL    HW226964   1.784   6.784   2.205
 8689SOL     OW26965   4.721   5.510   0.514
 8689SOL    HW126966   4.814   5.543   0.531
 8689SOL    HW226967   4.656   5.585   0.529
 8690SOL     OW26968   1.263   0.876   3.055
 8690SOL    HW126969   1.315   0.824   2.987
 8690SOL    HW226970   1.282   0.974   3.044
 8691SOL     OW26971   6.050   1.512   0.629
 8691SOL    HW126972   5.989   1.526   0.707
 8691SOL    HW226973   6.073   1.414   0.622
 8692SOL     OW26974   1.688   1.433   4.013
 8692SOL    HW126975   1.663   1.357   4.072
 8692SOL    HW226976   1.788   1.440   4.008
 8693SOL     OW26977   5.549   1.921   0.009
 8693SOL    HW126978   5.598   2.008   0.005
 8693SOL    HW226979   5.600   1.852   6.977
 8694SOL     OW26980   3.707   6.327   6.716
 8694SOL    HW126981   3.694   6.315   6.815
 8694SOL    HW226982   3.703   6.425   6.694
 8695SOL     OW26983   4.485   4.204   5.270
 8695SOL    HW126984   4.427   4.283   5.250
 8695SOL    HW226985   4.574   4.217   5.228
 8696SOL     OW26986   1.600   5.202   0.931
 8696SOL    HW126987   1.581   5.211   0.834
 8696SOL    HW226988   1.660   5.275   0.961
 8697SOL     OW26989   5.653   4.542   0.015
 8697SOL    HW126990   5.633   4.603   6.957
 8697SOL    HW226991   5.693   4.457   7.001
 8698SOL     OW26992   5.778   6.487   4.157
 8698SOL    HW126993   5.825   6.451   4.238
 8698SOL    HW226994   5.721   6.565   4.184
 8699SOL     OW26995   1.422   1.154   5.259
 8699SOL    HW126996   1.357   1.229   5.257
 8699SOL    HW226997   1.382   1.077   5.309
 8700SOL     OW26998   2.185   1.635   6.304
 8700SOL    HW126999   2.208   1.551   6.254
 8700SOL    HW227000   2.194   1.713   6.243
 8701SOL     OW27001   1.361   2.048   4.174
 8701SOL    HW127002   1.273   2.093   4.192
 8701SOL    HW227003   1.412   2.041   4.260
 8702SOL     OW27004   5.268   5.724   6.890
 8702SOL    HW127005   5.294   5.754   6.982
 8702SOL    HW227006   5.195   5.782   6.855
 8703SOL     OW27007   1.530   5.468   1.275
 8703SOL    HW127008   1.545   5.450   1.178
 8703SOL    HW227009   1.432   5.472   1.294
 8704SOL     OW27010   0.580   3.860   1.801
 8704SOL    HW127011   0.513   3.786   1.802
 8704SOL    HW227012   0.536   3.946   1.828
 8705SOL     OW27013   5.238   6.684   4.796
 8705SOL    HW127014   5.275   6.637   4.716
 8705SOL    HW227015   5.294   6.662   4.876
 8706SOL     OW27016   5.053   2.075   5.913
 8706SOL    HW127017   5.124   2.034   5.855
 8706SOL    HW227018   5.016   2.005   5.974
 8707SOL     OW27019   4.681   2.278   5.706
 8707SOL    HW127020   4.702   2.375   5.719
 8707SOL    HW227021   4.765   2.224   5.717
 8708SOL     OW27022   3.772   1.689   0.770
 8708SOL    HW127023   3.781   1.589   0.776
 8708SOL    HW227024   3.762   1.728   0.861
 8709SOL     OW27025   6.347   3.429   1.068
 8709SOL    HW127026   6.370   3.526   1.060
 8709SOL    HW227027   6.345   3.403   1.165
 8710SOL     OW27028   0.012   3.048   3.377
 8710SOL    HW127029   0.097   3.012   3.414
 8710SOL    HW227030   6.955   2.989   3.404
 8711SOL     OW27031   0.937   1.745   4.256
 8711SOL    HW127032   0.868   1.679   4.286
 8711SOL    HW227033   0.932   1.827   4.311
 8712SOL     OW27034   3.581   1.492   6.004
 8712SOL    HW127035   3.622   1.563   5.947
 8712SOL    HW227036   3.650   1.457   6.068
 8713SOL     OW27037   5.933   4.840   2.725
 8713SOL    HW127038   5.841   4.855   2.762
 8713SOL    HW227039   6.001   4.871   2.791
 8714SOL     OW27040   1.894   1.084   4.827
 8714SOL    HW127041   1.933   1.172   4.854
 8714SOL    HW227042   1.943   1.048   4.748
 8715SOL     OW27043   6.064   1.520   2.088
 8715SOL    HW127044   6.065   1.548   2.183
 8715SOL    HW227045   6.150   1.474   2.065
 8716SOL     OW27046   1.006   1.582   1.685
 8716SOL    HW127047   1.071   1.650   1.717
 8716SOL    HW227048   1.043   1.490   1.700
 8717SOL     OW27049   4.095   3.052   0.835
 8717SOL    HW127050   4.076   3.088   0.743
 8717SOL    HW227051   4.062   3.117   0.903
 8718SOL     OW27052   0.032   3.107   5.918
 8718SOL    HW127053   6.984   3.039   5.888
 8718SOL    HW227054   0.089   3.134   5.840
 8719SOL     OW27055   6.740   0.767   5.911
 8719SOL    HW127056   6.838   0.778   5.923
 8719SOL    HW227057   6.696   0.857   5.908
 8720SOL     OW27058   4.846   3.917   6.004
 8720SOL    HW127059   4.866   3.819   6.009
 8720SOL    HW227060   4.804   3.937   5.915
 8721SOL     OW27061   6.933   1.550   4.769
 8721SOL    HW127062   7.002   1.556   4.697
 8721SOL    HW227063   6.853   1.605   4.744
 8722SOL     OW27064   3.261   2.966   0.781
 8722SOL    HW127065   3.262   2.986   0.879
 8722SOL    HW227066   3.331   3.022   0.736
 8723SOL     OW27067   0.244   5.322   6.908
 8723SOL    HW127068   0.225   5.327   6.810
 8723SOL    HW227069   0.259   5.414   6.944
 8724SOL     OW27070   5.629   5.779   6.971
 8724SOL    HW127071   5.674   5.695   7.001
 8724SOL    HW227072   5.627   5.781   6.871
 8725SOL     OW27073   2.227   6.156   1.117
 8725SOL    HW127074   2.160   6.162   1.191
 8725SOL    HW227075   2.210   6.229   1.051
 8726SOL     OW27076   5.217   0.612   1.261
 8726SOL    HW127077   5.222   0.614   1.361
 8726SOL    HW227078   5.127   0.644   1.232
 8727SOL     OW27079   6.247   5.658   0.738
 8727SOL    HW127080   6.169   5.686   0.682
 8727SOL    HW227081   6.303   5.593   0.686
 8728SOL     OW27082   1.999   6.723   5.598
 8728SOL    HW127083   2.077   6.759   5.649
 8728SOL    HW227084   2.031   6.661   5.526
 8729SOL     OW27085   5.620   6.701   4.251
 8729SOL    HW127086   5.541   6.740   4.203
 8729SOL    HW227087   5.611   6.718   4.349
 8730SOL     OW27088   0.056   0.029   1.184
 8730SOL    HW127089   0.125   6.981   1.155
 8730SOL    HW227090   0.000   7.009   1.257
 8731SOL     OW27091   0.848   1.772   2.395
 8731SOL    HW127092   0.929   1.830   2.407
 8731SOL    HW227093   0.862   1.685   2.442
 8732SOL     OW27094   5.966   4.863   1.887
 8732SOL    HW127095   5.867   4.870   1.875
 8732SOL    HW227096   6.001   4.949   1.923
 8733SOL     OW27097   0.084   6.550   1.592
 8733SOL    HW127098   0.015   6.541   1.520
 8733SOL    HW227099   0.106   6.647   1.604
 8734SOL     OW27100   6.806   5.193   0.367
 8734SOL    HW127101   6.742   5.173   0.442
 8734SOL    HW227102   6.874   5.120   0.360
 8735SOL     OW27103   6.731   2.407   6.902
 8735SOL    HW127104   6.708   2.341   6.830
 8735SOL    HW227105   6.775   2.358   6.978
 8736SOL     OW27106   0.509   4.733   6.451
 8736SOL    HW127107   0.499   4.710   6.355
 8736SOL    HW227108   0.604   4.758   6.470
 8737SOL     OW27109   3.652   6.036   6.853
 8737SOL    HW127110   3.746   6.070   6.847
 8737SOL    HW227111   3.595   6.107   6.895
 8738SOL     OW27112   1.443   3.582   4.904
 8738SOL    HW127113   1.369   3.649   4.894
 8738SOL    HW227114   1.504   3.612   4.978
 8739SOL     OW27115   1.158   2.892   5.172
 8739SOL    HW127116   1.084   2.867   5.234
 8739SOL    HW227117   1.245   2.862   5.211
 8740SOL     OW27118   1.636   6.281   1.597
 8740SOL    HW127119   1.583   6.297   1.681
 8740SOL    HW227120   1.655   6.368   1.553
 8741SOL     OW27121   1.335   3.498   2.161
 8741SOL    HW127122   1.373   3.590   2.165
 8741SOL    HW227123   1.402   3.436   2.120
 8742SOL     OW27124   4.819   6.405   2.135
 8742SOL    HW127125   4.763   6.324   2.116
 8742SOL    HW227126   4.916   6.382   2.121
 8743SOL     OW27127   2.473   4.572   3.384
 8743SOL    HW127128   2.406   4.596   3.313
 8743SOL    HW227129   2.436   4.499   3.441
 8744SOL     OW27130   3.111   3.426   5.892
 8744SOL    HW127131   3.037   3.490   5.911
 8744SOL    HW227132   3.124   3.366   5.971
 8745SOL     OW27133   6.621   1.820   0.084
 8745SOL    HW127134   6.538   1.875   0.089
 8745SOL    HW227135   6.638   1.779   0.174
 8746SOL     OW27136   5.076   4.170   5.467
 8746SOL    HW127137   4.982   4.205   5.466
 8746SOL    HW227138   5.083   4.091   5.406
 8747SOL     OW27139   1.589   2.815   3.774
 8747SOL    HW127140   1.576   2.754   3.852
 8747SOL    HW227141   1.572   2.766   3.689
 8748SOL     OW27142   2.852   0.464   6.878
 8748SOL    HW127143   2.802   0.540   6.920
 8748SOL    HW227144   2.822   0.452   6.784
 8749SOL     OW27145   4.095   1.547   3.963
 8749SOL    HW127146   4.058   1.571   3.873
 8749SOL    HW227147   4.023   1.553   4.032
 8750SOL     OW27148   2.275   0.564   5.255
 8750SOL    HW127149   2.256   0.532   5.348
 8750SOL    HW227150   2.293   0.663   5.258
 8751SOL     OW27151   2.264   0.180   3.101
 8751SOL    HW127152   2.332   0.130   3.154
 8751SOL    HW227153   2.310   0.235   3.032
 8752SOL     OW27154   2.038   2.632   6.390
 8752SOL    HW127155   2.005   2.652   6.483
 8752SOL    HW227156   1.961   2.638   6.327
 8753SOL     OW27157   5.856   1.565   5.044
 8753SOL    HW127158   5.935   1.528   5.095
 8753SOL    HW227159   5.888   1.604   4.958
 8754SOL     OW27160   2.251   0.826   5.231
 8754SOL    HW127161   2.198   0.855   5.311
 8754SOL    HW227162   2.214   0.869   5.149
 8755SOL     OW27163   2.426   2.219   0.498
 8755SOL    HW127164   2.404   2.306   0.455
 8755SOL    HW227165   2.483   2.235   0.579
 8756SOL     OW27166   1.793   3.625   3.797
 8756SOL    HW127167   1.827   3.668   3.713
 8756SOL    HW227168   1.798   3.691   3.872
 8757SOL     OW27169   5.003   5.952   4.214
 8757SOL    HW127170   5.103   5.955   4.219
 8757SOL    HW227171   4.965   6.034   4.256
 8758SOL     OW27172   5.047   6.422   1.937
 8758SOL    HW127173   5.072   6.429   1.840
 8758SOL    HW227174   5.036   6.513   1.976
 8759SOL     OW27175   4.979   1.251   5.672
 8759SOL    HW127176   4.889   1.290   5.651
 8759SOL    HW227177   5.034   1.318   5.722
 8760SOL     OW27178   1.733   3.064   3.797
 8760SOL    HW127179   1.650   3.092   3.748
 8760SOL    HW227180   1.731   2.964   3.810
 8761SOL     OW27181   4.659   6.326   0.579
 8761SOL    HW127182   4.640   6.311   0.482
 8761SOL    HW227183   4.744   6.280   0.604
 8762SOL     OW27184   1.238   3.964   0.259
 8762SOL    HW127185   1.211   3.881   0.308
 8762SOL    HW227186   1.158   4.006   0.218
 8763SOL     OW27187   6.779   6.260   5.813
 8763SOL    HW127188   6.697   6.286   5.762
 8763SOL    HW227189   6.783   6.161   5.822
 8764SOL     OW27190   3.274   2.137   5.288
 8764SOL    HW127191   3.219   2.205   5.240
 8764SOL    HW227192   3.220   2.053   5.299
 8765SOL     OW27193   0.383   0.248   4.976
 8765SOL    HW127194   0.380   0.148   4.986
 8765SOL    HW227195   0.322   0.290   5.043
 8766SOL     OW27196   2.399   4.389   2.476
 8766SOL    HW127197   2.335   4.348   2.411
 8766SOL    HW227198   2.466   4.444   2.427
 8767SOL     OW27199   4.678   1.593   4.758
 8767SOL    HW127200   4.669   1.647   4.841
 8767SOL    HW227201   4.775   1.573   4.741
 8768SOL     OW27202   1.576   4.245   6.814
 8768SOL    HW127203   1.570   4.303   6.896
 8768SOL    HW227204   1.492   4.255   6.761
 8769SOL     OW27205   2.527   0.585   5.469
 8769SOL    HW127206   2.575   0.498   5.476
 8769SOL    HW227207   2.431   0.568   5.444
 8770SOL     OW27208   5.275   1.830   2.369
 8770SOL    HW127209   5.206   1.903   2.373
 8770SOL    HW227210   5.237   1.747   2.408
 8771SOL     OW27211   2.221   2.554   6.133
 8771SOL    HW127212   2.160   2.554   6.213
 8771SOL    HW227213   2.274   2.638   6.131
 8772SOL     OW27214   5.840   5.973   6.543
 8772SOL    HW127215   5.775   5.988   6.469
 8772SOL    HW227216   5.930   5.950   6.505
 8773SOL     OW27217   3.348   2.059   3.097
 8773SOL    HW127218   3.287   2.060   3.176
 8773SOL    HW227219   3.443   2.069   3.129
 8774SOL     OW27220   1.522   1.207   0.495
 8774SOL    HW127221   1.514   1.305   0.510
 8774SOL    HW227222   1.528   1.188   0.397
 8775SOL     OW27223   6.686   6.736   4.224
 8775SOL    HW127224   6.694   6.794   4.305
 8775SOL    HW227225   6.757   6.665   4.227
 8776SOL     OW27226   2.972   3.877   4.696
 8776SOL    HW127227   2.961   3.789   4.649
 8776SOL    HW227228   2.920   3.876   4.781
 8777SOL     OW27229   6.588   5.651   2.300
 8777SOL    HW127230   6.546   5.565   2.329
 8777SOL    HW227231   6.680   5.658   2.339
 8778SOL     OW27232   0.658   1.993   3.390
 8778SOL    HW127233   0.649   1.978   3.489
 8778SOL    HW227234   0.667   1.905   3.344
 8779SOL     OW27235   1.483   4.903   1.374
 8779SOL    HW127236   1.411   4.915   1.443
 8779SOL    HW227237   1.520   4.811   1.381
 8780SOL     OW27238   2.252   6.091   4.575
 8780SOL    HW127239   2.341   6.079   4.531
 8780SOL    HW227240   2.189   6.022   4.542
 8781SOL     OW27241   0.624   2.415   2.737
 8781SOL    HW127242   0.709   2.410   2.683
 8781SOL    HW227243   0.610   2.509   2.768
 8782SOL     OW27244   4.787   1.478   2.969
 8782SOL    HW127245   4.876   1.516   2.994
 8782SOL    HW227246   4.773   1.392   3.017
 8783SOL     OW27247   5.328   2.328   5.331
 8783SOL    HW127248   5.266   2.252   5.311
 8783SOL    HW227249   5.413   2.292   5.369
 8784SOL     OW27250   5.228   3.717   6.140
 8784SOL    HW127251   5.184   3.802   6.112
 8784SOL    HW227252   5.240   3.717   6.239
 8785SOL     OW27253   5.304   5.196   6.321
 8785SOL    HW127254   5.340   5.206   6.414
 8785SOL    HW227255   5.294   5.099   6.299
 8786SOL     OW27256   1.251   6.472   0.463
 8786SOL    HW127257   1.327   6.495   0.402
 8786SOL    HW227258   1.199   6.395   0.424
 8787SOL     OW27259   1.400   2.901   0.146
 8787SOL    HW127260   1.311   2.881   0.105
 8787SOL    HW227261   1.470   2.900   0.075
 8788SOL     OW27262   1.205   1.341   5.236
 8788SOL    HW127263   1.110   1.313   5.233
 8788SOL    HW227264   1.234   1.373   5.145
 8789SOL     OW27265   0.368   0.606   6.502
 8789SOL    HW127266   0.321   0.576   6.585
 8789SOL    HW227267   0.340   0.548   6.425
 8790SOL     OW27268   4.847   1.211   0.022
 8790SOL    HW127269   4.863   1.261   6.956
 8790SOL    HW227270   4.928   1.216   0.080
 8791SOL     OW27271   4.397   6.359   5.190
 8791SOL    HW127272   4.342   6.308   5.257
 8791SOL    HW227273   4.346   6.439   5.159
 8792SOL     OW27274   5.370   0.212   3.058
 8792SOL    HW127275   5.289   0.154   3.058
 8792SOL    HW227276   5.343   0.308   3.060
 8793SOL     OW27277   1.140   4.225   3.762
 8793SOL    HW127278   1.201   4.240   3.684
 8793SOL    HW227279   1.164   4.139   3.807
 8794SOL     OW27280   2.723   6.323   2.686
 8794SOL    HW127281   2.737   6.258   2.761
 8794SOL    HW227282   2.654   6.390   2.713
 8795SOL     OW27283   2.039   5.844   5.025
 8795SOL    HW127284   1.992   5.787   5.093
 8795SOL    HW227285   2.101   5.787   4.971
 8796SOL     OW27286   5.810   2.920   5.442
 8796SOL    HW127287   5.754   2.905   5.523
 8796SOL    HW227288   5.849   3.012   5.445
 8797SOL     OW27289   0.560   6.674   6.443
 8797SOL    HW127290   0.554   6.763   6.399
 8797SOL    HW227291   0.648   6.665   6.490
 8798SOL     OW27292   3.695   3.243   5.954
 8798SOL    HW127293   3.688   3.227   6.052
 8798SOL    HW227294   3.745   3.168   5.911
 8799SOL     OW27295   3.934   6.574   2.879
 8799SOL    HW127296   3.966   6.482   2.856
 8799SOL    HW227297   3.860   6.568   2.946
 8800SOL     OW27298   4.434   5.059   0.408
 8800SOL    HW127299   4.395   4.968   0.399
 8800SOL    HW227300   4.388   5.108   0.482
 8801SOL     OW27301   3.151   6.573   5.158
 8801SOL    HW127302   3.060   6.556   5.121
 8801SOL    HW227303   3.219   6.558   5.087
 8802SOL     OW27304   1.924   6.629   1.971
 8802SOL    HW127305   1.964   6.662   2.056
 8802SOL    HW227306   1.984   6.561   1.929
 8803SOL     OW27307   3.685   6.181   0.668
 8803SOL    HW127308   3.731   6.094   0.686
 8803SOL    HW227309   3.590   6.176   0.700
 8804SOL     OW27310   3.113   0.540   0.835
 8804SOL    HW127311   3.131   0.552   0.738
 8804SOL    HW227312   3.075   0.624   0.873
 8805SOL     OW27313   0.238   0.313   3.237
 8805SOL    HW127314   0.197   0.222   3.248
 8805SOL    HW227315   0.336   0.308   3.255
 8806SOL     OW27316   2.368   4.896   0.507
 8806SOL    HW127317   2.361   4.992   0.535
 8806SOL    HW227318   2.464   4.873   0.491
 8807SOL     OW27319   1.865   6.287   6.151
 8807SOL    HW127320   1.807   6.354   6.105
 8807SOL    HW227321   1.882   6.317   6.245
 8808SOL     OW27322   6.027   1.747   1.051
 8808SOL    HW127323   6.095   1.758   1.124
 8808SOL    HW227324   6.008   1.836   1.010
 8809SOL     OW27325   6.070   4.416   0.858
 8809SOL    HW127326   6.137   4.455   0.921
 8809SOL    HW227327   5.984   4.399   0.908
 8810SOL     OW27328   5.423   1.575   3.653
 8810SOL    HW127329   5.509   1.532   3.626
 8810SOL    HW227330   5.441   1.646   3.721
 8811SOL     OW27331   1.525   1.547   3.797
 8811SOL    HW127332   1.605   1.515   3.846
 8811SOL    HW227333   1.496   1.478   3.730
 8812SOL     OW27334   1.823   0.702   0.358
 8812SOL    HW127335   1.917   0.704   0.392
 8812SOL    HW227336   1.820   0.740   0.265
 8813SOL     OW27337   1.179   5.864   0.943
 8813SOL    HW127338   1.224   5.774   0.942
 8813SOL    HW227339   1.158   5.892   0.850
 8814SOL     OW27340   5.491   6.243   0.271
 8814SOL    HW127341   5.462   6.295   0.191
 8814SOL    HW227342   5.582   6.274   0.300
 8815SOL     OW27343   6.736   5.744   3.219
 8815SOL    HW127344   6.652   5.692   3.212
 8815SOL    HW227345   6.739   5.791   3.308
 8816SOL     OW27346   0.762   6.348   1.781
 8816SOL    HW127347   0.810   6.289   1.715
 8816SOL    HW227348   0.808   6.345   1.869
 8817SOL     OW27349   2.812   4.604   5.373
 8817SOL    HW127350   2.867   4.616   5.290
 8817SOL    HW227351   2.728   4.657   5.365
 8818SOL     OW27352   0.090   5.292   4.715
 8818SOL    HW127353   0.027   5.221   4.685
 8818SOL    HW227354   0.147   5.256   4.789
 8819SOL     OW27355   5.769   0.106   3.925
 8819SOL    HW127356   5.715   0.111   3.842
 8819SOL    HW227357   5.737   0.030   3.982
 8820SOL     OW27358   1.407   2.873   4.071
 8820SOL    HW127359   1.319   2.920   4.074
 8820SOL    HW227360   1.481   2.940   4.070
 8821SOL     OW27361   1.706   0.027   6.551
 8821SOL    HW127362   1.653   0.112   6.560
 8821SOL    HW227363   1.803   0.046   6.567
 8822SOL     OW27364   0.423   1.798   3.816
 8822SOL    HW127365   0.471   1.864   3.875
 8822SOL    HW227366   0.488   1.731   3.781
 8823SOL     OW27367   2.581   4.954   2.073
 8823SOL    HW127368   2.599   4.898   1.992
 8823SOL    HW227369   2.490   4.931   2.110
 8824SOL     OW27370   4.523   3.961   0.806
 8824SOL    HW127371   4.527   3.861   0.803
 8824SOL    HW227372   4.539   3.992   0.899
 8825SOL     OW27373   1.767   2.304   0.918
 8825SOL    HW127374   1.856   2.258   0.919
 8825SOL    HW227375   1.748   2.339   1.010
 8826SOL     OW27376   5.517   0.448   0.319
 8826SOL    HW127377   5.540   0.453   0.417
 8826SOL    HW227378   5.458   0.369   0.303
 8827SOL     OW27379   0.398   1.477   3.544
 8827SOL    HW127380   0.476   1.452   3.485
 8827SOL    HW227381   0.369   1.397   3.596
 8828SOL     OW27382   1.506   6.329   2.743
 8828SOL    HW127383   1.418   6.374   2.729
 8828SOL    HW227384   1.571   6.361   2.674
 8829SOL     OW27385   0.543   1.701   0.495
 8829SOL    HW127386   0.580   1.789   0.523
 8829SOL    HW227387   0.599   1.627   0.533
 8830SOL     OW27388   0.933   1.680   0.562
 8830SOL    HW127389   0.945   1.773   0.598
 8830SOL    HW227390   0.966   1.676   0.468
 8831SOL     OW27391   0.145   0.993   2.001
 8831SOL    HW127392   0.162   1.091   2.002
 8831SOL    HW227393   0.127   0.961   2.094
 8832SOL     OW27394   0.067   0.925   2.249
 8832SOL    HW127395   0.106   0.834   2.259
 8832SOL    HW227396   0.076   0.975   2.335
 8833SOL     OW27397   1.471   4.715   3.407
 8833SOL    HW127398   1.480   4.712   3.308
 8833SOL    HW227399   1.419   4.636   3.439
 8834SOL     OW27400   5.864   3.784   4.203
 8834SOL    HW127401   5.776   3.801   4.158
 8834SOL    HW227402   5.931   3.759   4.134
 8835SOL     OW27403   0.492   0.837   6.447
 8835SOL    HW127404   0.466   0.887   6.364
 8835SOL    HW227405   0.452   0.745   6.444
 8836SOL     OW27406   5.037   1.624   1.271
 8836SOL    HW127407   5.092   1.567   1.333
 8836SOL    HW227408   5.078   1.624   1.180
 8837SOL     OW27409   0.604   1.861   2.402
 8837SOL    HW127410   0.703   1.874   2.402
 8837SOL    HW227411   0.572   1.850   2.307
 8838SOL     OW27412   2.305   6.027   3.297
 8838SOL    HW127413   2.218   6.001   3.338
 8838SOL    HW227414   2.380   5.978   3.343
 8839SOL     OW27415   5.491   6.423   4.170
 8839SOL    HW127416   5.494   6.515   4.208
 8839SOL    HW227417   5.580   6.379   4.183
 8840SOL     OW27418   5.184   1.221   2.656
 8840SOL    HW127419   5.254   1.170   2.607
 8840SOL    HW227420   5.194   1.203   2.754
 8841SOL     OW27421   2.183   0.058   4.010
 8841SOL    HW127422   2.161   0.030   4.104
 8841SOL    HW227423   2.276   0.093   4.006
 8842SOL     OW27424   1.450   2.500   1.913
 8842SOL    HW127425   1.473   2.537   2.003
 8842SOL    HW227426   1.413   2.573   1.855
 8843SOL     OW27427   0.217   3.506   4.876
 8843SOL    HW127428   0.278   3.542   4.806
 8843SOL    HW227429   0.208   3.407   4.864
 8844SOL     OW27430   5.809   1.168   5.983
 8844SOL    HW127431   5.877   1.238   6.002
 8844SOL    HW227432   5.721   1.211   5.964
 8845SOL     OW27433   5.567   3.658   0.346
 8845SOL    HW127434   5.503   3.620   0.279
 8845SOL    HW227435   5.629   3.586   0.379
 8846SOL     OW27436   2.863   4.777   3.283
 8846SOL    HW127437   2.824   4.710   3.220
 8846SOL    HW227438   2.799   4.792   3.359
 8847SOL     OW27439   1.759   0.762   2.512
 8847SOL    HW127440   1.731   0.798   2.423
 8847SOL    HW227441   1.770   0.662   2.506
 8848SOL     OW27442   1.020   0.185   3.329
 8848SOL    HW127443   1.095   0.119   3.323
 8848SOL    HW227444   1.041   0.265   3.273
 8849SOL     OW27445   2.256   6.754   1.448
 8849SOL    HW127446   2.210   6.835   1.411
 8849SOL    HW227447   2.339   6.735   1.395
 8850SOL     OW27448   2.819   2.785   6.828
 8850SOL    HW127449   2.781   2.694   6.811
 8850SOL    HW227450   2.751   2.855   6.807
 8851SOL     OW27451   1.881   3.732   2.243
 8851SOL    HW127452   1.966   3.680   2.257
 8851SOL    HW227453   1.806   3.668   2.227
 8852SOL     OW27454   1.013   1.770   5.448
 8852SOL    HW127455   0.973   1.679   5.435
 8852SOL    HW227456   1.031   1.811   5.359
 8853SOL     OW27457   5.344   0.534   1.628
 8853SOL    HW127458   5.253   0.541   1.587
 8853SOL    HW227459   5.379   0.441   1.615
 8854SOL     OW27460   1.111   2.760   4.921
 8854SOL    HW127461   1.169   2.678   4.929
 8854SOL    HW227462   1.132   2.823   4.996
 8855SOL     OW27463   5.356   4.970   1.392
 8855SOL    HW127464   5.451   4.998   1.403
 8855SOL    HW227465   5.297   5.050   1.400
 8856SOL     OW27466   6.561   0.589   5.657
 8856SOL    HW127467   6.566   0.491   5.674
 8856SOL    HW227468   6.646   0.620   5.614
 8857SOL     OW27469   6.866   2.083   6.211
 8857SOL    HW127470   6.782   2.091   6.264
 8857SOL    HW227471   6.942   2.121   6.263
 8858SOL     OW27472   6.681   5.672   5.106
 8858SOL    HW127473   6.643   5.764   5.096
 8858SOL    HW227474   6.778   5.673   5.084
 8859SOL     OW27475   1.432   6.037   3.117
 8859SOL    HW127476   1.358   5.978   3.085
 8859SOL    HW227477   1.517   6.009   3.073
 8860SOL     OW27478   0.370   3.710   2.515
 8860SOL    HW127479   0.459   3.670   2.534
 8860SOL    HW227480   0.299   3.656   2.560
 8861SOL     OW27481   3.802   2.661   1.448
 8861SOL    HW127482   3.793   2.598   1.525
 8861SOL    HW227483   3.842   2.747   1.481
 8862SOL     OW27484   4.316   4.729   4.815
 8862SOL    HW127485   4.341   4.659   4.881
 8862SOL    HW227486   4.242   4.786   4.852
 8863SOL     OW27487   1.633   3.610   3.023
 8863SOL    HW127488   1.613   3.665   3.105
 8863SOL    HW227489   1.681   3.667   2.956
 8864SOL     OW27490   6.483   2.086   5.532
 8864SOL    HW127491   6.543   2.155   5.572
 8864SOL    HW227492   6.537   2.018   5.484
 8865SOL     OW27493   2.807   2.162   0.368
 8865SOL    HW127494   2.860   2.152   0.283
 8865SOL    HW227495   2.711   2.138   0.351
 8866SOL     OW27496   5.808   6.728   1.971
 8866SOL    HW127497   5.731   6.716   1.909
 8866SOL    HW227498   5.883   6.668   1.942
 8867SOL     OW27499   6.418   2.902   2.683
 8867SOL    HW127500   6.343   2.951   2.638
 8867SOL    HW227501   6.407   2.911   2.783
 8868SOL     OW27502   6.742   3.832   3.738
 8868SOL    HW127503   6.745   3.780   3.824
 8868SOL    HW227504   6.669   3.900   3.743
 8869SOL     OW27505   5.016   0.500   3.434
 8869SOL    HW127506   5.053   0.591   3.416
 8869SOL    HW227507   4.946   0.478   3.366
 8870SOL     OW27508   1.224   0.674   2.017
 8870SOL    HW127509   1.201   0.766   2.048
 8870SOL    HW227510   1.182   0.657   1.928
 8871SOL     OW27511   0.305   0.684   1.404
 8871SOL    HW127512   0.226   0.624   1.415
 8871SOL    HW227513   0.319   0.736   1.488
 8872SOL     OW27514   6.936   3.546   3.332
 8872SOL    HW127515   6.934   3.595   3.419
 8872SOL    HW227516   6.966   3.452   3.347
 8873SOL     OW27517   2.499   2.237   2.929
 8873SOL    HW127518   2.406   2.208   2.908
 8873SOL    HW227519   2.552   2.160   2.964
 8874SOL     OW27520   3.046   6.406   0.570
 8874SOL    HW127521   3.080   6.482   0.514
 8874SOL    HW227522   3.109   6.328   0.561
 8875SOL     OW27523   6.661   3.182   4.550
 8875SOL    HW127524   6.659   3.131   4.465
 8875SOL    HW227525   6.754   3.216   4.567
 8876SOL     OW27526   3.925   0.463   0.141
 8876SOL    HW127527   3.846   0.521   0.122
 8876SOL    HW227528   4.002   0.520   0.169
 8877SOL     OW27529   0.717   5.126   1.254
 8877SOL    HW127530   0.807   5.084   1.269
 8877SOL    HW227531   0.680   5.093   1.167
 8878SOL     OW27532   4.808   4.033   1.496
 8878SOL    HW127533   4.750   4.036   1.577
 8878SOL    HW227534   4.792   3.946   1.447
 8879SOL     OW27535   6.759   3.718   2.643
 8879SOL    HW127536   6.686   3.781   2.669
 8879SOL    HW227537   6.790   3.667   2.723
 8880SOL     OW27538   4.242   2.228   3.105
 8880SOL    HW127539   4.267   2.139   3.141
 8880SOL    HW227540   4.143   2.231   3.090
 8881SOL     OW27541   4.018   4.994   3.394
 8881SOL    HW127542   4.065   4.934   3.458
 8881SOL    HW227543   3.984   4.941   3.317
 8882SOL     OW27544   3.855   0.912   0.829
 8882SOL    HW127545   3.937   0.930   0.775
 8882SOL    HW227546   3.774   0.926   0.772
 8883SOL     OW27547   6.855   6.587   3.397
 8883SOL    HW127548   6.757   6.567   3.393
 8883SOL    HW227549   6.907   6.502   3.388
 8884SOL     OW27550   4.750   3.198   5.625
 8884SOL    HW127551   4.803   3.142   5.690
 8884SOL    HW227552   4.812   3.238   5.557
 8885SOL     OW27553   5.816   5.826   0.650
 8885SOL    HW127554   5.752   5.896   0.681
 8885SOL    HW227555   5.767   5.756   0.599
 8886SOL     OW27556   4.195   6.135   6.944
 8886SOL    HW127557   4.156   6.203   6.882
 8886SOL    HW227558   4.287   6.111   6.913
 8887SOL     OW27559   4.000   0.561   1.699
 8887SOL    HW127560   4.084   0.542   1.749
 8887SOL    HW227561   3.922   0.518   1.746
 8888SOL     OW27562   3.247   1.692   2.422
 8888SOL    HW127563   3.166   1.747   2.400
 8888SOL    HW227564   3.241   1.604   2.375
 8889SOL     OW27565   1.497   5.117   0.393
 8889SOL    HW127566   1.410   5.154   0.361
 8889SOL    HW227567   1.544   5.072   0.317
 8890SOL     OW27568   0.994   6.776   6.928
 8890SOL    HW127569   0.897   6.798   6.916
 8890SOL    HW227570   1.010   6.755   0.005
 8891SOL     OW27571   6.243   4.189   5.627
 8891SOL    HW127572   6.306   4.237   5.566
 8891SOL    HW227573   6.255   4.090   5.617
 8892SOL     OW27574   2.905   5.396   5.013
 8892SOL    HW127575   2.975   5.324   5.005
 8892SOL    HW227576   2.821   5.365   4.968
 8893SOL     OW27577   1.194   4.772   5.577
 8893SOL    HW127578   1.273   4.767   5.516
 8893SOL    HW227579   1.142   4.855   5.558
 8894SOL     OW27580   4.848   1.557   1.684
 8894SOL    HW127581   4.795   1.586   1.605
 8894SOL    HW227582   4.901   1.634   1.719
 8895SOL     OW27583   6.580   3.313   0.981
 8895SOL    HW127584   6.487   3.348   0.994
 8895SOL    HW227585   6.627   3.311   1.069
 8896SOL     OW27586   1.068   1.459   3.931
 8896SOL    HW127587   1.164   1.449   3.958
 8896SOL    HW227588   1.043   1.556   3.933
 8897SOL     OW27589   1.700   5.770   4.016
 8897SOL    HW127590   1.679   5.675   4.037
 8897SOL    HW227591   1.615   5.823   4.009
 8898SOL     OW27592   4.958   3.840   2.316
 8898SOL    HW127593   4.995   3.831   2.224
 8898SOL    HW227594   4.914   3.929   2.325
 8899SOL     OW27595   1.789   3.816   3.195
 8899SOL    HW127596   1.765   3.907   3.229
 8899SOL    HW227597   1.888   3.803   3.203
 8900SOL     OW27598   4.237   1.895   4.312
 8900SOL    HW127599   4.337   1.897   4.308
 8900SOL    HW227600   4.201   1.863   4.225
 8901SOL     OW27601   1.402   5.153   4.916
 8901SOL    HW127602   1.305   5.158   4.939
 8901SOL    HW227603   1.419   5.198   4.829
 8902SOL     OW27604   0.079   5.029   6.947
 8902SOL    HW127605   0.049   5.124   6.958
 8902SOL    HW227606   0.025   4.970   7.008
 8903SOL     OW27607   1.254   0.228   5.321
 8903SOL    HW127608   1.338   0.237   5.375
 8903SOL    HW227609   1.217   0.135   5.331
 8904SOL     OW27610   0.807   1.174   3.735
 8904SOL    HW127611   0.709   1.190   3.744
 8904SOL    HW227612   0.842   1.129   3.818
 8905SOL     OW27613   1.364   4.309   2.640
 8905SOL    HW127614   1.343   4.246   2.566
 8905SOL    HW227615   1.282   4.326   2.694
 8906SOL     OW27616   5.856   6.966   6.863
 8906SOL    HW127617   5.876   6.881   6.912
 8906SOL    HW227618   5.907   6.969   6.778
 8907SOL     OW27619   2.872   3.182   5.141
 8907SOL    HW127620   2.862   3.159   5.045
 8907SOL    HW227621   2.863   3.281   5.153
 8908SOL     OW27622   1.676   4.540   6.459
 8908SOL    HW127623   1.766   4.578   6.442
 8908SOL    HW227624   1.613   4.614   6.485
 8909SOL     OW27625   2.019   5.362   1.394
 8909SOL    HW127626   1.924   5.378   1.422
 8909SOL    HW227627   2.066   5.311   1.466
 8910SOL     OW27628   0.925   0.608   3.571
 8910SOL    HW127629   1.025   0.606   3.563
 8910SOL    HW227630   0.899   0.618   3.667
 8911SOL     OW27631   4.857   2.539   4.335
 8911SOL    HW127632   4.789   2.576   4.398
 8911SOL    HW227633   4.944   2.586   4.350
 8912SOL     OW27634   3.558   3.690   4.163
 8912SOL    HW127635   3.573   3.591   4.151
 8912SOL    HW227636   3.635   3.728   4.214
 8913SOL     OW27637   4.961   5.979   0.996
 8913SOL    HW127638   4.923   6.069   0.975
 8913SOL    HW227639   4.938   5.915   0.922
 8914SOL     OW27640   4.714   5.888   5.453
 8914SOL    HW127641   4.777   5.896   5.530
 8914SOL    HW227642   4.620   5.891   5.488
 8915SOL     OW27643   1.805   0.929   3.367
 8915SOL    HW127644   1.848   1.011   3.403
 8915SOL    HW227645   1.864   0.890   3.296
 8916SOL     OW27646   5.066   0.963   1.165
 8916SOL    HW127647   5.033   1.055   1.187
 8916SOL    HW227648   5.101   0.919   1.248
 8917SOL     OW27649   5.774   1.607   0.232
 8917SOL    HW127650   5.869   1.632   0.214
 8917SOL    HW227651   5.771   1.542   0.307
 8918SOL     OW27652   0.687   3.344   2.992
 8918SOL    HW127653   0.701   3.302   3.082
 8918SOL    HW227654   0.625   3.288   2.938
 8919SOL     OW27655   6.020   2.865   1.943
 8919SOL    HW127656   6.077   2.788   1.914
 8919SOL    HW227657   6.016   2.868   2.043
 8920SOL     OW27658   0.267   1.035   0.127
 8920SOL    HW127659   0.325   0.958   0.154
 8920SOL    HW227660   0.282   1.111   0.190
 8921SOL     OW27661   0.951   3.034   2.421
 8921SOL    HW127662   1.045   3.021   2.390
 8921SOL    HW227663   0.922   3.128   2.404
 8922SOL     OW27664   4.079   4.995   3.908
 8922SOL    HW127665   4.174   5.001   3.938
 8922SOL    HW227666   4.028   5.074   3.944
 8923SOL     OW27667   2.255   1.727   4.125
 8923SOL    HW127668   2.259   1.808   4.183
 8923SOL    HW227669   2.342   1.717   4.076
 8924SOL     OW27670   6.567   4.673   5.192
 8924SOL    HW127671   6.619   4.588   5.205
 8924SOL    HW227672   6.511   4.666   5.110
 8925SOL     OW27673   0.803   6.518   2.782
 8925SOL    HW127674   0.875   6.585   2.762
 8925SOL    HW227675   0.722   6.539   2.727
 8926SOL     OW27676   5.897   0.935   0.163
 8926SOL    HW127677   5.817   0.887   0.127
 8926SOL    HW227678   5.943   0.983   0.088
 8927SOL     OW27679   1.598   1.012   6.959
 8927SOL    HW127680   1.557   1.094   6.920
 8927SOL    HW227681   1.643   0.959   6.887
 8928SOL     OW27682   1.243   6.855   5.641
 8928SOL    HW127683   1.325   6.892   5.596
 8928SOL    HW227684   1.271   6.801   5.721
 8929SOL     OW27685   0.074   1.776   4.265
 8929SOL    HW127686   0.091   1.705   4.333
 8929SOL    HW227687   0.085   1.738   4.173
 8930SOL     OW27688   2.015   4.950   4.040
 8930SOL    HW127689   1.951   4.995   4.102
 8930SOL    HW227690   2.107   4.953   4.078
 8931SOL     OW27691   4.085   3.441   0.561
 8931SOL    HW127692   4.120   3.510   0.624
 8931SOL    HW227693   4.092   3.476   0.467
 8932SOL     OW27694   0.391   3.199   3.513
 8932SOL    HW127695   0.407   3.107   3.548
 8932SOL    HW227696   0.375   3.194   3.414
 8933SOL     OW27697   3.871   1.833   5.660
 8933SOL    HW127698   3.835   1.925   5.675
 8933SOL    HW227699   3.963   1.838   5.621
 8934SOL     OW27700   2.668   6.336   2.992
 8934SOL    HW127701   2.699   6.254   2.944
 8934SOL    HW227702   2.594   6.312   3.054
 8935SOL     OW27703   6.684   4.902   0.496
 8935SOL    HW127704   6.666   4.983   0.553
 8935SOL    HW227705   6.766   4.918   0.441
 8936SOL     OW27706   3.636   2.445   0.443
 8936SOL    HW127707   3.680   2.357   0.461
 8936SOL    HW227708   3.638   2.464   0.345
 8937SOL     OW27709   0.539   0.094   5.944
 8937SOL    HW127710   0.585   0.158   6.006
 8937SOL    HW227711   0.440   0.103   5.954
 8938SOL     OW27712   4.812   6.260   1.398
 8938SOL    HW127713   4.863   6.307   1.326
 8938SOL    HW227714   4.751   6.193   1.357
 8939SOL     OW27715   4.862   1.990   5.202
 8939SOL    HW127716   4.959   1.971   5.184
 8939SOL    HW227717   4.852   2.024   5.295
 8940SOL     OW27718   5.745   0.041   2.341
 8940SOL    HW127719   5.790   0.078   2.422
 8940SOL    HW227720   5.783   6.971   2.319
 8941SOL     OW27721   4.381   1.355   6.527
 8941SOL    HW127722   4.406   1.306   6.443
 8941SOL    HW227723   4.461   1.362   6.587
 8942SOL     OW27724   1.537   2.527   5.337
 8942SOL    HW127725   1.462   2.569   5.388
 8942SOL    HW227726   1.594   2.598   5.296
 8943SOL     OW27727   4.826   3.506   0.932
 8943SOL    HW127728   4.926   3.506   0.925
 8943SOL    HW227729   4.799   3.488   1.027
 8944SOL     OW27730   4.260   5.611   1.574
 8944SOL    HW127731   4.255   5.683   1.505
 8944SOL    HW227732   4.173   5.563   1.579
 8945SOL     OW27733   2.075   1.175   4.615
 8945SOL    HW127734   2.125   1.159   4.530
 8945SOL    HW227735   2.017   1.256   4.604
 8946SOL     OW27736   3.855   1.554   4.709
 8946SOL    HW127737   3.803   1.632   4.673
 8946SOL    HW227738   3.926   1.529   4.643
 8947SOL     OW27739   3.637   3.915   5.074
 8947SOL    HW127740   3.682   3.872   4.996
 8947SOL    HW227741   3.683   3.887   5.158
 8948SOL     OW27742   5.669   4.931   2.783
 8948SOL    HW127743   5.634   4.942   2.690
 8948SOL    HW227744   5.610   4.869   2.834
 8949SOL     OW27745   2.183   5.800   5.967
 8949SOL    HW127746   2.249   5.788   5.892
 8949SOL    HW227747   2.103   5.850   5.932
 8950SOL     OW27748   4.938   2.281   4.518
 8950SOL    HW127749   4.897   2.366   4.549
 8950SOL    HW227750   4.917   2.208   4.584
 8951SOL     OW27751   2.030   1.693   5.766
 8951SOL    HW127752   2.115   1.732   5.802
 8951SOL    HW227753   1.962   1.686   5.840
 8952SOL     OW27754   6.370   6.893   3.477
 8952SOL    HW127755   6.461   6.931   3.499
 8952SOL    HW227756   6.314   6.892   3.560
 8953SOL     OW27757   1.260   5.284   6.630
 8953SOL    HW127758   1.307   5.360   6.675
 8953SOL    HW227759   1.165   5.309   6.612
 8954SOL     OW27760   1.619   6.702   5.883
 8954SOL    HW127761   1.572   6.777   5.931
 8954SOL    HW227762   1.717   6.722   5.878
 8955SOL     OW27763   6.120   3.722   4.363
 8955SOL    HW127764   6.025   3.746   4.345
 8955SOL    HW227765   6.143   3.748   4.457
 8956SOL     OW27766   1.486   0.660   4.751
 8956SOL    HW127767   1.532   0.720   4.687
 8956SOL    HW227768   1.543   0.647   4.832
 8957SOL     OW27769   2.612   5.770   1.803
 8957SOL    HW127770   2.515   5.744   1.807
 8957SOL    HW227771   2.641   5.774   1.707
 8958SOL     OW27772   2.630   0.238   4.092
 8958SOL    HW127773   2.608   0.268   4.185
 8958SOL    HW227774   2.660   0.317   4.038
 8959SOL     OW27775   3.085   5.195   0.141
 8959SOL    HW127776   3.017   5.255   0.182
 8959SOL    HW227777   3.056   5.170   0.048
 8960SOL     OW27778   3.585   5.349   0.956
 8960SOL    HW127779   3.594   5.313   0.863
 8960SOL    HW227780   3.657   5.416   0.973
 8961SOL     OW27781   1.742   2.563   4.143
 8961SOL    HW127782   1.737   2.506   4.061
 8961SOL    HW227783   1.790   2.649   4.122
 8962SOL     OW27784   4.734   0.435   3.269
 8962SOL    HW127785   4.644   0.416   3.306
 8962SOL    HW227786   4.751   0.377   3.190
 8963SOL     OW27787   0.124   0.847   3.565
 8963SOL    HW127788   0.093   0.752   3.562
 8963SOL    HW227789   0.045   0.908   3.561
 8964SOL     OW27790   6.723   3.630   3.140
 8964SOL    HW127791   6.774   3.670   3.063
 8964SOL    HW227792   6.786   3.578   3.198
 8965SOL     OW27793   1.215   5.491   1.899
 8965SOL    HW127794   1.242   5.569   1.842
 8965SOL    HW227795   1.158   5.428   1.845
 8966SOL     OW27796   3.432   2.579   5.572
 8966SOL    HW127797   3.419   2.489   5.614
 8966SOL    HW227798   3.369   2.588   5.494
 8967SOL     OW27799   4.434   6.847   0.629
 8967SOL    HW127800   4.518   6.870   0.579
 8967SOL    HW227801   4.371   6.925   0.624
 8968SOL     OW27802   4.994   4.437   3.164
 8968SOL    HW127803   4.961   4.358   3.215
 8968SOL    HW227804   4.917   4.489   3.128
 8969SOL     OW27805   6.449   0.692   4.293
 8969SOL    HW127806   6.465   0.665   4.198
 8969SOL    HW227807   6.485   0.621   4.354
 8970SOL     OW27808   3.385   2.086   1.402
 8970SOL    HW127809   3.377   2.185   1.389
 8970SOL    HW227810   3.412   2.066   1.496
 8971SOL     OW27811   4.467   6.218   3.264
 8971SOL    HW127812   4.484   6.235   3.361
 8971SOL    HW227813   4.485   6.122   3.244
 8972SOL     OW27814   5.512   0.601   4.644
 8972SOL    HW127815   5.478   0.614   4.737
 8972SOL    HW227816   5.526   0.690   4.600
 8973SOL     OW27817   1.992   4.525   6.833
 8973SOL    HW127818   1.927   4.474   6.777
 8973SOL    HW227819   1.999   4.482   6.924
 8974SOL     OW27820   0.311   3.179   4.056
 8974SOL    HW127821   0.336   3.224   4.142
 8974SOL    HW227822   0.374   3.103   4.039
 8975SOL     OW27823   3.425   0.339   6.742
 8975SOL    HW127824   3.424   0.434   6.712
 8975SOL    HW227825   3.503   0.323   6.803
 8976SOL     OW27826   0.870   4.627   4.591
 8976SOL    HW127827   0.873   4.647   4.689
 8976SOL    HW227828   0.833   4.535   4.576
 8977SOL     OW27829   5.528   1.091   6.498
 8977SOL    HW127830   5.609   1.033   6.504
 8977SOL    HW227831   5.450   1.043   6.539
 8978SOL     OW27832   5.777   5.513   1.007
 8978SOL    HW127833   5.842   5.564   0.952
 8978SOL    HW227834   5.811   5.420   1.022
 8979SOL     OW27835   1.804   5.059   4.622
 8979SOL    HW127836   1.770   5.135   4.566
 8979SOL    HW227837   1.733   5.032   4.687
 8980SOL     OW27838   3.845   2.951   4.765
 8980SOL    HW127839   3.917   3.003   4.720
 8980SOL    HW227840   3.855   2.959   4.864
 8981SOL     OW27841   2.883   1.370   5.180
 8981SOL    HW127842   2.981   1.364   5.163
 8981SOL    HW227843   2.867   1.403   5.273
 8982SOL     OW27844   4.474   4.310   0.946
 8982SOL    HW127845   4.494   4.218   0.982
 8982SOL    HW227846   4.559   4.356   0.922
 8983SOL     OW27847   5.138   5.126   0.729
 8983SOL    HW127848   5.060   5.146   0.788
 8983SOL    HW227849   5.179   5.212   0.698
 8984SOL     OW27850   1.466   6.755   3.184
 8984SOL    HW127851   1.448   6.680   3.120
 8984SOL    HW227852   1.494   6.719   3.272
 8985SOL     OW27853   3.104   3.141   6.028
 8985SOL    HW127854   3.101   3.054   6.076
 8985SOL    HW227855   3.015   3.187   6.037
 8986SOL     OW27856   3.570   6.121   2.796
 8986SOL    HW127857   3.656   6.113   2.745
 8986SOL    HW227858   3.585   6.173   2.879
 8987SOL     OW27859   5.131   5.789   1.870
 8987SOL    HW127860   5.191   5.823   1.941
 8987SOL    HW227861   5.118   5.859   1.800
 8988SOL     OW27862   0.727   5.644   5.254
 8988SOL    HW127863   0.820   5.680   5.245
 8988SOL    HW227864   0.729   5.556   5.301
 8989SOL     OW27865   2.995   3.352   6.863
 8989SOL    HW127866   2.902   3.387   6.873
 8989SOL    HW227867   3.022   3.357   6.767
 8990SOL     OW27868   0.296   5.935   3.502
 8990SOL    HW127869   0.324   5.884   3.421
 8990SOL    HW227870   0.288   6.032   3.480
 8991SOL     OW27871   1.018   1.881   5.181
 8991SOL    HW127872   0.966   1.835   5.109
 8991SOL    HW227873   1.077   1.951   5.141
 8992SOL     OW27874   6.563   2.311   0.861
 8992SOL    HW127875   6.604   2.396   0.895
 8992SOL    HW227876   6.463   2.317   0.867
 8993SOL     OW27877   4.706   2.585   0.558
 8993SOL    HW127878   4.667   2.536   0.636
 8993SOL    HW227879   4.742   2.673   0.589
 8994SOL     OW27880   1.914   6.074   3.745
 8994SOL    HW127881   1.911   5.979   3.776
 8994SOL    HW227882   1.824   6.117   3.760
 8995SOL     OW27883   0.254   0.677   0.921
 8995SOL    HW127884   0.301   0.603   0.970
 8995SOL    HW227885   0.284   0.765   0.956
 8996SOL     OW27886   4.199   6.385   5.682
 8996SOL    HW127887   4.120   6.359   5.626
 8996SOL    HW227888   4.281   6.342   5.645
 8997SOL     OW27889   6.223   0.966   4.660
 8997SOL    HW127890   6.299   0.966   4.725
 8997SOL    HW227891   6.243   0.905   4.584
 8998SOL     OW27892   6.403   3.200   4.641
 8998SOL    HW127893   6.497   3.191   4.610
 8998SOL    HW227894   6.400   3.196   4.741
 8999SOL     OW27895   3.894   6.704   5.778
 8999SOL    HW127896   3.977   6.680   5.827
 8999SOL    HW227897   3.910   6.697   5.679
 9000SOL     OW27898   1.529   4.114   1.134
 9000SOL    HW127899   1.466   4.121   1.211
 9000SOL    HW227900   1.596   4.189   1.139
 9001SOL     OW27901   1.130   6.116   2.224
 9001SOL    HW127902   1.059   6.076   2.282
 9001SOL    HW227903   1.092   6.136   2.134
 9002SOL     OW27904   0.273   4.655   6.571
 9002SOL    HW127905   0.360   4.692   6.539
 9002SOL    HW227906   0.279   4.555   6.577
 9003SOL     OW27907   5.324   0.268   1.523
 9003SOL    HW127908   5.262   0.245   1.448
 9003SOL    HW227909   5.362   0.184   1.562
 9004SOL     OW27910   4.631   4.954   0.224
 9004SOL    HW127911   4.565   4.990   0.289
 9004SOL    HW227912   4.624   4.854   0.221
 9005SOL     OW27913   5.271   1.823   5.244
 9005SOL    HW127914   5.355   1.851   5.291
 9005SOL    HW227915   5.261   1.723   5.252
 9006SOL     OW27916   3.686   6.374   0.366
 9006SOL    HW127917   3.721   6.354   0.458
 9006SOL    HW227918   3.732   6.316   0.299
 9007SOL     OW27919   1.765   1.082   3.123
 9007SOL    HW127920   1.857   1.119   3.105
 9007SOL    HW227921   1.767   1.028   3.207
 9008SOL     OW27922   0.967   5.942   2.428
 9008SOL    HW127923   1.014   5.935   2.516
 9008SOL    HW227924   0.902   6.017   2.430
 9009SOL     OW27925   3.471   5.946   1.410
 9009SOL    HW127926   3.460   6.019   1.342
 9009SOL    HW227927   3.525   5.979   1.487
 9010SOL     OW27928   1.491   6.208   4.089
 9010SOL    HW127929   1.412   6.150   4.071
 9010SOL    HW227930   1.533   6.234   4.002
 9011SOL     OW27931   2.616   2.417   1.903
 9011SOL    HW127932   2.701   2.398   1.951
 9011SOL    HW227933   2.636   2.466   1.818
 9012SOL     OW27934   1.898   6.652   6.960
 9012SOL    HW127935   1.935   6.689   6.874
 9012SOL    HW227936   1.836   6.719   7.000
 9013SOL     OW27937   2.204   6.752   4.308
 9013SOL    HW127938   2.208   6.851   4.292
 9013SOL    HW227939   2.263   6.728   4.385
 9014SOL     OW27940   5.305   3.104   3.559
 9014SOL    HW127941   5.302   3.200   3.531
 9014SOL    HW227942   5.400   3.075   3.569
 9015SOL     OW27943   4.848   1.172   5.964
 9015SOL    HW127944   4.926   1.111   5.977
 9015SOL    HW227945   4.881   1.260   5.930
 9016SOL     OW27946   5.034   5.274   6.267
 9016SOL    HW127947   5.130   5.259   6.290
 9016SOL    HW227948   4.987   5.186   6.259
 9017SOL     OW27949   4.214   6.630   4.417
 9017SOL    HW127950   4.252   6.657   4.329
 9017SOL    HW227951   4.129   6.680   4.434
 9018SOL     OW27952   4.270   4.705   6.405
 9018SOL    HW127953   4.320   4.619   6.419
 9018SOL    HW227954   4.278   4.733   6.309
 9019SOL     OW27955   0.210   3.427   3.953
 9019SOL    HW127956   0.262   3.343   3.942
 9019SOL    HW227957   0.221   3.461   4.047
 9020SOL     OW27958   5.214   5.087   2.796
 9020SOL    HW127959   5.246   5.134   2.878
 9020SOL    HW227960   5.266   5.002   2.784
 9021SOL     OW27961   0.505   1.183   4.433
 9021SOL    HW127962   0.484   1.192   4.530
 9021SOL    HW227963   0.456   1.105   4.395
 9022SOL     OW27964   4.746   4.090   6.214
 9022SOL    HW127965   4.727   4.174   6.163
 9022SOL    HW227966   4.779   4.020   6.152
 9023SOL     OW27967   6.086   4.321   0.286
 9023SOL    HW127968   6.016   4.249   0.292
 9023SOL    HW227969   6.042   4.410   0.279
 9024SOL     OW27970   2.104   6.198   6.029
 9024SOL    HW127971   2.013   6.229   6.058
 9024SOL    HW227972   2.106   6.188   5.930
 9025SOL     OW27973   1.019   5.947   1.165
 9025SOL    HW127974   1.090   5.922   1.100
 9025SOL    HW227975   1.020   6.046   1.180
 9026SOL     OW27976   5.159   1.369   0.442
 9026SOL    HW127977   5.086   1.300   0.447
 9026SOL    HW227978   5.121   1.459   0.461
 9027SOL     OW27979   0.921   3.887   3.529
 9027SOL    HW127980   0.904   3.912   3.624
 9027SOL    HW227981   0.896   3.791   3.515
 9028SOL     OW27982   3.342   5.072   6.006
 9028SOL    HW127983   3.418   5.134   6.024
 9028SOL    HW227984   3.293   5.054   6.092
 9029SOL     OW27985   4.606   0.045   4.692
 9029SOL    HW127986   4.655   0.116   4.641
 9029SOL    HW227987   4.517   0.081   4.721
 9030SOL     OW27988   2.862   1.535   2.421
 9030SOL    HW127989   2.911   1.573   2.342
 9030SOL    HW227990   2.885   1.439   2.430
 9031SOL     OW27991   4.635   6.801   4.634
 9031SOL    HW127992   4.613   6.892   4.669
 9031SOL    HW227993   4.630   6.801   4.534
 9032SOL     OW27994   4.886   3.461   2.165
 9032SOL    HW127995   4.907   3.372   2.125
 9032SOL    HW227996   4.833   3.515   2.099
 9033SOL     OW27997   0.539   6.882   3.195
 9033SOL    HW127998   0.542   6.888   3.095
 9033SOL    HW227999   0.631   6.873   3.231
 9034SOL     OW28000   4.639   0.089   4.347
 9034SOL    HW128001   4.626   0.011   4.408
 9034SOL    HW228002   4.644   0.173   4.400
 9035SOL     OW28003   2.303   4.884   6.567
 9035SOL    HW128004   2.381   4.855   6.511
 9035SOL    HW228005   2.320   4.977   6.602
 9036SOL     OW28006   1.538   4.243   5.365
 9036SOL    HW128007   1.518   4.176   5.293
 9036SOL    HW228008   1.545   4.334   5.324
 9037SOL     OW28009   0.730   1.290   3.087
 9037SOL    HW128010   0.780   1.207   3.061
 9037SOL    HW228011   0.766   1.326   3.172
 9038SOL     OW28012   4.494   2.826   5.350
 9038SOL    HW128013   4.544   2.906   5.316
 9038SOL    HW228014   4.450   2.779   5.273
 9039SOL     OW28015   4.200   5.821   6.725
 9039SOL    HW128016   4.287   5.829   6.676
 9039SOL    HW228017   4.217   5.788   6.818
 9040SOL     OW28018   2.168   2.006   1.676
 9040SOL    HW128019   2.236   2.074   1.702
 9040SOL    HW228020   2.171   1.930   1.740
 9041SOL     OW28021   6.783   2.025   2.414
 9041SOL    HW128022   6.804   1.971   2.332
 9041SOL    HW228023   6.775   2.122   2.389
 9042SOL     OW28024   3.768   6.504   0.137
 9042SOL    HW128025   3.703   6.493   0.212
 9042SOL    HW228026   3.750   6.435   0.067
 9043SOL     OW28027   3.292   2.552   0.694
 9043SOL    HW128028   3.291   2.464   0.647
 9043SOL    HW228029   3.378   2.600   0.673
 9044SOL     OW28030   0.628   1.216   0.393
 9044SOL    HW128031   0.701   1.236   0.458
 9044SOL    HW228032   0.569   1.296   0.384
 9045SOL     OW28033   4.440   1.880   2.883
 9045SOL    HW128034   4.505   1.805   2.888
 9045SOL    HW228035   4.366   1.857   2.820
 9046SOL     OW28036   3.138   3.103   1.940
 9046SOL    HW128037   3.134   3.123   2.038
 9046SOL    HW228038   3.197   3.169   1.895
 9047SOL     OW28039   1.346   4.279   6.671
 9047SOL    HW128040   1.365   4.375   6.651
 9047SOL    HW228041   1.248   4.264   6.676
 9048SOL     OW28042   6.511   1.255   6.262
 9048SOL    HW128043   6.560   1.207   6.334
 9048SOL    HW228044   6.455   1.327   6.302
 9049SOL     OW28045   2.844   6.758   5.884
 9049SOL    HW128046   2.808   6.666   5.865
 9049SOL    HW228047   2.903   6.786   5.808
 9050SOL     OW28048   0.785   4.488   1.159
 9050SOL    HW128049   0.846   4.484   1.080
 9050SOL    HW228050   0.711   4.554   1.141
 9051SOL     OW28051   2.596   1.158   1.245
 9051SOL    HW128052   2.634   1.081   1.297
 9051SOL    HW228053   2.637   1.243   1.276
 9052SOL     OW28054   1.376   2.515   5.701
 9052SOL    HW128055   1.331   2.602   5.679
 9052SOL    HW228056   1.317   2.439   5.675
 9053SOL     OW28057   0.906   1.257   0.093
 9053SOL    HW128058   0.950   1.269   0.182
 9053SOL    HW228059   0.814   1.297   0.096
 9054SOL     OW28060   2.414   5.998   2.694
 9054SOL    HW128061   2.495   5.944   2.672
 9054SOL    HW228062   2.359   6.010   2.611
 9055SOL     OW28063   0.469   3.045   5.317
 9055SOL    HW128064   0.391   3.023   5.259
 9055SOL    HW228065   0.510   3.131   5.287
 9056SOL     OW28066   6.395   2.981   2.959
 9056SOL    HW128067   6.371   3.039   3.037
 9056SOL    HW228068   6.472   2.921   2.983
 9057SOL     OW28069   4.426   2.070   3.957
 9057SOL    HW128070   4.450   2.040   3.865
 9057SOL    HW228071   4.495   2.133   3.991
 9058SOL     OW28072   2.855   0.833   5.633
 9058SOL    HW128073   2.845   0.820   5.534
 9058SOL    HW228074   2.770   0.807   5.678
 9059SOL     OW28075   1.333   2.130   2.677
 9059SOL    HW128076   1.330   2.109   2.775
 9059SOL    HW228077   1.315   2.047   2.624
 9060SOL     OW28078   5.137   2.748   5.484
 9060SOL    HW128079   5.232   2.720   5.489
 9060SOL    HW228080   5.108   2.755   5.389
 9061SOL     OW28081   3.144   5.692   2.996
 9061SOL    HW128082   3.174   5.787   2.994
 9061SOL    HW228083   3.094   5.675   3.081
 9062SOL     OW28084   1.568   5.763   1.066
 9062SOL    HW128085   1.597   5.786   1.158
 9062SOL    HW228086   1.612   5.678   1.037
 9063SOL     OW28087   2.489   2.182   2.032
 9063SOL    HW128088   2.525   2.248   1.966
 9063SOL    HW228089   2.543   2.186   2.116
 9064SOL     OW28090   5.138   3.204   0.433
 9064SOL    HW128091   5.168   3.145   0.508
 9064SOL    HW228092   5.147   3.155   0.346
 9065SOL     OW28093   2.654   0.670   6.976
 9065SOL    HW128094   2.688   0.764   6.981
 9065SOL    HW228095   2.564   0.669   6.933
 9066SOL     OW28096   4.886   6.737   0.182
 9066SOL    HW128097   4.841   6.807   0.127
 9066SOL    HW228098   4.825   6.710   0.258
 9067SOL     OW28099   1.505   6.863   1.846
 9067SOL    HW128100   1.442   6.835   1.918
 9067SOL    HW228101   1.579   6.917   1.886
 9068SOL     OW28102   1.388   6.135   6.577
 9068SOL    HW128103   1.411   6.051   6.527
 9068SOL    HW228104   1.434   6.134   6.666
 9069SOL     OW28105   1.129   2.316   6.130
 9069SOL    HW128106   1.199   2.372   6.085
 9069SOL    HW228107   1.169   2.267   6.207
 9070SOL     OW28108   1.395   4.264   3.631
 9070SOL    HW128109   1.390   4.333   3.559
 9070SOL    HW228110   1.490   4.251   3.658
 9071SOL     OW28111   4.627   5.654   0.203
 9071SOL    HW128112   4.708   5.597   0.216
 9071SOL    HW228113   4.547   5.607   0.242
 9072SOL     OW28114   5.444   4.719   0.171
 9072SOL    HW128115   5.406   4.653   0.236
 9072SOL    HW228116   5.493   4.670   0.099
 9073SOL     OW28117   1.630   0.376   1.174
 9073SOL    HW128118   1.671   0.438   1.107
 9073SOL    HW228119   1.690   0.369   1.254
 9074SOL     OW28120   0.492   0.319   3.337
 9074SOL    HW128121   0.505   0.405   3.386
 9074SOL    HW228122   0.576   0.265   3.340
 9075SOL     OW28123   0.623   0.398   1.867
 9075SOL    HW128124   0.704   0.342   1.884
 9075SOL    HW228125   0.650   0.493   1.850
 9076SOL     OW28126   0.495   1.563   5.368
 9076SOL    HW128127   0.529   1.607   5.284
 9076SOL    HW228128   0.484   1.632   5.439
 9077SOL     OW28129   6.026   6.070   1.246
 9077SOL    HW128130   6.097   6.058   1.315
 9077SOL    HW228131   6.066   6.106   1.162
 9078SOL     OW28132   4.026   3.261   5.320
 9078SOL    HW128133   3.992   3.284   5.229
 9078SOL    HW228134   3.987   3.323   5.387
 9079SOL     OW28135   4.058   0.826   5.408
 9079SOL    HW128136   3.965   0.832   5.371
 9079SOL    HW228137   4.123   0.859   5.340
 9080SOL     OW28138   5.070   1.229   0.194
 9080SOL    HW128139   5.105   1.135   0.201
 9080SOL    HW228140   5.108   1.285   0.267
 9081SOL     OW28141   5.639   0.265   3.039
 9081SOL    HW128142   5.541   0.257   3.055
 9081SOL    HW228143   5.655   0.323   2.959
 9082SOL     OW28144   3.154   0.629   2.572
 9082SOL    HW128145   3.203   0.716   2.578
 9082SOL    HW228146   3.074   0.632   2.632
 9083SOL     OW28147   4.860   4.407   4.020
 9083SOL    HW128148   4.917   4.481   4.055
 9083SOL    HW228149   4.905   4.319   4.038
 9084SOL     OW28150   3.882   3.988   2.995
 9084SOL    HW128151   3.947   3.924   3.037
 9084SOL    HW228152   3.921   4.024   2.910
 9085SOL     OW28153   0.989   2.262   0.530
 9085SOL    HW128154   0.901   2.213   0.528
 9085SOL    HW228155   1.044   2.234   0.452
 9086SOL     OW28156   6.939   3.948   0.420
 9086SOL    HW128157   6.968   3.856   0.446
 9086SOL    HW228158   6.920   3.950   0.321
 9087SOL     OW28159   5.326   3.729   2.080
 9087SOL    HW128160   5.292   3.650   2.130
 9087SOL    HW228161   5.250   3.792   2.063
 9088SOL     OW28162   4.905   6.186   0.600
 9088SOL    HW128163   4.873   6.109   0.545
 9088SOL    HW228164   4.952   6.252   0.542
 9089SOL     OW28165   4.171   0.565   5.845
 9089SOL    HW128166   4.260   0.603   5.872
 9089SOL    HW228167   4.160   0.573   5.746
 9090SOL     OW28168   6.036   1.846   3.467
 9090SOL    HW128169   6.107   1.856   3.536
 9090SOL    HW228170   6.077   1.817   3.381
 9091SOL     OW28171   3.660   2.545   6.319
 9091SOL    HW128172   3.601   2.535   6.399
 9091SOL    HW228173   3.751   2.574   6.347
 9092SOL     OW28174   6.989   3.177   6.875
 9092SOL    HW128175   7.012   3.238   6.951
 9092SOL    HW228176   6.999   3.082   6.905
 9093SOL     OW28177   2.185   6.512   4.932
 9093SOL    HW128178   2.276   6.540   4.962
 9093SOL    HW228179   2.191   6.422   4.888
 9094SOL     OW28180   1.556   3.520   1.388
 9094SOL    HW128181   1.551   3.512   1.487
 9094SOL    HW228182   1.629   3.462   1.353
 9095SOL     OW28183   6.710   6.846   6.342
 9095SOL    HW128184   6.732   6.900   6.261
 9095SOL    HW228185   6.641   6.778   6.319
 9096SOL     OW28186   5.831   5.163   4.513
 9096SOL    HW128187   5.914   5.213   4.487
 9096SOL    HW228188   5.773   5.223   4.568
 9097SOL     OW28189   1.251   2.290   5.626
 9097SOL    HW128190   1.325   2.223   5.629
 9097SOL    HW228191   1.170   2.253   5.671
 9098SOL     OW28192   2.318   4.166   3.694
 9098SOL    HW128193   2.373   4.241   3.658
 9098SOL    HW228194   2.290   4.187   3.787
 9099SOL     OW28195   2.198   1.648   6.857
 9099SOL    HW128196   2.210   1.607   6.947
 9099SOL    HW228197   2.206   1.577   6.787
 9100SOL     OW28198   1.958   4.653   3.914
 9100SOL    HW128199   1.964   4.749   3.942
 9100SOL    HW228200   1.981   4.594   3.991
 9101SOL     OW28201   0.468   2.327   0.548
 9101SOL    HW128202   0.425   2.370   0.468
 9101SOL    HW228203   0.410   2.339   0.628
 9102SOL     OW28204   4.038   0.180   2.980
 9102SOL    HW128205   3.981   0.120   2.924
 9102SOL    HW228206   3.986   0.212   3.059
 9103SOL     OW28207   6.085   1.472   1.450
 9103SOL    HW128208   6.169   1.462   1.398
 9103SOL    HW228209   6.070   1.390   1.507
 9104SOL     OW28210   6.084   1.854   6.126
 9104SOL    HW128211   6.031   1.938   6.123
 9104SOL    HW228212   6.162   1.861   6.064
 9105SOL     OW28213   2.977   1.248   5.579
 9105SOL    HW128214   2.991   1.163   5.528
 9105SOL    HW228215   2.940   1.226   5.669
 9106SOL     OW28216   1.787   4.090   6.829
 9106SOL    HW128217   1.837   4.087   6.743
 9106SOL    HW228218   1.697   4.131   6.814
 9107SOL     OW28219   3.080   1.182   0.543
 9107SOL    HW128220   3.050   1.136   0.460
 9107SOL    HW228221   3.142   1.257   0.520
 9108SOL     OW28222   6.958   5.720   5.927
 9108SOL    HW128223   6.969   5.816   5.955
 9108SOL    HW228224   6.989   5.661   6.001
 9109SOL     OW28225   5.711   3.776   2.552
 9109SOL    HW128226   5.625   3.725   2.551
 9109SOL    HW228227   5.787   3.713   2.536
 9110SOL     OW28228   1.598   6.394   3.271
 9110SOL    HW128229   1.675   6.388   3.207
 9110SOL    HW228230   1.512   6.393   3.220
 9111SOL     OW28231   3.754   2.404   5.860
 9111SOL    HW128232   3.656   2.399   5.881
 9111SOL    HW228233   3.806   2.354   5.930
 9112SOL     OW28234   0.546   5.230   2.115
 9112SOL    HW128235   0.459   5.193   2.147
 9112SOL    HW228236   0.600   5.260   2.194
 9113SOL     OW28237   5.706   0.721   4.152
 9113SOL    HW128238   5.795   0.760   4.175
 9113SOL    HW228239   5.649   0.789   4.107
 9114SOL     OW28240   0.881   6.880   5.612
 9114SOL    HW128241   0.960   6.937   5.592
 9114SOL    HW228242   0.807   6.901   5.548
 9115SOL     OW28243   4.869   4.328   5.370
 9115SOL    HW128244   4.921   4.379   5.301
 9115SOL    HW228245   4.830   4.392   5.436
 9116SOL     OW28246   1.909   0.088   4.089
 9116SOL    HW128247   1.874   0.159   4.150
 9116SOL    HW228248   1.988   0.124   4.039
 9117SOL     OW28249   1.950   6.924   0.351
 9117SOL    HW128250   1.963   6.932   0.450
 9117SOL    HW228251   1.863   6.877   0.333
 9118SOL     OW28252   6.608   3.895   1.829
 9118SOL    HW128253   6.655   3.844   1.900
 9118SOL    HW228254   6.600   3.991   1.855
 9119SOL     OW28255   2.892   1.260   0.725
 9119SOL    HW128256   2.955   1.218   0.659
 9119SOL    HW228257   2.935   1.262   0.815
 9120SOL     OW28258   6.202   3.807   4.610
 9120SOL    HW128259   6.287   3.852   4.582
 9120SOL    HW228260   6.211   3.776   4.705
 9121SOL     OW28261   4.032   1.112   4.341
 9121SOL    HW128262   4.043   1.118   4.441
 9121SOL    HW228263   4.014   1.017   4.315
 9122SOL     OW28264   0.325   2.737   1.588
 9122SOL    HW128265   0.370   2.821   1.558
 9122SOL    HW228266   0.292   2.748   1.682
 9123SOL     OW28267   0.750   5.764   4.103
 9123SOL    HW128268   0.653   5.770   4.079
 9123SOL    HW228269   0.784   5.672   4.084
 9124SOL     OW28270   3.741   5.541   0.631
 9124SOL    HW128271   3.786   5.603   0.695
 9124SOL    HW228272   3.657   5.583   0.597
 9125SOL     OW28273   5.310   6.279   1.718
 9125SOL    HW128274   5.288   6.319   1.807
 9125SOL    HW228275   5.362   6.195   1.732
 9126SOL     OW28276   4.304   4.511   0.954
 9126SOL    HW128277   4.273   4.508   0.859
 9126SOL    HW228278   4.362   4.433   0.973
 9127SOL     OW28279   6.407   4.309   5.464
 9127SOL    HW128280   6.404   4.286   5.367
 9127SOL    HW228281   6.502   4.323   5.492
 9128SOL     OW28282   5.674   3.965   6.110
 9128SOL    HW128283   5.739   4.023   6.159
 9128SOL    HW228284   5.629   4.017   6.039
 9129SOL     OW28285   0.829   2.874   0.425
 9129SOL    HW128286   0.746   2.819   0.417
 9129SOL    HW228287   0.810   2.955   0.481
 9130SOL     OW28288   3.111   3.744   5.315
 9130SOL    HW128289   3.036   3.681   5.298
 9130SOL    HW228290   3.077   3.838   5.307
 9131SOL     OW28291   5.478   2.601   0.939
 9131SOL    HW128292   5.379   2.603   0.957
 9131SOL    HW228293   5.515   2.512   0.967
 9132SOL     OW28294   0.900   3.904   3.825
 9132SOL    HW128295   0.898   3.806   3.849
 9132SOL    HW228296   0.832   3.952   3.879
 9133SOL     OW28297   5.804   6.974   1.070
 9133SOL    HW128298   5.818   6.925   0.984
 9133SOL    HW228299   5.884   0.012   1.089
 9134SOL     OW28300   5.279   4.837   6.978
 9134SOL    HW128301   5.216   4.773   0.002
 9134SOL    HW228302   5.336   4.881   0.029
 9135SOL     OW28303   6.440   5.456   2.392
 9135SOL    HW128304   6.400   5.375   2.432
 9135SOL    HW228305   6.403   5.538   2.436
 9136SOL     OW28306   0.651   5.059   0.539
 9136SOL    HW128307   0.686   5.093   0.627
 9136SOL    HW228308   0.580   5.121   0.505
 9137SOL     OW28309   5.820   5.976   5.396
 9137SOL    HW128310   5.912   5.964   5.432
 9137SOL    HW228311   5.823   5.985   5.297
 9138SOL     OW28312   2.028   4.222   5.793
 9138SOL    HW128313   1.999   4.207   5.888
 9138SOL    HW228314   2.123   4.252   5.792
 9139SOL     OW28315   0.366   0.329   1.849
 9139SOL    HW128316   0.307   0.409   1.850
 9139SOL    HW228317   0.461   0.358   1.859
 9140SOL     OW28318   1.937   4.102   2.497
 9140SOL    HW128319   1.950   4.061   2.406
 9140SOL    HW228320   1.928   4.201   2.488
 9141SOL     OW28321   0.229   5.813   4.661
 9141SOL    HW128322   0.266   5.724   4.635
 9141SOL    HW228323   0.204   5.863   4.578
 9142SOL     OW28324   1.258   4.241   3.277
 9142SOL    HW128325   1.164   4.271   3.262
 9142SOL    HW228326   1.259   4.170   3.348
 9143SOL     OW28327   6.311   3.856   3.173
 9143SOL    HW128328   6.230   3.798   3.186
 9143SOL    HW228329   6.352   3.877   3.262
 9144SOL     OW28330   3.061   4.232   5.207
 9144SOL    HW128331   3.028   4.229   5.113
 9144SOL    HW228332   3.161   4.220   5.208
 9145SOL     OW28333   1.635   6.600   5.499
 9145SOL    HW128334   1.671   6.518   5.543
 9145SOL    HW228335   1.611   6.580   5.404
 9146SOL     OW28336   6.256   2.393   3.773
 9146SOL    HW128337   6.230   2.298   3.762
 9146SOL    HW228338   6.217   2.448   3.699
 9147SOL     OW28339   3.991   0.762   5.874
 9147SOL    HW128340   4.037   0.674   5.866
 9147SOL    HW228341   3.974   0.800   5.783
 9148SOL     OW28342   4.573   5.813   1.539
 9148SOL    HW128343   4.596   5.783   1.446
 9148SOL    HW228344   4.526   5.740   1.587
 9149SOL     OW28345   0.665   3.490   1.635
 9149SOL    HW128346   0.730   3.432   1.586
 9149SOL    HW228347   0.666   3.582   1.596
 9150SOL     OW28348   2.778   3.872   6.807
 9150SOL    HW128349   2.712   3.804   6.839
 9150SOL    HW228350   2.732   3.960   6.794
 9151SOL     OW28351   2.169   2.997   3.744
 9151SOL    HW128352   2.171   3.095   3.761
 9151SOL    HW228353   2.156   2.948   3.830
 9152SOL     OW28354   1.889   4.373   2.519
 9152SOL    HW128355   1.792   4.390   2.507
 9152SOL    HW228356   1.938   4.459   2.532
 9153SOL     OW28357   0.093   3.265   0.352
 9153SOL    HW128358   7.018   3.250   0.381
 9153SOL    HW228359   0.147   3.183   0.371
 9154SOL     OW28360   4.832   4.895   3.417
 9154SOL    HW128361   4.869   4.935   3.502
 9154SOL    HW228362   4.764   4.826   3.440
 9155SOL     OW28363   1.004   6.335   2.905
 9155SOL    HW128364   1.023   6.362   2.999
 9155SOL    HW228365   0.919   6.377   2.875
 9156SOL     OW28366   0.172   3.879   5.768
 9156SOL    HW128367   0.144   3.812   5.837
 9156SOL    HW228368   0.241   3.837   5.708
 9157SOL     OW28369   1.807   4.623   5.244
 9157SOL    HW128370   1.827   4.526   5.258
 9157SOL    HW228371   1.866   4.659   5.171
 9158SOL     OW28372   6.949   3.248   4.666
 9158SOL    HW128373   7.007   3.326   4.690
 9158SOL    HW228374   6.995   3.192   4.598
 9159SOL     OW28375   2.578   1.150   3.888
 9159SOL    HW128376   2.643   1.197   3.829
 9159SOL    HW228377   2.560   1.058   3.853
 9160SOL     OW28378   1.002   2.907   6.602
 9160SOL    HW128379   0.929   2.931   6.538
 9160SOL    HW228380   0.966   2.909   6.695
 9161SOL     OW28381   6.173   2.910   3.188
 9161SOL    HW128382   6.102   2.974   3.160
 9161SOL    HW228383   6.132   2.822   3.213
 9162SOL     OW28384   3.794   2.237   1.615
 9162SOL    HW128385   3.886   2.204   1.636
 9162SOL    HW228386   3.741   2.243   1.700
 9163SOL     OW28387   1.802   2.804   4.035
 9163SOL    HW128388   1.728   2.868   4.016
 9163SOL    HW228389   1.865   2.845   4.101
 9164SOL     OW28390   2.521   6.168   6.713
 9164SOL    HW128391   2.434   6.137   6.676
 9164SOL    HW228392   2.553   6.248   6.662
 9165SOL     OW28393   5.878   1.283   6.394
 9165SOL    HW128394   5.892   1.257   6.490
 9165SOL    HW228395   5.790   1.329   6.385
 9166SOL     OW28396   4.345   6.473   1.879
 9166SOL    HW128397   4.436   6.437   1.860
 9166SOL    HW228398   4.324   6.549   1.818
 9167SOL     OW28399   1.511   1.628   4.554
 9167SOL    HW128400   1.525   1.530   4.538
 9167SOL    HW228401   1.599   1.675   4.550
 9168SOL     OW28402   6.257   5.847   5.251
 9168SOL    HW128403   6.281   5.796   5.333
 9168SOL    HW228404   6.316   5.927   5.242
 9169SOL     OW28405   6.508   5.973   7.019
 9169SOL    HW128406   6.466   6.034   0.067
 9169SOL    HW228407   6.452   5.891   7.008
 9170SOL     OW28408   2.347   0.704   5.844
 9170SOL    HW128409   2.389   0.625   5.888
 9170SOL    HW228410   2.305   0.762   5.913
 9171SOL     OW28411   3.257   5.969   7.013
 9171SOL    HW128412   3.195   5.932   6.944
 9171SOL    HW228413   3.333   5.905   0.009
 9172SOL     OW28414   4.388   1.501   5.533
 9172SOL    HW128415   4.426   1.421   5.487
 9172SOL    HW228416   4.288   1.497   5.531
 9173SOL     OW28417   6.031   3.778   5.445
 9173SOL    HW128418   6.024   3.709   5.373
 9173SOL    HW228419   5.980   3.860   5.418
 9174SOL     OW28420   6.097   4.697   1.009
 9174SOL    HW128421   6.148   4.690   0.924
 9174SOL    HW228422   6.151   4.659   1.084
 9175SOL     OW28423   1.964   0.813   1.222
 9175SOL    HW128424   1.972   0.714   1.237
 9175SOL    HW228425   2.009   0.838   1.136
 9176SOL     OW28426   1.630   0.844   2.273
 9176SOL    HW128427   1.651   0.922   2.215
 9176SOL    HW228428   1.627   0.761   2.218
 9177SOL     OW28429   1.064   5.882   3.574
 9177SOL    HW128430   1.115   5.937   3.640
 9177SOL    HW228431   0.967   5.907   3.579
 9178SOL     OW28432   1.143   4.017   1.240
 9178SOL    HW128433   1.141   4.086   1.313
 9178SOL    HW228434   1.092   4.052   1.161
 9179SOL     OW28435   4.148   5.030   3.645
 9179SOL    HW128436   4.111   5.026   3.738
 9179SOL    HW228437   4.169   4.938   3.613
 9180SOL     OW28438   0.633   0.475   5.337
 9180SOL    HW128439   0.709   0.447   5.279
 9180SOL    HW228440   0.600   0.398   5.391
 9181SOL     OW28441   2.696   1.667   3.677
 9181SOL    HW128442   2.605   1.652   3.716
 9181SOL    HW228443   2.759   1.692   3.750
 9182SOL     OW28444   6.991   1.837   2.815
 9182SOL    HW128445   6.974   1.759   2.755
 9182SOL    HW228446   0.057   1.822   2.865
 9183SOL     OW28447   1.935   1.353   5.931
 9183SOL    HW128448   1.924   1.315   5.839
 9183SOL    HW228449   1.928   1.453   5.928
 9184SOL     OW28450   2.669   4.604   1.355
 9184SOL    HW128451   2.631   4.668   1.289
 9184SOL    HW228452   2.763   4.580   1.328
 9185SOL     OW28453   1.409   0.269   6.148
 9185SOL    HW128454   1.345   0.276   6.224
 9185SOL    HW228455   1.374   0.204   6.080
 9186SOL     OW28456   5.530   6.237   6.527
 9186SOL    HW128457   5.558   6.199   6.615
 9186SOL    HW228458   5.607   6.237   6.464
 9187SOL     OW28459   4.942   2.660   1.065
 9187SOL    HW128460   4.901   2.708   1.142
 9187SOL    HW228461   4.944   2.721   0.986
 9188SOL     OW28462   1.296   0.092   1.783
 9188SOL    HW128463   1.230   0.021   1.809
 9188SOL    HW228464   1.253   0.182   1.791
 9189SOL     OW28465   3.123   0.383   5.477
 9189SOL    HW128466   3.197   0.338   5.527
 9189SOL    HW228467   3.089   0.321   5.406
 9190SOL     OW28468   4.224   1.121   5.729
 9190SOL    HW128469   4.277   1.166   5.657
 9190SOL    HW228470   4.277   1.045   5.767
 9191SOL     OW28471   5.363   6.635   1.766
 9191SOL    HW128472   5.280   6.682   1.799
 9191SOL    HW228473   5.438   6.700   1.760
 9192SOL     OW28474   4.727   4.234   4.691
 9192SOL    HW128475   4.700   4.312   4.747
 9192SOL    HW228476   4.823   4.212   4.709
 9193SOL     OW28477   4.030   3.813   3.128
 9193SOL    HW128478   4.044   3.715   3.141
 9193SOL    HW228479   4.002   3.854   3.214
 9194SOL     OW28480   3.932   4.888   3.159
 9194SOL    HW128481   3.998   4.834   3.108
 9194SOL    HW228482   3.858   4.917   3.098
 9195SOL     OW28483   0.619   2.422   3.215
 9195SOL    HW128484   0.652   2.390   3.126
 9195SOL    HW228485   0.582   2.345   3.267
 9196SOL     OW28486   5.031   5.768   3.610
 9196SOL    HW128487   4.988   5.854   3.638
 9196SOL    HW228488   5.024   5.757   3.511
 9197SOL     OW28489   4.437   1.349   0.066
 9197SOL    HW128490   4.350   1.380   0.028
 9197SOL    HW228491   4.512   1.392   0.016
 9198SOL     OW28492   5.919   2.715   5.280
 9198SOL    HW128493   5.874   2.742   5.365
 9198SOL    HW228494   5.945   2.619   5.284
 9199SOL     OW28495   1.158   3.599   6.553
 9199SOL    HW128496   1.106   3.599   6.638
 9199SOL    HW228497   1.112   3.659   6.487
 9200SOL     OW28498   5.280   5.915   1.312
 9200SOL    HW128499   5.346   5.853   1.270
 9200SOL    HW228500   5.297   5.920   1.410
 9201SOL     OW28501   0.102   3.335   1.851
 9201SOL    HW128502   0.020   3.280   1.869
 9201SOL    HW228503   0.148   3.300   1.770
 9202SOL     OW28504   2.733   6.286   4.374
 9202SOL    HW128505   2.832   6.287   4.356
 9202SOL    HW228506   2.686   6.247   4.296
 9203SOL     OW28507   4.923   0.838   0.111
 9203SOL    HW128508   4.824   0.826   0.113
 9203SOL    HW228509   4.952   0.868   0.021
 9204SOL     OW28510   4.904   4.816   2.788
 9204SOL    HW128511   4.861   4.726   2.787
 9204SOL    HW228512   4.924   4.842   2.882
 9205SOL     OW28513   4.140   2.459   1.458
 9205SOL    HW128514   4.157   2.374   1.408
 9205SOL    HW228515   4.227   2.503   1.480
 9206SOL     OW28516   6.306   6.427   4.776
 9206SOL    HW128517   6.318   6.331   4.752
 9206SOL    HW228518   6.209   6.450   4.772
 9207SOL     OW28519   4.362   6.621   0.367
 9207SOL    HW128520   4.325   6.632   0.460
 9207SOL    HW228521   4.405   6.531   0.358
 9208SOL     OW28522   4.571   4.603   1.097
 9208SOL    HW128523   4.479   4.612   1.058
 9208SOL    HW228524   4.569   4.540   1.174
 9209SOL     OW28525   4.484   6.998   3.754
 9209SOL    HW128526   4.450   0.017   3.840
 9209SOL    HW228527   4.462   6.900   3.751
 9210SOL     OW28528   0.728   6.762   6.896
 9210SOL    HW128529   0.680   6.674   6.897
 9210SOL    HW228530   0.720   6.805   6.986
 9211SOL     OW28531   4.774   1.031   6.497
 9211SOL    HW128532   4.765   1.072   6.588
 9211SOL    HW228533   4.800   1.102   6.431
 9212SOL     OW28534   6.238   3.501   5.501
 9212SOL    HW128535   6.231   3.412   5.455
 9212SOL    HW228536   6.193   3.495   5.591
 9213SOL     OW28537   6.393   5.955   1.626
 9213SOL    HW128538   6.452   6.016   1.678
 9213SOL    HW228539   6.328   5.910   1.688
 9214SOL     OW28540   1.805   1.480   6.373
 9214SOL    HW128541   1.859   1.555   6.335
 9214SOL    HW228542   1.755   1.512   6.453
 9215SOL     OW28543   0.245   3.723   3.785
 9215SOL    HW128544   0.271   3.645   3.727
 9215SOL    HW228545   0.253   3.808   3.733
 9216SOL     OW28546   2.488   6.514   3.475
 9216SOL    HW128547   2.408   6.571   3.456
 9216SOL    HW228548   2.567   6.548   3.425
 9217SOL     OW28549   3.924   2.093   0.164
 9217SOL    HW128550   3.849   2.028   0.171
 9217SOL    HW228551   3.899   2.165   0.098
 9218SOL     OW28552   4.999   5.942   5.876
 9218SOL    HW128553   5.020   5.857   5.926
 9218SOL    HW228554   4.952   6.006   5.936
 9219SOL     OW28555   3.227   2.076   5.669
 9219SOL    HW128556   3.191   2.163   5.637
 9219SOL    HW228557   3.187   2.001   5.615
 9220SOL     OW28558   0.484   6.401   3.233
 9220SOL    HW128559   0.427   6.483   3.225
 9220SOL    HW228560   0.491   6.375   3.329
 9221SOL     OW28561   2.722   1.892   1.661
 9221SOL    HW128562   2.653   1.913   1.592
 9221SOL    HW228563   2.785   1.969   1.670
 9222SOL     OW28564   1.797   5.269   3.339
 9222SOL    HW128565   1.888   5.228   3.345
 9222SOL    HW228566   1.798   5.359   3.382
 9223SOL     OW28567   6.961   3.117   4.959
 9223SOL    HW128568   6.867   3.134   4.931
 9223SOL    HW228569   0.002   3.122   4.879
 9224SOL     OW28570   1.869   4.685   2.163
 9224SOL    HW128571   1.791   4.678   2.101
 9224SOL    HW228572   1.837   4.683   2.258
 9225SOL     OW28573   0.760   5.713   6.007
 9225SOL    HW128574   0.713   5.769   5.938
 9225SOL    HW228575   0.822   5.771   6.060
 9226SOL     OW28576   0.805   0.611   4.843
 9226SOL    HW128577   0.845   0.703   4.839
 9226SOL    HW228578   0.805   0.571   4.751
 9227SOL     OW28579   3.606   4.068   0.676
 9227SOL    HW128580   3.560   4.082   0.763
 9227SOL    HW228581   3.539   4.070   0.602
 9228SOL     OW28582   3.827   3.606   5.176
 9228SOL    HW128583   3.733   3.582   5.198
 9228SOL    HW228584   3.830   3.654   5.088
 9229SOL     OW28585   0.142   5.307   0.133
 9229SOL    HW128586   0.134   5.219   0.181
 9229SOL    HW228587   0.184   5.292   0.044
 9230SOL     OW28588   4.323   7.014   5.362
 9230SOL    HW128589   4.416   0.029   5.373
 9230SOL    HW228590   4.267   0.025   5.440
 9231SOL     OW28591   6.113   6.067   1.634
 9231SOL    HW128592   6.117   5.979   1.681
 9231SOL    HW228593   6.062   6.058   1.549
 9232SOL     OW28594   1.740   5.885   2.578
 9232SOL    HW128595   1.744   5.788   2.602
 9232SOL    HW228596   1.672   5.931   2.635
 9233SOL     OW28597   0.821   0.130   5.741
 9233SOL    HW128598   0.731   0.158   5.707
 9233SOL    HW228599   0.885   0.125   5.665
 9234SOL     OW28600   3.483   4.203   6.073
 9234SOL    HW128601   3.455   4.272   6.006
 9234SOL    HW228602   3.547   4.139   6.030
 9235SOL     OW28603   2.436   2.500   2.877
 9235SOL    HW128604   2.355   2.510   2.935
 9235SOL    HW228605   2.480   2.412   2.896
 9236SOL     OW28606   1.112   3.430   5.851
 9236SOL    HW128607   1.203   3.470   5.863
 9236SOL    HW228608   1.098   3.360   5.921
 9237SOL     OW28609   6.554   4.796   3.297
 9237SOL    HW128610   6.596   4.881   3.328
 9237SOL    HW228611   6.625   4.726   3.285
 9238SOL     OW28612   1.523   2.677   4.781
 9238SOL    HW128613   1.483   2.763   4.812
 9238SOL    HW228614   1.622   2.680   4.794
 9239SOL     OW28615   1.319   5.903   6.157
 9239SOL    HW128616   1.357   5.900   6.249
 9239SOL    HW228617   1.394   5.898   6.090
 9240SOL     OW28618   3.689   1.820   3.943
 9240SOL    HW128619   3.658   1.738   3.991
 9240SOL    HW228620   3.665   1.901   3.995
 9241SOL     OW28621   5.934   6.223   7.009
 9241SOL    HW128622   5.906   6.127   7.011
 9241SOL    HW228623   5.880   6.272   6.941
 9242SOL     OW28624   1.941   2.975   0.657
 9242SOL    HW128625   2.016   3.006   0.716
 9242SOL    HW228626   1.917   2.881   0.681
 9243SOL     OW28627   2.249   0.140   0.554
 9243SOL    HW128628   2.155   0.123   0.525
 9243SOL    HW228629   2.256   0.231   0.594
 9244SOL     OW28630   2.403   6.072   6.960
 9244SOL    HW128631   2.310   6.109   6.970
 9244SOL    HW228632   2.450   6.119   6.886
 9245SOL     OW28633   0.819   4.949   2.763
 9245SOL    HW128634   0.736   4.998   2.788
 9245SOL    HW228635   0.899   5.003   2.789
 9246SOL     OW28636   4.794   6.268   6.975
 9246SOL    HW128637   4.813   6.365   6.992
 9246SOL    HW228638   4.708   6.259   6.924
 9247SOL     OW28639   3.580   6.474   2.938
 9247SOL    HW128640   3.563   6.456   2.841
 9247SOL    HW228641   3.596   6.572   2.952
 9248SOL     OW28642   2.919   0.196   6.559
 9248SOL    HW128643   3.006   0.237   6.588
 9248SOL    HW228644   2.934   0.100   6.536
 9249SOL     OW28645   3.293   0.050   0.458
 9249SOL    HW128646   3.232   0.122   0.426
 9249SOL    HW228647   3.368   0.038   0.393
 9250SOL     OW28648   0.279   3.777   3.107
 9250SOL    HW128649   0.243   3.822   3.025
 9250SOL    HW228650   0.368   3.736   3.085
 9251SOL     OW28651   3.451   1.919   1.020
 9251SOL    HW128652   3.480   1.979   1.095
 9251SOL    HW228653   3.412   1.835   1.058
 9252SOL     OW28654   5.330   1.550   4.487
 9252SOL    HW128655   5.423   1.552   4.450
 9252SOL    HW228656   5.332   1.505   4.577
 9253SOL     OW28657   2.334   5.225   4.207
 9253SOL    HW128658   2.398   5.257   4.276
 9253SOL    HW228659   2.281   5.302   4.172
 9254SOL     OW28660   0.020   5.428   2.170
 9254SOL    HW128661   7.013   5.515   2.128
 9254SOL    HW228662   0.120   5.424   2.179
 9255SOL     OW28663   6.008   3.578   0.947
 9255SOL    HW128664   6.011   3.621   0.857
 9255SOL    HW228665   5.945   3.501   0.945
 9256SOL     OW28666   2.426   6.336   1.160
 9256SOL    HW128667   2.400   6.419   1.112
 9256SOL    HW228668   2.348   6.273   1.163
 9257SOL     OW28669   6.325   6.145   4.773
 9257SOL    HW128670   6.306   6.055   4.734
 9257SOL    HW228671   6.301   6.145   4.870
 9258SOL     OW28672   5.093   4.853   2.150
 9258SOL    HW128673   5.148   4.879   2.070
 9258SOL    HW228674   5.118   4.910   2.228
 9259SOL     OW28675   0.737   2.259   0.024
 9259SOL    HW128676   0.659   2.265   0.087
 9259SOL    HW228677   0.822   2.277   0.075
 9260SOL     OW28678   4.917   4.085   4.983
 9260SOL    HW128679   4.900   4.031   4.900
 9260SOL    HW228680   5.000   4.139   4.971
 9261SOL     OW28681   1.771   3.251   1.986
 9261SOL    HW128682   1.709   3.249   1.907
 9261SOL    HW228683   1.829   3.333   1.981
 9262SOL     OW28684   6.876   6.524   5.785
 9262SOL    HW128685   6.963   6.555   5.823
 9262SOL    HW228686   6.869   6.425   5.795
 9263SOL     OW28687   2.550   4.531   2.893
 9263SOL    HW128688   2.545   4.457   2.827
 9263SOL    HW228689   2.576   4.616   2.847
 9264SOL     OW28690   5.220   3.736   5.439
 9264SOL    HW128691   5.164   3.673   5.493
 9264SOL    HW228692   5.287   3.781   5.498
 9265SOL     OW28693   4.860   0.588   1.724
 9265SOL    HW128694   4.809   0.524   1.666
 9265SOL    HW228695   4.810   0.675   1.729
 9266SOL     OW28696   1.150   4.871   1.166
 9266SOL    HW128697   1.183   4.828   1.250
 9266SOL    HW228698   1.179   4.817   1.087
 9267SOL     OW28699   6.741   1.613   4.276
 9267SOL    HW128700   6.801   1.551   4.327
 9267SOL    HW228701   6.756   1.707   4.307
 9268SOL     OW28702   0.802   1.062   1.640
 9268SOL    HW128703   0.714   1.065   1.592
 9268SOL    HW228704   0.812   1.145   1.696
 9269SOL     OW28705   4.279   0.419   1.181
 9269SOL    HW128706   4.251   0.502   1.134
 9269SOL    HW228707   4.299   0.348   1.114
 9270SOL     OW28708   2.797   1.124   5.097
 9270SOL    HW128709   2.700   1.113   5.119
 9270SOL    HW228710   2.828   1.213   5.128
 9271SOL     OW28711   1.333   4.596   5.719
 9271SOL    HW128712   1.391   4.575   5.640
 9271SOL    HW228713   1.257   4.654   5.690
 9272SOL     OW28714   6.281   6.266   5.484
 9272SOL    HW128715   6.374   6.289   5.514
 9272SOL    HW228716   6.215   6.300   5.552
 9273SOL     OW28717   5.612   3.841   4.076
 9273SOL    HW128718   5.547   3.916   4.065
 9273SOL    HW228719   5.592   3.770   4.008
 9274SOL     OW28720   0.304   3.689   0.013
 9274SOL    HW128721   0.301   3.731   0.104
 9274SOL    HW228722   0.217   3.704   6.986
 9275SOL     OW28723   5.651   1.241   0.599
 9275SOL    HW128724   5.606   1.330   0.607
 9275SOL    HW228725   5.582   1.169   0.589
 9276SOL     OW28726   2.356   4.199   7.014
 9276SOL    HW128727   2.390   4.291   6.994
 9276SOL    HW228728   2.339   4.190   0.093
 9277SOL     OW28729   4.332   5.694   2.203
 9277SOL    HW128730   4.352   5.739   2.290
 9277SOL    HW228731   4.352   5.757   2.127
 9278SOL     OW28732   0.683   6.908   5.835
 9278SOL    HW128733   0.629   6.984   5.872
 9278SOL    HW228734   0.740   6.941   5.760
 9279SOL     OW28735   2.782   6.147   2.029
 9279SOL    HW128736   2.712   6.186   1.970
 9279SOL    HW228737   2.862   6.122   1.975
 9280SOL     OW28738   1.361   5.625   2.470
 9280SOL    HW128739   1.336   5.597   2.377
 9280SOL    HW228740   1.456   5.654   2.471
 9281SOL     OW28741   1.460   5.797   0.747
 9281SOL    HW128742   1.463   5.889   0.707
 9281SOL    HW228743   1.461   5.729   0.674
 9282SOL     OW28744   2.408   0.009   4.885
 9282SOL    HW128745   2.392   6.994   4.792
 9282SOL    HW228746   2.405   0.109   4.885
 9283SOL     OW28747   4.680   5.856   0.047
 9283SOL    HW128748   4.610   5.922   0.019
 9283SOL    HW228749   4.640   5.787   0.107
 9284SOL     OW28750   4.031   6.515   0.846
 9284SOL    HW128751   4.122   6.479   0.867
 9284SOL    HW228752   3.986   6.543   0.931
 9285SOL     OW28753   0.044   6.083   3.819
 9285SOL    HW128754   0.122   6.136   3.852
 9285SOL    HW228755   0.036   5.999   3.871
 9286SOL     OW28756   4.911   6.656   1.899
 9286SOL    HW128757   4.858   6.673   1.982
 9286SOL    HW228758   4.848   6.647   1.821
 9287SOL     OW28759   4.693   3.909   6.805
 9287SOL    HW128760   4.706   3.838   6.735
 9287SOL    HW228761   4.600   3.945   6.798
 9288SOL     OW28762   3.798   1.850   2.482
 9288SOL    HW128763   3.700   1.839   2.465
 9288SOL    HW228764   3.848   1.776   2.438
 9289SOL     OW28765   4.445   6.323   1.559
 9289SOL    HW128766   4.489   6.306   1.647
 9289SOL    HW228767   4.476   6.256   1.492
 9290SOL     OW28768   5.693   1.097   3.540
 9290SOL    HW128769   5.740   1.111   3.627
 9290SOL    HW228770   5.668   1.185   3.501
 9291SOL     OW28771   0.506   4.115   5.800
 9291SOL    HW128772   0.458   4.115   5.712
 9291SOL    HW228773   0.451   4.065   5.867
 9292SOL     OW28774   0.471   1.842   6.734
 9292SOL    HW128775   0.381   1.845   6.691
 9292SOL    HW228776   0.477   1.912   6.806
 9293SOL     OW28777   4.553   1.682   5.642
 9293SOL    HW128778   4.553   1.680   5.742
 9293SOL    HW228779   4.480   1.623   5.608
 9294SOL     OW28780   4.940   6.516   0.011
 9294SOL    HW128781   4.920   6.590   0.076
 9294SOL    HW228782   4.906   6.541   6.940
 9295SOL     OW28783   6.483   0.563   3.380
 9295SOL    HW128784   6.429   0.479   3.374
 9295SOL    HW228785   6.575   0.546   3.346
 9296SOL     OW28786   2.046   4.423   5.564
 9296SOL    HW128787   2.088   4.375   5.487
 9296SOL    HW228788   2.002   4.356   5.624
 9297SOL     OW28789   7.016   4.857   1.766
 9297SOL    HW128790   7.006   4.769   1.812
 9297SOL    HW228791   6.926   4.899   1.756
 9298SOL     OW28792   0.275   4.100   6.455
 9298SOL    HW128793   0.195   4.158   6.466
 9298SOL    HW228794   0.290   4.047   6.538
 9299SOL     OW28795   3.149   1.636   4.145
 9299SOL    HW128796   3.222   1.578   4.180
 9299SOL    HW228797   3.124   1.704   4.214
 9300SOL     OW28798   3.040   5.811   5.451
 9300SOL    HW128799   2.994   5.897   5.472
 9300SOL    HW228800   3.127   5.830   5.406
 9301SOL     OW28801   0.790   4.090   4.016
 9301SOL    HW128802   0.870   4.081   4.074
 9301SOL    HW228803   0.805   4.163   3.949
 9302SOL     OW28804   3.061   5.595   3.997
 9302SOL    HW128805   3.043   5.583   4.095
 9302SOL    HW228806   3.036   5.688   3.970
 9303SOL     OW28807   2.554   4.721   0.146
 9303SOL    HW128808   2.539   4.678   0.235
 9303SOL    HW228809   2.470   4.767   0.116
 9304SOL     OW28810   5.295   5.789   6.439
 9304SOL    HW128811   5.371   5.850   6.463
 9304SOL    HW228812   5.331   5.705   6.399
 9305SOL     OW28813   1.575   1.763   1.107
 9305SOL    HW128814   1.491   1.731   1.150
 9305SOL    HW228815   1.578   1.733   1.012
 9306SOL     OW28816   6.873   6.044   4.627
 9306SOL    HW128817   6.927   6.125   4.647
 9306SOL    HW228818   6.776   6.068   4.625
 9307SOL     OW28819   2.074   3.545   1.515
 9307SOL    HW128820   2.001   3.485   1.546
 9307SOL    HW228821   2.146   3.548   1.585
 9308SOL     OW28822   2.322   3.602   1.670
 9308SOL    HW128823   2.302   3.547   1.751
 9308SOL    HW228824   2.412   3.578   1.634
 9309SOL     OW28825   4.697   5.111   6.227
 9309SOL    HW128826   4.790   5.094   6.259
 9309SOL    HW228827   4.633   5.097   6.303
 9310SOL     OW28828   6.093   6.334   5.278
 9310SOL    HW128829   6.156   6.288   5.341
 9310SOL    HW228830   5.999   6.315   5.306
 9311SOL     OW28831   5.772   4.109   0.633
 9311SOL    HW128832   5.725   4.103   0.721
 9311SOL    HW228833   5.709   4.085   0.560
 9312SOL     OW28834   6.412   2.871   4.019
 9312SOL    HW128835   6.501   2.828   4.004
 9312SOL    HW228836   6.339   2.806   3.998
 9313SOL     OW28837   0.426   0.843   2.572
 9313SOL    HW128838   0.365   0.764   2.568
 9313SOL    HW228839   0.521   0.812   2.571
 9314SOL     OW28840   5.324   5.473   1.422
 9314SOL    HW128841   5.344   5.549   1.484
 9314SOL    HW228842   5.270   5.506   1.345
 9315SOL     OW28843   5.884   5.556   5.600
 9315SOL    HW128844   5.815   5.624   5.576
 9315SOL    HW228845   5.881   5.480   5.535
 9316SOL     OW28846   5.047   6.826   1.136
 9316SOL    HW128847   4.991   6.747   1.163
 9316SOL    HW228848   5.125   6.834   1.198
 9317SOL     OW28849   2.227   6.087   3.981
 9317SOL    HW128850   2.279   6.003   3.989
 9317SOL    HW228851   2.229   6.119   3.886
 9318SOL     OW28852   3.299   6.673   2.608
 9318SOL    HW128853   3.395   6.700   2.619
 9318SOL    HW228854   3.288   6.625   2.521
 9319SOL     OW28855   4.224   2.088   0.175
 9319SOL    HW128856   4.132   2.116   0.150
 9319SOL    HW228857   4.291   2.145   0.128
 9320SOL     OW28858   6.597   6.700   6.668
 9320SOL    HW128859   6.565   6.703   6.573
 9320SOL    HW228860   6.578   6.609   6.706
 9321SOL     OW28861   0.960   2.883   3.767
 9321SOL    HW128862   1.006   2.960   3.723
 9321SOL    HW228863   1.025   2.807   3.776
 9322SOL     OW28864   4.907   2.402   0.193
 9322SOL    HW128865   4.836   2.416   0.124
 9322SOL    HW228866   4.985   2.461   0.173
 9323SOL     OW28867   0.114   2.507   5.833
 9323SOL    HW128868   0.148   2.586   5.885
 9323SOL    HW228869   0.163   2.501   5.746
 9324SOL     OW28870   0.305   5.141   1.361
 9324SOL    HW128871   0.244   5.081   1.413
 9324SOL    HW228872   0.257   5.179   1.282
 9325SOL     OW28873   0.861   4.704   3.316
 9325SOL    HW128874   0.765   4.681   3.326
 9325SOL    HW228875   0.876   4.748   3.227
 9326SOL     OW28876   4.824   4.730   0.689
 9326SOL    HW128877   4.912   4.683   0.703
 9326SOL    HW228878   4.827   4.780   0.603
 9327SOL     OW28879   2.846   1.586   3.479
 9327SOL    HW128880   2.777   1.600   3.550
 9327SOL    HW228881   2.935   1.616   3.514
 9328SOL     OW28882   2.182   0.759   3.376
 9328SOL    HW128883   2.097   0.761   3.323
 9328SOL    HW228884   2.174   0.690   3.448
 9329SOL     OW28885   1.316   5.568   6.191
 9329SOL    HW128886   1.262   5.517   6.123
 9329SOL    HW228887   1.300   5.529   6.282
 9330SOL     OW28888   0.879   6.845   0.679
 9330SOL    HW128889   0.865   6.855   0.777
 9330SOL    HW228890   0.914   6.931   0.642
 9331SOL     OW28891   2.078   4.678   4.305
 9331SOL    HW128892   2.152   4.669   4.238
 9331SOL    HW228893   1.992   4.648   4.264
 9332SOL     OW28894   6.642   5.141   0.116
 9332SOL    HW128895   6.601   5.057   0.082
 9332SOL    HW228896   6.612   5.158   0.210
 9333SOL     OW28897   2.407   5.007   1.327
 9333SOL    HW128898   2.496   5.052   1.331
 9333SOL    HW228899   2.370   4.997   1.419
 9334SOL     OW28900   6.715   5.528   6.453
 9334SOL    HW128901   6.787   5.461   6.434
 9334SOL    HW228902   6.733   5.572   6.541
 9335SOL     OW28903   0.200   3.549   1.025
 9335SOL    HW128904   0.190   3.505   1.114
 9335SOL    HW228905   0.291   3.591   1.019
 9336SOL     OW28906   4.854   6.136   5.496
 9336SOL    HW128907   4.773   6.099   5.451
 9336SOL    HW228908   4.888   6.071   5.563
 9337SOL     OW28909   2.500   1.485   5.474
 9337SOL    HW128910   2.488   1.573   5.520
 9337SOL    HW228911   2.541   1.499   5.384
 9338SOL     OW28912   5.078   6.796   0.790
 9338SOL    HW128913   5.132   6.713   0.799
 9338SOL    HW228914   4.988   6.782   0.831
 9339SOL     OW28915   6.771   3.572   5.303
 9339SOL    HW128916   6.780   3.499   5.371
 9339SOL    HW228917   6.681   3.566   5.259
 9340SOL     OW28918   2.621   4.763   2.725
 9340SOL    HW128919   2.666   4.769   2.636
 9340SOL    HW228920   2.664   4.828   2.788
 9341SOL     OW28921   5.862   5.203   0.094
 9341SOL    HW128922   5.897   5.114   0.122
 9341SOL    HW228923   5.870   5.267   0.170
 9342SOL     OW28924   3.048   0.329   5.202
 9342SOL    HW128925   3.026   0.235   5.174
 9342SOL    HW228926   3.103   0.372   5.130
 9343SOL     OW28927   4.921   3.872   1.120
 9343SOL    HW128928   4.855   3.850   1.048
 9343SOL    HW228929   4.882   3.846   1.209
 9344SOL     OW28930   5.821   0.127   4.742
 9344SOL    HW128931   5.874   0.044   4.723
 9344SOL    HW228932   5.879   0.193   4.790
 9345SOL     OW28933   0.138   4.801   6.839
 9345SOL    HW128934   0.234   4.789   6.863
 9345SOL    HW228935   0.108   4.892   6.867
 9346SOL     OW28936   5.112   0.524   2.199
 9346SOL    HW128937   5.199   0.551   2.239
 9346SOL    HW228938   5.058   0.605   2.176
 9347SOL     OW28939   4.805   6.128   1.856
 9347SOL    HW128940   4.903   6.116   1.868
 9347SOL    HW228941   4.772   6.067   1.784
 9348SOL     OW28942   2.676   5.194   2.200
 9348SOL    HW128943   2.653   5.271   2.140
 9348SOL    HW228944   2.655   5.108   2.154
 9349SOL     OW28945   6.554   6.163   0.780
 9349SOL    HW128946   6.489   6.090   0.804
 9349SOL    HW228947   6.515   6.219   0.706
 9350SOL     OW28948   6.226   0.255   0.170
 9350SOL    HW128949   6.153   0.195   0.139
 9350SOL    HW228950   6.304   0.200   0.201
 9351SOL     OW28951   4.213   3.460   6.299
 9351SOL    HW128952   4.312   3.454   6.289
 9351SOL    HW228953   4.185   3.556   6.292
 9352SOL     OW28954   2.797   2.414   6.475
 9352SOL    HW128955   2.712   2.445   6.432
 9352SOL    HW228956   2.872   2.474   6.447
 9353SOL     OW28957   1.069   3.011   1.443
 9353SOL    HW128958   1.075   3.087   1.379
 9353SOL    HW228959   1.089   2.925   1.396
 9354SOL     OW28960   5.457   2.171   2.099
 9354SOL    HW128961   5.366   2.205   2.074
 9354SOL    HW228962   5.452   2.072   2.115
 9355SOL     OW28963   0.067   1.596   2.072
 9355SOL    HW128964   0.097   1.515   2.021
 9355SOL    HW228965   0.146   1.639   2.116
 9356SOL     OW28966   5.797   3.130   2.661
 9356SOL    HW128967   5.841   3.107   2.747
 9356SOL    HW228968   5.712   3.077   2.652
 9357SOL     OW28969   2.262   4.686   0.704
 9357SOL    HW128970   2.269   4.773   0.655
 9357SOL    HW228971   2.327   4.685   0.780
 9358SOL     OW28972   4.887   3.673   2.512
 9358SOL    HW128973   4.925   3.719   2.431
 9358SOL    HW228974   4.918   3.578   2.514
 9359SOL     OW28975   4.944   5.355   6.023
 9359SOL    HW128976   5.022   5.359   5.961
 9359SOL    HW228977   4.975   5.327   6.114
 9360SOL     OW28978   1.047   1.074   4.981
 9360SOL    HW128979   1.072   1.005   5.049
 9360SOL    HW228980   1.129   1.121   4.949
 9361SOL     OW28981   2.396   1.066   2.307
 9361SOL    HW128982   2.320   1.131   2.313
 9361SOL    HW228983   2.467   1.104   2.249
 9362SOL     OW28984   2.171   1.980   3.205
 9362SOL    HW128985   2.074   2.003   3.218
 9362SOL    HW228986   2.226   2.029   3.272
 9363SOL     OW28987   1.541   6.440   2.167
 9363SOL    HW128988   1.569   6.536   2.169
 9363SOL    HW228989   1.614   6.385   2.125
 9364SOL     OW28990   5.398   4.573   0.956
 9364SOL    HW128991   5.414   4.480   0.923
 9364SOL    HW228992   5.471   4.600   1.019
 9365SOL     OW28993   2.574   0.983   4.228
 9365SOL    HW128994   2.515   1.061   4.210
 9365SOL    HW228995   2.547   0.939   4.313
 9366SOL     OW28996   3.005   1.094   1.947
 9366SOL    HW128997   3.051   1.153   2.014
 9366SOL    HW228998   3.050   1.004   1.945
 9367SOL     OW28999   6.431   6.498   4.202
 9367SOL    HW129000   6.490   6.523   4.279
 9367SOL    HW229001   6.469   6.535   4.117
 9368SOL     OW29002   4.527   2.838   0.517
 9368SOL    HW129003   4.571   2.757   0.479
 9368SOL    HW229004   4.428   2.824   0.521
 9369SOL     OW29005   0.056   2.309   5.584
 9369SOL    HW129006   0.143   2.357   5.577
 9369SOL    HW229007   0.025   2.310   5.679
 9370SOL     OW29008   5.849   5.617   3.035
 9370SOL    HW129009   5.841   5.638   2.937
 9370SOL    HW229010   5.939   5.578   3.053
 9371SOL     OW29011   1.052   6.706   0.168
 9371SOL    HW129012   1.012   6.670   0.252
 9371SOL    HW229013   1.121   6.642   0.134
 9372SOL     OW29014   5.743   6.344   0.395
 9372SOL    HW129015   5.793   6.265   0.431
 9372SOL    HW229016   5.804   6.400   0.339
 9373SOL     OW29017   5.412   2.454   4.614
 9373SOL    HW129018   5.480   2.386   4.587
 9373SOL    HW229019   5.341   2.460   4.544
 9374SOL     OW29020   4.761   4.291   0.590
 9374SOL    HW129021   4.747   4.197   0.618
 9374SOL    HW229022   4.859   4.312   0.591
 9375SOL     OW29023   6.872   1.244   4.186
 9375SOL    HW129024   6.914   1.194   4.261
 9375SOL    HW229025   6.932   1.318   4.157
 9376SOL     OW29026   1.849   2.734   1.527
 9376SOL    HW129027   1.795   2.792   1.588
 9376SOL    HW229028   1.938   2.717   1.569
 9377SOL     OW29029   6.294   4.882   2.677
 9377SOL    HW129030   6.300   4.968   2.727
 9377SOL    HW229031   6.294   4.900   2.579
 9378SOL     OW29032   3.407   5.664   1.401
 9378SOL    HW129033   3.409   5.624   1.310
 9378SOL    HW229034   3.447   5.755   1.399
 9379SOL     OW29035   6.070   4.781   5.095
 9379SOL    HW129036   6.109   4.822   5.013
 9379SOL    HW229037   6.141   4.773   5.165
 9380SOL     OW29038   5.925   5.725   6.237
 9380SOL    HW129039   5.876   5.641   6.213
 9380SOL    HW229040   5.993   5.744   6.166
 9381SOL     OW29041   1.361   0.986   0.494
 9381SOL    HW129042   1.403   1.076   0.481
 9381SOL    HW229043   1.429   0.915   0.479
 9382SOL     OW29044   5.204   2.249   2.143
 9382SOL    HW129045   5.120   2.296   2.116
 9382SOL    HW229046   5.232   2.280   2.234
 9383SOL     OW29047   6.082   5.169   5.562
 9383SOL    HW129048   6.155   5.232   5.532
 9383SOL    HW229049   6.051   5.115   5.484
 9384SOL     OW29050   3.747   6.270   3.012
 9384SOL    HW129051   3.820   6.248   2.947
 9384SOL    HW229052   3.687   6.339   2.972
 9385SOL     OW29053   4.048   0.842   4.330
 9385SOL    HW129054   3.960   0.800   4.351
 9385SOL    HW229055   4.090   0.794   4.253
 9386SOL     OW29056   4.194   0.416   5.382
 9386SOL    HW129057   4.289   0.444   5.365
 9386SOL    HW229058   4.157   0.374   5.299
 9387SOL     OW29059   3.800   6.019   1.038
 9387SOL    HW129060   3.856   6.091   0.997
 9387SOL    HW229061   3.810   6.020   1.137
 9388SOL     OW29062   6.328   6.760   2.314
 9388SOL    HW129063   6.382   6.677   2.300
 9388SOL    HW229064   6.323   6.811   2.228
 9389SOL     OW29065   3.601   1.558   0.172
 9389SOL    HW129066   3.559   1.604   0.094
 9389SOL    HW229067   3.536   1.552   0.247
 9390SOL     OW29068   2.904   5.743   1.315
 9390SOL    HW129069   2.957   5.712   1.393
 9390SOL    HW229070   2.965   5.784   1.247
 9391SOL     OW29071   0.156   0.893   5.595
 9391SOL    HW129072   0.251   0.867   5.608
 9391SOL    HW229073   0.130   0.879   5.499
 9392SOL     OW29074   1.193   6.810   4.377
 9392SOL    HW129075   1.273   6.775   4.425
 9392SOL    HW229076   1.144   6.735   4.334
 9393SOL     OW29077   3.958   1.838   5.206
 9393SOL    HW129078   3.890   1.912   5.200
 9393SOL    HW229079   3.944   1.774   5.131
 9394SOL     OW29080   5.465   2.677   1.512
 9394SOL    HW129081   5.522   2.737   1.568
 9394SOL    HW229082   5.433   2.600   1.567
 9395SOL     OW29083   1.905   2.964   6.287
 9395SOL    HW129084   1.810   2.950   6.316
 9395SOL    HW229085   1.908   2.971   6.188
 9396SOL     OW29086   6.557   0.817   6.812
 9396SOL    HW129087   6.593   0.819   6.719
 9396SOL    HW229088   6.458   0.827   6.809
 9397SOL     OW29089   2.654   1.487   1.205
 9397SOL    HW129090   2.722   1.440   1.262
 9397SOL    HW229091   2.682   1.582   1.191
 9398SOL     OW29092   2.137   1.836   0.869
 9398SOL    HW129093   2.174   1.926   0.846
 9398SOL    HW229094   2.155   1.773   0.794
 9399SOL     OW29095   6.480   0.285   5.538
 9399SOL    HW129096   6.525   0.283   5.627
 9399SOL    HW229097   6.486   0.194   5.496
 9400SOL     OW29098   4.010   1.901   3.465
 9400SOL    HW129099   4.011   1.855   3.376
 9400SOL    HW229100   4.076   1.857   3.526
 9401SOL     OW29101   4.115   0.186   3.663
 9401SOL    HW129102   4.027   0.231   3.652
 9401SOL    HW229103   4.182   0.252   3.698
 9402SOL     OW29104   2.111   4.919   0.357
 9402SOL    HW129105   2.199   4.898   0.399
 9402SOL    HW229106   2.115   5.010   0.313
 9403SOL     OW29107   5.740   0.870   4.981
 9403SOL    HW129108   5.702   0.779   4.998
 9403SOL    HW229109   5.840   0.866   4.985
 9404SOL     OW29110   1.238   4.252   5.577
 9404SOL    HW129111   1.298   4.332   5.584
 9404SOL    HW229112   1.205   4.243   5.483
 9405SOL     OW29113   6.947   0.222   0.815
 9405SOL    HW129114   6.874   0.274   0.770
 9405SOL    HW229115   0.006   0.215   0.754
 9406SOL     OW29116   6.671   1.061   5.589
 9406SOL    HW129117   6.631   1.015   5.509
 9406SOL    HW229118   6.771   1.061   5.581
 9407SOL     OW29119   3.648   5.904   3.227
 9407SOL    HW129120   3.609   5.996   3.227
 9407SOL    HW229121   3.704   5.892   3.145
 9408SOL     OW29122   4.237   2.044   6.790
 9408SOL    HW129123   4.276   1.988   6.716
 9408SOL    HW229124   4.189   1.984   6.854
 9409SOL     OW29125   5.917   3.355   3.517
 9409SOL    HW129126   5.911   3.395   3.608
 9409SOL    HW229127   5.972   3.272   3.521
 9410SOL     OW29128   4.506   6.705   2.023
 9410SOL    HW129129   4.406   6.698   2.033
 9410SOL    HW229130   4.544   6.614   2.007
 9411SOL     OW29131   4.610   5.735   1.278
 9411SOL    HW129132   4.640   5.673   1.206
 9411SOL    HW229133   4.667   5.817   1.279
 9412SOL     OW29134   6.079   2.867   2.223
 9412SOL    HW129135   6.170   2.907   2.230
 9412SOL    HW229136   6.010   2.934   2.249
 9413SOL     OW29137   3.703   5.128   4.047
 9413SOL    HW129138   3.700   5.029   4.044
 9413SOL    HW229139   3.791   5.160   4.012
 9414SOL     OW29140   2.346   0.891   2.512
 9414SOL    HW129141   2.379   0.963   2.452
 9414SOL    HW229142   2.266   0.847   2.471
 9415SOL     OW29143   2.699   0.911   2.187
 9415SOL    HW129144   2.710   0.946   2.280
 9415SOL    HW229145   2.712   0.811   2.187
 9416SOL     OW29146   1.593   2.026   1.132
 9416SOL    HW129147   1.667   2.038   1.199
 9416SOL    HW229148   1.579   1.929   1.115
 9417SOL     OW29149   2.011   0.474   4.386
 9417SOL    HW129150   1.985   0.397   4.443
 9417SOL    HW229151   2.110   0.489   4.392
 9418SOL     OW29152   4.276   4.366   1.318
 9418SOL    HW129153   4.242   4.277   1.286
 9418SOL    HW229154   4.214   4.403   1.386
 9419SOL     OW29155   3.619   5.530   4.258
 9419SOL    HW129156   3.634   5.447   4.206
 9419SOL    HW229157   3.597   5.605   4.196
 9420SOL     OW29158   1.167   1.323   4.607
 9420SOL    HW129159   1.229   1.287   4.537
 9420SOL    HW229160   1.207   1.405   4.648
 9421SOL     OW29161   1.552   5.239   4.424
 9421SOL    HW129162   1.562   5.193   4.335
 9421SOL    HW229163   1.639   5.280   4.450
 9422SOL     OW29164   4.268   1.068   2.807
 9422SOL    HW129165   4.302   1.053   2.714
 9422SOL    HW229166   4.341   1.049   2.872
 9423SOL     OW29167   4.992   0.009   4.704
 9423SOL    HW129168   4.990   0.103   4.737
 9423SOL    HW229169   4.985   6.966   4.782
 9424SOL     OW29170   3.240   6.083   4.359
 9424SOL    HW129171   3.276   6.173   4.336
 9424SOL    HW229172   3.214   6.035   4.275
 9425SOL     OW29173   1.415   4.600   3.114
 9425SOL    HW129174   1.477   4.660   3.064
 9425SOL    HW229175   1.322   4.638   3.114
 9426SOL     OW29176   3.417   5.813   0.918
 9426SOL    HW129177   3.385   5.785   0.827
 9426SOL    HW229178   3.511   5.847   0.911
 9427SOL     OW29179   3.181   4.860   4.385
 9427SOL    HW129180   3.189   4.766   4.418
 9427SOL    HW229181   3.161   4.860   4.287
 9428SOL     OW29182   4.866   6.072   2.310
 9428SOL    HW129183   4.883   5.977   2.285
 9428SOL    HW229184   4.914   6.132   2.246
 9429SOL     OW29185   6.963   3.275   2.731
 9429SOL    HW129186   7.000   3.335   2.802
 9429SOL    HW229187   6.959   3.325   2.644
 9430SOL     OW29188   5.451   6.988   1.923
 9430SOL    HW129189   5.410   6.972   2.012
 9430SOL    HW229190   5.509   0.050   1.926
 9431SOL     OW29191   6.394   3.754   1.098
 9431SOL    HW129192   6.436   3.728   1.184
 9431SOL    HW229193   6.352   3.845   1.107
 9432SOL     OW29194   6.740   6.890   4.441
 9432SOL    HW129195   6.704   6.981   4.422
 9432SOL    HW229196   6.751   6.878   4.540
 9433SOL     OW29197   3.339   5.081   4.739
 9433SOL    HW129198   3.260   5.022   4.755
 9433SOL    HW229199   3.388   5.050   4.658
 9434SOL     OW29200   5.782   4.537   2.887
 9434SOL    HW129201   5.699   4.593   2.889
 9434SOL    HW229202   5.757   4.441   2.901
 9435SOL     OW29203   1.766   1.736   4.562
 9435SOL    HW129204   1.846   1.710   4.508
 9435SOL    HW229205   1.741   1.830   4.541
 9436SOL     OW29206   2.178   2.194   5.937
 9436SOL    HW129207   2.187   2.231   6.029
 9436SOL    HW229208   2.138   2.263   5.877
 9437SOL     OW29209   0.811   5.117   3.792
 9437SOL    HW129210   0.894   5.165   3.763
 9437SOL    HW229211   0.753   5.179   3.846
 9438SOL     OW29212   0.627   6.761   2.126
 9438SOL    HW129213   0.670   6.811   2.201
 9438SOL    HW229214   0.694   6.744   2.054
 9439SOL     OW29215   1.691   2.852   1.688
 9439SOL    HW129216   1.768   2.901   1.729
 9439SOL    HW229217   1.651   2.790   1.756
 9440SOL     OW29218   4.351   5.897   5.206
 9440SOL    HW129219   4.449   5.895   5.186
 9440SOL    HW229220   4.302   5.941   5.130
 9441SOL     OW29221   1.765   5.727   5.301
 9441SOL    HW129222   1.772   5.812   5.353
 9441SOL    HW229223   1.704   5.664   5.350
 9442SOL     OW29224   0.499   3.666   1.292
 9442SOL    HW129225   0.547   3.714   1.366
 9442SOL    HW229226   0.508   3.567   1.306
 9443SOL     OW29227   2.117   3.036   1.562
 9443SOL    HW129228   2.039   3.017   1.503
 9443SOL    HW229229   2.174   3.107   1.519
 9444SOL     OW29230   0.871   4.041   5.914
 9444SOL    HW129231   0.823   4.091   5.842
 9444SOL    HW229232   0.843   4.075   6.004
 9445SOL     OW29233   6.229   3.449   1.733
 9445SOL    HW129234   6.214   3.352   1.716
 9445SOL    HW229235   6.141   3.496   1.739
 9446SOL     OW29236   5.925   4.705   0.765
 9446SOL    HW129237   5.840   4.654   0.767
 9446SOL    HW229238   5.963   4.710   0.858
 9447SOL     OW29239   5.921   2.404   1.501
 9447SOL    HW129240   5.985   2.409   1.424
 9447SOL    HW229241   5.834   2.445   1.475
 9448SOL     OW29242   6.165   6.303   0.398
 9448SOL    HW129243   6.190   6.376   0.335
 9448SOL    HW229244   6.215   6.220   0.375
 9449SOL     OW29245   6.766   5.026   5.263
 9449SOL    HW129246   6.811   4.938   5.275
 9449SOL    HW229247   6.776   5.081   5.346
 9450SOL     OW29248   2.810   5.630   4.210
 9450SOL    HW129249   2.776   5.575   4.286
 9450SOL    HW229250   2.894   5.677   4.237
 9451SOL     OW29251   4.243   4.144   5.812
 9451SOL    HW129252   4.232   4.243   5.803
 9451SOL    HW229253   4.316   4.124   5.878
 9452SOL     OW29254   2.915   4.329   1.257
 9452SOL    HW129255   2.896   4.426   1.242
 9452SOL    HW229256   3.012   4.317   1.278
 9453SOL     OW29257   3.065   5.360   1.418
 9453SOL    HW129258   3.066   5.382   1.320
 9453SOL    HW229259   3.101   5.438   1.469
 9454SOL     OW29260   1.820   1.779   5.355
 9454SOL    HW129261   1.748   1.806   5.418
 9454SOL    HW229262   1.905   1.765   5.406
 9455SOL     OW29263   2.622   2.134   2.270
 9455SOL    HW129264   2.663   2.220   2.241
 9455SOL    HW229265   2.535   2.153   2.315
 9456SOL     OW29266   1.249   3.749   0.821
 9456SOL    HW129267   1.305   3.730   0.901
 9456SOL    HW229268   1.279   3.690   0.745
 9457SOL     OW29269   6.830   3.480   0.578
 9457SOL    HW129270   6.775   3.498   0.659
 9457SOL    HW229271   6.801   3.394   0.537
 9458SOL     OW29272   0.847   5.453   4.097
 9458SOL    HW129273   0.815   5.387   4.165
 9458SOL    HW229274   0.927   5.501   4.132
 9459SOL     OW29275   4.158   6.104   1.350
 9459SOL    HW129276   4.136   6.201   1.361
 9459SOL    HW229277   4.206   6.071   1.432
 9460SOL     OW29278   0.948   2.538   5.830
 9460SOL    HW129279   0.957   2.580   5.740
 9460SOL    HW229280   0.872   2.473   5.829
 9461SOL     OW29281   1.650   0.547   2.835
 9461SOL    HW129282   1.639   0.534   2.737
 9461SOL    HW229283   1.676   0.461   2.878
 9462SOL     OW29284   0.114   3.417   2.887
 9462SOL    HW129285   0.163   3.330   2.892
 9462SOL    HW229286   0.154   3.481   2.953
 9463SOL     OW29287   5.473   1.847   6.566
 9463SOL    HW129288   5.441   1.936   6.534
 9463SOL    HW229289   5.554   1.860   6.624
 9464SOL     OW29290   4.342   6.719   5.857
 9464SOL    HW129291   4.429   6.704   5.810
 9464SOL    HW229292   4.340   6.812   5.894
 9465SOL     OW29293   5.576   0.033   4.369
 9465SOL    HW129294   5.595   7.011   4.280
 9465SOL    HW229295   5.505   0.102   4.359
 9466SOL     OW29296   2.265   2.123   6.895
 9466SOL    HW129297   2.215   2.037   6.896
 9466SOL    HW229298   2.330   2.123   6.818
 9467SOL     OW29299   2.069   3.240   2.150
 9467SOL    HW129300   2.134   3.316   2.158
 9467SOL    HW229301   1.996   3.253   2.217
 9468SOL     OW29302   0.634   2.529   6.331
 9468SOL    HW129303   0.584   2.595   6.386
 9468SOL    HW229304   0.586   2.515   6.244
 9469SOL     OW29305   6.504   3.776   2.740
 9469SOL    HW129306   6.496   3.868   2.704
 9469SOL    HW229307   6.518   3.780   2.839
 9470SOL     OW29308   6.000   3.530   1.451
 9470SOL    HW129309   5.913   3.581   1.444
 9470SOL    HW229310   6.032   3.530   1.545
 9471SOL     OW29311   0.774   2.719   6.082
 9471SOL    HW129312   0.682   2.759   6.078
 9471SOL    HW229313   0.841   2.789   6.060
 9472SOL     OW29314   6.341   2.228   4.579
 9472SOL    HW129315   6.340   2.319   4.538
 9472SOL    HW229316   6.360   2.236   4.677
 9473SOL     OW29317   3.847   5.504   4.819
 9473SOL    HW129318   3.855   5.418   4.869
 9473SOL    HW229319   3.758   5.545   4.838
 9474SOL     OW29320   3.881   5.091   3.666
 9474SOL    HW129321   3.836   5.003   3.678
 9474SOL    HW229322   3.946   5.085   3.590
 9475SOL     OW29323   1.814   3.208   1.466
 9475SOL    HW129324   1.870   3.260   1.530
 9475SOL    HW229325   1.865   3.129   1.432
 9476SOL     OW29326   3.675   3.507   5.537
 9476SOL    HW129327   3.657   3.477   5.443
 9476SOL    HW229328   3.758   3.462   5.571
 9477SOL     OW29329   0.177   1.896   1.169
 9477SOL    HW129330   0.210   1.954   1.095
 9477SOL    HW229331   0.118   1.824   1.131
 9478SOL     OW29332   5.516   4.213   5.352
 9478SOL    HW129333   5.463   4.285   5.397
 9478SOL    HW229334   5.454   4.151   5.304
 9479SOL     OW29335   6.471   5.562   5.268
 9479SOL    HW129336   6.455   5.641   5.328
 9479SOL    HW229337   6.562   5.568   5.228
 9480SOL     OW29338   5.672   4.018   6.421
 9480SOL    HW129339   5.754   3.974   6.457
 9480SOL    HW229340   5.600   3.950   6.412
 9481SOL     OW29341   6.307   3.513   2.562
 9481SOL    HW129342   6.350   3.491   2.649
 9481SOL    HW229343   6.302   3.612   2.550
 9482SOL     OW29344   4.526   0.159   2.910
 9482SOL    HW129345   4.491   0.080   2.860
 9482SOL    HW229346   4.622   0.174   2.884
 9483SOL     OW29347   1.918   1.992   0.600
 9483SOL    HW129348   1.940   1.901   0.563
 9483SOL    HW229349   1.876   1.982   0.690
 9484SOL     OW29350   6.230   1.100   2.608
 9484SOL    HW129351   6.234   1.019   2.666
 9484SOL    HW229352   6.282   1.174   2.651
 9485SOL     OW29353   1.068   0.401   3.143
 9485SOL    HW129354   1.024   0.378   3.056
 9485SOL    HW229355   1.026   0.484   3.180
 9486SOL     OW29356   2.824   5.577   2.107
 9486SOL    HW129357   2.796   5.673   2.097
 9486SOL    HW229358   2.847   5.559   2.202
 9487SOL     OW29359   3.350   2.893   3.285
 9487SOL    HW129360   3.323   2.808   3.329
 9487SOL    HW229361   3.356   2.966   3.353
 9488SOL     OW29362   1.087   1.090   1.623
 9488SOL    HW129363   0.987   1.086   1.618
 9488SOL    HW229364   1.123   1.124   1.536
 9489SOL     OW29365   3.272   4.290   0.389
 9489SOL    HW129366   3.328   4.355   0.338
 9489SOL    HW229367   3.231   4.337   0.467
 9490SOL     OW29368   5.414   1.348   0.282
 9490SOL    HW129369   5.343   1.363   0.351
 9490SOL    HW229370   5.497   1.317   0.326
 9491SOL     OW29371   6.904   4.801   5.313
 9491SOL    HW129372   6.947   4.795   5.403
 9491SOL    HW229373   6.872   4.711   5.284
 9492SOL     OW29374   2.779   4.213   1.462
 9492SOL    HW129375   2.818   4.256   1.381
 9492SOL    HW229376   2.831   4.241   1.543
 9493SOL     OW29377   5.708   6.618   2.396
 9493SOL    HW129378   5.784   6.553   2.386
 9493SOL    HW229379   5.651   6.590   2.473
 9494SOL     OW29380   3.382   3.165   6.031
 9494SOL    HW129381   3.283   3.168   6.044
 9494SOL    HW229382   3.405   3.100   5.959
 9495SOL     OW29383   5.664   2.246   4.808
 9495SOL    HW129384   5.579   2.199   4.831
 9495SOL    HW229385   5.687   2.312   4.880
 9496SOL     OW29386   5.681   3.860   0.193
 9496SOL    HW129387   5.769   3.867   0.240
 9496SOL    HW229388   5.624   3.792   0.240
 9497SOL     OW29389   0.210   6.533   6.022
 9497SOL    HW129390   0.257   6.503   6.105
 9497SOL    HW229391   0.253   6.617   5.988
 9498SOL     OW29392   4.079   0.116   5.986
 9498SOL    HW129393   4.162   0.120   5.930
 9498SOL    HW229394   4.100   0.069   6.072
 9499SOL     OW29395   4.640   4.519   6.510
 9499SOL    HW129396   4.577   4.578   6.560
 9499SOL    HW229397   4.592   4.476   6.434
 9500SOL     OW29398   4.997   5.559   2.111
 9500SOL    HW129399   5.058   5.490   2.149
 9500SOL    HW229400   5.050   5.625   2.058
 9501SOL     OW29401   3.260   1.728   4.800
 9501SOL    HW129402   3.162   1.719   4.820
 9501SOL    HW229403   3.277   1.818   4.759
 9502SOL     OW29404   4.998   3.396   5.836
 9502SOL    HW129405   5.025   3.415   5.930
 9502SOL    HW229406   4.972   3.300   5.827
 9503SOL     OW29407   1.204   6.929   0.686
 9503SOL    HW129408   1.135   6.962   0.751
 9503SOL    HW229409   1.191   6.974   0.598
 9504SOL     OW29410   1.101   3.366   6.965
 9504SOL    HW129411   1.092   3.458   6.927
 9504SOL    HW229412   1.104   3.300   6.890
 9505SOL     OW29413   4.888   3.414   2.836
 9505SOL    HW129414   4.900   3.484   2.906
 9505SOL    HW229415   4.869   3.326   2.880
 9506SOL     OW29416   6.464   2.797   0.908
 9506SOL    HW129417   6.453   2.712   0.960
 9506SOL    HW229418   6.561   2.813   0.890
 9507SOL     OW29419   1.141   2.199   4.237
 9507SOL    HW129420   1.082   2.268   4.198
 9507SOL    HW229421   1.100   2.108   4.226
 9508SOL     OW29422   5.041   1.943   6.458
 9508SOL    HW129423   5.110   1.908   6.523
 9508SOL    HW229424   4.951   1.941   6.501
 9509SOL     OW29425   3.049   6.338   5.525
 9509SOL    HW129426   3.027   6.358   5.620
 9509SOL    HW229427   3.104   6.412   5.486
 9510SOL     OW29428   6.661   4.463   3.489
 9510SOL    HW129429   6.722   4.428   3.418
 9510SOL    HW229430   6.566   4.448   3.461
 9511SOL     OW29431   1.640   1.316   1.078
 9511SOL    HW129432   1.715   1.374   1.048
 9511SOL    HW229433   1.671   1.221   1.086
 9512SOL     OW29434   1.372   2.538   4.575
 9512SOL    HW129435   1.374   2.595   4.492
 9512SOL    HW229436   1.438   2.574   4.641
 9513SOL     OW29437   2.383   4.305   4.109
 9513SOL    HW129438   2.358   4.215   4.143
 9513SOL    HW229439   2.435   4.354   4.179
 9514SOL     OW29440   2.457   2.848   6.398
 9514SOL    HW129441   2.401   2.925   6.426
 9514SOL    HW229442   2.413   2.799   6.323
 9515SOL     OW29443   2.435   5.454   5.540
 9515SOL    HW129444   2.496   5.434   5.463
 9515SOL    HW229445   2.356   5.393   5.536
 9516SOL     OW29446   5.261   4.275   5.019
 9516SOL    HW129447   5.283   4.190   5.066
 9516SOL    HW229448   5.255   4.258   4.920
 9517SOL     OW29449   1.026   5.859   1.823
 9517SOL    HW129450   0.966   5.863   1.903
 9517SOL    HW229451   0.970   5.845   1.741
 9518SOL     OW29452   0.771   3.032   5.236
 9518SOL    HW129453   0.705   2.976   5.185
 9518SOL    HW229454   0.726   3.115   5.268
 9519SOL     OW29455   3.902   3.052   3.665
 9519SOL    HW129456   3.851   3.003   3.595
 9519SOL    HW229457   3.883   3.012   3.755
 9520SOL     OW29458   5.095   0.234   6.379
 9520SOL    HW129459   5.026   0.178   6.335
 9520SOL    HW229460   5.054   0.285   6.454
 9521SOL     OW29461   3.259   1.119   0.998
 9521SOL    HW129462   3.271   1.103   0.900
 9521SOL    HW229463   3.271   1.032   1.048
 9522SOL     OW29464   3.183   5.811   1.956
 9522SOL    HW129465   3.272   5.837   1.919
 9522SOL    HW229466   3.192   5.786   2.052
 9523SOL     OW29467   2.644   4.671   4.067
 9523SOL    HW129468   2.734   4.714   4.077
 9523SOL    HW229469   2.580   4.710   4.134
 9524SOL     OW29470   2.187   3.816   0.890
 9524SOL    HW129471   2.235   3.897   0.921
 9524SOL    HW229472   2.110   3.797   0.951
 9525SOL     OW29473   2.480   3.166   5.411
 9525SOL    HW129474   2.480   3.108   5.329
 9525SOL    HW229475   2.423   3.247   5.395
 9526SOL     OW29476   5.532   5.254   0.095
 9526SOL    HW129477   5.546   5.293   0.004
 9526SOL    HW229478   5.435   5.230   0.106
 9527SOL     OW29479   4.075   6.490   4.162
 9527SOL    HW129480   4.050   6.553   4.236
 9527SOL    HW229481   4.166   6.513   4.129
 9528SOL     OW29482   5.259   2.112   0.341
 9528SOL    HW129483   5.284   2.021   0.374
 9528SOL    HW229484   5.229   2.168   0.418
 9529SOL     OW29485   5.723   1.083   1.739
 9529SOL    HW129486   5.757   1.129   1.657
 9529SOL    HW229487   5.632   1.117   1.762
 9530SOL     OW29488   1.704   5.398   3.789
 9530SOL    HW129489   1.637   5.456   3.837
 9530SOL    HW229490   1.657   5.343   3.719
 9531SOL     OW29491   3.759   5.432   2.148
 9531SOL    HW129492   3.775   5.494   2.225
 9531SOL    HW229493   3.698   5.358   2.177
 9532SOL     OW29494   6.429   4.998   3.509
 9532SOL    HW129495   6.389   4.907   3.506
 9532SOL    HW229496   6.460   5.019   3.601
 9533SOL     OW29497   1.661   3.929   3.526
 9533SOL    HW129498   1.650   3.947   3.428
 9533SOL    HW229499   1.587   3.974   3.576
 9534SOL     OW29500   5.450   5.333   4.547
 9534SOL    HW129501   5.373   5.376   4.595
 9534SOL    HW229502   5.526   5.321   4.611
 9535SOL     OW29503   0.293   1.648   5.019
 9535SOL    HW129504   0.250   1.720   5.074
 9535SOL    HW229505   0.284   1.670   4.922
 9536SOL     OW29506   3.386   4.024   5.057
 9536SOL    HW129507   3.317   3.956   5.035
 9536SOL    HW229508   3.469   3.979   5.089
 9537SOL     OW29509   6.840   1.877   4.325
 9537SOL    HW129510   6.867   1.959   4.376
 9537SOL    HW229511   6.922   1.829   4.295
 9538SOL     OW29512   5.218   0.027   5.094
 9538SOL    HW129513   5.272   0.071   5.165
 9538SOL    HW229514   5.140   0.085   5.070
 9539SOL     OW29515   2.882   3.623   2.238
 9539SOL    HW129516   2.821   3.695   2.270
 9539SOL    HW229517   2.961   3.664   2.193
 9540SOL     OW29518   4.629   4.900   3.026
 9540SOL    HW129519   4.565   4.868   3.096
 9540SOL    HW229520   4.590   4.882   2.935
 9541SOL     OW29521   2.239   5.099   5.456
 9541SOL    HW129522   2.229   5.182   5.402
 9541SOL    HW229523   2.163   5.093   5.522
 9542SOL     OW29524   6.230   4.283   3.951
 9542SOL    HW129525   6.153   4.236   3.995
 9542SOL    HW229526   6.313   4.228   3.961
 9543SOL     OW29527   2.427   7.011   5.917
 9543SOL    HW129528   2.526   7.002   5.915
 9543SOL    HW229529   2.392   7.019   5.823
 9544SOL     OW29530   5.795   3.154   4.576
 9544SOL    HW129531   5.800   3.253   4.590
 9544SOL    HW229532   5.863   3.109   4.633
 9545SOL     OW29533   6.781   4.611   1.870
 9545SOL    HW129534   6.880   4.605   1.884
 9545SOL    HW229535   6.744   4.688   1.922
 9546SOL     OW29536   2.787   2.829   0.543
 9546SOL    HW129537   2.689   2.825   0.526
 9546SOL    HW229538   2.815   2.753   0.602
 9547SOL     OW29539   4.301   6.760   3.759
 9547SOL    HW129540   4.226   6.782   3.821
 9547SOL    HW229541   4.342   6.673   3.787
 9548SOL     OW29542   1.183   4.958   6.617
 9548SOL    HW129543   1.104   4.912   6.657
 9548SOL    HW229544   1.158   4.995   6.527
 9549SOL     OW29545   4.791   1.698   0.992
 9549SOL    HW129546   4.844   1.637   0.933
 9549SOL    HW229547   4.846   1.779   1.013
 9550SOL     OW29548   5.667   3.410   1.669
 9550SOL    HW129549   5.632   3.428   1.761
 9550SOL    HW229550   5.731   3.334   1.673
 9551SOL     OW29551   6.120   3.350   6.417
 9551SOL    HW129552   6.204   3.350   6.362
 9551SOL    HW229553   6.080   3.258   6.416
 9552SOL     OW29554   3.031   1.625   6.858
 9552SOL    HW129555   3.091   1.665   6.927
 9552SOL    HW229556   3.063   1.534   6.833
 9553SOL     OW29557   5.384   1.332   6.520
 9553SOL    HW129558   5.427   1.247   6.490
 9553SOL    HW229559   5.387   1.399   6.445
 9554SOL     OW29560   3.398   1.071   3.859
 9554SOL    HW129561   3.437   1.140   3.798
 9554SOL    HW229562   3.471   1.020   3.903
 9555SOL     OW29563   0.011   0.135   3.868
 9555SOL    HW129564   0.071   0.058   3.842
 9555SOL    HW229565   0.053   0.186   3.943
 9556SOL     OW29566   2.029   4.839   6.533
 9556SOL    HW129567   1.972   4.830   6.614
 9556SOL    HW229568   2.118   4.877   6.558
 9557SOL     OW29569   5.370   0.354   2.088
 9557SOL    HW129570   5.352   0.452   2.097
 9557SOL    HW229571   5.324   0.304   2.162
 9558SOL     OW29572   4.857   6.708   6.837
 9558SOL    HW129573   4.793   6.713   6.760
 9558SOL    HW229574   4.896   6.799   6.853
 9559SOL     OW29575   2.068   4.386   0.026
 9559SOL    HW129576   2.008   4.406   0.103
 9559SOL    HW229577   2.102   4.292   0.034
 9560SOL     OW29578   3.272   6.910   2.391
 9560SOL    HW129579   3.200   6.902   2.322
 9560SOL    HW229580   3.316   7.000   2.383
 9561SOL     OW29581   0.399   1.057   0.410
 9561SOL    HW129582   0.482   1.110   0.398
 9561SOL    HW229583   0.412   0.966   0.370
 9562SOL     OW29584   2.638   6.588   2.869
 9562SOL    HW129585   2.574   6.548   2.803
 9562SOL    HW229586   2.673   6.516   2.928
 9563SOL     OW29587   0.294   6.131   6.555
 9563SOL    HW129588   0.304   6.099   6.461
 9563SOL    HW229589   0.211   6.092   6.595
 9564SOL     OW29590   1.845   0.786   0.101
 9564SOL    HW129591   1.773   0.730   0.061
 9564SOL    HW229592   1.928   0.778   0.046
 9565SOL     OW29593   2.852   1.646   4.250
 9565SOL    HW129594   2.883   1.630   4.157
 9565SOL    HW229595   2.797   1.729   4.253
 9566SOL     OW29596   3.114   0.736   6.640
 9566SOL    HW129597   3.069   0.719   6.552
 9566SOL    HW229598   3.211   0.757   6.624
 9567SOL     OW29599   0.044   3.707   1.275
 9567SOL    HW129600   0.122   3.715   1.338
 9567SOL    HW229601   0.069   3.746   1.187
 9568SOL     OW29602   4.774   1.102   6.749
 9568SOL    HW129603   4.849   1.147   6.797
 9568SOL    HW229604   4.742   1.024   6.802
 9569SOL     OW29605   5.649   0.616   2.200
 9569SOL    HW129606   5.690   0.576   2.118
 9569SOL    HW229607   5.581   0.684   2.173
 9570SOL     OW29608   0.465   3.214   1.805
 9570SOL    HW129609   0.393   3.146   1.794
 9570SOL    HW229610   0.518   3.219   1.720
 9571SOL     OW29611   1.745   2.149   6.493
 9571SOL    HW129612   1.692   2.223   6.452
 9571SOL    HW229613   1.687   2.098   6.557
 9572SOL     OW29614   2.251   4.073   4.142
 9572SOL    HW129615   2.218   4.035   4.228
 9572SOL    HW229616   2.229   4.010   4.067
 9573SOL     OW29617   6.645   0.789   4.766
 9573SOL    HW129618   6.645   0.863   4.698
 9573SOL    HW229619   6.733   0.788   4.813
 9574SOL     OW29620   3.548   3.165   1.134
 9574SOL    HW129621   3.500   3.103   1.196
 9574SOL    HW229622   3.483   3.202   1.067
 9575SOL     OW29623   5.610   6.263   1.729
 9575SOL    HW129624   5.682   6.332   1.730
 9575SOL    HW229625   5.553   6.275   1.647
 9576SOL     OW29626   1.058   0.150   6.640
 9576SOL    HW129627   1.027   0.239   6.674
 9576SOL    HW229628   1.158   0.148   6.640
 9577SOL     OW29629   6.102   5.479   2.533
 9577SOL    HW129630   6.108   5.380   2.543
 9577SOL    HW229631   6.178   5.522   2.581
 9578SOL     OW29632   2.090   3.419   2.537
 9578SOL    HW129633   2.145   3.349   2.581
 9578SOL    HW229634   2.011   3.440   2.594
 9579SOL     OW29635   6.435   5.819   2.154
 9579SOL    HW129636   6.353   5.770   2.125
 9579SOL    HW229637   6.493   5.759   2.209
 9580SOL     OW29638   5.290   4.088   3.273
 9580SOL    HW129639   5.374   4.094   3.219
 9580SOL    HW229640   5.305   4.132   3.361
 9581SOL     OW29641   6.051   1.039   6.950
 9581SOL    HW129642   6.068   1.030   6.852
 9581SOL    HW229643   6.138   1.046   6.999
 9582SOL     OW29644   5.271   6.435   4.680
 9582SOL    HW129645   5.241   6.388   4.763
 9582SOL    HW229646   5.216   6.403   4.602
 9583SOL     OW29647   3.754   4.808   1.694
 9583SOL    HW129648   3.699   4.743   1.748
 9583SOL    HW229649   3.705   4.831   1.610
 9584SOL     OW29650   2.374   5.568   4.279
 9584SOL    HW129651   2.339   5.493   4.335
 9584SOL    HW229652   2.472   5.555   4.264
 9585SOL     OW29653   4.312   5.569   0.803
 9585SOL    HW129654   4.239   5.503   0.817
 9585SOL    HW229655   4.333   5.577   0.706
 9586SOL     OW29656   4.102   4.742   2.991
 9586SOL    HW129657   4.028   4.748   2.924
 9586SOL    HW229658   4.171   4.677   2.959
 9587SOL     OW29659   3.202   5.658   0.991
 9587SOL    HW129660   3.131   5.712   0.945
 9587SOL    HW229661   3.289   5.707   0.988
 9588SOL     OW29662   6.506   5.648   0.358
 9588SOL    HW129663   6.594   5.606   0.336
 9588SOL    HW229664   6.461   5.677   0.273
 9589SOL     OW29665   1.587   3.490   6.456
 9589SOL    HW129666   1.502   3.437   6.456
 9589SOL    HW229667   1.607   3.522   6.549
 9590SOL     OW29668   6.088   0.633   1.437
 9590SOL    HW129669   6.114   0.649   1.532
 9590SOL    HW229670   5.988   0.637   1.429
 9591SOL     OW29671   4.253   0.693   6.985
 9591SOL    HW129672   4.177   0.758   6.989
 9591SOL    HW229673   4.327   0.731   6.930
 9592SOL     OW29674   2.172   6.382   5.656
 9592SOL    HW129675   2.139   6.441   5.729
 9592SOL    HW229676   2.265   6.352   5.677
 9593SOL     OW29677   2.006   2.062   4.123
 9593SOL    HW129678   1.953   2.146   4.135
 9593SOL    HW229679   1.950   1.993   4.077
 9594SOL     OW29680   0.339   6.247   4.274
 9594SOL    HW129681   0.383   6.164   4.239
 9594SOL    HW229682   0.360   6.324   4.214
 9595SOL     OW29683   0.081   3.306   3.458
 9595SOL    HW129684   0.052   3.221   3.414
 9595SOL    HW229685   0.091   3.291   3.556
 9596SOL     OW29686   0.260   6.542   0.806
 9596SOL    HW129687   0.295   6.452   0.784
 9596SOL    HW229688   0.309   6.611   0.753
 9597SOL     OW29689   1.385   3.275   2.536
 9597SOL    HW129690   1.442   3.234   2.465
 9597SOL    HW229691   1.308   3.215   2.555
 9598SOL     OW29692   1.738   4.178   4.017
 9598SOL    HW129693   1.825   4.131   4.015
 9598SOL    HW229694   1.752   4.276   3.999
 9599SOL     OW29695   4.555   6.547   3.844
 9599SOL    HW129696   4.487   6.513   3.779
 9599SOL    HW229697   4.621   6.604   3.796
 9600SOL     OW29698   3.290   0.775   1.737
 9600SOL    HW129699   3.243   0.839   1.676
 9600SOL    HW229700   3.324   0.698   1.684
 9601SOL     OW29701   1.000   3.608   1.155
 9601SOL    HW129702   0.933   3.584   1.224
 9601SOL    HW229703   0.987   3.550   1.074
 9602SOL     OW29704   4.443   5.186   5.360
 9602SOL    HW129705   4.369   5.156   5.421
 9602SOL    HW229706   4.481   5.108   5.312
 9603SOL     OW29707   5.070   5.912   5.268
 9603SOL    HW129708   5.051   5.964   5.351
 9603SOL    HW229709   5.055   5.970   5.188
 9604SOL     OW29710   5.030   6.371   0.451
 9604SOL    HW129711   5.121   6.352   0.415
 9604SOL    HW229712   4.993   6.452   0.405
 9605SOL     OW29713   6.316   5.667   2.499
 9605SOL    HW129714   6.245   5.719   2.451
 9605SOL    HW229715   6.356   5.723   2.571
 9606SOL     OW29716   1.736   1.309   6.912
 9606SOL    HW129717   1.723   1.408   6.905
 9606SOL    HW229718   1.665   1.262   6.858
 9607SOL     OW29719   2.874   2.434   6.170
 9607SOL    HW129720   2.775   2.427   6.181
 9607SOL    HW229721   2.897   2.524   6.134
 9608SOL     OW29722   6.573   3.312   4.017
 9608SOL    HW129723   6.640   3.251   3.975
 9608SOL    HW229724   6.607   3.343   4.106
 9609SOL     OW29725   4.388   3.122   6.278
 9609SOL    HW129726   4.348   3.106   6.369
 9609SOL    HW229727   4.346   3.059   6.212
 9610SOL     OW29728   1.167   4.684   3.031
 9610SOL    HW129729   1.170   4.587   3.008
 9610SOL    HW229730   1.103   4.731   2.970
 9611SOL     OW29731   1.959   0.428   0.439
 9611SOL    HW129732   1.982   0.524   0.456
 9611SOL    HW229733   1.916   0.389   0.520
 9612SOL     OW29734   6.466   2.947   3.769
 9612SOL    HW129735   6.441   2.957   3.865
 9612SOL    HW229736   6.479   2.850   3.747
 9613SOL     OW29737   6.278   5.689   3.353
 9613SOL    HW129738   6.298   5.767   3.294
 9613SOL    HW229739   6.252   5.722   3.444
 9614SOL     OW29740   4.599   2.646   3.777
 9614SOL    HW129741   4.623   2.742   3.766
 9614SOL    HW229742   4.636   2.611   3.862
 9615SOL     OW29743   2.734   3.825   1.130
 9615SOL    HW129744   2.703   3.843   1.224
 9615SOL    HW229745   2.659   3.844   1.066
 9616SOL     OW29746   4.223   3.697   0.112
 9616SOL    HW129747   4.277   3.653   0.184
 9616SOL    HW229748   4.281   3.712   0.032
 9617SOL     OW29749   1.897   2.403   3.463
 9617SOL    HW129750   1.856   2.340   3.396
 9617SOL    HW229751   1.908   2.356   3.550
 9618SOL     OW29752   2.016   1.642   1.031
 9618SOL    HW129753   2.069   1.604   1.107
 9618SOL    HW229754   2.072   1.707   0.980
 9619SOL     OW29755   3.244   1.105   5.095
 9619SOL    HW129756   3.238   1.029   5.160
 9619SOL    HW229757   3.204   1.187   5.135
 9620SOL     OW29758   6.144   0.779   5.675
 9620SOL    HW129759   6.221   0.840   5.658
 9620SOL    HW229760   6.178   0.692   5.713
 9621SOL     OW29761   1.827   2.917   3.411
 9621SOL    HW129762   1.917   2.903   3.451
 9621SOL    HW229763   1.776   2.830   3.411
 9622SOL     OW29764   5.144   6.720   1.550
 9622SOL    HW129765   5.168   6.772   1.468
 9622SOL    HW229766   5.140   6.781   1.629
 9623SOL     OW29767   2.524   3.669   6.863
 9623SOL    HW129768   2.489   3.666   6.769
 9623SOL    HW229769   2.487   3.750   6.910
 9624SOL     OW29770   6.477   3.225   3.756
 9624SOL    HW129771   6.458   3.130   3.730
 9624SOL    HW229772   6.535   3.226   3.837
 9625SOL     OW29773   5.994   5.667   0.884
 9625SOL    HW129774   6.088   5.646   0.856
 9625SOL    HW229775   5.942   5.699   0.804
 9626SOL     OW29776   3.035   6.610   6.763
 9626SOL    HW129777   3.000   6.520   6.738
 9626SOL    HW229778   3.074   6.605   6.855
 9627SOL     OW29779   1.445   6.795   6.608
 9627SOL    HW129780   1.518   6.808   6.541
 9627SOL    HW229781   1.357   6.786   6.560
 9628SOL     OW29782   3.943   6.631   2.245
 9628SOL    HW129783   3.910   6.625   2.339
 9628SOL    HW229784   4.025   6.575   2.235
 9629SOL     OW29785   2.154   6.657   1.201
 9629SOL    HW129786   2.055   6.664   1.217
 9629SOL    HW229787   2.203   6.687   1.283
 9630SOL     OW29788   6.741   0.987   6.147
 9630SOL    HW129789   6.788   1.074   6.164
 9630SOL    HW229790   6.686   0.995   6.063
 9631SOL     OW29791   6.221   6.452   6.938
 9631SOL    HW129792   6.302   6.500   6.906
 9631SOL    HW229793   6.142   6.479   6.883
 9632SOL     OW29794   1.549   5.897   1.612
 9632SOL    HW129795   1.552   5.799   1.590
 9632SOL    HW229796   1.566   5.950   1.529
 9633SOL     OW29797   6.970   5.325   5.960
 9633SOL    HW129798   0.040   5.348   5.921
 9633SOL    HW229799   6.983   5.261   6.036
 9634SOL     OW29800   1.404   6.408   5.033
 9634SOL    HW129801   1.499   6.386   5.055
 9634SOL    HW229802   1.362   6.332   4.984
 9635SOL     OW29803   1.288   5.540   5.607
 9635SOL    HW129804   1.320   5.624   5.650
 9635SOL    HW229805   1.239   5.562   5.522
 9636SOL     OW29806   4.078   1.866   6.519
 9636SOL    HW129807   4.010   1.938   6.507
 9636SOL    HW229808   4.166   1.906   6.543
 9637SOL     OW29809   2.391   1.352   6.958
 9637SOL    HW129810   2.404   1.417   0.014
 9637SOL    HW229811   2.422   1.394   6.873
 9638SOL     OW29812   6.557   1.880   5.968
 9638SOL    HW129813   6.621   1.804   5.982
 9638SOL    HW229814   6.548   1.898   5.870
 9639SOL     OW29815   3.993   0.980   2.840
 9639SOL    HW129816   3.984   0.880   2.846
 9639SOL    HW229817   4.086   1.003   2.810
 9640SOL     OW29818   2.105   2.243   2.173
 9640SOL    HW129819   2.147   2.322   2.128
 9640SOL    HW229820   2.159   2.161   2.154
 9641SOL     OW29821   6.340   5.690   0.134
 9641SOL    HW129822   6.389   5.677   0.048
 9641SOL    HW229823   6.245   5.660   0.124
 9642SOL     OW29824   3.771   6.978   3.734
 9642SOL    HW129825   3.726   6.889   3.731
 9642SOL    HW229826   3.856   6.974   3.681
 9643SOL     OW29827   4.243   4.644   3.270
 9643SOL    HW129828   4.314   4.713   3.263
 9643SOL    HW229829   4.172   4.662   3.201
 9644SOL     OW29830   2.708   2.278   6.905
 9644SOL    HW129831   2.716   2.193   6.852
 9644SOL    HW229832   2.751   2.353   6.856
 9645SOL     OW29833   3.351   5.303   5.092
 9645SOL    HW129834   3.390   5.264   5.176
 9645SOL    HW229835   3.361   5.403   5.094
 9646SOL     OW29836   4.171   5.549   3.661
 9646SOL    HW129837   4.156   5.569   3.758
 9646SOL    HW229838   4.261   5.583   3.633
 9647SOL     OW29839   6.667   3.080   0.198
 9647SOL    HW129840   6.604   3.151   0.167
 9647SOL    HW229841   6.757   3.093   0.156
 9648SOL     OW29842   4.150   3.712   1.126
 9648SOL    HW129843   4.092   3.645   1.079
 9648SOL    HW229844   4.131   3.709   1.224
 9649SOL     OW29845   1.998   5.992   1.036
 9649SOL    HW129846   1.969   5.965   0.944
 9649SOL    HW229847   2.067   6.065   1.029
 9650SOL     OW29848   0.319   0.099   2.086
 9650SOL    HW129849   0.308   0.148   1.999
 9650SOL    HW229850   0.413   0.069   2.095
 9651SOL     OW29851   0.461   1.612   5.683
 9651SOL    HW129852   0.559   1.596   5.669
 9651SOL    HW229853   0.447   1.699   5.731
 9652SOL     OW29854   0.360   5.393   2.637
 9652SOL    HW129855   0.273   5.403   2.589
 9652SOL    HW229856   0.435   5.417   2.576
 9653SOL     OW29857   6.407   6.067   4.250
 9653SOL    HW129858   6.503   6.050   4.227
 9653SOL    HW229859   6.367   6.126   4.180
 9654SOL     OW29860   1.967   3.118   2.413
 9654SOL    HW129861   1.999   3.036   2.365
 9654SOL    HW229862   2.006   3.119   2.506
 9655SOL     OW29863   5.685   2.030   6.678
 9655SOL    HW129864   5.691   1.992   6.770
 9655SOL    HW229865   5.777   2.051   6.645
 9656SOL     OW29866   3.456   1.027   3.063
 9656SOL    HW129867   3.549   1.003   3.036
 9656SOL    HW229868   3.429   1.113   3.020
 9657SOL     OW29869   0.437   7.000   4.991
 9657SOL    HW129870   0.446   6.903   5.015
 9657SOL    HW229871   0.486   7.018   4.906
 9658SOL     OW29872   5.679   1.784   3.095
 9658SOL    HW129873   5.662   1.815   3.189
 9658SOL    HW229874   5.737   1.850   3.048
 9659SOL     OW29875   0.771   5.034   0.032
 9659SOL    HW129876   0.803   4.981   0.110
 9659SOL    HW229877   0.677   5.066   0.049
 9660SOL     OW29878   0.442   5.217   0.494
 9660SOL    HW129879   0.361   5.168   0.529
 9660SOL    HW229880   0.420   5.314   0.484
 9661SOL     OW29881   4.585   6.564   0.720
 9661SOL    HW129882   4.605   6.491   0.654
 9661SOL    HW229883   4.489   6.591   0.712
 9662SOL     OW29884   4.798   1.008   4.361
 9662SOL    HW129885   4.739   0.990   4.440
 9662SOL    HW229886   4.803   1.106   4.345
 9663SOL     OW29887   2.425   6.237   3.136
 9663SOL    HW129888   2.357   6.216   3.206
 9663SOL    HW229889   2.430   6.162   3.070
 9664SOL     OW29890   2.329   5.901   1.645
 9664SOL    HW129891   2.365   5.812   1.617
 9664SOL    HW229892   2.332   5.909   1.744
 9665SOL     OW29893   5.271   4.082   3.810
 9665SOL    HW129894   5.290   4.175   3.841
 9665SOL    HW229895   5.174   4.074   3.786
 9666SOL     OW29896   5.479   4.357   4.689
 9666SOL    HW129897   5.557   4.401   4.645
 9666SOL    HW229898   5.405   4.423   4.701
 9667SOL     OW29899   3.632   3.271   3.359
 9667SOL    HW129900   3.688   3.306   3.285
 9667SOL    HW229901   3.683   3.203   3.412
 9668SOL     OW29902   0.696   1.337   5.064
 9668SOL    HW129903   0.649   1.404   5.008
 9668SOL    HW229904   0.736   1.266   5.006
 9669SOL     OW29905   1.797   6.508   0.240
 9669SOL    HW129906   1.786   6.429   0.301
 9669SOL    HW229907   1.818   6.475   0.148
 9670SOL     OW29908   6.206   4.697   6.759
 9670SOL    HW129909   6.270   4.629   6.721
 9670SOL    HW229910   6.250   4.786   6.761
 9671SOL     OW29911   0.589   0.606   0.136
 9671SOL    HW129912   0.571   0.510   0.154
 9671SOL    HW229913   0.560   0.629   0.044
 9672SOL     OW29914   1.222   6.508   4.706
 9672SOL    HW129915   1.301   6.569   4.702
 9672SOL    HW229916   1.237   6.429   4.647
 9673SOL     OW29917   2.500   2.493   6.073
 9673SOL    HW129918   2.400   2.499   6.076
 9673SOL    HW229919   2.531   2.505   5.979
 9674SOL     OW29920   2.429   6.967   2.177
 9674SOL    HW129921   2.416   6.868   2.191
 9674SOL    HW229922   2.343   7.007   2.146
 9675SOL     OW29923   0.230   2.504   1.877
 9675SOL    HW129924   0.315   2.472   1.836
 9675SOL    HW229925   0.168   2.427   1.889
 9676SOL     OW29926   0.156   3.464   5.164
 9676SOL    HW129927   0.247   3.490   5.198
 9676SOL    HW229928   0.152   3.479   5.066
 9677SOL     OW29929   1.780   3.322   5.186
 9677SOL    HW129930   1.764   3.300   5.090
 9677SOL    HW229931   1.873   3.295   5.211
 9678SOL     OW29932   3.809   3.328   3.152
 9678SOL    HW129933   3.759   3.271   3.087
 9678SOL    HW229934   3.904   3.339   3.122
 9679SOL     OW29935   0.574   3.567   0.800
 9679SOL    HW129936   0.548   3.652   0.845
 9679SOL    HW229937   0.661   3.579   0.753
 9680SOL     OW29938   5.227   4.978   3.370
 9680SOL    HW129939   5.285   4.993   3.451
 9680SOL    HW229940   5.267   5.024   3.291
 9681SOL     OW29941   0.816   1.238   4.144
 9681SOL    HW129942   0.762   1.305   4.094
 9681SOL    HW229943   0.895   1.211   4.089
 9682SOL     OW29944   0.131   4.741   2.868
 9682SOL    HW129945   0.091   4.657   2.830
 9682SOL    HW229946   0.184   4.787   2.798
 9683SOL     OW29947   4.327   6.568   6.330
 9683SOL    HW129948   4.353   6.640   6.266
 9683SOL    HW229949   4.227   6.566   6.339
 9684SOL     OW29950   0.704   4.078   3.332
 9684SOL    HW129951   0.783   4.081   3.271
 9684SOL    HW229952   0.732   4.106   3.424
 9685SOL     OW29953   1.417   2.537   0.266
 9685SOL    HW129954   1.481   2.502   0.197
 9685SOL    HW229955   1.458   2.528   0.357
 9686SOL     OW29956   5.619   0.578   1.747
 9686SOL    HW129957   5.522   0.576   1.722
 9686SOL    HW229958   5.654   0.671   1.737
 9687SOL     OW29959   3.782   1.143   3.985
 9687SOL    HW129960   3.743   1.077   3.921
 9687SOL    HW229961   3.876   1.118   4.006
 9688SOL     OW29962   6.427   1.795   4.069
 9688SOL    HW129963   6.520   1.825   4.088
 9688SOL    HW229964   6.384   1.861   4.007
 9689SOL     OW29965   1.547   5.910   5.978
 9689SOL    HW129966   1.619   5.854   6.021
 9689SOL    HW229967   1.547   6.001   6.018
 9690SOL     OW29968   6.023   4.220   0.623
 9690SOL    HW129969   6.025   4.313   0.661
 9690SOL    HW229970   5.936   4.177   0.644
 9691SOL     OW29971   1.361   4.239   1.673
 9691SOL    HW129972   1.328   4.156   1.719
 9691SOL    HW229973   1.345   4.318   1.733
 9692SOL     OW29974   2.228   5.704   0.752
 9692SOL    HW129975   2.205   5.795   0.717
 9692SOL    HW229976   2.303   5.665   0.698
 9693SOL     OW29977   6.185   5.203   1.676
 9693SOL    HW129978   6.155   5.223   1.583
 9693SOL    HW229979   6.221   5.109   1.679
 9694SOL     OW29980   1.479   1.883   0.179
 9694SOL    HW129981   1.573   1.849   0.177
 9694SOL    HW229982   1.480   1.980   0.202
 9695SOL     OW29983   6.211   3.935   0.873
 9695SOL    HW129984   6.174   3.895   0.957
 9695SOL    HW229985   6.206   4.034   0.878
 9696SOL     OW29986   3.494   4.165   0.961
 9696SOL    HW129987   3.506   4.080   1.013
 9696SOL    HW229988   3.506   4.243   1.022
 9697SOL     OW29989   0.516   6.079   6.395
 9697SOL    HW129990   0.427   6.075   6.351
 9697SOL    HW229991   0.542   6.175   6.410
 9698SOL     OW29992   5.321   1.418   5.523
 9698SOL    HW129993   5.329   1.449   5.618
 9698SOL    HW229994   5.260   1.481   5.474
 9699SOL     OW29995   1.949   2.959   0.224
 9699SOL    HW129996   1.944   3.059   0.216
 9699SOL    HW229997   1.871   2.927   0.278
 9700SOL     OW29998   3.201   4.009   3.978
 9700SOL    HW129999   3.262   4.026   3.902
 9700SOL    HW230000   3.253   4.010   4.064
 9701SOL     OW30001   4.723   4.248   5.132
 9701SOL    HW130002   4.770   4.286   5.212
 9701SOL    HW230003   4.779   4.176   5.091
 9702SOL     OW30004   4.360   0.086   0.625
 9702SOL    HW130005   4.328   0.134   0.543
 9702SOL    HW230006   4.415   0.148   0.681
 9703SOL     OW30007   3.242   6.299   4.181
 9703SOL    HW130008   3.215   6.235   4.109
 9703SOL    HW230009   3.252   6.390   4.142
 9704SOL     OW30010   2.673   0.437   3.664
 9704SOL    HW130011   2.734   0.476   3.595
 9704SOL    HW230012   2.597   0.500   3.680
 9705SOL     OW30013   4.123   3.892   0.712
 9705SOL    HW130014   4.191   3.921   0.644
 9705SOL    HW230015   4.031   3.916   0.680
 9706SOL     OW30016   5.820   2.629   2.691
 9706SOL    HW130017   5.725   2.606   2.671
 9706SOL    HW230018   5.858   2.683   2.617
 9707SOL     OW30019   2.939   5.591   3.155
 9707SOL    HW130020   2.848   5.571   3.119
 9707SOL    HW230021   2.941   5.684   3.190
 9708SOL     OW30022   2.134   1.977   2.666
 9708SOL    HW130023   2.124   1.884   2.633
 9708SOL    HW230024   2.164   2.036   2.591
 9709SOL     OW30025   2.069   4.948   3.022
 9709SOL    HW130026   2.038   4.938   2.928
 9709SOL    HW230027   2.128   5.029   3.029
 9710SOL     OW30028   0.368   0.423   3.737
 9710SOL    HW130029   0.309   0.471   3.802
 9710SOL    HW230030   0.339   0.327   3.730
 9711SOL     OW30031   1.460   3.340   5.981
 9711SOL    HW130032   1.440   3.422   5.927
 9711SOL    HW230033   1.557   3.318   5.974
 9712SOL     OW30034   4.967   2.900   4.567
 9712SOL    HW130035   4.918   2.938   4.646
 9712SOL    HW230036   4.934   2.943   4.483
 9713SOL     OW30037   6.644   5.255   2.359
 9713SOL    HW130038   6.605   5.189   2.294
 9713SOL    HW230039   6.588   5.338   2.358
 9714SOL     OW30040   1.324   2.470   2.229
 9714SOL    HW130041   1.373   2.542   2.180
 9714SOL    HW230042   1.373   2.383   2.219
 9715SOL     OW30043   5.675   5.494   5.178
 9715SOL    HW130044   5.737   5.472   5.253
 9715SOL    HW230045   5.584   5.513   5.215
 9716SOL     OW30046   3.943   2.510   6.100
 9716SOL    HW130047   3.924   2.413   6.119
 9716SOL    HW230048   4.041   2.526   6.104
 9717SOL     OW30049   6.302   4.753   3.204
 9717SOL    HW130050   6.374   4.813   3.239
 9717SOL    HW230051   6.214   4.783   3.241
 9718SOL     OW30052   4.451   3.311   1.627
 9718SOL    HW130053   4.549   3.323   1.611
 9718SOL    HW230054   4.415   3.392   1.675
 9719SOL     OW30055   0.273   1.621   0.441
 9719SOL    HW130056   0.229   1.670   0.366
 9719SOL    HW230057   0.357   1.669   0.468
 9720SOL     OW30058   0.833   0.201   0.954
 9720SOL    HW130059   0.857   0.273   0.888
 9720SOL    HW230060   0.741   0.218   0.990
 9721SOL     OW30061   6.636   3.065   2.685
 9721SOL    HW130062   6.626   3.116   2.600
 9721SOL    HW230063   6.561   3.000   2.695
 9722SOL     OW30064   6.571   0.354   4.840
 9722SOL    HW130065   6.534   0.447   4.834
 9722SOL    HW230066   6.526   0.296   4.772
 9723SOL     OW30067   6.669   1.234   3.549
 9723SOL    HW130068   6.701   1.163   3.613
 9723SOL    HW230069   6.574   1.257   3.570
 9724SOL     OW30070   3.828   2.969   1.199
 9724SOL    HW130071   3.767   3.041   1.168
 9724SOL    HW230072   3.774   2.891   1.231
 9725SOL     OW30073   4.554   3.413   5.608
 9725SOL    HW130074   4.604   3.327   5.624
 9725SOL    HW230075   4.583   3.452   5.520
 9726SOL     OW30076   5.936   5.679   4.940
 9726SOL    HW130077   6.008   5.745   4.962
 9726SOL    HW230078   5.954   5.593   4.987
 9727SOL     OW30079   1.332   1.584   6.480
 9727SOL    HW130080   1.393   1.658   6.509
 9727SOL    HW230081   1.371   1.496   6.505
 9728SOL     OW30082   3.062   5.749   0.089
 9728SOL    HW130083   3.001   5.820   0.055
 9728SOL    HW230084   3.019   5.659   0.079
 9729SOL     OW30085   2.674   5.065   2.745
 9729SOL    HW130086   2.651   5.080   2.649
 9729SOL    HW230087   2.751   5.124   2.770
 9730SOL     OW30088   5.770   3.719   3.062
 9730SOL    HW130089   5.693   3.782   3.054
 9730SOL    HW230090   5.852   3.770   3.090
 9731SOL     OW30091   5.128   5.804   1.129
 9731SOL    HW130092   5.184   5.842   1.203
 9731SOL    HW230093   5.084   5.878   1.079
 9732SOL     OW30094   6.348   5.212   3.821
 9732SOL    HW130095   6.342   5.226   3.920
 9732SOL    HW230096   6.440   5.179   3.798
 9733SOL     OW30097   5.672   4.500   6.341
 9733SOL    HW130098   5.633   4.408   6.348
 9733SOL    HW230099   5.746   4.509   6.408
 9734SOL     OW30100   5.467   2.684   4.719
 9734SOL    HW130101   5.426   2.607   4.671
 9734SOL    HW230102   5.472   2.663   4.817
 9735SOL     OW30103   2.584   4.209   0.285
 9735SOL    HW130104   2.627   4.164   0.206
 9735SOL    HW230105   2.558   4.139   0.352
 9736SOL     OW30106   3.268   1.478   1.827
 9736SOL    HW130107   3.208   1.552   1.859
 9736SOL    HW230108   3.362   1.511   1.822
 9737SOL     OW30109   4.201   2.184   4.887
 9737SOL    HW130110   4.199   2.280   4.915
 9737SOL    HW230111   4.193   2.125   4.967
 9738SOL     OW30112   1.914   0.669   2.168
 9738SOL    HW130113   1.930   0.612   2.248
 9738SOL    HW230114   1.821   0.654   2.134
 9739SOL     OW30115   5.304   4.837   1.687
 9739SOL    HW130116   5.254   4.866   1.605
 9739SOL    HW230117   5.388   4.891   1.695
 9740SOL     OW30118   6.390   3.809   3.438
 9740SOL    HW130119   6.354   3.808   3.532
 9740SOL    HW230120   6.486   3.781   3.440
 9741SOL     OW30121   3.818   1.637   1.415
 9741SOL    HW130122   3.812   1.709   1.483
 9741SOL    HW230123   3.734   1.635   1.361
 9742SOL     OW30124   4.706   1.445   3.871
 9742SOL    HW130125   4.671   1.385   3.943
 9742SOL    HW230126   4.697   1.400   3.782
 9743SOL     OW30127   1.680   1.508   5.203
 9743SOL    HW130128   1.761   1.529   5.147
 9743SOL    HW230129   1.701   1.526   5.299
 9744SOL     OW30130   2.198   0.726   1.633
 9744SOL    HW130131   2.241   0.761   1.716
 9744SOL    HW230132   2.229   0.778   1.554
 9745SOL     OW30133   6.881   1.153   4.989
 9745SOL    HW130134   6.898   1.246   5.021
 9745SOL    HW230135   6.967   1.113   4.956
 9746SOL     OW30136   6.155   0.995   4.201
 9746SOL    HW130137   6.173   1.092   4.186
 9746SOL    HW230138   6.187   0.969   4.292
 9747SOL     OW30139   0.420   6.994   6.696
 9747SOL    HW130140   0.424   7.014   6.794
 9747SOL    HW230141   0.328   7.012   6.662
 9748SOL     OW30142   0.575   5.098   4.412
 9748SOL    HW130143   0.477   5.106   4.428
 9748SOL    HW230144   0.612   5.022   4.467
 9749SOL     OW30145   0.441   4.053   4.354
 9749SOL    HW130146   0.514   4.077   4.417
 9749SOL    HW230147   0.477   4.048   4.261
 9750SOL     OW30148   3.502   5.488   3.178
 9750SOL    HW130149   3.516   5.455   3.085
 9750SOL    HW230150   3.459   5.416   3.233
 9751SOL     OW30151   1.746   2.664   0.298
 9751SOL    HW130152   1.670   2.725   0.315
 9751SOL    HW230153   1.827   2.697   0.346
 9752SOL     OW30154   3.570   2.087   5.864
 9752SOL    HW130155   3.563   1.997   5.820
 9752SOL    HW230156   3.589   2.074   5.962
 9753SOL     OW30157   6.691   6.145   5.429
 9753SOL    HW130158   6.655   6.158   5.336
 9753SOL    HW230159   6.757   6.217   5.450
 9754SOL     OW30160   0.037   2.530   6.537
 9754SOL    HW130161   6.973   2.477   6.521
 9754SOL    HW230162   0.012   2.621   6.572
 9755SOL     OW30163   3.709   4.861   5.414
 9755SOL    HW130164   3.726   4.804   5.334
 9755SOL    HW230165   3.787   4.923   5.427
 9756SOL     OW30166   4.915   2.478   5.500
 9756SOL    HW130167   4.819   2.467   5.472
 9756SOL    HW230168   4.952   2.562   5.459
 9757SOL     OW30169   6.235   1.843   3.692
 9757SOL    HW130170   6.162   1.777   3.709
 9757SOL    HW230171   6.250   1.899   3.773
 9758SOL     OW30172   2.996   0.706   0.095
 9758SOL    HW130173   3.050   0.754   0.026
 9758SOL    HW230174   3.007   0.607   0.082
 9759SOL     OW30175   2.994   5.946   1.160
 9759SOL    HW130176   3.075   5.960   1.104
 9759SOL    HW230177   2.982   6.024   1.221
 9760SOL     OW30178   5.864   4.417   6.027
 9760SOL    HW130179   5.899   4.324   6.037
 9760SOL    HW230180   5.847   4.455   6.118
 9761SOL     OW30181   5.103   5.438   2.743
 9761SOL    HW130182   5.171   5.372   2.775
 9761SOL    HW230183   5.137   5.531   2.757
 9762SOL     OW30184   3.015   1.062   3.400
 9762SOL    HW130185   3.068   1.144   3.378
 9762SOL    HW230186   3.073   0.996   3.446
 9763SOL     OW30187   2.073   1.755   1.930
 9763SOL    HW130188   2.107   1.713   2.014
 9763SOL    HW230189   2.094   1.853   1.931
 9764SOL     OW30190   1.169   2.780   2.083
 9764SOL    HW130191   1.138   2.705   2.024
 9764SOL    HW230192   1.090   2.833   2.113
 9765SOL     OW30193   0.411   1.088   5.068
 9765SOL    HW130194   0.483   1.032   5.027
 9765SOL    HW230195   0.447   1.136   5.148
 9766SOL     OW30196   2.195   0.217   2.388
 9766SOL    HW130197   2.199   0.150   2.462
 9766SOL    HW230198   2.286   0.255   2.372
 9767SOL     OW30199   4.992   0.174   5.472
 9767SOL    HW130200   4.902   0.132   5.476
 9767SOL    HW230201   5.038   0.164   5.560
 9768SOL     OW30202   4.965   2.749   3.790
 9768SOL    HW130203   5.057   2.768   3.755
 9768SOL    HW230204   4.972   2.706   3.880
 9769SOL     OW30205   0.548   1.665   1.582
 9769SOL    HW130206   0.467   1.613   1.606
 9769SOL    HW230207   0.522   1.757   1.554
 9770SOL     OW30208   6.838   4.094   6.129
 9770SOL    HW130209   6.762   4.143   6.171
 9770SOL    HW230210   6.867   4.019   6.188
 9771SOL     OW30211   2.822   5.278   4.110
 9771SOL    HW130212   2.784   5.190   4.082
 9771SOL    HW230213   2.889   5.263   4.183
 9772SOL     OW30214   6.698   0.000   1.507
 9772SOL    HW130215   6.615   7.018   1.563
 9772SOL    HW230216   6.703   0.087   1.457
 9773SOL     OW30217   5.063   5.143   3.545
 9773SOL    HW130218   5.020   5.079   3.610
 9773SOL    HW230219   5.091   5.093   3.463
 9774SOL     OW30220   0.140   4.646   3.467
 9774SOL    HW130221   0.235   4.614   3.474
 9774SOL    HW230222   0.126   4.722   3.530
 9775SOL     OW30223   2.927   2.081   5.062
 9775SOL    HW130224   2.900   2.011   4.995
 9775SOL    HW230225   2.993   2.144   5.019
 9776SOL     OW30226   0.396   4.495   4.247
 9776SOL    HW130227   0.408   4.575   4.190
 9776SOL    HW230228   0.460   4.499   4.324
 9777SOL     OW30229   5.947   5.137   6.030
 9777SOL    HW130230   5.873   5.155   5.965
 9777SOL    HW230231   5.908   5.099   6.114
 9778SOL     OW30232   4.057   0.685   4.085
 9778SOL    HW130233   4.044   0.612   4.017
 9778SOL    HW230234   4.083   0.769   4.039
 9779SOL     OW30235   2.753   2.050   6.731
 9779SOL    HW130236   2.767   1.956   6.698
 9779SOL    HW230237   2.757   2.113   6.653
 9780SOL     OW30238   3.413   4.056   0.474
 9780SOL    HW130239   3.344   3.989   0.501
 9780SOL    HW230240   3.368   4.141   0.446
 9781SOL     OW30241   1.564   6.464   4.214
 9781SOL    HW130242   1.656   6.438   4.186
 9781SOL    HW230243   1.513   6.383   4.240
 9782SOL     OW30244   5.965   0.485   1.162
 9782SOL    HW130245   6.039   0.437   1.209
 9782SOL    HW230246   6.004   0.542   1.089
 9783SOL     OW30247   6.132   1.221   2.855
 9783SOL    HW130248   6.169   1.131   2.878
 9783SOL    HW230249   6.206   1.283   2.830
 9784SOL     OW30250   5.846   0.819   4.494
 9784SOL    HW130251   5.800   0.730   4.491
 9784SOL    HW230252   5.786   0.887   4.535
 9785SOL     OW30253   0.540   2.899   0.815
 9785SOL    HW130254   0.441   2.881   0.814
 9785SOL    HW230255   0.589   2.812   0.807
 9786SOL     OW30256   2.464   0.356   5.301
 9786SOL    HW130257   2.470   0.271   5.249
 9786SOL    HW230258   2.396   0.416   5.259
 9787SOL     OW30259   6.264   4.481   1.090
 9787SOL    HW130260   6.238   4.497   1.185
 9787SOL    HW230261   6.355   4.441   1.086
 9788SOL     OW30262   0.081   0.822   5.328
 9788SOL    HW130263   0.144   0.745   5.324
 9788SOL    HW230264   0.126   0.903   5.290
 9789SOL     OW30265   1.465   5.481   4.325
 9789SOL    HW130266   1.383   5.443   4.280
 9789SOL    HW230267   1.501   5.415   4.390
 9790SOL     OW30268   6.747   0.987   4.086
 9790SOL    HW130269   6.791   1.075   4.072
 9790SOL    HW230270   6.663   0.982   4.033
 9791SOL     OW30271   1.182   2.765   1.355
 9791SOL    HW130272   1.249   2.717   1.411
 9791SOL    HW230273   1.140   2.702   1.291
 9792SOL     OW30274   3.794   5.472   1.801
 9792SOL    HW130275   3.731   5.446   1.875
 9792SOL    HW230276   3.880   5.504   1.841
 9793SOL     OW30277   5.358   6.027   2.276
 9793SOL    HW130278   5.410   6.001   2.357
 9793SOL    HW230279   5.351   5.948   2.214
 9794SOL     OW30280   2.757   3.517   6.839
 9794SOL    HW130281   2.660   3.541   6.830
 9794SOL    HW230282   2.812   3.582   6.787
 9795SOL     OW30283   2.477   4.779   4.274
 9795SOL    HW130284   2.546   4.850   4.283
 9795SOL    HW230285   2.465   4.733   4.362
 9796SOL     OW30286   3.713   4.382   0.496
 9796SOL    HW130287   3.680   4.309   0.436
 9796SOL    HW230288   3.682   4.471   0.460
 9797SOL     OW30289   5.203   2.962   4.803
 9797SOL    HW130290   5.172   2.947   4.709
 9797SOL    HW230291   5.286   3.018   4.802
 9798SOL     OW30292   2.454   1.580   1.895
 9798SOL    HW130293   2.518   1.584   1.818
 9798SOL    HW230294   2.377   1.521   1.871
 9799SOL     OW30295   3.025   3.903   2.541
 9799SOL    HW130296   2.979   3.990   2.527
 9799SOL    HW230297   3.119   3.909   2.506
 9800SOL     OW30298   3.765   5.011   0.114
 9800SOL    HW130299   3.820   5.027   0.032
 9800SOL    HW230300   3.741   4.915   0.120
 9801SOL     OW30301   5.035   5.543   0.688
 9801SOL    HW130302   5.051   5.472   0.756
 9801SOL    HW230303   5.101   5.534   0.614
 9802SOL     OW30304   0.887   5.265   1.599
 9802SOL    HW130305   0.937   5.178   1.595
 9802SOL    HW230306   0.827   5.265   1.679
 9803SOL     OW30307   4.777   0.419   6.320
 9803SOL    HW130308   4.804   0.323   6.314
 9803SOL    HW230309   4.732   0.436   6.407
 9804SOL     OW30310   5.412   5.532   4.294
 9804SOL    HW130311   5.398   5.535   4.393
 9804SOL    HW230312   5.505   5.500   4.275
 9805SOL     OW30313   3.572   4.396   1.096
 9805SOL    HW130314   3.539   4.354   1.181
 9805SOL    HW230315   3.667   4.368   1.081
 9806SOL     OW30316   6.962   1.711   2.561
 9806SOL    HW130317   7.018   1.792   2.546
 9806SOL    HW230318   6.982   1.642   2.492
 9807SOL     OW30319   2.630   3.059   0.969
 9807SOL    HW130320   2.590   3.000   0.899
 9807SOL    HW230321   2.591   3.151   0.963
 9808SOL     OW30322   1.538   1.788   4.917
 9808SOL    HW130323   1.521   1.855   4.845
 9808SOL    HW230324   1.635   1.788   4.940
 9809SOL     OW30325   0.642   0.658   4.499
 9809SOL    HW130326   0.591   0.574   4.486
 9809SOL    HW230327   0.739   0.637   4.514
 9810SOL     OW30328   4.644   1.726   2.601
 9810SOL    HW130329   4.714   1.658   2.577
 9810SOL    HW230330   4.621   1.716   2.698
 9811SOL     OW30331   0.914   0.196   2.640
 9811SOL    HW130332   0.885   0.120   2.582
 9811SOL    HW230333   0.887   0.283   2.599
 9812SOL     OW30334   5.575   2.721   5.361
 9812SOL    HW130335   5.502   2.768   5.411
 9812SOL    HW230336   5.638   2.788   5.323
 9813SOL     OW30337   6.422   4.239   0.618
 9813SOL    HW130338   6.387   4.237   0.525
 9813SOL    HW230339   6.351   4.208   0.681
 9814SOL     OW30340   6.779   0.738   5.565
 9814SOL    HW130341   6.758   0.816   5.625
 9814SOL    HW230342   6.855   0.686   5.604
 9815SOL     OW30343   0.365   3.913   2.685
 9815SOL    HW130344   0.463   3.931   2.690
 9815SOL    HW230345   0.348   3.845   2.614
 9816SOL     OW30346   5.842   0.889   5.921
 9816SOL    HW130347   5.870   0.868   6.015
 9816SOL    HW230348   5.813   0.985   5.916
 9817SOL     OW30349   2.440   0.821   0.753
 9817SOL    HW130350   2.523   0.768   0.742
 9817SOL    HW230351   2.410   0.817   0.849
 9818SOL     OW30352   0.275   6.810   2.842
 9818SOL    HW130353   0.268   6.891   2.901
 9818SOL    HW230354   0.188   6.797   2.794
 9819SOL     OW30355   6.700   2.212   4.454
 9819SOL    HW130356   6.649   2.175   4.377
 9819SOL    HW230357   6.666   2.171   4.539
 9820SOL     OW30358   3.599   2.143   6.166
 9820SOL    HW130359   3.619   2.116   6.260
 9820SOL    HW230360   3.510   2.189   6.163
 9821SOL     OW30361   4.007   2.886   0.492
 9821SOL    HW130362   3.954   2.827   0.553
 9821SOL    HW230363   3.956   2.970   0.474
 9822SOL     OW30364   3.317   5.423   4.045
 9822SOL    HW130365   3.240   5.485   4.029
 9822SOL    HW230366   3.377   5.424   3.965
 9823SOL     OW30367   3.977   6.399   3.545
 9823SOL    HW130368   3.944   6.321   3.598
 9823SOL    HW230369   4.026   6.366   3.464
 9824SOL     OW30370   1.636   5.664   5.561
 9824SOL    HW130371   1.663   5.568   5.569
 9824SOL    HW230372   1.584   5.690   5.643
 9825SOL     OW30373   0.333   6.129   5.265
 9825SOL    HW130374   0.406   6.104   5.202
 9825SOL    HW230375   0.256   6.065   5.254
 9826SOL     OW30376   1.849   5.509   5.873
 9826SOL    HW130377   1.750   5.492   5.874
 9826SOL    HW230378   1.870   5.576   5.801
 9827SOL     OW30379   2.104   4.574   1.725
 9827SOL    HW130380   2.196   4.601   1.698
 9827SOL    HW230381   2.109   4.496   1.788
 9828SOL     OW30382   4.512   2.100   4.857
 9828SOL    HW130383   4.605   2.121   4.888
 9828SOL    HW230384   4.512   2.087   4.758
 9829SOL     OW30385   5.365   4.613   5.497
 9829SOL    HW130386   5.453   4.631   5.454
 9829SOL    HW230387   5.318   4.539   5.449
 9830SOL     OW30388   5.849   1.674   3.570
 9830SOL    HW130389   5.773   1.720   3.615
 9830SOL    HW230390   5.908   1.741   3.526
 9831SOL     OW30391   0.429   4.496   1.922
 9831SOL    HW130392   0.481   4.577   1.949
 9831SOL    HW230393   0.400   4.447   2.004
 9832SOL     OW30394   4.842   5.516   4.549
 9832SOL    HW130395   4.807   5.610   4.557
 9832SOL    HW230396   4.899   5.509   4.467
 9833SOL     OW30397   4.016   3.184   4.666
 9833SOL    HW130398   4.011   3.270   4.718
 9833SOL    HW230399   4.108   3.172   4.629
 9834SOL     OW30400   3.436   5.788   5.532
 9834SOL    HW130401   3.340   5.779   5.505
 9834SOL    HW230402   3.447   5.757   5.626
 9835SOL     OW30403   4.061   3.513   3.709
 9835SOL    HW130404   4.004   3.582   3.753
 9835SOL    HW230405   4.104   3.553   3.628
 9836SOL     OW30406   6.507   3.282   5.401
 9836SOL    HW130407   6.595   3.326   5.384
 9836SOL    HW230408   6.521   3.185   5.421
 9837SOL     OW30409   6.295   1.125   3.107
 9837SOL    HW130410   6.331   1.166   3.191
 9837SOL    HW230411   6.199   1.153   3.095
 9838SOL     OW30412   0.390   5.931   0.520
 9838SOL    HW130413   0.410   5.867   0.446
 9838SOL    HW230414   0.295   5.963   0.512
 9839SOL     OW30415   4.754   6.454   3.656
 9839SOL    HW130416   4.696   6.436   3.736
 9839SOL    HW230417   4.848   6.467   3.685
 9840SOL     OW30418   6.475   1.560   6.505
 9840SOL    HW130419   6.456   1.653   6.536
 9840SOL    HW230420   6.448   1.551   6.409
 9841SOL     OW30421   6.744   5.859   2.715
 9841SOL    HW130422   6.808   5.808   2.657
 9841SOL    HW230423   6.770   5.847   2.811
 9842SOL     OW30424   3.482   0.325   0.206
 9842SOL    HW130425   3.566   0.298   0.158
 9842SOL    HW230426   3.404   0.279   0.165
 9843SOL     OW30427   6.955   0.352   1.259
 9843SOL    HW130428   6.966   0.449   1.281
 9843SOL    HW230429   0.007   0.324   1.196
 9844SOL     OW30430   5.163   0.696   5.329
 9844SOL    HW130431   5.155   0.622   5.396
 9844SOL    HW230432   5.195   0.658   5.242
 9845SOL     OW30433   0.977   4.003   2.169
 9845SOL    HW130434   1.026   4.088   2.150
 9845SOL    HW230435   1.031   3.946   2.230
 9846SOL     OW30436   5.746   1.652   2.114
 9846SOL    HW130437   5.753   1.677   2.018
 9846SOL    HW230438   5.774   1.556   2.126
 9847SOL     OW30439   4.133   4.369   6.762
 9847SOL    HW130440   4.141   4.430   6.841
 9847SOL    HW230441   4.090   4.283   6.790
 9848SOL     OW30442   3.233   4.177   5.481
 9848SOL    HW130443   3.319   4.160   5.432
 9848SOL    HW230444   3.182   4.248   5.433
 9849SOL     OW30445   1.800   2.231   3.889
 9849SOL    HW130446   1.719   2.287   3.876
 9849SOL    HW230447   1.858   2.235   3.808
 9850SOL     OW30448   1.245   0.073   4.414
 9850SOL    HW130449   1.342   0.087   4.394
 9850SOL    HW230450   1.219   6.999   4.388
 9851SOL     OW30451   3.873   5.694   3.786
 9851SOL    HW130452   3.891   5.606   3.741
 9851SOL    HW230453   3.776   5.717   3.777
 9852SOL     OW30454   1.871   6.361   0.026
 9852SOL    HW130455   1.911   6.426   6.980
 9852SOL    HW230456   1.872   6.269   7.006
 9853SOL     OW30457   0.558   4.285   3.797
 9853SOL    HW130458   0.594   4.211   3.740
 9853SOL    HW230459   0.518   4.247   3.880
 9854SOL     OW30460   6.571   3.694   7.008
 9854SOL    HW130461   6.571   3.769   0.054
 9854SOL    HW230462   6.665   3.674   6.980
 9855SOL     OW30463   0.614   6.161   0.074
 9855SOL    HW130464   0.527   6.205   0.052
 9855SOL    HW230465   0.663   6.216   0.142
 9856SOL     OW30466   4.970   3.675   2.986
 9856SOL    HW130467   4.877   3.704   3.008
 9856SOL    HW230468   4.997   3.601   3.047
 9857SOL     OW30469   4.748   0.321   5.842
 9857SOL    HW130470   4.688   0.386   5.889
 9857SOL    HW230471   4.700   0.233   5.831
 9858SOL     OW30472   6.330   6.021   2.702
 9858SOL    HW130473   6.342   5.927   2.736
 9858SOL    HW230474   6.272   6.020   2.621
 9859SOL     OW30475   0.993   5.403   2.520
 9859SOL    HW130476   0.900   5.398   2.556
 9859SOL    HW230477   1.010   5.495   2.484
 9860SOL     OW30478   1.637   3.058   4.042
 9860SOL    HW130479   1.669   3.061   3.947
 9860SOL    HW230480   1.668   3.141   4.090
 9861SOL     OW30481   3.800   2.171   3.372
 9861SOL    HW130482   3.882   2.222   3.399
 9861SOL    HW230483   3.738   2.164   3.449
 9862SOL     OW30484   1.662   3.293   6.278
 9862SOL    HW130485   1.629   3.373   6.327
 9862SOL    HW230486   1.720   3.321   6.202
 9863SOL     OW30487   4.433   6.441   2.330
 9863SOL    HW130488   4.525   6.470   2.358
 9863SOL    HW230489   4.435   6.344   2.305
 9864SOL     OW30490   2.611   6.383   5.055
 9864SOL    HW130491   2.609   6.319   4.978
 9864SOL    HW230492   2.629   6.332   5.139
 9865SOL     OW30493   2.167   5.693   5.520
 9865SOL    HW130494   2.190   5.789   5.504
 9865SOL    HW230495   2.220   5.635   5.459
 9866SOL     OW30496   6.377   5.311   5.773
 9866SOL    HW130497   6.394   5.258   5.690
 9866SOL    HW230498   6.279   5.310   5.795
 9867SOL     OW30499   4.348   1.267   1.771
 9867SOL    HW130500   4.431   1.256   1.826
 9867SOL    HW230501   4.367   1.239   1.677
 9868SOL     OW30502   2.306   4.722   3.912
 9868SOL    HW130503   2.275   4.677   3.828
 9868SOL    HW230504   2.291   4.660   3.990
 9869SOL     OW30505   6.698   2.387   2.129
 9869SOL    HW130506   6.653   2.430   2.050
 9869SOL    HW230507   6.746   2.457   2.182
 9870SOL     OW30508   1.971   2.088   2.856
 9870SOL    HW130509   1.894   2.029   2.831
 9870SOL    HW230510   2.049   2.067   2.797
 9871SOL     OW30511   5.553   5.860   3.539
 9871SOL    HW130512   5.642   5.829   3.570
 9871SOL    HW230513   5.512   5.791   3.479
 9872SOL     OW30514   0.774   5.987   5.516
 9872SOL    HW130515   0.710   6.045   5.567
 9872SOL    HW230516   0.723   5.934   5.447
 9873SOL     OW30517   0.985   1.085   5.401
 9873SOL    HW130518   1.073   1.088   5.449
 9873SOL    HW230519   0.913   1.059   5.465
 9874SOL     OW30520   0.174   2.508   3.715
 9874SOL    HW130521   0.183   2.409   3.726
 9874SOL    HW230522   0.112   2.545   3.784
 9875SOL     OW30523   6.410   6.294   0.572
 9875SOL    HW130524   6.424   6.342   0.485
 9875SOL    HW230525   6.347   6.347   0.629
 9876SOL     OW30526   6.942   6.653   3.758
 9876SOL    HW130527   6.901   6.564   3.780
 9876SOL    HW230528   6.922   6.718   3.831
 9877SOL     OW30529   1.234   6.217   4.872
 9877SOL    HW130530   1.165   6.170   4.927
 9877SOL    HW230531   1.191   6.258   4.792
 9878SOL     OW30532   3.590   2.684   6.859
 9878SOL    HW130533   3.652   2.642   6.926
 9878SOL    HW230534   3.630   2.769   6.824
 9879SOL     OW30535   6.526   5.888   4.488
 9879SOL    HW130536   6.429   5.876   4.505
 9879SOL    HW230537   6.548   5.853   4.396
 9880SOL     OW30538   3.453   1.246   1.166
 9880SOL    HW130539   3.378   1.186   1.139
 9880SOL    HW230540   3.429   1.341   1.144
 9881SOL     OW30541   6.052   0.531   3.281
 9881SOL    HW130542   5.953   0.519   3.286
 9881SOL    HW230543   6.078   0.560   3.188
 9882SOL     OW30544   3.461   3.431   4.862
 9882SOL    HW130545   3.474   3.360   4.931
 9882SOL    HW230546   3.430   3.390   4.777
 9883SOL     OW30547   1.915   6.453   2.356
 9883SOL    HW130548   1.924   6.410   2.446
 9883SOL    HW230549   1.851   6.399   2.300
 9884SOL     OW30550   3.233   2.528   5.346
 9884SOL    HW130551   3.189   2.458   5.290
 9884SOL    HW230552   3.264   2.603   5.287
 9885SOL     OW30553   4.405   2.341   5.616
 9885SOL    HW130554   4.358   2.276   5.556
 9885SOL    HW230555   4.498   2.310   5.632
 9886SOL     OW30556   2.721   6.168   1.667
 9886SOL    HW130557   2.670   6.144   1.750
 9886SOL    HW230558   2.688   6.113   1.591
 9887SOL     OW30559   3.331   1.101   0.196
 9887SOL    HW130560   3.362   1.050   0.276
 9887SOL    HW230561   3.231   1.105   0.195
 9888SOL     OW30562   6.286   6.763   3.734
 9888SOL    HW130563   6.315   6.793   3.825
 9888SOL    HW230564   6.203   6.813   3.708
 9889SOL     OW30565   6.879   5.216   3.075
 9889SOL    HW130566   6.816   5.241   3.148
 9889SOL    HW230567   6.966   5.186   3.116
 9890SOL     OW30568   1.132   3.366   2.839
 9890SOL    HW130569   1.082   3.279   2.847
 9890SOL    HW230570   1.186   3.381   2.922
 9891SOL     OW30571   4.539   6.285   1.824
 9891SOL    HW130572   4.554   6.273   1.922
 9891SOL    HW230573   4.624   6.265   1.774
 9892SOL     OW30574   1.721   5.839   3.719
 9892SOL    HW130575   1.661   5.919   3.715
 9892SOL    HW230576   1.675   5.766   3.770
 9893SOL     OW30577   5.997   4.251   5.529
 9893SOL    HW130578   5.964   4.346   5.531
 9893SOL    HW230579   6.092   4.248   5.560
 9894SOL     OW30580   4.436   3.933   5.348
 9894SOL    HW130581   4.352   3.917   5.400
 9894SOL    HW230582   4.431   4.023   5.303
 9895SOL     OW30583   5.321   2.001   6.192
 9895SOL    HW130584   5.349   1.943   6.115
 9895SOL    HW230585   5.357   2.093   6.180
 9896SOL     OW30586   3.961   3.454   6.813
 9896SOL    HW130587   3.985   3.489   6.904
 9896SOL    HW230588   4.041   3.458   6.753
 9897SOL     OW30589   0.609   1.591   3.176
 9897SOL    HW130590   0.541   1.665   3.182
 9897SOL    HW230591   0.563   1.505   3.154
 9898SOL     OW30592   1.042   4.917   0.261
 9898SOL    HW130593   1.085   4.874   0.340
 9898SOL    HW230594   0.951   4.951   0.288
 9899SOL     OW30595   4.244   5.159   2.233
 9899SOL    HW130596   4.149   5.185   2.244
 9899SOL    HW230597   4.302   5.240   2.236
 9900SOL     OW30598   2.282   4.578   4.155
 9900SOL    HW130599   2.352   4.632   4.201
 9900SOL    HW230600   2.321   4.490   4.126
 9901SOL     OW30601   2.059   2.157   5.656
 9901SOL    HW130602   2.142   2.213   5.655
 9901SOL    HW230603   2.060   2.096   5.735
 9902SOL     OW30604   4.361   3.635   6.598
 9902SOL    HW130605   4.452   3.610   6.630
 9902SOL    HW230606   4.367   3.663   6.502
 9903SOL     OW30607   3.144   1.637   1.537
 9903SOL    HW130608   3.118   1.699   1.611
 9903SOL    HW230609   3.206   1.567   1.573
 9904SOL     OW30610   0.326   6.654   2.500
 9904SOL    HW130611   0.231   6.624   2.508
 9904SOL    HW230612   0.378   6.622   2.579
 9905SOL     OW30613   1.883   6.777   5.862
 9905SOL    HW130614   1.964   6.810   5.911
 9905SOL    HW230615   1.911   6.724   5.783
 9906SOL     OW30616   3.228   3.789   6.009
 9906SOL    HW130617   3.222   3.805   5.910
 9906SOL    HW230618   3.307   3.730   6.028
 9907SOL     OW30619   1.377   6.992   2.860
 9907SOL    HW130620   1.332   0.046   2.810
 9907SOL    HW230621   1.308   6.931   2.898
 9908SOL     OW30622   6.269   3.185   5.838
 9908SOL    HW130623   6.287   3.142   5.750
 9908SOL    HW230624   6.217   3.269   5.825
 9909SOL     OW30625   3.494   6.696   2.394
 9909SOL    HW130626   3.499   6.628   2.321
 9909SOL    HW230627   3.428   6.767   2.370
 9910SOL     OW30628   0.826   4.910   1.019
 9910SOL    HW130629   0.857   4.879   1.108
 9910SOL    HW230630   0.889   4.877   0.948
 9911SOL     OW30631   3.717   4.978   2.992
 9911SOL    HW130632   3.619   4.959   2.990
 9911SOL    HW230633   3.732   5.076   3.002
 9912SOL     OW30634   4.565   6.958   0.944
 9912SOL    HW130635   4.473   6.980   0.913
 9912SOL    HW230636   4.632   6.988   0.876
 9913SOL     OW30637   5.029   2.443   3.010
 9913SOL    HW130638   4.953   2.425   2.946
 9913SOL    HW230639   4.994   2.443   3.103
 9914SOL     OW30640   2.487   5.533   4.591
 9914SOL    HW130641   2.464   5.438   4.612
 9914SOL    HW230642   2.576   5.556   4.631
 9915SOL     OW30643   6.186   4.050   4.255
 9915SOL    HW130644   6.231   4.130   4.294
 9915SOL    HW230645   6.247   3.971   4.261
 9916SOL     OW30646   2.899   3.944   0.438
 9916SOL    HW130647   2.972   3.936   0.507
 9916SOL    HW230648   2.826   4.001   0.473
 9917SOL     OW30649   2.266   3.023   4.779
 9917SOL    HW130650   2.295   3.005   4.874
 9917SOL    HW230651   2.313   2.959   4.718
 9918SOL     OW30652   2.535   0.649   4.375
 9918SOL    HW130653   2.613   0.659   4.313
 9918SOL    HW230654   2.556   0.694   4.462
 9919SOL     OW30655   0.737   5.419   1.992
 9919SOL    HW130656   0.660   5.382   2.044
 9919SOL    HW230657   0.731   5.387   1.897
 9920SOL     OW30658   4.424   6.964   2.735
 9920SOL    HW130659   4.383   6.873   2.721
 9920SOL    HW230660   4.359   0.015   2.706
 9921SOL     OW30661   4.874   0.511   2.791
 9921SOL    HW130662   4.863   0.583   2.724
 9921SOL    HW230663   4.971   0.499   2.812
 9922SOL     OW30664   5.285   2.503   1.956
 9922SOL    HW130665   5.338   2.508   2.041
 9922SOL    HW230666   5.200   2.454   1.973
 9923SOL     OW30667   5.856   0.567   6.657
 9923SOL    HW130668   5.905   0.654   6.657
 9923SOL    HW230669   5.845   0.535   6.751
 9924SOL     OW30670   5.232   0.981   4.029
 9924SOL    HW130671   5.258   0.975   3.933
 9924SOL    HW230672   5.192   1.071   4.047
 9925SOL     OW30673   3.707   2.112   4.576
 9925SOL    HW130674   3.755   2.138   4.660
 9925SOL    HW230675   3.770   2.060   4.518
 9926SOL     OW30676   1.717   0.931   5.588
 9926SOL    HW130677   1.663   0.905   5.668
 9926SOL    HW230678   1.686   1.020   5.554
 9927SOL     OW30679   0.763   2.684   2.887
 9927SOL    HW130680   0.773   2.701   2.789
 9927SOL    HW230681   0.825   2.611   2.915
 9928SOL     OW30682   0.130   3.194   2.128
 9928SOL    HW130683   0.060   3.200   2.058
 9928SOL    HW230684   0.109   3.257   2.203
 9929SOL     OW30685   0.718   5.060   5.357
 9929SOL    HW130686   0.656   5.135   5.379
 9929SOL    HW230687   0.692   4.978   5.408
 9930SOL     OW30688   6.761   5.537   5.931
 9930SOL    HW130689   6.808   5.626   5.928
 9930SOL    HW230690   6.829   5.464   5.936
 9931SOL     OW30691   2.074   5.040   6.782
 9931SOL    HW130692   2.051   5.111   6.715
 9931SOL    HW230693   2.001   4.972   6.785
 9932SOL     OW30694   2.474   2.751   1.040
 9932SOL    HW130695   2.457   2.659   1.077
 9932SOL    HW230696   2.535   2.800   1.102
 9933SOL     OW30697   0.853   1.284   2.579
 9933SOL    HW130698   0.859   1.317   2.674
 9933SOL    HW230699   0.825   1.188   2.579
 9934SOL     OW30700   5.093   0.384   6.098
 9934SOL    HW130701   5.052   0.469   6.065
 9934SOL    HW230702   5.120   0.395   6.194
 9935SOL     OW30703   2.510   2.931   0.758
 9935SOL    HW130704   2.553   2.882   0.682
 9935SOL    HW230705   2.444   2.872   0.804
 9936SOL     OW30706   5.178   6.531   6.874
 9936SOL    HW130707   5.094   6.526   6.928
 9936SOL    HW230708   5.227   6.615   6.895
 9937SOL     OW30709   1.663   6.729   3.824
 9937SOL    HW130710   1.673   6.640   3.780
 9937SOL    HW230711   1.729   6.738   3.898
 9938SOL     OW30712   0.068   1.314   3.570
 9938SOL    HW130713   0.031   1.339   3.659
 9938SOL    HW230714   0.070   1.395   3.510
 9939SOL     OW30715   2.449   3.784   1.354
 9939SOL    HW130716   2.467   3.784   1.255
 9939SOL    HW230717   2.361   3.828   1.372
 9940SOL     OW30718   0.224   0.567   3.319
 9940SOL    HW130719   0.228   0.480   3.269
 9940SOL    HW230720   0.293   0.566   3.392
 9941SOL     OW30721   5.583   3.557   1.013
 9941SOL    HW130722   5.638   3.629   1.056
 9941SOL    HW230723   5.636   3.514   0.940
 9942SOL     OW30724   6.436   5.759   2.772
 9942SOL    HW130725   6.496   5.783   2.849
 9942SOL    HW230726   6.476   5.682   2.722
 9943SOL     OW30727   1.755   4.136   5.512
 9943SOL    HW130728   1.786   4.153   5.606
 9943SOL    HW230729   1.689   4.206   5.486
 9944SOL     OW30730   2.184   5.441   6.575
 9944SOL    HW130731   2.252   5.438   6.501
 9944SOL    HW230732   2.231   5.437   6.663
 9945SOL     OW30733   6.448   3.313   6.760
 9945SOL    HW130734   6.473   3.395   6.708
 9945SOL    HW230735   6.530   3.273   6.801
 9946SOL     OW30736   4.821   2.499   1.459
 9946SOL    HW130737   4.732   2.503   1.505
 9946SOL    HW230738   4.889   2.460   1.521
 9947SOL     OW30739   1.069   1.287   2.948
 9947SOL    HW130740   0.993   1.285   2.883
 9947SOL    HW230741   1.092   1.382   2.969
 9948SOL     OW30742   5.941   0.789   5.394
 9948SOL    HW130743   5.864   0.821   5.338
 9948SOL    HW230744   5.908   0.767   5.486
 9949SOL     OW30745   6.465   3.499   2.768
 9949SOL    HW130746   6.479   3.598   2.757
 9949SOL    HW230747   6.551   3.457   2.798
 9950SOL     OW30748   4.586   5.174   5.999
 9950SOL    HW130749   4.629   5.158   6.088
 9950SOL    HW230750   4.543   5.264   5.998
 9951SOL     OW30751   0.350   2.441   3.114
 9951SOL    HW130752   0.351   2.362   3.053
 9951SOL    HW230753   0.432   2.440   3.171
 9952SOL     OW30754   1.235   4.913   1.603
 9952SOL    HW130755   1.302   4.894   1.674
 9952SOL    HW230756   1.213   4.829   1.554
 9953SOL     OW30757   6.323   4.528   4.410
 9953SOL    HW130758   6.242   4.542   4.467
 9953SOL    HW230759   6.405   4.539   4.466
 9954SOL     OW30760   4.118   1.344   1.122
 9954SOL    HW130761   4.098   1.267   1.182
 9954SOL    HW230762   4.092   1.321   1.028
 9955SOL     OW30763   5.993   4.935   1.109
 9955SOL    HW130764   6.027   4.850   1.069
 9955SOL    HW230765   6.063   4.973   1.170
 9956SOL     OW30766   1.521   3.276   3.510
 9956SOL    HW130767   1.463   3.199   3.535
 9956SOL    HW230768   1.544   3.329   3.591
 9957SOL     OW30769   5.134   7.009   0.291
 9957SOL    HW130770   5.127   6.909   0.298
 9957SOL    HW230771   5.204   0.022   0.354
 9958SOL     OW30772   5.664   6.202   6.076
 9958SOL    HW130773   5.759   6.188   6.049
 9958SOL    HW230774   5.614   6.247   6.002
 9959SOL     OW30775   5.963   4.796   0.070
 9959SOL    HW130776   5.928   4.738   7.016
 9959SOL    HW230777   6.022   4.867   0.032
 9960SOL     OW30778   6.661   0.327   6.963
 9960SOL    HW130779   6.678   0.422   6.936
 9960SOL    HW230780   6.689   0.314   0.039
 9961SOL     OW30781   3.030   6.052   0.614
 9961SOL    HW130782   3.089   6.110   0.558
 9961SOL    HW230783   2.985   6.108   0.684
 9962SOL     OW30784   3.356   0.601   1.517
 9962SOL    HW130785   3.443   0.643   1.492
 9962SOL    HW230786   3.372   0.522   1.576
 9963SOL     OW30787   0.982   0.158   6.369
 9963SOL    HW130788   0.927   0.241   6.360
 9963SOL    HW230789   0.996   0.139   6.466
 9964SOL     OW30790   4.619   4.981   5.218
 9964SOL    HW130791   4.615   4.957   5.121
 9964SOL    HW230792   4.705   5.029   5.237
 9965SOL     OW30793   2.858   4.839   4.407
 9965SOL    HW130794   2.936   4.900   4.416
 9965SOL    HW230795   2.813   4.830   4.496
 9966SOL     OW30796   3.220   5.809   2.667
 9966SOL    HW130797   3.278   5.849   2.738
 9966SOL    HW230798   3.125   5.837   2.682
 9967SOL     OW30799   0.453   0.418   2.886
 9967SOL    HW130800   0.361   0.431   2.850
 9967SOL    HW230801   0.491   0.507   2.912
 9968SOL     OW30802   4.445   6.736   6.593
 9968SOL    HW130803   4.366   6.699   6.544
 9968SOL    HW230804   4.516   6.666   6.600
 9969SOL     OW30805   7.013   5.684   3.231
 9969SOL    HW130806   0.065   5.750   3.255
 9969SOL    HW230807   6.923   5.727   3.242
 9970SOL     OW30808   6.643   3.424   2.075
 9970SOL    HW130809   6.648   3.329   2.107
 9970SOL    HW230810   6.551   3.444   2.044
 9971SOL     OW30811   0.254   5.148   4.347
 9971SOL    HW130812   0.302   5.223   4.393
 9971SOL    HW230813   0.263   5.157   4.248
 9972SOL     OW30814   2.752   4.382   5.775
 9972SOL    HW130815   2.675   4.365   5.713
 9972SOL    HW230816   2.728   4.351   5.867
 9973SOL     OW30817   3.198   1.719   2.916
 9973SOL    HW130818   3.100   1.729   2.895
 9973SOL    HW230819   3.252   1.767   2.847
 9974SOL     OW30820   0.908   2.319   2.933
 9974SOL    HW130821   0.837   2.348   2.869
 9974SOL    HW230822   0.962   2.246   2.892
 9975SOL     OW30823   2.459   4.289   6.228
 9975SOL    HW130824   2.460   4.202   6.179
 9975SOL    HW230825   2.378   4.341   6.201
 9976SOL     OW30826   3.851   6.313   5.173
 9976SOL    HW130827   3.797   6.395   5.188
 9976SOL    HW230828   3.922   6.332   5.105
 9977SOL     OW30829   4.451   0.536   5.336
 9977SOL    HW130830   4.418   0.625   5.368
 9977SOL    HW230831   4.538   0.549   5.288
 9978SOL     OW30832   0.354   2.747   0.100
 9978SOL    HW130833   0.290   2.684   0.055
 9978SOL    HW230834   0.399   2.804   0.030
 9979SOL     OW30835   3.779   3.718   4.551
 9979SOL    HW130836   3.686   3.749   4.530
 9979SOL    HW230837   3.780   3.679   4.643
 9980SOL     OW30838   0.950   0.985   0.116
 9980SOL    HW130839   0.940   1.083   0.100
 9980SOL    HW230840   0.867   0.950   0.159
 9981SOL     OW30841   5.264   0.571   0.165
 9981SOL    HW130842   5.295   0.503   0.231
 9981SOL    HW230843   5.189   0.534   0.110
 9982SOL     OW30844   2.775   2.337   4.400
 9982SOL    HW130845   2.803   2.309   4.492
 9982SOL    HW230846   2.846   2.313   4.334
 9983SOL     OW30847   0.620   3.124   2.240
 9983SOL    HW130848   0.560   3.154   2.166
 9983SOL    HW230849   0.702   3.081   2.201
 9984SOL     OW30850   0.475   4.787   1.123
 9984SOL    HW130851   0.458   4.689   1.127
 9984SOL    HW230852   0.525   4.815   1.204
 9985SOL     OW30853   4.788   4.387   0.191
 9985SOL    HW130854   4.827   4.419   0.277
 9985SOL    HW230855   4.826   4.440   0.115
 9986SOL     OW30856   5.320   4.962   0.591
 9986SOL    HW130857   5.273   5.024   0.655
 9986SOL    HW230858   5.262   4.945   0.513
 9987SOL     OW30859   5.087   2.047   1.229
 9987SOL    HW130860   5.036   2.067   1.145
 9987SOL    HW230861   5.027   2.003   1.295
 9988SOL     OW30862   6.021   6.469   3.511
 9988SOL    HW130863   6.102   6.473   3.452
 9988SOL    HW230864   6.048   6.480   3.606
 9989SOL     OW30865   6.622   5.455   2.075
 9989SOL    HW130866   6.654   5.543   2.112
 9989SOL    HW230867   6.700   5.396   2.056
 9990SOL     OW30868   0.210   6.144   3.251
 9990SOL    HW130869   0.250   6.199   3.177
 9990SOL    HW230870   0.243   6.177   3.339
 9991SOL     OW30871   2.177   4.089   2.297
 9991SOL    HW130872   2.179   4.188   2.307
 9991SOL    HW230873   2.225   4.046   2.374
 9992SOL     OW30874   2.662   5.430   0.364
 9992SOL    HW130875   2.651   5.380   0.450
 9992SOL    HW230876   2.606   5.512   0.365
 9993SOL     OW30877   4.391   0.179   4.753
 9993SOL    HW130878   4.327   0.159   4.827
 9993SOL    HW230879   4.419   0.274   4.757
 9994SOL     OW30880   6.211   5.278   4.870
 9994SOL    HW130881   6.270   5.216   4.921
 9994SOL    HW230882   6.170   5.229   4.793
 9995SOL     OW30883   4.385   1.861   6.263
 9995SOL    HW130884   4.297   1.896   6.229
 9995SOL    HW230885   4.377   1.763   6.279
 9996SOL     OW30886   2.705   4.248   1.045
 9996SOL    HW130887   2.689   4.150   1.055
 9996SOL    HW230888   2.764   4.279   1.120
 9997SOL     OW30889   6.788   1.357   2.958
 9997SOL    HW130890   6.688   1.354   2.962
 9997SOL    HW230891   6.820   1.443   2.995
 9998SOL     OW30892   5.187   3.934   2.594
 9998SOL    HW130893   5.210   4.032   2.591
 9998SOL    HW230894   5.088   3.923   2.589
 9999SOL     OW30895   0.524   6.869   4.607
 9999SOL    HW130896   0.426   6.886   4.611
 9999SOL    HW230897   0.570   6.926   4.676
10000SOL     OW30898   4.309   2.323   1.279
10000SOL    HW130899   4.325   2.386   1.202
10000SOL    HW230900   4.300   2.230   1.244
10001SOL     OW30901   4.035   5.865   1.522
10001SOL    HW130902   4.113   5.917   1.487
10001SOL    HW230903   3.965   5.928   1.556
10002SOL     OW30904   2.209   0.095   2.110
10002SOL    HW130905   2.198   0.156   2.031
10002SOL    HW230906   2.250   0.146   2.185
10003SOL     OW30907   1.467   1.086   2.733
10003SOL    HW130908   1.491   0.991   2.716
10003SOL    HW230909   1.415   1.122   2.656
10004SOL     OW30910   0.344   3.933   3.636
10004SOL    HW130911   0.357   4.033   3.639
10004SOL    HW230912   0.422   3.892   3.588
10005SOL     OW30913   2.501   5.836   3.406
10005SOL    HW130914   2.492   5.809   3.310
10005SOL    HW230915   2.470   5.761   3.465
10006SOL     OW30916   5.155   1.555   5.342
10006SOL    HW130917   5.075   1.605   5.376
10006SOL    HW230918   5.141   1.532   5.246
10007SOL     OW30919   1.536   5.200   3.970
10007SOL    HW130920   1.602   5.197   4.045
10007SOL    HW230921   1.568   5.143   3.895
10008SOL     OW30922   4.500   1.000   6.072
10008SOL    HW130923   4.505   1.098   6.052
10008SOL    HW230924   4.527   0.948   5.990
10009SOL     OW30925   0.755   4.978   2.359
10009SOL    HW130926   0.756   5.033   2.443
10009SOL    HW230927   0.778   5.037   2.281
10010SOL     OW30928   1.878   4.198   1.584
10010SOL    HW130929   1.793   4.196   1.637
10010SOL    HW230930   1.862   4.244   1.497
10011SOL     OW30931   2.916   2.985   0.259
10011SOL    HW130932   2.964   3.065   0.297
10011SOL    HW230933   2.841   2.960   0.320
10012SOL     OW30934   5.460   1.954   3.531
10012SOL    HW130935   5.380   1.959   3.590
10012SOL    HW230936   5.432   1.960   3.435
10013SOL     OW30937   0.716   6.470   4.479
10013SOL    HW130938   0.719   6.485   4.380
10013SOL    HW230939   0.633   6.513   4.516
10014SOL     OW30940   1.109   0.807   3.346
10014SOL    HW130941   1.117   0.894   3.298
10014SOL    HW230942   1.076   0.823   3.439
10015SOL     OW30943   3.820   6.809   6.496
10015SOL    HW130944   3.804   6.864   6.413
10015SOL    HW230945   3.785   6.717   6.481
10016SOL     OW30946   2.277   1.136   4.392
10016SOL    HW130947   2.312   1.157   4.300
10016SOL    HW230948   2.331   1.062   4.432
10017SOL     OW30949   3.300   1.555   2.700
10017SOL    HW130950   3.235   1.585   2.630
10017SOL    HW230951   3.261   1.572   2.790
10018SOL     OW30952   0.149   3.917   5.315
10018SOL    HW130953   0.099   4.003   5.315
10018SOL    HW230954   0.094   3.846   5.271
10019SOL     OW30955   0.049   2.062   2.014
10019SOL    HW130956   0.069   2.147   1.966
10019SOL    HW230957   0.116   1.993   1.989
10020SOL     OW30958   6.853   1.047   2.174
10020SOL    HW130959   6.951   1.028   2.171
10020SOL    HW230960   6.820   1.038   2.269
10021SOL     OW30961   0.808   3.029   2.041
10021SOL    HW130962   0.881   3.089   2.008
10021SOL    HW230963   0.781   2.966   1.968
10022SOL     OW30964   1.253   6.235   5.895
10022SOL    HW130965   1.330   6.249   5.832
10022SOL    HW230966   1.207   6.322   5.912
10023SOL     OW30967   6.984   1.653   6.036
10023SOL    HW130968   0.016   1.622   5.956
10023SOL    HW230969   7.004   1.750   6.053
10024SOL     OW30970   2.058   4.628   2.832
10024SOL    HW130971   2.149   4.665   2.851
10024SOL    HW230972   2.014   4.603   2.918
10025SOL     OW30973   0.991   3.297   1.284
10025SOL    HW130974   1.062   3.367   1.278
10025SOL    HW230975   0.976   3.257   1.193
10026SOL     OW30976   5.635   1.239   5.255
10026SOL    HW130977   5.639   1.204   5.348
10026SOL    HW230978   5.561   1.307   5.247
10027SOL     OW30979   3.367   1.548   5.112
10027SOL    HW130980   3.376   1.480   5.039
10027SOL    HW230981   3.372   1.640   5.072
10028SOL     OW30982   4.334   0.107   2.004
10028SOL    HW130983   4.342   0.190   1.948
10028SOL    HW230984   4.426   0.069   2.018
10029SOL     OW30985   0.148   4.482   4.338
10029SOL    HW130986   0.081   4.442   4.276
10029SOL    HW230987   0.239   4.477   4.297
10030SOL     OW30988   2.798   0.252   4.518
10030SOL    HW130989   2.773   0.267   4.613
10030SOL    HW230990   2.716   0.233   4.464
10031SOL     OW30991   2.237   6.366   2.784
10031SOL    HW130992   2.180   6.292   2.748
10031SOL    HW230993   2.295   6.330   2.857
10032SOL     OW30994   3.320   5.925   4.762
10032SOL    HW130995   3.292   5.885   4.850
10032SOL    HW230996   3.395   5.872   4.724
10033SOL     OW30997   3.511   1.225   5.030
10033SOL    HW130998   3.545   1.251   4.940
10033SOL    HW230999   3.420   1.184   5.021
10034SOL     OW31000   2.605   1.220   2.614
10034SOL    HW131001   2.521   1.255   2.654
10034SOL    HW231002   2.683   1.254   2.666
10035SOL     OW31003   6.765   3.025   2.327
10035SOL    HW131004   6.751   3.114   2.370
10035SOL    HW231005   6.841   2.978   2.370
10036SOL     OW31006   1.164   1.384   6.961
10036SOL    HW131007   1.105   1.463   6.974
10036SOL    HW231008   1.188   1.345   0.031
10037SOL     OW31009   5.467   6.536   6.144
10037SOL    HW131010   5.420   6.523   6.057
10037SOL    HW231011   5.401   6.543   6.218
10038SOL     OW31012   4.656   6.520   6.496
10038SOL    HW131013   4.726   6.584   6.465
10038SOL    HW231014   4.634   6.456   6.422
10039SOL     OW31015   0.322   5.807   2.338
10039SOL    HW131016   0.248   5.807   2.270
10039SOL    HW231017   0.290   5.854   2.421
10040SOL     OW31018   2.535   0.234   0.618
10040SOL    HW131019   2.485   0.148   0.625
10040SOL    HW231020   2.573   0.244   0.527
10041SOL     OW31021   5.593   5.464   4.914
10041SOL    HW131022   5.635   5.481   5.003
10041SOL    HW231023   5.537   5.543   4.887
10042SOL     OW31024   6.551   0.420   5.318
10042SOL    HW131025   6.471   0.476   5.295
10042SOL    HW231026   6.535   0.372   5.404
10043SOL     OW31027   0.544   0.612   3.784
10043SOL    HW131028   0.483   0.674   3.833
10043SOL    HW231029   0.496   0.526   3.766
10044SOL     OW31030   2.964   2.088   0.150
10044SOL    HW131031   2.915   2.027   0.087
10044SOL    HW231032   3.055   2.107   0.113
10045SOL     OW31033   4.365   6.613   4.685
10045SOL    HW131034   4.334   6.624   4.591
10045SOL    HW231035   4.349   6.698   4.736
10046SOL     OW31036   6.444   2.779   1.650
10046SOL    HW131037   6.522   2.719   1.634
10046SOL    HW231038   6.394   2.792   1.565
10047SOL     OW31039   0.518   2.217   3.330
10047SOL    HW131040   0.574   2.149   3.378
10047SOL    HW231041   0.427   2.179   3.314
10048SOL     OW31042   3.712   2.600   1.762
10048SOL    HW131043   3.801   2.597   1.717
10048SOL    HW231044   3.703   2.523   1.825
10049SOL     OW31045   1.667   6.577   4.486
10049SOL    HW131046   1.681   6.624   4.399
10049SOL    HW231047   1.736   6.606   4.552
10050SOL     OW31048   5.549   1.553   4.339
10050SOL    HW131049   5.625   1.523   4.397
10050SOL    HW231050   5.545   1.496   4.257
10051SOL     OW31051   6.370   1.914   0.053
10051SOL    HW131052   6.330   1.974   0.123
10051SOL    HW231053   6.326   1.825   0.056
10052SOL     OW31054   1.110   4.243   1.964
10052SOL    HW131055   1.018   4.282   1.973
10052SOL    HW231056   1.112   4.185   1.882
10053SOL     OW31057   3.037   6.456   3.123
10053SOL    HW131058   3.042   6.549   3.086
10053SOL    HW231059   3.013   6.392   3.050
10054SOL     OW31060   4.582   5.717   3.972
10054SOL    HW131061   4.627   5.703   4.060
10054SOL    HW231062   4.651   5.739   3.903
10055SOL     OW31063   6.851   3.272   6.643
10055SOL    HW131064   6.882   3.246   6.734
10055SOL    HW231065   6.843   3.372   6.638
10056SOL     OW31066   6.549   4.805   1.959
10056SOL    HW131067   6.471   4.854   1.920
10056SOL    HW231068   6.521   4.764   2.046
10057SOL     OW31069   2.545   2.184   3.511
10057SOL    HW131070   2.621   2.235   3.471
10057SOL    HW231071   2.574   2.147   3.600
10058SOL     OW31072   0.873   4.249   3.792
10058SOL    HW131073   0.968   4.223   3.778
10058SOL    HW231074   0.861   4.345   3.764
10059SOL     OW31075   5.811   6.741   1.317
10059SOL    HW131076   5.780   6.815   1.257
10059SOL    HW231077   5.806   6.654   1.267
10060SOL     OW31078   2.195   2.820   2.411
10060SOL    HW131079   2.288   2.799   2.381
10060SOL    HW231080   2.130   2.786   2.344
10061SOL     OW31081   6.397   1.977   4.817
10061SOL    HW131082   6.317   1.925   4.787
10061SOL    HW231083   6.441   1.929   4.893
10062SOL     OW31084   6.277   5.426   3.423
10062SOL    HW131085   6.257   5.521   3.397
10062SOL    HW231086   6.191   5.378   3.440
10063SOL     OW31087   1.061   2.626   2.976
10063SOL    HW131088   1.114   2.662   2.900
10063SOL    HW231089   1.104   2.543   3.011
10064SOL     OW31090   5.592   6.347   4.887
10064SOL    HW131091   5.546   6.274   4.837
10064SOL    HW231092   5.626   6.311   4.974
10065SOL     OW31093   0.351   6.634   3.221
10065SOL    HW131094   0.278   6.637   3.153
10065SOL    HW231095   0.425   6.695   3.194
10066SOL     OW31096   0.509   0.796   3.453
10066SOL    HW131097   0.425   0.842   3.427
10066SOL    HW231098   0.584   0.862   3.455
10067SOL     OW31099   4.771   6.488   3.374
10067SOL    HW131100   4.683   6.526   3.345
10067SOL    HW231101   4.775   6.484   3.473
10068SOL     OW31102   5.100   3.914   5.685
10068SOL    HW131103   5.022   3.858   5.657
10068SOL    HW231104   5.114   3.987   5.618
10069SOL     OW31105   4.550   1.062   3.701
10069SOL    HW131106   4.579   1.156   3.684
10069SOL    HW231107   4.568   1.006   3.620
10070SOL     OW31108   0.782   6.805   4.530
10070SOL    HW131109   0.684   6.825   4.536
10070SOL    HW231110   0.805   6.735   4.598
10071SOL     OW31111   5.220   5.349   5.158
10071SOL    HW131112   5.171   5.277   5.207
10071SOL    HW231113   5.270   5.309   5.081
10072SOL     OW31114   0.958   6.971   3.791
10072SOL    HW131115   1.006   6.968   3.879
10072SOL    HW231116   0.986   0.033   3.741
10073SOL     OW31117   0.508   5.149   6.803
10073SOL    HW131118   0.449   5.214   6.851
10073SOL    HW231119   0.484   5.056   6.831
10074SOL     OW31120   2.508   6.401   5.700
10074SOL    HW131121   2.474   6.344   5.775
10074SOL    HW231122   2.463   6.490   5.703
10075SOL     OW31123   1.649   2.480   3.805
10075SOL    HW131124   1.735   2.527   3.788
10075SOL    HW231125   1.587   2.539   3.856
10076SOL     OW31126   5.321   0.379   4.531
10076SOL    HW131127   5.417   0.365   4.556
10076SOL    HW231128   5.289   0.303   4.474
10077SOL     OW31129   3.583   1.187   6.658
10077SOL    HW131130   3.617   1.275   6.691
10077SOL    HW231131   3.635   1.158   6.578
10078SOL     OW31132   5.819   6.365   5.338
10078SOL    HW131133   5.820   6.457   5.378
10078SOL    HW231134   5.758   6.306   5.390
10079SOL     OW31135   6.654   3.485   6.172
10079SOL    HW131136   6.674   3.408   6.233
10079SOL    HW231137   6.740   3.532   6.149
10080SOL     OW31138   1.370   2.577   6.248
10080SOL    HW131139   1.299   2.636   6.209
10080SOL    HW231140   1.340   2.543   6.337
10081SOL     OW31141   0.487   1.180   6.831
10081SOL    HW131142   0.564   1.209   6.775
10081SOL    HW231143   0.519   1.119   6.903
10082SOL     OW31144   6.504   1.164   0.886
10082SOL    HW131145   6.427   1.227   0.890
10082SOL    HW231146   6.572   1.190   0.954
10083SOL     OW31147   5.085   1.134   4.333
10083SOL    HW131148   5.119   1.044   4.306
10083SOL    HW231149   5.088   1.196   4.254
10084SOL     OW31150   2.412   0.909   6.227
10084SOL    HW131151   2.355   0.907   6.145
10084SOL    HW231152   2.485   0.841   6.219
10085SOL     OW31153   0.746   5.537   2.631
10085SOL    HW131154   0.778   5.577   2.545
10085SOL    HW231155   0.706   5.609   2.688
10086SOL     OW31156   6.289   3.769   2.538
10086SOL    HW131157   6.361   3.798   2.600
10086SOL    HW231158   6.258   3.847   2.483
10087SOL     OW31159   1.577   0.269   3.805
10087SOL    HW131160   1.605   0.224   3.891
10087SOL    HW231161   1.484   0.303   3.815
10088SOL     OW31162   6.895   0.274   5.152
10088SOL    HW131163   6.885   0.356   5.208
10088SOL    HW231164   6.942   0.297   5.067
10089SOL     OW31165   1.526   3.137   2.334
10089SOL    HW131166   1.570   3.078   2.266
10089SOL    HW231167   1.541   3.100   2.426
10090SOL     OW31168   0.633   4.529   1.461
10090SOL    HW131169   0.604   4.478   1.543
10090SOL    HW231170   0.605   4.625   1.471
10091SOL     OW31171   0.357   2.279   4.183
10091SOL    HW131172   0.417   2.248   4.256
10091SOL    HW231173   0.410   2.293   4.099
10092SOL     OW31174   1.910   3.524   4.775
10092SOL    HW131175   1.824   3.478   4.799
10092SOL    HW231176   1.987   3.470   4.808
10093SOL     OW31177   6.970   5.074   6.134
10093SOL    HW131178   7.017   5.068   6.222
10093SOL    HW231179   6.885   5.022   6.138
10094SOL     OW31180   1.467   0.980   1.829
10094SOL    HW131181   1.507   1.065   1.795
10094SOL    HW231182   1.432   0.927   1.752
10095SOL     OW31183   0.598   0.883   5.931
10095SOL    HW131184   0.622   0.977   5.906
10095SOL    HW231185   0.669   0.821   5.898
10096SOL     OW31186   0.531   4.747   1.932
10096SOL    HW131187   0.540   4.741   1.832
10096SOL    HW231188   0.548   4.842   1.961
10097SOL     OW31189   1.134   2.462   6.448
10097SOL    HW131190   1.159   2.533   6.514
10097SOL    HW231191   1.064   2.498   6.386
10098SOL     OW31192   3.319   4.782   6.543
10098SOL    HW131193   3.253   4.791   6.468
10098SOL    HW231194   3.404   4.828   6.517
10099SOL     OW31195   6.552   4.579   4.544
10099SOL    HW131196   6.568   4.569   4.642
10099SOL    HW231197   6.596   4.662   4.510
10100SOL     OW31198   5.595   0.761   5.588
10100SOL    HW131199   5.553   0.671   5.598
10100SOL    HW231200   5.683   0.763   5.635
10101SOL     OW31201   0.039   4.625   1.917
10101SOL    HW131202   0.072   4.547   1.863
10101SOL    HW231203   0.044   4.603   2.014
10102SOL     OW31204   4.021   1.084   3.118
10102SOL    HW131205   4.019   1.044   3.027
10102SOL    HW231206   4.010   1.184   3.112
10103SOL     OW31207   2.626   1.825   0.431
10103SOL    HW131208   2.544   1.871   0.397
10103SOL    HW231209   2.687   1.806   0.354
10104SOL     OW31210   1.645   5.651   4.976
10104SOL    HW131211   1.711   5.606   5.036
10104SOL    HW231212   1.584   5.583   4.936
10105SOL     OW31213   2.754   0.371   6.478
10105SOL    HW131214   2.822   0.308   6.514
10105SOL    HW231215   2.774   0.392   6.382
10106SOL     OW31216   5.602   5.437   0.300
10106SOL    HW131217   5.687   5.404   0.342
10106SOL    HW231218   5.574   5.374   0.227
10107SOL     OW31219   5.628   0.723   5.948
10107SOL    HW131220   5.713   0.775   5.937
10107SOL    HW231221   5.580   0.755   6.030
10108SOL     OW31222   5.808   6.368   6.804
10108SOL    HW131223   5.756   6.292   6.764
10108SOL    HW231224   5.748   6.448   6.811
10109SOL     OW31225   4.551   5.230   3.302
10109SOL    HW131226   4.512   5.220   3.393
10109SOL    HW231227   4.640   5.184   3.299
10110SOL     OW31228   3.227   1.576   5.747
10110SOL    HW131229   3.231   1.649   5.815
10110SOL    HW231230   3.280   1.498   5.780
10111SOL     OW31231   0.744   2.711   2.625
10111SOL    HW131232   0.647   2.725   2.605
10111SOL    HW231233   0.795   2.706   2.539
10112SOL     OW31234   4.043   4.047   6.263
10112SOL    HW131235   3.949   4.046   6.295
10112SOL    HW231236   4.045   4.051   6.163
10113SOL     OW31237   3.449   6.483   6.895
10113SOL    HW131238   3.442   6.542   6.975
10113SOL    HW231239   3.422   6.534   6.813
10114SOL     OW31240   4.069   1.783   0.959
10114SOL    HW131241   4.020   1.718   1.017
10114SOL    HW231242   4.029   1.874   0.971
10115SOL     OW31243   0.896   1.857   3.838
10115SOL    HW131244   0.948   1.800   3.901
10115SOL    HW231245   0.880   1.947   3.879
10116SOL     OW31246   0.886   0.936   1.270
10116SOL    HW131247   0.934   0.975   1.191
10116SOL    HW231248   0.788   0.931   1.250
10117SOL     OW31249   5.137   0.669   5.802
10117SOL    HW131250   5.153   0.734   5.728
10117SOL    HW231251   5.040   0.644   5.804
10118SOL     OW31252   6.581   4.872   2.750
10118SOL    HW131253   6.550   4.874   2.845
10118SOL    HW231254   6.503   4.862   2.689
10119SOL     OW31255   2.753   7.016   5.538
10119SOL    HW131256   2.788   0.058   5.609
10119SOL    HW231257   2.788   0.025   5.449
10120SOL     OW31258   6.147   2.511   3.556
10120SOL    HW131259   6.139   2.611   3.547
10120SOL    HW231260   6.205   2.475   3.483
10121SOL     OW31261   6.370   4.911   4.117
10121SOL    HW131262   6.441   4.981   4.129
10121SOL    HW231263   6.297   4.948   4.061
10122SOL     OW31264   5.489   3.119   0.291
10122SOL    HW131265   5.504   3.080   0.381
10122SOL    HW231266   5.548   3.199   0.278
10123SOL     OW31267   0.129   6.786   0.288
10123SOL    HW131268   0.157   6.767   0.194
10123SOL    HW231269   0.085   6.704   0.326
10124SOL     OW31270   2.814   4.125   0.820
10124SOL    HW131271   2.796   4.202   0.881
10124SOL    HW231272   2.825   4.041   0.874
10125SOL     OW31273   1.312   0.037   1.284
10125SOL    HW131274   1.373   0.085   1.347
10125SOL    HW231275   1.361   0.015   1.200
10126SOL     OW31276   5.926   4.981   0.272
10126SOL    HW131277   5.914   4.890   0.231
10126SOL    HW231278   5.976   4.973   0.358
10127SOL     OW31279   3.423   4.578   5.300
10127SOL    HW131280   3.482   4.503   5.270
10127SOL    HW231281   3.441   4.596   5.397
10128SOL     OW31282   0.130   2.019   1.446
10128SOL    HW131283   0.092   1.997   1.356
10128SOL    HW231284   0.228   2.034   1.438
10129SOL     OW31285   5.386   2.357   3.119
10129SOL    HW131286   5.371   2.438   3.063
10129SOL    HW231287   5.353   2.373   3.211
10130SOL     OW31288   6.881   5.050   2.212
10130SOL    HW131289   6.818   4.985   2.255
10130SOL    HW231290   6.829   5.115   2.157
10131SOL     OW31291   6.448   0.787   1.027
10131SOL    HW131292   6.522   0.735   1.069
10131SOL    HW231293   6.404   0.844   1.096
10132SOL     OW31294   2.988   0.042   2.526
10132SOL    HW131295   2.978   0.044   2.426
10132SOL    HW231296   3.033   6.977   2.553
10133SOL     OW31297   4.845   5.465   3.028
10133SOL    HW131298   4.834   5.420   2.939
10133SOL    HW231299   4.754   5.485   3.066
10134SOL     OW31300   0.195   1.338   2.338
10134SOL    HW131301   0.212   1.427   2.379
10134SOL    HW231302   0.233   1.266   2.396
10135SOL     OW31303   3.297   5.981   3.038
10135SOL    HW131304   3.342   5.948   2.955
10135SOL    HW231305   3.305   5.912   3.110
10136SOL     OW31306   6.297   6.993   2.123
10136SOL    HW131307   6.316   6.978   2.025
10136SOL    HW231308   6.198   7.003   2.136
10137SOL     OW31309   5.686   4.842   4.512
10137SOL    HW131310   5.633   4.820   4.593
10137SOL    HW231311   5.712   4.938   4.514
10138SOL     OW31312   5.359   2.490   6.679
10138SOL    HW131313   5.340   2.473   6.582
10138SOL    HW231314   5.451   2.457   6.701
10139SOL     OW31315   4.050   3.119   3.375
10139SOL    HW131316   4.079   3.171   3.456
10139SOL    HW231317   3.953   3.099   3.381
10140SOL     OW31318   0.598   4.859   5.509
10140SOL    HW131319   0.507   4.881   5.544
10140SOL    HW231320   0.590   4.789   5.438
10141SOL     OW31321   2.315   0.431   4.055
10141SOL    HW131322   2.366   0.390   3.980
10141SOL    HW231323   2.217   0.417   4.040
10142SOL     OW31324   5.487   6.144   4.734
10142SOL    HW131325   5.518   6.053   4.760
10142SOL    HW231326   5.507   6.159   4.637
10143SOL     OW31327   5.184   6.178   1.172
10143SOL    HW131328   5.203   6.218   1.083
10143SOL    HW231329   5.222   6.086   1.176
10144SOL     OW31330   3.027   5.169   3.548
10144SOL    HW131331   3.062   5.161   3.641
10144SOL    HW231332   2.936   5.211   3.550
10145SOL     OW31333   2.968   6.242   5.992
10145SOL    HW131334   2.976   6.143   5.987
10145SOL    HW231335   3.055   6.284   5.965
10146SOL     OW31336   4.876   4.821   4.444
10146SOL    HW131337   4.957   4.852   4.493
10146SOL    HW231338   4.879   4.721   4.435
10147SOL     OW31339   5.241   5.361   4.734
10147SOL    HW131340   5.286   5.309   4.807
10147SOL    HW231341   5.154   5.397   4.768
10148SOL     OW31342   5.614   5.157   1.098
10148SOL    HW131343   5.515   5.172   1.106
10148SOL    HW231344   5.641   5.167   1.003
10149SOL     OW31345   3.770   3.728   0.940
10149SOL    HW131346   3.786   3.826   0.954
10149SOL    HW231347   3.846   3.677   0.980
10150SOL     OW31348   5.138   4.582   1.519
10150SOL    HW131349   5.154   4.517   1.593
10150SOL    HW231350   5.058   4.639   1.541
10151SOL     OW31351   1.308   6.559   5.478
10151SOL    HW131352   1.291   6.616   5.558
10151SOL    HW231353   1.291   6.463   5.501
10152SOL     OW31354   0.407   5.052   3.621
10152SOL    HW131355   0.462   4.979   3.581
10152SOL    HW231356   0.428   5.138   3.576
10153SOL     OW31357   5.501   6.623   3.739
10153SOL    HW131358   5.441   6.565   3.684
10153SOL    HW231359   5.564   6.565   3.792
10154SOL     OW31360   6.474   5.491   5.595
10154SOL    HW131361   6.439   5.430   5.666
10154SOL    HW231362   6.573   5.479   5.586
10155SOL     OW31363   4.063   1.645   6.646
10155SOL    HW131364   4.046   1.562   6.593
10155SOL    HW231365   4.064   1.724   6.585
10156SOL     OW31366   5.850   0.319   2.318
10156SOL    HW131367   5.888   0.265   2.393
10156SOL    HW231368   5.825   0.258   2.242
10157SOL     OW31369   5.247   0.772   6.032
10157SOL    HW131370   5.215   0.729   5.948
10157SOL    HW231371   5.325   0.832   6.011
10158SOL     OW31372   4.141   3.721   6.297
10158SOL    HW131373   4.126   3.768   6.385
10158SOL    HW231374   4.052   3.696   6.258
10159SOL     OW31375   1.376   1.219   6.490
10159SOL    HW131376   1.390   1.120   6.501
10159SOL    HW231377   1.282   1.242   6.515
10160SOL     OW31378   0.809   5.798   3.184
10160SOL    HW131379   0.724   5.842   3.156
10160SOL    HW231380   0.848   5.847   3.262
10161SOL     OW31381   2.501   5.855   5.607
10161SOL    HW131382   2.568   5.927   5.622
10161SOL    HW231383   2.437   5.883   5.536
10162SOL     OW31384   3.307   1.952   6.880
10162SOL    HW131385   3.215   1.935   6.846
10162SOL    HW231386   3.348   1.865   6.911
10163SOL     OW31387   6.513   3.049   5.653
10163SOL    HW131388   6.555   3.038   5.563
10163SOL    HW231389   6.417   3.020   5.649
10164SOL     OW31390   0.505   2.430   5.707
10164SOL    HW131391   0.511   2.403   5.804
10164SOL    HW231392   0.590   2.405   5.661
10165SOL     OW31393   6.750   1.919   3.421
10165SOL    HW131394   6.808   1.961   3.491
10165SOL    HW231395   6.656   1.915   3.455
10166SOL     OW31396   1.370   0.810   2.344
10166SOL    HW131397   1.447   0.856   2.301
10166SOL    HW231398   1.290   0.871   2.343
10167SOL     OW31399   4.501   0.764   0.340
10167SOL    HW131400   4.457   0.687   0.387
10167SOL    HW231401   4.513   0.840   0.404
10168SOL     OW31402   6.838   4.205   4.395
10168SOL    HW131403   6.917   4.262   4.416
10168SOL    HW231404   6.754   4.253   4.424
10169SOL     OW31405   6.355   4.266   4.306
10169SOL    HW131406   6.413   4.284   4.227
10169SOL    HW231407   6.328   4.352   4.349
10170SOL     OW31408   1.836   4.273   4.573
10170SOL    HW131409   1.833   4.195   4.635
10170SOL    HW231410   1.840   4.241   4.479
10171SOL     OW31411   6.039   3.677   5.943
10171SOL    HW131412   5.976   3.689   5.867
10171SOL    HW231413   6.031   3.755   6.005
10172SOL     OW31414   4.773   1.877   3.364
10172SOL    HW131415   4.853   1.818   3.376
10172SOL    HW231416   4.790   1.965   3.408
10173SOL     OW31417   2.099   1.735   2.297
10173SOL    HW131418   2.127   1.654   2.245
10173SOL    HW231419   2.013   1.771   2.260
10174SOL     OW31420   6.417   4.512   1.339
10174SOL    HW131421   6.451   4.576   1.270
10174SOL    HW231422   6.494   4.479   1.394
10175SOL     OW31423   6.205   2.144   5.997
10175SOL    HW131424   6.261   2.191   5.929
10175SOL    HW231425   6.213   2.045   5.984
10176SOL     OW31426   2.434   4.412   0.193
10176SOL    HW131427   2.490   4.335   0.224
10176SOL    HW231428   2.453   4.492   0.250
10177SOL     OW31429   1.467   7.019   6.315
10177SOL    HW131430   1.526   0.075   6.289
10177SOL    HW231431   1.377   0.035   6.340
10178SOL     OW31432   5.650   2.477   4.385
10178SOL    HW131433   5.568   2.472   4.327
10178SOL    HW231434   5.652   2.398   4.446
10179SOL     OW31435   1.646   3.480   6.965
10179SOL    HW131436   1.686   3.553   6.910
10179SOL    HW231437   1.547   3.479   6.952
10180SOL     OW31438   2.798   6.310   5.410
10180SOL    HW131439   2.887   6.351   5.433
10180SOL    HW231440   2.725   6.366   5.449
10181SOL     OW31441   5.283   3.244   1.018
10181SOL    HW131442   5.294   3.326   0.961
10181SOL    HW231443   5.362   3.184   1.006
10182SOL     OW31444   5.354   1.275   0.654
10182SOL    HW131445   5.375   1.183   0.687
10182SOL    HW231446   5.285   1.270   0.582
10183SOL     OW31447   1.477   1.859   6.516
10183SOL    HW131448   1.536   1.888   6.591
10183SOL    HW231449   1.528   1.865   6.430
10184SOL     OW31450   4.232   0.856   6.079
10184SOL    HW131451   4.286   0.939   6.066
10184SOL    HW231452   4.157   0.854   6.013
10185SOL     OW31453   4.830   0.239   6.758
10185SOL    HW131454   4.901   0.292   6.712
10185SOL    HW231455   4.867   0.200   6.842
10186SOL     OW31456   4.363   2.346   3.342
10186SOL    HW131457   4.296   2.309   3.278
10186SOL    HW231458   4.420   2.271   3.378
10187SOL     OW31459   0.999   2.362   1.833
10187SOL    HW131460   1.085   2.356   1.783
10187SOL    HW231461   0.928   2.313   1.784
10188SOL     OW31462   3.528   5.630   1.116
10188SOL    HW131463   3.483   5.694   1.054
10188SOL    HW231464   3.607   5.590   1.070
10189SOL     OW31465   1.330   6.744   5.004
10189SOL    HW131466   1.256   6.676   5.008
10189SOL    HW231467   1.372   6.752   5.094
10190SOL     OW31468   5.597   2.654   0.331
10190SOL    HW131469   5.546   2.702   0.260
10190SOL    HW231470   5.572   2.692   0.420
10191SOL     OW31471   6.185   4.652   0.008
10191SOL    HW131472   6.128   4.716   0.059
10191SOL    HW231473   6.172   4.665   6.929
10192SOL     OW31474   3.152   1.342   6.274
10192SOL    HW131475   3.204   1.428   6.272
10192SOL    HW231476   3.095   1.335   6.193
10193SOL     OW31477   4.637   3.825   0.332
10193SOL    HW131478   4.559   3.812   0.393
10193SOL    HW231479   4.720   3.839   0.387
10194SOL     OW31480   5.212   3.712   5.824
10194SOL    HW131481   5.253   3.734   5.913
10194SOL    HW231482   5.186   3.797   5.778
10195SOL     OW31483   6.546   4.144   1.914
10195SOL    HW131484   6.610   4.203   1.864
10195SOL    HW231485   6.471   4.199   1.950
10196SOL     OW31486   0.624   1.770   4.786
10196SOL    HW131487   0.678   1.838   4.736
10196SOL    HW231488   0.562   1.817   4.849
10197SOL     OW31489   5.719   0.885   6.552
10197SOL    HW131490   5.795   0.856   6.610
10197SOL    HW231491   5.644   0.819   6.560
10198SOL     OW31492   4.011   6.960   3.625
10198SOL    HW131493   4.015   6.938   3.528
10198SOL    HW231494   4.063   0.025   3.642
10199SOL     OW31495   0.894   2.550   5.427
10199SOL    HW131496   0.894   2.641   5.387
10199SOL    HW231497   0.965   2.494   5.384
10200SOL     OW31498   5.720   2.518   1.365
10200SOL    HW131499   5.624   2.490   1.365
10200SOL    HW231500   5.727   2.614   1.337
10201SOL     OW31501   0.952   3.462   0.908
10201SOL    HW131502   1.045   3.425   0.906
10201SOL    HW231503   0.889   3.395   0.871
10202SOL     OW31504   4.065   0.633   4.682
10202SOL    HW131505   4.115   0.702   4.630
10202SOL    HW231506   3.982   0.674   4.721
10203SOL     OW31507   6.514   2.860   4.488
10203SOL    HW131508   6.440   2.892   4.430
10203SOL    HW231509   6.478   2.832   4.577
10204SOL     OW31510   5.799   5.466   6.265
10204SOL    HW131511   5.748   5.392   6.222
10204SOL    HW231512   5.897   5.446   6.263
10205SOL     OW31513   1.235   0.650   6.008
10205SOL    HW131514   1.244   0.641   5.908
10205SOL    HW231515   1.322   0.627   6.051
10206SOL     OW31516   1.629   0.937   4.771
10206SOL    HW131517   1.727   0.950   4.778
10206SOL    HW231518   1.598   0.875   4.844
10207SOL     OW31519   1.945   2.373   5.127
10207SOL    HW131520   1.975   2.438   5.198
10207SOL    HW231521   1.959   2.280   5.160
10208SOL     OW31522   6.726   5.189   5.497
10208SOL    HW131523   6.767   5.187   5.589
10208SOL    HW231524   6.726   5.283   5.463
10209SOL     OW31525   0.048   0.113   5.409
10209SOL    HW131526   6.984   0.070   5.376
10209SOL    HW231527   0.045   0.212   5.391
10210SOL     OW31528   2.952   6.863   1.761
10210SOL    HW131529   3.027   6.896   1.705
10210SOL    HW231530   2.956   6.763   1.767
10211SOL     OW31531   5.407   5.970   5.970
10211SOL    HW131532   5.368   6.059   5.948
10211SOL    HW231533   5.356   5.930   6.047
10212SOL     OW31534   0.512   0.587   6.866
10212SOL    HW131535   0.518   0.685   6.847
10212SOL    HW231536   0.429   0.550   6.825
10213SOL     OW31537   6.427   1.599   1.081
10213SOL    HW131538   6.376   1.666   1.135
10213SOL    HW231539   6.405   1.610   0.984
10214SOL     OW31540   0.867   2.033   0.338
10214SOL    HW131541   0.884   2.113   0.280
10214SOL    HW231542   0.839   1.956   0.282
10215SOL     OW31543   3.229   3.228   2.384
10215SOL    HW131544   3.189   3.305   2.434
10215SOL    HW231545   3.161   3.191   2.320
10216SOL     OW31546   0.308   6.231   2.156
10216SOL    HW131547   0.258   6.188   2.231
10216SOL    HW231548   0.350   6.160   2.099
10217SOL     OW31549   3.512   1.326   4.749
10217SOL    HW131550   3.506   1.282   4.659
10217SOL    HW231551   3.523   1.424   4.737
10218SOL     OW31552   1.559   2.930   2.586
10218SOL    HW131553   1.560   2.850   2.526
10218SOL    HW231554   1.485   2.920   2.653
10219SOL     OW31555   6.373   6.540   3.050
10219SOL    HW131556   6.396   6.451   3.010
10219SOL    HW231557   6.457   6.583   3.085
10220SOL     OW31558   3.568   2.832   0.804
10220SOL    HW131559   3.569   2.776   0.721
10220SOL    HW231560   3.590   2.926   0.781
10221SOL     OW31561   0.902   4.936   4.017
10221SOL    HW131562   0.906   4.975   3.925
10221SOL    HW231563   0.933   4.841   4.014
10222SOL     OW31564   3.156   3.492   4.570
10222SOL    HW131565   3.074   3.439   4.546
10222SOL    HW231566   3.235   3.430   4.576
10223SOL     OW31567   0.841   6.224   0.897
10223SOL    HW131568   0.859   6.154   0.827
10223SOL    HW231569   0.747   6.215   0.929
10224SOL     OW31570   6.081   4.164   2.841
10224SOL    HW131571   6.163   4.126   2.884
10224SOL    HW231572   6.063   4.255   2.877
10225SOL     OW31573   2.362   3.987   5.583
10225SOL    HW131574   2.389   4.062   5.523
10225SOL    HW231575   2.437   3.921   5.588
10226SOL     OW31576   5.068   2.979   0.020
10226SOL    HW131577   5.003   2.908   0.046
10226SOL    HW231578   5.070   3.050   0.090
10227SOL     OW31579   5.386   3.458   1.191
10227SOL    HW131580   5.484   3.475   1.180
10227SOL    HW231581   5.337   3.487   1.108
10228SOL     OW31582   5.245   0.978   0.687
10228SOL    HW131583   5.195   0.947   0.606
10228SOL    HW231584   5.300   0.903   0.722
10229SOL     OW31585   6.966   3.272   5.204
10229SOL    HW131586   6.945   3.209   5.129
10229SOL    HW231587   0.022   3.331   5.178
10230SOL     OW31588   0.342   6.434   1.983
10230SOL    HW131589   0.331   6.364   2.053
10230SOL    HW231590   0.288   6.409   1.902
10231SOL     OW31591   0.760   5.275   2.709
10231SOL    HW131592   0.726   5.358   2.665
10231SOL    HW231593   0.816   5.300   2.788
10232SOL     OW31594   5.114   4.747   3.945
10232SOL    HW131595   5.104   4.842   3.974
10232SOL    HW231596   5.086   4.686   4.020
10233SOL     OW31597   3.133   3.753   5.755
10233SOL    HW131598   3.131   3.820   5.681
10233SOL    HW231599   3.051   3.695   5.750
10234SOL     OW31600   0.533   1.253   2.304
10234SOL    HW131601   0.580   1.165   2.293
10234SOL    HW231602   0.573   1.302   2.382
10235SOL     OW31603   1.553   0.825   3.381
10235SOL    HW131604   1.648   0.851   3.364
10235SOL    HW231605   1.500   0.906   3.403
10236SOL     OW31606   2.070   6.936   2.271
10236SOL    HW131607   2.004   6.991   2.323
10236SOL    HW231608   2.123   6.996   2.211
10237SOL     OW31609   0.620   3.555   5.011
10237SOL    HW131610   0.526   3.523   5.017
10237SOL    HW231611   0.669   3.505   4.939
10238SOL     OW31612   3.125   7.014   1.587
10238SOL    HW131613   3.095   7.009   1.492
10238SOL    HW231614   3.099   0.083   1.626
10239SOL     OW31615   0.798   2.159   4.212
10239SOL    HW131616   0.813   2.175   4.309
10239SOL    HW231617   0.865   2.093   4.178
10240SOL     OW31618   2.136   6.576   0.754
10240SOL    HW131619   2.135   6.531   0.843
10240SOL    HW231620   2.188   6.661   0.760
10241SOL     OW31621   4.078   2.973   1.382
10241SOL    HW131622   4.065   3.044   1.313
10241SOL    HW231623   4.064   2.883   1.341
10242SOL     OW31624   0.151   2.906   6.867
10242SOL    HW131625   0.251   2.900   6.869
10242SOL    HW231626   0.113   2.847   6.939
10243SOL     OW31627   2.690   5.632   1.163
10243SOL    HW131628   2.681   5.533   1.167
10243SOL    HW231629   2.780   5.658   1.199
10244SOL     OW31630   2.575   5.048   1.664
10244SOL    HW131631   2.623   5.046   1.752
10244SOL    HW231632   2.600   4.967   1.611
10245SOL     OW31633   4.855   4.227   0.943
10245SOL    HW131634   4.860   4.238   1.043
10245SOL    HW231635   4.831   4.315   0.902
10246SOL     OW31636   3.332   2.947   4.448
10246SOL    HW131637   3.397   3.015   4.414
10246SOL    HW231638   3.353   2.926   4.543
10247SOL     OW31639   0.955   2.875   4.115
10247SOL    HW131640   0.875   2.934   4.120
10247SOL    HW231641   0.927   2.782   4.091
10248SOL     OW31642   1.219   1.030   4.243
10248SOL    HW131643   1.185   0.936   4.238
10248SOL    HW231644   1.149   1.093   4.209
10249SOL     OW31645   2.826   4.862   5.887
10249SOL    HW131646   2.821   4.888   5.791
10249SOL    HW231647   2.905   4.906   5.930
10250SOL     OW31648   3.900   2.353   0.755
10250SOL    HW131649   3.867   2.262   0.781
10250SOL    HW231650   3.999   2.358   0.771
10251SOL     OW31651   1.619   0.430   4.357
10251SOL    HW131652   1.565   0.367   4.412
10251SOL    HW231653   1.594   0.418   4.260
10252SOL     OW31654   5.361   4.671   6.256
10252SOL    HW131655   5.450   4.713   6.277
10252SOL    HW231656   5.376   4.580   6.218
10253SOL     OW31657   3.359   5.940   6.488
10253SOL    HW131658   3.382   6.013   6.553
10253SOL    HW231659   3.264   5.953   6.457
10254SOL     OW31660   5.856   1.755   5.770
10254SOL    HW131661   5.894   1.670   5.733
10254SOL    HW231662   5.802   1.734   5.852
10255SOL     OW31663   4.123   4.476   1.520
10255SOL    HW131664   4.202   4.461   1.580
10255SOL    HW231665   4.079   4.562   1.544
10256SOL     OW31666   3.879   1.201   3.560
10256SOL    HW131667   3.956   1.205   3.624
10256SOL    HW231668   3.906   1.244   3.474
10257SOL     OW31669   3.810   5.802   2.999
10257SOL    HW131670   3.898   5.779   3.041
10257SOL    HW231671   3.825   5.866   2.924
10258SOL     OW31672   2.004   1.329   2.033
10258SOL    HW131673   1.941   1.261   1.996
10258SOL    HW231674   1.953   1.412   2.058
10259SOL     OW31675   1.984   4.249   4.311
10259SOL    HW131676   2.021   4.156   4.322
10259SOL    HW231677   2.034   4.312   4.370
10260SOL     OW31678   0.578   0.647   3.207
10260SOL    HW131679   0.669   0.617   3.235
10260SOL    HW231680   0.520   0.656   3.288
10261SOL     OW31681   0.257   3.846   0.779
10261SOL    HW131682   0.296   3.901   0.853
10261SOL    HW231683   0.330   3.811   0.720
10262SOL     OW31684   4.370   1.527   0.600
10262SOL    HW131685   4.326   1.561   0.684
10262SOL    HW231686   4.309   1.542   0.522
10263SOL     OW31687   5.816   0.861   2.362
10263SOL    HW131688   5.755   0.804   2.416
10263SOL    HW231689   5.772   0.884   2.275
10264SOL     OW31690   6.436   0.062   6.774
10264SOL    HW131691   6.525   0.080   6.733
10264SOL    HW231692   6.441   6.998   6.830
10265SOL     OW31693   2.313   2.036   0.674
10265SOL    HW131694   2.365   2.089   0.607
10265SOL    HW231695   2.371   1.965   0.713
10266SOL     OW31696   2.703   3.444   1.727
10266SOL    HW131697   2.702   3.496   1.642
10266SOL    HW231698   2.722   3.505   1.804
10267SOL     OW31699   5.514   0.787   1.284
10267SOL    HW131700   5.469   0.699   1.268
10267SOL    HW231701   5.512   0.808   1.382
10268SOL     OW31702   3.642   6.201   2.051
10268SOL    HW131703   3.551   6.188   2.090
10268SOL    HW231704   3.666   6.298   2.054
10269SOL     OW31705   2.859   2.167   0.621
10269SOL    HW131706   2.956   2.182   0.640
10269SOL    HW231707   2.846   2.154   0.523
10270SOL     OW31708   3.177   0.551   3.205
10270SOL    HW131709   3.242   0.627   3.206
10270SOL    HW231710   3.226   0.466   3.185
10271SOL     OW31711   1.583   1.874   6.245
10271SOL    HW131712   1.671   1.879   6.293
10271SOL    HW231713   1.579   1.944   6.174
10272SOL     OW31714   6.156   0.305   4.321
10272SOL    HW131715   6.079   0.334   4.377
10272SOL    HW231716   6.236   0.363   4.341
10273SOL     OW31717   2.416   5.240   3.832
10273SOL    HW131718   2.404   5.326   3.881
10273SOL    HW231719   2.334   5.183   3.842
10274SOL     OW31720   1.058   4.944   5.344
10274SOL    HW131721   1.019   4.974   5.431
10274SOL    HW231722   1.157   4.954   5.346
10275SOL     OW31723   6.555   0.861   2.181
10275SOL    HW131724   6.614   0.785   2.155
10275SOL    HW231725   6.603   0.918   2.248
10276SOL     OW31726   3.780   5.307   5.136
10276SOL    HW131727   3.864   5.339   5.180
10276SOL    HW231728   3.793   5.212   5.105
10277SOL     OW31729   1.110   5.806   3.932
10277SOL    HW131730   1.029   5.853   3.968
10277SOL    HW231731   1.169   5.779   4.008
10278SOL     OW31732   6.836   0.038   5.292
10278SOL    HW131733   6.854   0.129   5.254
10278SOL    HW231734   6.840   6.989   5.219
10279SOL     OW31735   1.846   6.458   3.872
10279SOL    HW131736   1.872   6.552   3.851
10279SOL    HW231737   1.926   6.408   3.906
10280SOL     OW31738   6.458   4.568   0.010
10280SOL    HW131739   6.365   4.604   7.014
10280SOL    HW231740   6.469   4.546   0.106
10281SOL     OW31741   6.419   1.270   3.608
10281SOL    HW131742   6.390   1.237   3.697
10281SOL    HW231743   6.379   1.360   3.591
10282SOL     OW31744   5.018   3.453   3.138
10282SOL    HW131745   4.981   3.416   3.223
10282SOL    HW231746   5.102   3.406   3.114
10283SOL     OW31747   1.253   2.861   1.028
10283SOL    HW131748   1.238   2.840   0.931
10283SOL    HW231749   1.260   2.960   1.040
10284SOL     OW31750   0.016   3.654   4.260
10284SOL    HW131751   0.077   3.680   4.185
10284SOL    HW231752   0.029   3.718   4.337
10285SOL     OW31753   6.056   6.299   5.634
10285SOL    HW131754   5.965   6.286   5.597
10285SOL    HW231755   6.051   6.350   5.720
10286SOL     OW31756   3.058   1.697   3.608
10286SOL    HW131757   3.125   1.658   3.671
10286SOL    HW231758   3.106   1.744   3.534
10287SOL     OW31759   2.447   5.818   3.121
10287SOL    HW131760   2.375   5.749   3.113
10287SOL    HW231761   2.407   5.909   3.112
10288SOL     OW31762   4.101   6.506   5.271
10288SOL    HW131763   4.112   6.582   5.335
10288SOL    HW231764   4.051   6.537   5.190
10289SOL     OW31765   3.106   5.446   6.826
10289SOL    HW131766   3.064   5.355   6.824
10289SOL    HW231767   3.045   5.510   6.873
10290SOL     OW31768   3.582   2.860   1.860
10290SOL    HW131769   3.627   2.773   1.842
10290SOL    HW231770   3.540   2.858   1.951
10291SOL     OW31771   2.221   1.586   2.100
10291SOL    HW131772   2.301   1.642   2.078
10291SOL    HW231773   2.207   1.518   2.028
10292SOL     OW31774   6.599   0.036   5.730
10292SOL    HW131775   6.612   0.028   5.632
10292SOL    HW231776   6.686   0.058   5.774
10293SOL     OW31777   1.265   4.438   4.780
10293SOL    HW131778   1.269   4.517   4.718
10293SOL    HW231779   1.355   4.395   4.784
10294SOL     OW31780   3.408   1.182   2.089
10294SOL    HW131781   3.379   1.131   2.169
10294SOL    HW231782   3.504   1.208   2.099
10295SOL     OW31783   1.229   1.848   6.635
10295SOL    HW131784   1.161   1.823   6.566
10295SOL    HW231785   1.319   1.855   6.592
10296SOL     OW31786   6.088   1.155   5.778
10296SOL    HW131787   6.074   1.180   5.873
10296SOL    HW231788   6.186   1.156   5.758
10297SOL     OW31789   3.354   1.322   7.010
10297SOL    HW131790   3.298   1.242   6.989
10297SOL    HW231791   3.341   1.348   0.087
10298SOL     OW31792   0.342   2.581   2.561
10298SOL    HW131793   0.333   2.571   2.660
10298SOL    HW231794   0.426   2.630   2.540
10299SOL     OW31795   4.512   6.886   3.055
10299SOL    HW131796   4.531   6.809   2.995
10299SOL    HW231797   4.418   6.919   3.039
10300SOL     OW31798   1.255   4.025   1.783
10300SOL    HW131799   1.233   3.958   1.854
10300SOL    HW231800   1.178   4.033   1.720
10301SOL     OW31801   3.710   0.730   6.972
10301SOL    HW131802   3.763   0.746   0.036
10301SOL    HW231803   3.763   0.762   6.893
10302SOL     OW31804   2.892   6.251   5.153
10302SOL    HW131805   2.968   6.314   5.136
10302SOL    HW231806   2.855   6.267   5.244
10303SOL     OW31807   0.455   5.498   4.545
10303SOL    HW131808   0.368   5.537   4.575
10303SOL    HW231809   0.526   5.569   4.544
10304SOL     OW31810   6.036   6.440   0.758
10304SOL    HW131811   6.017   6.513   0.693
10304SOL    HW231812   5.951   6.410   0.801
10305SOL     OW31813   3.409   4.239   5.685
10305SOL    HW131814   3.342   4.248   5.611
10305SOL    HW231815   3.429   4.142   5.699
10306SOL     OW31816   3.803   0.440   1.100
10306SOL    HW131817   3.749   0.453   1.017
10306SOL    HW231818   3.851   0.353   1.095
10307SOL     OW31819   2.211   0.317   5.716
10307SOL    HW131820   2.160   0.239   5.680
10307SOL    HW231821   2.189   0.329   5.813
10308SOL     OW31822   2.801   4.796   2.215
10308SOL    HW131823   2.737   4.868   2.187
10308SOL    HW231824   2.801   4.723   2.146
10309SOL     OW31825   0.333   1.048   4.810
10309SOL    HW131826   0.406   1.004   4.758
10309SOL    HW231827   0.355   1.043   4.908
10310SOL     OW31828   2.082   3.966   5.657
10310SOL    HW131829   2.182   3.973   5.651
10310SOL    HW231830   2.043   4.058   5.668
10311SOL     OW31831   5.103   5.512   6.806
10311SOL    HW131832   5.032   5.480   6.869
10311SOL    HW231833   5.171   5.564   6.856
10312SOL     OW31834   4.401   0.416   2.129
10312SOL    HW131835   4.365   0.476   2.200
10312SOL    HW231836   4.332   0.401   2.059
10313SOL     OW31837   5.474   6.729   3.353
10313SOL    HW131838   5.497   6.635   3.330
10313SOL    HW231839   5.510   6.751   3.444
10314SOL     OW31840   0.367   0.215   1.004
10314SOL    HW131841   0.371   0.120   0.973
10314SOL    HW231842   0.272   0.244   1.011
10315SOL     OW31843   5.758   5.329   3.700
10315SOL    HW131844   5.665   5.357   3.721
10315SOL    HW231845   5.784   5.364   3.610
10316SOL     OW31846   0.177   2.006   6.916
10316SOL    HW131847   0.271   2.037   6.898
10316SOL    HW231848   0.113   2.071   6.877
10317SOL     OW31849   3.817   6.000   4.929
10317SOL    HW131850   3.761   6.083   4.921
10317SOL    HW231851   3.787   5.932   4.863
10318SOL     OW31852   6.475   0.125   0.233
10318SOL    HW131853   6.499   0.046   0.290
10318SOL    HW231854   6.556   0.182   0.219
10319SOL     OW31855   0.731   4.115   3.585
10319SOL    HW131856   0.704   4.019   3.587
10319SOL    HW231857   0.795   4.134   3.659
10320SOL     OW31858   0.576   6.327   3.897
10320SOL    HW131859   0.557   6.383   3.978
10320SOL    HW231860   0.503   6.338   3.831
10321SOL     OW31861   5.102   2.473   2.335
10321SOL    HW131862   5.077   2.439   2.425
10321SOL    HW231863   5.201   2.488   2.331
10322SOL     OW31864   4.602   4.399   4.918
10322SOL    HW131865   4.582   4.301   4.932
10322SOL    HW231866   4.516   4.450   4.922
10323SOL     OW31867   1.022   4.377   5.743
10323SOL    HW131868   0.936   4.346   5.783
10323SOL    HW231869   1.071   4.299   5.703
10324SOL     OW31870   2.989   3.411   1.783
10324SOL    HW131871   2.955   3.329   1.827
10324SOL    HW231872   2.914   3.458   1.736
10325SOL     OW31873   6.762   5.777   3.787
10325SOL    HW131874   6.812   5.729   3.715
10325SOL    HW231875   6.678   5.727   3.808
10326SOL     OW31876   5.500   3.447   6.626
10326SOL    HW131877   5.479   3.462   6.723
10326SOL    HW231878   5.596   3.422   6.616
10327SOL     OW31879   1.829   4.349   1.373
10327SOL    HW131880   1.920   4.384   1.351
10327SOL    HW231881   1.787   4.406   1.443
10328SOL     OW31882   5.630   2.089   2.546
10328SOL    HW131883   5.624   2.142   2.461
10328SOL    HW231884   5.718   2.042   2.550
10329SOL     OW31885   3.865   1.825   3.045
10329SOL    HW131886   3.790   1.805   2.983
10329SOL    HW231887   3.927   1.892   3.003
10330SOL     OW31888   4.976   0.949   1.758
10330SOL    HW131889   5.013   0.987   1.673
10330SOL    HW231890   4.882   0.918   1.742
10331SOL     OW31891   6.218   5.498   6.044
10331SOL    HW131892   6.308   5.486   6.003
10331SOL    HW231893   6.198   5.596   6.053
10332SOL     OW31894   1.786   1.122   6.494
10332SOL    HW131895   1.704   1.082   6.454
10332SOL    HW231896   1.866   1.095   6.441
10333SOL     OW31897   1.171   4.222   4.288
10333SOL    HW131898   1.104   4.149   4.306
10333SOL    HW231899   1.159   4.256   4.195
10334SOL     OW31900   3.442   0.923   3.525
10334SOL    HW131901   3.468   0.832   3.556
10334SOL    HW231902   3.499   0.991   3.571
10335SOL     OW31903   0.611   2.062   5.339
10335SOL    HW131904   0.589   2.083   5.244
10335SOL    HW231905   0.710   2.065   5.352
10336SOL     OW31906   5.194   6.748   3.585
10336SOL    HW131907   5.268   6.765   3.520
10336SOL    HW231908   5.136   6.829   3.591
10337SOL     OW31909   6.534   5.631   6.928
10337SOL    HW131910   6.591   5.549   6.935
10337SOL    HW231911   6.555   5.678   6.842
10338SOL     OW31912   1.472   6.408   1.842
10338SOL    HW131913   1.427   6.361   1.918
10338SOL    HW231914   1.553   6.455   1.875
10339SOL     OW31915   6.125   2.474   5.907
10339SOL    HW131916   6.165   2.563   5.929
10339SOL    HW231917   6.198   2.408   5.888
10340SOL     OW31918   2.608   3.444   6.569
10340SOL    HW131919   2.523   3.489   6.597
10340SOL    HW231920   2.656   3.503   6.503
10341SOL     OW31921   2.168   3.302   3.158
10341SOL    HW131922   2.139   3.207   3.147
10341SOL    HW231923   2.267   3.306   3.171
10342SOL     OW31924   0.289   1.102   4.090
10342SOL    HW131925   0.254   1.186   4.131
10342SOL    HW231926   0.388   1.099   4.097
10343SOL     OW31927   3.509   5.595   2.120
10343SOL    HW131928   3.465   5.509   2.147
10343SOL    HW231929   3.606   5.591   2.142
10344SOL     OW31930   4.229   5.867   5.962
10344SOL    HW131931   4.149   5.894   5.909
10344SOL    HW231932   4.308   5.921   5.935
10345SOL     OW31933   1.874   3.523   4.258
10345SOL    HW131934   1.899   3.563   4.347
10345SOL    HW231935   1.952   3.474   4.220
10346SOL     OW31936   6.754   5.869   0.062
10346SOL    HW131937   6.664   5.897   0.029
10346SOL    HW231938   6.801   5.948   0.101
10347SOL     OW31939   4.924   1.773   4.439
10347SOL    HW131940   5.005   1.756   4.382
10347SOL    HW231941   4.857   1.701   4.423
10348SOL     OW31942   6.474   4.492   0.741
10348SOL    HW131943   6.449   4.418   0.678
10348SOL    HW231944   6.528   4.456   0.816
10349SOL     OW31945   1.022   6.890   6.540
10349SOL    HW131946   0.934   6.852   6.568
10349SOL    HW231947   1.039   6.974   6.591
10350SOL     OW31948   3.053   6.962   6.063
10350SOL    HW131949   3.079   6.877   6.017
10350SOL    HW231950   2.968   6.947   6.114
10351SOL     OW31951   4.327   5.224   6.818
10351SOL    HW131952   4.264   5.267   6.882
10351SOL    HW231953   4.368   5.294   6.760
10352SOL     OW31954   3.090   3.913   6.250
10352SOL    HW131955   3.161   3.954   6.307
10352SOL    HW231956   3.133   3.857   6.179
10353SOL     OW31957   1.032   2.879   4.683
10353SOL    HW131958   0.945   2.847   4.647
10353SOL    HW231959   1.052   2.832   4.769
10354SOL     OW31960   5.519   1.592   1.556
10354SOL    HW131961   5.436   1.606   1.502
10354SOL    HW231962   5.592   1.652   1.522
10355SOL     OW31963   1.516   4.959   2.686
10355SOL    HW131964   1.591   4.906   2.647
10355SOL    HW231965   1.457   4.899   2.739
10356SOL     OW31966   0.301   2.578   4.601
10356SOL    HW131967   0.252   2.602   4.684
10356SOL    HW231968   0.283   2.647   4.531
10357SOL     OW31969   2.515   2.365   0.034
10357SOL    HW131970   2.479   2.452   0.001
10357SOL    HW231971   2.599   2.343   7.005
10358SOL     OW31972   0.215   1.329   2.047
10358SOL    HW131973   0.207   1.300   2.143
10358SOL    HW231974   0.309   1.316   2.016
10359SOL     OW31975   0.419   1.477   1.279
10359SOL    HW131976   0.512   1.459   1.312
10359SOL    HW231977   0.394   1.571   1.301
10360SOL     OW31978   6.975   6.358   3.353
10360SOL    HW131979   6.912   6.281   3.346
10360SOL    HW231980   0.050   6.325   3.343
10361SOL     OW31981   1.658   4.901   1.620
10361SOL    HW131982   1.644   4.909   1.719
10361SOL    HW231983   1.604   4.972   1.574
10362SOL     OW31984   1.410   5.254   4.654
10362SOL    HW131985   1.332   5.302   4.614
10362SOL    HW231986   1.476   5.234   4.582
10363SOL     OW31987   6.117   0.392   3.646
10363SOL    HW131988   6.110   0.370   3.548
10363SOL    HW231989   6.061   0.472   3.666
10364SOL     OW31990   1.397   4.507   1.387
10364SOL    HW131991   1.481   4.560   1.378
10364SOL    HW231992   1.418   4.409   1.384
10365SOL     OW31993   4.481   6.052   0.029
10365SOL    HW131994   4.478   6.131   6.988
10365SOL    HW231995   4.458   6.080   0.122
10366SOL     OW31996   3.608   6.758   3.762
10366SOL    HW131997   3.604   6.687   3.832
10366SOL    HW231998   3.567   6.723   3.677
10367SOL     OW31999   6.542   2.004   3.167
10367SOL    HW132000   6.600   2.070   3.215
10367SOL    HW232001   6.464   1.980   3.225
10368SOL     OW32002   2.739   0.224   1.087
10368SOL    HW132003   2.773   0.144   1.037
10368SOL    HW232004   2.640   0.226   1.083
10369SOL     OW32005   4.492   3.095   0.265
10369SOL    HW132006   4.577   3.064   0.222
10369SOL    HW232007   4.414   3.051   0.220
10370SOL     OW32008   3.993   0.587   5.244
10370SOL    HW132009   4.065   0.657   5.247
10370SOL    HW232010   3.930   0.602   5.321
10371SOL     OW32011   5.054   6.751   5.740
10371SOL    HW132012   5.124   6.685   5.767
10371SOL    HW232013   5.078   6.790   5.651
10372SOL     OW32014   1.214   0.532   3.494
10372SOL    HW132015   1.230   0.437   3.521
10372SOL    HW232016   1.279   0.558   3.422
10373SOL     OW32017   1.199   5.511   4.779
10373SOL    HW132018   1.144   5.594   4.771
10373SOL    HW232019   1.150   5.444   4.834
10374SOL     OW32020   2.784   2.263   4.673
10374SOL    HW132021   2.881   2.260   4.697
10374SOL    HW232022   2.738   2.182   4.710
10375SOL     OW32023   0.199   2.048   0.302
10375SOL    HW132024   0.141   1.977   0.343
10375SOL    HW232025   0.283   2.058   0.356
10376SOL     OW32026   6.522   0.840   3.502
10376SOL    HW132027   6.454   0.878   3.439
10376SOL    HW232028   6.505   0.742   3.514
10377SOL     OW32029   0.438   6.585   4.555
10377SOL    HW132030   0.492   6.663   4.588
10377SOL    HW232031   0.374   6.616   4.485
10378SOL     OW32032   6.500   6.942   5.969
10378SOL    HW132033   6.549   6.996   5.900
10378SOL    HW232034   6.559   6.870   6.004
10379SOL     OW32035   4.929   1.534   4.672
10379SOL    HW132036   4.971   1.459   4.620
10379SOL    HW232037   4.995   1.609   4.680
10380SOL     OW32038   4.792   0.619   3.627
10380SOL    HW132039   4.857   0.570   3.568
10380SOL    HW232040   4.714   0.649   3.572
10381SOL     OW32041   4.307   5.055   4.944
10381SOL    HW132042   4.325   5.150   4.970
10381SOL    HW232043   4.304   5.048   4.844
10382SOL     OW32044   1.808   6.293   0.424
10382SOL    HW132045   1.878   6.226   0.400
10382SOL    HW232046   1.834   6.340   0.509
10383SOL     OW32047   5.643   2.613   6.902
10383SOL    HW132048   5.653   2.665   6.817
10383SOL    HW232049   5.731   2.575   6.928
10384SOL     OW32050   6.113   0.727   6.959
10384SOL    HW132051   6.139   0.651   7.019
10384SOL    HW232052   6.043   0.782   7.004
10385SOL     OW32053   5.584   2.311   6.781
10385SOL    HW132054   5.612   2.245   6.711
10385SOL    HW232055   5.590   2.269   6.871
10386SOL     OW32056   6.643   2.124   6.345
10386SOL    HW132057   6.607   2.032   6.365
10386SOL    HW232058   6.569   2.191   6.351
10387SOL     OW32059   2.124   3.984   2.667
10387SOL    HW132060   2.055   4.034   2.615
10387SOL    HW232061   2.166   3.914   2.609
10388SOL     OW32062   1.588   4.938   2.401
10388SOL    HW132063   1.664   4.875   2.416
10388SOL    HW232064   1.509   4.909   2.455
10389SOL     OW32065   0.697   5.268   3.476
10389SOL    HW132066   0.785   5.307   3.449
10389SOL    HW232067   0.684   5.180   3.431
10390SOL     OW32068   2.037   3.502   3.299
10390SOL    HW132069   2.048   3.468   3.393
10390SOL    HW232070   2.081   3.438   3.236
10391SOL     OW32071   3.665   6.220   4.972
10391SOL    HW132072   3.684   6.216   5.070
10391SOL    HW232073   3.730   6.281   4.928
10392SOL     OW32074   6.637   5.362   6.765
10392SOL    HW132075   6.668   5.364   6.861
10392SOL    HW232076   6.672   5.280   6.720
10393SOL     OW32077   1.091   1.189   4.041
10393SOL    HW132078   1.087   1.284   4.012
10393SOL    HW232079   1.159   1.140   3.986
10394SOL     OW32080   3.030   6.593   0.254
10394SOL    HW132081   2.959   6.648   0.298
10394SOL    HW232082   3.000   6.498   0.249
10395SOL     OW32083   1.261   1.429   4.982
10395SOL    HW132084   1.245   1.339   4.942
10395SOL    HW232085   1.353   1.460   4.959
10396SOL     OW32086   0.786   6.672   4.989
10396SOL    HW132087   0.751   6.602   4.927
10396SOL    HW232088   0.714   6.737   5.011
10397SOL     OW32089   4.217   1.874   2.410
10397SOL    HW132090   4.184   1.812   2.339
10397SOL    HW232091   4.169   1.962   2.402
10398SOL     OW32092   6.718   3.740   2.083
10398SOL    HW132093   6.781   3.676   2.127
10398SOL    HW232094   6.627   3.733   2.126
10399SOL     OW32095   6.247   2.975   5.621
10399SOL    HW132096   6.170   2.945   5.678
10399SOL    HW232097   6.219   2.977   5.525
10400SOL     OW32098   1.661   4.660   1.999
10400SOL    HW132099   1.637   4.636   1.905
10400SOL    HW232100   1.609   4.741   2.027
10401SOL     OW32101   0.763   5.457   0.549
10401SOL    HW132102   0.701   5.492   0.480
10401SOL    HW232103   0.712   5.434   0.632
10402SOL     OW32104   0.875   2.219   4.459
10402SOL    HW132105   0.830   2.207   4.547
10402SOL    HW232106   0.921   2.307   4.457
10403SOL     OW32107   4.735   1.136   2.273
10403SOL    HW132108   4.824   1.116   2.313
10403SOL    HW232109   4.744   1.211   2.207
10404SOL     OW32110   0.207   6.771   4.036
10404SOL    HW132111   0.174   6.840   3.971
10404SOL    HW232112   0.141   6.696   4.041
10405SOL     OW32113   1.962   6.330   6.403
10405SOL    HW132114   1.955   6.413   6.459
10405SOL    HW232115   1.910   6.256   6.446
10406SOL     OW32116   1.946   5.925   5.808
10406SOL    HW132117   1.961   6.007   5.752
10406SOL    HW232118   1.911   5.852   5.750
10407SOL     OW32119   1.985   1.272   6.194
10407SOL    HW132120   1.952   1.293   6.102
10407SOL    HW232121   1.932   1.322   6.262
10408SOL     OW32122   4.161   6.020   3.448
10408SOL    HW132123   4.068   5.986   3.453
10408SOL    HW232124   4.161   6.110   3.405
10409SOL     OW32125   6.638   4.567   2.383
10409SOL    HW132126   6.715   4.628   2.365
10409SOL    HW232127   6.670   4.485   2.430
10410SOL     OW32128   5.857   6.112   0.496
10410SOL    HW132129   5.925   6.130   0.568
10410SOL    HW232130   5.773   6.079   0.538
10411SOL     OW32131   1.626   4.350   2.512
10411SOL    HW132132   1.639   4.290   2.433
10411SOL    HW232133   1.537   4.333   2.554
10412SOL     OW32134   0.030   2.011   6.625
10412SOL    HW132135   0.073   1.956   6.554
10412SOL    HW232136   0.077   2.099   6.632
10413SOL     OW32137   0.427   1.880   5.765
10413SOL    HW132138   0.440   1.941   5.687
10413SOL    HW232139   0.347   1.911   5.818
10414SOL     OW32140   5.542   6.492   4.679
10414SOL    HW132141   5.579   6.450   4.762
10414SOL    HW232142   5.442   6.483   4.679
10415SOL     OW32143   0.167   5.576   3.065
10415SOL    HW132144   0.237   5.635   3.025
10415SOL    HW232145   0.116   5.626   3.135
10416SOL     OW32146   4.758   6.942   0.041
10416SOL    HW132147   4.699   0.002   0.030
10416SOL    HW232148   4.813   6.929   6.978
10417SOL     OW32149   4.002   5.054   4.410
10417SOL    HW132150   4.018   4.961   4.377
10417SOL    HW232151   4.040   5.119   4.344
10418SOL     OW32152   6.594   3.906   0.149
10418SOL    HW132153   6.613   3.983   0.088
10418SOL    HW232154   6.508   3.923   0.198
10419SOL     OW32155   1.983   0.702   4.251
10419SOL    HW132156   1.977   0.679   4.154
10419SOL    HW232157   1.993   0.618   4.304
10420SOL     OW32158   5.819   3.476   4.813
10420SOL    HW132159   5.839   3.394   4.867
10420SOL    HW232160   5.878   3.478   4.733
10421SOL     OW32161   1.542   4.490   4.021
10421SOL    HW132162   1.459   4.470   3.969
10421SOL    HW232163   1.618   4.504   3.957
10422SOL     OW32164   5.743   3.166   5.193
10422SOL    HW132165   5.708   3.252   5.155
10422SOL    HW232166   5.774   3.181   5.287
10423SOL     OW32167   2.729   5.320   3.841
10423SOL    HW132168   2.709   5.412   3.808
10423SOL    HW232169   2.746   5.322   3.939
10424SOL     OW32170   3.920   1.230   1.599
10424SOL    HW132171   3.958   1.174   1.673
10424SOL    HW232172   3.994   1.281   1.555
10425SOL     OW32173   1.488   3.961   0.557
10425SOL    HW132174   1.493   3.861   0.548
10425SOL    HW232175   1.516   4.004   0.472
10426SOL     OW32176   6.049   2.482   6.435
10426SOL    HW132177   6.142   2.520   6.434
10426SOL    HW232178   6.050   2.393   6.481
10427SOL     OW32179   5.807   0.870   3.151
10427SOL    HW132180   5.803   0.958   3.103
10427SOL    HW232181   5.809   0.887   3.250
10428SOL     OW32182   1.589   6.619   4.898
10428SOL    HW132183   1.593   6.538   4.956
10428SOL    HW232184   1.494   6.647   4.887
10429SOL     OW32185   2.034   3.933   1.816
10429SOL    HW132186   2.123   3.977   1.829
10429SOL    HW232187   2.034   3.844   1.862
10430SOL     OW32188   3.426   0.253   4.694
10430SOL    HW132189   3.438   0.223   4.599
10430SOL    HW232190   3.434   0.174   4.755
10431SOL     OW32191   3.928   1.546   4.164
10431SOL    HW132192   3.872   1.469   4.195
10431SOL    HW232193   3.896   1.630   4.209
10432SOL     OW32194   1.334   5.435   0.235
10432SOL    HW132195   1.329   5.335   0.244
10432SOL    HW232196   1.244   5.474   0.253
10433SOL     OW32197   4.142   6.264   3.846
10433SOL    HW132198   4.114   6.207   3.924
10433SOL    HW232199   4.100   6.228   3.763
10434SOL     OW32200   4.056   1.248   6.280
10434SOL    HW132201   4.070   1.258   6.182
10434SOL    HW232202   3.999   1.168   6.298
10435SOL     OW32203   2.383   1.733   1.570
10435SOL    HW132204   2.298   1.717   1.620
10435SOL    HW232205   2.407   1.830   1.575
10436SOL     OW32206   1.117   3.292   4.617
10436SOL    HW132207   1.116   3.238   4.701
10436SOL    HW232208   1.211   3.317   4.595
10437SOL     OW32209   6.902   6.353   5.423
10437SOL    HW132210   6.939   6.262   5.438
10437SOL    HW232211   6.919   6.382   5.329
10438SOL     OW32212   6.808   5.995   6.574
10438SOL    HW132213   6.753   6.045   6.641
10438SOL    HW232214   6.793   6.034   6.483
10439SOL     OW32215   6.279   5.699   4.837
10439SOL    HW132216   6.330   5.633   4.892
10439SOL    HW232217   6.219   5.753   4.896
10440SOL     OW32218   5.849   2.431   1.143
10440SOL    HW132219   5.789   2.413   1.065
10440SOL    HW232220   5.795   2.464   1.220
10441SOL     OW32221   4.683   2.223   6.895
10441SOL    HW132222   4.606   2.159   6.895
10441SOL    HW232223   4.769   2.172   6.900
10442SOL     OW32224   2.435   1.690   5.042
10442SOL    HW132225   2.341   1.671   5.071
10442SOL    HW232226   2.497   1.669   5.118
10443SOL     OW32227   0.883   0.724   0.797
10443SOL    HW132228   0.893   0.630   0.762
10443SOL    HW232229   0.947   0.739   0.872
10444SOL     OW32230   4.585   4.732   3.505
10444SOL    HW132231   4.549   4.794   3.574
10444SOL    HW232232   4.571   4.638   3.533
10445SOL     OW32233   0.802   3.110   3.661
10445SOL    HW132234   0.776   3.038   3.725
10445SOL    HW232235   0.816   3.196   3.710
10446SOL     OW32236   2.481   4.764   5.099
10446SOL    HW132237   2.399   4.817   5.080
10446SOL    HW232238   2.504   4.708   5.019
10447SOL     OW32239   0.961   2.050   2.833
10447SOL    HW132240   0.889   2.034   2.900
10447SOL    HW232241   0.998   1.962   2.803
10448SOL     OW32242   1.866   6.091   2.419
10448SOL    HW132243   1.810   6.023   2.467
10448SOL    HW232244   1.868   6.176   2.472
10449SOL     OW32245   3.865   5.094   4.693
10449SOL    HW132246   3.805   5.081   4.614
10449SOL    HW232247   3.919   5.011   4.707
10450SOL     OW32248   0.728   1.607   4.334
10450SOL    HW132249   0.677   1.533   4.292
10450SOL    HW232250   0.790   1.569   4.403
10451SOL     OW32251   3.231   2.084   3.972
10451SOL    HW132252   3.313   2.086   3.914
10451SOL    HW232253   3.194   1.992   3.975
10452SOL     OW32254   6.825   2.924   4.607
10452SOL    HW132255   6.836   2.826   4.587
10452SOL    HW232256   6.744   2.958   4.561
10453SOL     OW32257   4.180   5.877   4.343
10453SOL    HW132258   4.209   5.963   4.301
10453SOL    HW232259   4.081   5.876   4.351
10454SOL     OW32260   6.622   0.844   0.072
10454SOL    HW132261   6.544   0.885   0.119
10454SOL    HW232262   6.600   0.834   6.994
10455SOL     OW32263   0.582   5.999   2.655
10455SOL    HW132264   0.488   6.011   2.623
10455SOL    HW232265   0.646   6.016   2.580
10456SOL     OW32266   1.247   5.388   5.940
10456SOL    HW132267   1.329   5.416   5.890
10456SOL    HW232268   1.191   5.469   5.960
10457SOL     OW32269   4.329   1.635   6.784
10457SOL    HW132270   4.321   1.540   6.815
10457SOL    HW232271   4.255   1.656   6.720
10458SOL     OW32272   1.591   6.438   6.722
10458SOL    HW132273   1.559   6.529   6.750
10458SOL    HW232274   1.520   6.370   6.743
10459SOL     OW32275   6.316   5.745   1.090
10459SOL    HW132276   6.218   5.734   1.109
10459SOL    HW232277   6.331   5.830   1.040
10460SOL     OW32278   6.364   0.888   0.517
10460SOL    HW132279   6.365   0.918   0.613
10460SOL    HW232280   6.446   0.922   0.471
10461SOL     OW32281   6.783   4.509   6.264
10461SOL    HW132282   6.728   4.492   6.346
10461SOL    HW232283   6.847   4.583   6.281
10462SOL     OW32284   2.914   3.902   6.486
10462SOL    HW132285   2.968   3.893   6.402
10462SOL    HW232286   2.955   3.972   6.545
10463SOL     OW32287   5.289   2.998   6.176
10463SOL    HW132288   5.282   3.062   6.253
10463SOL    HW232289   5.221   2.925   6.188
10464SOL     OW32290   6.469   4.500   1.767
10464SOL    HW132291   6.403   4.473   1.696
10464SOL    HW232292   6.495   4.596   1.753
10465SOL     OW32293   5.902   4.938   1.443
10465SOL    HW132294   5.864   4.871   1.507
10465SOL    HW232295   5.944   4.891   1.366
10466SOL     OW32296   6.022   3.952   6.034
10466SOL    HW132297   5.977   3.942   5.945
10466SOL    HW232298   5.977   3.893   6.101
10467SOL     OW32299   0.136   2.321   6.662
10467SOL    HW132300   0.208   2.345   6.727
10467SOL    HW232301   0.089   2.404   6.632
10468SOL     OW32302   1.402   4.569   4.533
10468SOL    HW132303   1.447   4.493   4.487
10468SOL    HW232304   1.460   4.651   4.529
10469SOL     OW32305   1.046   1.731   4.013
10469SOL    HW132306   1.010   1.742   4.106
10469SOL    HW232307   1.145   1.742   4.014
10470SOL     OW32308   2.264   3.966   2.044
10470SOL    HW132309   2.241   4.019   2.125
10470SOL    HW232310   2.212   3.881   2.043
10471SOL     OW32311   2.307   5.372   6.343
10471SOL    HW132312   2.339   5.445   6.283
10471SOL    HW232313   2.301   5.286   6.292
10472SOL     OW32314   4.110   5.282   6.389
10472SOL    HW132315   4.108   5.286   6.489
10472SOL    HW232316   4.128   5.373   6.353
10473SOL     OW32317   6.281   4.667   0.772
10473SOL    HW132318   6.348   4.594   0.787
10473SOL    HW232319   6.222   4.642   0.694
10474SOL     OW32320   6.573   6.969   5.104
10474SOL    HW132321   6.563   0.049   5.115
10474SOL    HW232322   6.493   6.923   5.141
10475SOL     OW32323   0.709   5.373   1.389
10475SOL    HW132324   0.704   5.286   1.338
10475SOL    HW232325   0.779   5.366   1.459
10476SOL     OW32326   4.857   6.605   1.068
10476SOL    HW132327   4.880   6.658   0.986
10476SOL    HW232328   4.757   6.599   1.076
10477SOL     OW32329   0.175   5.666   4.025
10477SOL    HW132330   0.187   5.652   4.124
10477SOL    HW232331   0.243   5.613   3.975
10478SOL     OW32332   0.059   0.966   6.487
10478SOL    HW132333   0.082   0.897   6.556
10478SOL    HW232334   0.014   0.921   6.409
10479SOL     OW32335   0.583   3.320   2.415
10479SOL    HW132336   0.531   3.285   2.493
10479SOL    HW232337   0.591   3.249   2.345
10480SOL     OW32338   2.836   0.723   3.015
10480SOL    HW132339   2.757   0.736   2.955
10480SOL    HW232340   2.836   0.794   3.085
10481SOL     OW32341   6.348   1.617   1.455
10481SOL    HW132342   6.325   1.569   1.540
10481SOL    HW232343   6.399   1.700   1.478
10482SOL     OW32344   5.383   2.873   3.765
10482SOL    HW132345   5.376   2.821   3.680
10482SOL    HW232346   5.327   2.955   3.758
10483SOL     OW32347   5.739   0.049   0.105
10483SOL    HW132348   5.800   0.032   0.028
10483SOL    HW232349   5.688   0.133   0.090
10484SOL     OW32350   6.662   0.947   1.833
10484SOL    HW132351   6.650   0.850   1.853
10484SOL    HW232352   6.650   1.001   1.916
10485SOL     OW32353   5.141   3.355   4.898
10485SOL    HW132354   5.217   3.390   4.952
10485SOL    HW232355   5.172   3.332   4.806
10486SOL     OW32356   5.045   2.709   2.777
10486SOL    HW132357   5.127   2.667   2.738
10486SOL    HW232358   4.969   2.645   2.772
10487SOL     OW32359   5.000   7.016   2.335
10487SOL    HW132360   5.017   7.016   2.434
10487SOL    HW232361   4.903   0.010   2.318
10488SOL     OW32362   3.748   3.886   6.911
10488SOL    HW132363   3.729   3.850   7.002
10488SOL    HW232364   3.767   3.810   6.849
10489SOL     OW32365   1.850   5.326   5.327
10489SOL    HW132366   1.845   5.380   5.243
10489SOL    HW232367   1.887   5.235   5.307
10490SOL     OW32368   6.510   0.399   4.131
10490SOL    HW132369   6.591   0.341   4.118
10490SOL    HW232370   6.494   0.411   4.229
10491SOL     OW32371   6.993   4.989   5.048
10491SOL    HW132372   7.004   4.943   4.960
10491SOL    HW232373   6.917   4.948   5.098
10492SOL     OW32374   3.824   4.373   6.088
10492SOL    HW132375   3.748   4.335   6.141
10492SOL    HW232376   3.842   4.467   6.119
10493SOL     OW32377   3.515   1.508   0.634
10493SOL    HW132378   3.577   1.430   0.638
10493SOL    HW232379   3.477   1.525   0.725
10494SOL     OW32380   5.488   1.946   5.331
10494SOL    HW132381   5.507   2.016   5.400
10494SOL    HW232382   5.570   1.932   5.275
10495SOL     OW32383   1.505   0.171   6.992
10495SOL    HW132384   1.508   0.136   0.066
10495SOL    HW232385   1.562   0.114   6.933
10496SOL     OW32386   6.230   0.395   5.621
10496SOL    HW132387   6.240   0.477   5.677
10496SOL    HW232388   6.319   0.368   5.585
10497SOL     OW32389   1.081   1.868   6.865
10497SOL    HW132390   1.138   1.864   6.783
10497SOL    HW232391   0.985   1.875   6.838
10498SOL     OW32392   3.048   4.365   5.820
10498SOL    HW132393   3.080   4.435   5.884
10498SOL    HW232394   2.966   4.397   5.774
10499SOL     OW32395   3.212   5.255   3.381
10499SOL    HW132396   3.194   5.237   3.285
10499SOL    HW232397   3.144   5.209   3.437
10500SOL     OW32398   1.839   2.024   6.880
10500SOL    HW132399   1.934   1.998   6.865
10500SOL    HW232400   1.833   2.124   6.887
10501SOL     OW32401   1.145   2.691   3.398
10501SOL    HW132402   1.118   2.651   3.486
10501SOL    HW232403   1.213   2.763   3.414
10502SOL     OW32404   3.040   5.621   5.083
10502SOL    HW132405   3.128   5.596   5.125
10502SOL    HW232406   2.986   5.539   5.066
10503SOL     OW32407   2.793   3.251   5.465
10503SOL    HW132408   2.788   3.348   5.442
10503SOL    HW232409   2.707   3.206   5.441
10504SOL     OW32410   2.321   3.219   1.428
10504SOL    HW132411   2.376   3.231   1.510
10504SOL    HW232412   2.322   3.304   1.375
10505SOL     OW32413   0.094   0.271   1.045
10505SOL    HW132414   0.089   0.185   1.096
10505SOL    HW232415   0.044   0.262   0.960
10506SOL     OW32416   0.406   3.805   5.271
10506SOL    HW132417   0.452   3.877   5.220
10506SOL    HW232418   0.315   3.837   5.299
10507SOL     OW32419   1.844   0.403   3.747
10507SOL    HW132420   1.909   0.336   3.711
10507SOL    HW232421   1.758   0.356   3.769
10508SOL     OW32422   5.520   3.418   2.492
10508SOL    HW132423   5.523   3.480   2.413
10508SOL    HW232424   5.426   3.387   2.506
10509SOL     OW32425   1.805   0.743   6.372
10509SOL    HW132426   1.861   0.811   6.421
10509SOL    HW232427   1.750   0.789   6.303
10510SOL     OW32428   5.904   6.697   6.515
10510SOL    HW132429   5.827   6.641   6.487
10510SOL    HW232430   5.971   6.703   6.441
10511SOL     OW32431   0.486   2.118   0.784
10511SOL    HW132432   0.569   2.147   0.830
10511SOL    HW232433   0.425   2.197   0.771
10512SOL     OW32434   3.251   6.532   6.016
10512SOL    HW132435   3.210   6.482   6.092
10512SOL    HW232436   3.302   6.611   6.052
10513SOL     OW32437   6.944   1.990   0.388
10513SOL    HW132438   6.967   2.077   0.431
10513SOL    HW232439   6.971   1.992   0.292
10514SOL     OW32440   6.953   3.271   1.356
10514SOL    HW132441   6.870   3.238   1.309
10514SOL    HW232442   6.927   3.336   1.427
10515SOL     OW32443   6.188   2.740   4.442
10515SOL    HW132444   6.212   2.819   4.386
10515SOL    HW232445   6.201   2.657   4.389
10516SOL     OW32446   3.056   6.962   0.759
10516SOL    HW132447   3.013   0.010   0.698
10516SOL    HW232448   3.136   6.923   0.714
10517SOL     OW32449   6.701   2.279   2.854
10517SOL    HW132450   6.780   2.231   2.814
10517SOL    HW232451   6.640   2.212   2.896
10518SOL     OW32452   0.480   6.399   2.694
10518SOL    HW132453   0.508   6.358   2.781
10518SOL    HW232454   0.550   6.464   2.664
10519SOL     OW32455   3.363   3.621   5.139
10519SOL    HW132456   3.330   3.685   5.208
10519SOL    HW232457   3.295   3.548   5.126
10520SOL     OW32458   3.427   4.552   6.340
10520SOL    HW132459   3.434   4.625   6.408
10520SOL    HW232460   3.330   4.539   6.316
10521SOL     OW32461   6.118   5.431   2.247
10521SOL    HW132462   6.124   5.463   2.341
10521SOL    HW232463   6.029   5.388   2.232
10522SOL     OW32464   6.507   0.010   1.695
10522SOL    HW132465   6.589   0.050   1.737
10522SOL    HW232466   6.428   0.026   1.754
10523SOL     OW32467   0.243   5.734   6.634
10523SOL    HW132468   0.230   5.773   6.543
10523SOL    HW232469   0.331   5.762   6.671
10524SOL     OW32470   4.931   0.443   4.270
10524SOL    HW132471   5.019   0.487   4.250
10524SOL    HW232472   4.936   0.347   4.244
10525SOL     OW32473   3.211   6.259   5.126
10525SOL    HW132474   3.287   6.221   5.179
10525SOL    HW232475   3.239   6.269   5.030
10526SOL     OW32476   5.201   0.232   2.291
10526SOL    HW132477   5.151   0.152   2.325
10526SOL    HW232478   5.140   0.286   2.232
10527SOL     OW32479   1.857   2.687   4.758
10527SOL    HW132480   1.840   2.740   4.841
10527SOL    HW232481   1.835   2.742   4.678
10528SOL     OW32482   6.201   4.542   5.480
10528SOL    HW132483   6.185   4.555   5.382
10528SOL    HW232484   6.263   4.464   5.493
10529SOL     OW32485   0.080   6.205   4.731
10529SOL    HW132486   0.087   6.289   4.677
10529SOL    HW232487   0.171   6.177   4.761
10530SOL     OW32488   2.307   1.893   5.330
10530SOL    HW132489   2.248   1.973   5.343
10530SOL    HW232490   2.286   1.849   5.243
10531SOL     OW32491   1.438   2.091   5.578
10531SOL    HW132492   1.521   2.053   5.619
10531SOL    HW232493   1.385   2.016   5.536
10532SOL     OW32494   3.525   3.193   5.131
10532SOL    HW132495   3.428   3.191   5.156
10532SOL    HW232496   3.537   3.147   5.043
10533SOL     OW32497   2.616   1.292   6.216
10533SOL    HW132498   2.677   1.314   6.292
10533SOL    HW232499   2.625   1.361   6.145
10534SOL     OW32500   6.052   5.702   1.184
10534SOL    HW132501   5.994   5.756   1.245
10534SOL    HW232502   6.026   5.719   1.089
10535SOL     OW32503   0.486   1.359   2.032
10535SOL    HW132504   0.496   1.457   2.013
10535SOL    HW232505   0.502   1.343   2.130
10536SOL     OW32506   5.254   5.994   3.841
10536SOL    HW132507   5.198   5.924   3.885
10536SOL    HW232508   5.344   5.996   3.884
10537SOL     OW32509   6.963   5.564   1.413
10537SOL    HW132510   6.882   5.591   1.465
10537SOL    HW232511   6.978   5.629   1.338
10538SOL     OW32512   4.413   3.963   6.812
10538SOL    HW132513   4.372   4.054   6.809
10538SOL    HW232514   4.345   3.896   6.841
10539SOL     OW32515   0.976   3.520   5.317
10539SOL    HW132516   1.028   3.440   5.288
10539SOL    HW232517   1.028   3.570   5.386
10540SOL     OW32518   2.663   0.822   0.374
10540SOL    HW132519   2.643   0.914   0.407
10540SOL    HW232520   2.611   0.755   0.427
10541SOL     OW32521   4.599   2.160   0.353
10541SOL    HW132522   4.512   2.185   0.397
10541SOL    HW232523   4.673   2.215   0.391
10542SOL     OW32524   1.202   2.213   0.274
10542SOL    HW132525   1.216   2.114   0.265
10542SOL    HW232526   1.290   2.260   0.271
10543SOL     OW32527   2.829   0.918   4.929
10543SOL    HW132528   2.815   0.991   4.996
10543SOL    HW232529   2.925   0.915   4.903
10544SOL     OW32530   6.978   2.243   1.263
10544SOL    HW132531   6.887   2.265   1.227
10544SOL    HW232532   6.972   2.163   1.323
10545SOL     OW32533   5.146   0.744   3.428
10545SOL    HW132534   5.147   0.817   3.496
10545SOL    HW232535   5.222   0.755   3.365
10546SOL     OW32536   4.193   1.364   5.303
10546SOL    HW132537   4.225   1.441   5.248
10546SOL    HW232538   4.228   1.278   5.265
10547SOL     OW32539   4.011   0.105   1.412
10547SOL    HW132540   3.919   0.142   1.419
10547SOL    HW232541   4.032   0.051   1.494
10548SOL     OW32542   4.096   4.876   5.592
10548SOL    HW132543   4.098   4.812   5.516
10548SOL    HW232544   4.045   4.835   5.668
10549SOL     OW32545   1.282   1.390   1.587
10549SOL    HW132546   1.322   1.468   1.539
10549SOL    HW232547   1.246   1.325   1.519
10550SOL     OW32548   5.519   0.039   4.719
10550SOL    HW132549   5.506   0.138   4.714
10550SOL    HW232550   5.468   0.002   4.797
10551SOL     OW32551   1.366   2.905   6.053
10551SOL    HW132552   1.299   2.833   6.036
10551SOL    HW232553   1.385   2.910   6.151
10552SOL     OW32554   3.264   1.996   4.732
10552SOL    HW132555   3.253   2.016   4.829
10552SOL    HW232556   3.176   1.969   4.693
10553SOL     OW32557   2.948   5.180   5.898
10553SOL    HW132558   3.024   5.164   5.836
10553SOL    HW232559   2.983   5.190   5.991
10554SOL     OW32560   6.451   4.354   6.111
10554SOL    HW132561   6.401   4.302   6.041
10554SOL    HW232562   6.513   4.418   6.066
10555SOL     OW32563   3.428   2.726   1.029
10555SOL    HW132564   3.340   2.772   1.043
10555SOL    HW232565   3.471   2.762   0.946
10556SOL     OW32566   1.637   3.638   4.103
10556SOL    HW132567   1.719   3.600   4.148
10556SOL    HW232568   1.638   3.737   4.110
10557SOL     OW32569   5.649   1.320   3.406
10557SOL    HW132570   5.563   1.298   3.359
10557SOL    HW232571   5.721   1.334   3.339
10558SOL     OW32572   5.161   5.606   5.006
10558SOL    HW132573   5.075   5.656   4.994
10558SOL    HW232574   5.141   5.511   5.030
10559SOL     OW32575   4.450   2.521   1.086
10559SOL    HW132576   4.483   2.612   1.063
10559SOL    HW232577   4.525   2.467   1.126
10560SOL     OW32578   0.111   3.160   4.483
10560SOL    HW132579   0.204   3.187   4.507
10560SOL    HW232580   0.114   3.097   4.406
10561SOL     OW32581   3.076   4.101   5.919
10561SOL    HW132582   3.069   4.196   5.889
10561SOL    HW232583   3.111   4.045   5.844
10562SOL     OW32584   3.180   1.457   0.531
10562SOL    HW132585   3.101   1.511   0.559
10562SOL    HW232586   3.238   1.441   0.611
10563SOL     OW32587   1.262   1.827   3.232
10563SOL    HW132588   1.356   1.817   3.265
10563SOL    HW232589   1.261   1.824   3.132
10564SOL     OW32590   6.747   2.293   2.375
10564SOL    HW132591   6.805   2.368   2.407
10564SOL    HW232592   6.726   2.307   2.279
10565SOL     OW32593   5.119   1.620   5.086
10565SOL    HW132594   5.180   1.695   5.060
10565SOL    HW232595   5.026   1.655   5.098
10566SOL     OW32596   4.144   5.337   0.372
10566SOL    HW132597   4.063   5.379   0.413
10566SOL    HW232598   4.226   5.369   0.420
10567SOL     OW32599   1.930   5.172   4.165
10567SOL    HW132600   1.990   5.206   4.237
10567SOL    HW232601   1.929   5.237   4.089
10568SOL     OW32602   3.657   1.708   2.817
10568SOL    HW132603   3.611   1.629   2.776
10568SOL    HW232604   3.647   1.787   2.755
10569SOL     OW32605   5.891   3.021   3.433
10569SOL    HW132606   5.972   3.073   3.461
10569SOL    HW232607   5.867   2.956   3.506
10570SOL     OW32608   0.994   4.150   1.659
10570SOL    HW132609   0.939   4.231   1.645
10570SOL    HW232610   0.935   4.069   1.666
10571SOL     OW32611   6.176   6.700   5.005
10571SOL    HW132612   6.081   6.701   5.034
10571SOL    HW232613   6.192   6.775   4.941
10572SOL     OW32614   6.391   3.122   1.666
10572SOL    HW132615   6.299   3.100   1.634
10572SOL    HW232616   6.425   3.048   1.724
10573SOL     OW32617   6.352   4.605   6.438
10573SOL    HW132618   6.261   4.583   6.403
10573SOL    HW232619   6.356   4.703   6.462
10574SOL     OW32620   0.699   1.865   3.649
10574SOL    HW132621   0.771   1.848   3.716
10574SOL    HW232622   0.666   1.778   3.612
10575SOL     OW32623   0.566   6.855   6.199
10575SOL    HW132624   0.579   6.934   6.258
10575SOL    HW232625   0.655   6.824   6.165
10576SOL     OW32626   1.180   5.415   3.315
10576SOL    HW132627   1.190   5.464   3.229
10576SOL    HW232628   1.267   5.417   3.365
10577SOL     OW32629   0.554   3.230   5.623
10577SOL    HW132630   0.473   3.172   5.615
10577SOL    HW232631   0.633   3.174   5.645
10578SOL     OW32632   5.562   1.086   5.706
10578SOL    HW132633   5.544   0.987   5.706
10578SOL    HW232634   5.640   1.106   5.647
10579SOL     OW32635   4.882   0.047   1.147
10579SOL    HW132636   4.849   0.021   1.238
10579SOL    HW232637   4.964   7.014   1.125
10580SOL     OW32638   6.735   6.276   0.591
10580SOL    HW132639   6.698   6.240   0.677
10580SOL    HW232640   6.668   6.267   0.518
10581SOL     OW32641   4.883   2.251   3.809
10581SOL    HW132642   4.861   2.214   3.900
10581SOL    HW232643   4.804   2.239   3.749
10582SOL     OW32644   3.303   4.784   0.081
10582SOL    HW132645   3.327   4.858   0.018
10582SOL    HW232646   3.319   4.696   0.037
10583SOL     OW32647   4.282   0.963   1.595
10583SOL    HW132648   4.232   0.940   1.511
10583SOL    HW232649   4.362   1.018   1.572
10584SOL     OW32650   5.970   0.178   1.469
10584SOL    HW132651   5.932   0.093   1.503
10584SOL    HW232652   6.063   0.162   1.435
10585SOL     OW32653   2.140   4.574   6.240
10585SOL    HW132654   2.202   4.651   6.223
10585SOL    HW232655   2.173   4.493   6.192
10586SOL     OW32656   4.847   1.350   0.338
10586SOL    HW132657   4.871   1.342   0.241
10586SOL    HW232658   4.833   1.259   0.376
10587SOL     OW32659   5.872   3.117   0.429
10587SOL    HW132660   5.915   3.039   0.383
10587SOL    HW232661   5.785   3.138   0.385
10588SOL     OW32662   1.581   4.975   3.486
10588SOL    HW132663   1.530   5.041   3.431
10588SOL    HW232664   1.553   4.882   3.461
10589SOL     OW32665   6.046   1.324   4.354
10589SOL    HW132666   6.115   1.265   4.395
10589SOL    HW232667   5.958   1.308   4.398
10590SOL     OW32668   1.614   0.707   4.978
10590SOL    HW132669   1.606   0.668   5.069
10590SOL    HW232670   1.709   0.731   4.960
10591SOL     OW32671   1.614   2.576   0.910
10591SOL    HW132672   1.648   2.537   0.824
10591SOL    HW232673   1.670   2.542   0.986
10592SOL     OW32674   6.024   1.472   6.707
10592SOL    HW132675   5.954   1.518   6.653
10592SOL    HW232676   6.073   1.539   6.763
10593SOL     OW32677   1.453   4.955   2.160
10593SOL    HW132678   1.486   5.038   2.114
10593SOL    HW232679   1.505   4.941   2.245
10594SOL     OW32680   0.794   1.168   4.411
10594SOL    HW132681   0.832   1.207   4.327
10594SOL    HW232682   0.695   1.160   4.402
10595SOL     OW32683   2.604   5.324   5.384
10595SOL    HW132684   2.670   5.300   5.312
10595SOL    HW232685   2.636   5.290   5.472
10596SOL     OW32686   3.101   0.713   2.179
10596SOL    HW132687   3.041   0.743   2.253
10596SOL    HW232688   3.189   0.759   2.187
10597SOL     OW32689   2.357   0.512   3.781
10597SOL    HW132690   2.317   0.578   3.845
10597SOL    HW232691   2.379   0.558   3.695
10598SOL     OW32692   2.012   1.341   6.964
10598SOL    HW132693   1.925   1.363   6.920
10598SOL    HW232694   2.030   1.243   6.955
10599SOL     OW32695   5.023   0.380   6.597
10599SOL    HW132696   5.092   0.429   6.650
10599SOL    HW232697   4.963   0.447   6.551
10600SOL     OW32698   1.646   1.914   5.536
10600SOL    HW132699   1.694   1.924   5.623
10600SOL    HW232700   1.676   1.986   5.473
10601SOL     OW32701   3.790   5.719   5.570
10601SOL    HW132702   3.724   5.782   5.609
10601SOL    HW232703   3.743   5.648   5.517
10602SOL     OW32704   4.825   0.775   0.938
10602SOL    HW132705   4.807   0.868   0.970
10602SOL    HW232706   4.740   0.722   0.939
10603SOL     OW32707   0.751   5.070   4.910
10603SOL    HW132708   0.818   5.049   4.981
10603SOL    HW232709   0.799   5.085   4.823
10604SOL     OW32710   6.962   4.272   5.510
10604SOL    HW132711   6.962   4.361   5.555
10604SOL    HW232712   0.015   4.215   5.549
10605SOL     OW32713   1.940   5.129   6.145
10605SOL    HW132714   1.871   5.090   6.207
10605SOL    HW232715   1.898   5.148   6.056
10606SOL     OW32716   0.820   0.643   2.825
10606SOL    HW132717   0.880   0.710   2.869
10606SOL    HW232718   0.812   0.563   2.884
10607SOL     OW32719   5.841   4.916   6.729
10607SOL    HW132720   5.888   4.834   6.693
10607SOL    HW232721   5.796   4.893   6.815
10608SOL     OW32722   5.845   0.519   2.714
10608SOL    HW132723   5.918   0.453   2.733
10608SOL    HW232724   5.875   0.611   2.741
10609SOL     OW32725   3.877   6.555   2.514
10609SOL    HW132726   3.855   6.468   2.470
10609SOL    HW232727   3.874   6.544   2.613
10610SOL     OW32728   2.107   4.449   4.456
10610SOL    HW132729   2.070   4.534   4.420
10610SOL    HW232730   2.101   4.449   4.556
10611SOL     OW32731   5.029   2.609   6.160
10611SOL    HW132732   5.022   2.709   6.154
10611SOL    HW232733   4.986   2.578   6.245
10612SOL     OW32734   1.595   6.744   1.044
10612SOL    HW132735   1.628   6.788   1.128
10612SOL    HW232736   1.518   6.685   1.066
10613SOL     OW32737   0.423   6.719   6.747
10613SOL    HW132738   0.434   6.807   6.701
10613SOL    HW232739   0.447   6.729   6.844
10614SOL     OW32740   6.543   0.899   3.909
10614SOL    HW132741   6.532   0.807   3.948
10614SOL    HW232742   6.456   0.931   3.874
10615SOL     OW32743   6.677   5.896   5.536
10615SOL    HW132744   6.587   5.853   5.524
10615SOL    HW232745   6.677   5.987   5.497
10616SOL     OW32746   2.608   5.866   0.732
10616SOL    HW132747   2.654   5.814   0.804
10616SOL    HW232748   2.677   5.906   0.671
10617SOL     OW32749   6.749   1.923   6.677
10617SOL    HW132750   6.789   1.892   6.763
10617SOL    HW232751   6.820   1.926   6.606
10618SOL     OW32752   6.555   3.685   1.312
10618SOL    HW132753   6.522   3.591   1.325
10618SOL    HW232754   6.652   3.683   1.289
10619SOL     OW32755   0.307   4.244   3.130
10619SOL    HW132756   0.223   4.241   3.184
10619SOL    HW232757   0.286   4.225   3.034
10620SOL     OW32758   1.233   5.324   4.241
10620SOL    HW132759   1.258   5.343   4.146
10620SOL    HW232760   1.206   5.228   4.250
10621SOL     OW32761   2.794   6.495   0.641
10621SOL    HW132762   2.827   6.580   0.682
10621SOL    HW232763   2.871   6.436   0.619
10622SOL     OW32764   4.577   1.922   1.055
10622SOL    HW132765   4.496   1.924   0.996
10622SOL    HW232766   4.549   1.927   1.151
10623SOL     OW32767   6.844   0.840   4.479
10623SOL    HW132768   6.763   0.792   4.444
10623SOL    HW232769   6.815   0.924   4.526
10624SOL     OW32770   2.747   1.370   4.237
10624SOL    HW132771   2.655   1.405   4.225
10624SOL    HW232772   2.810   1.446   4.251
10625SOL     OW32773   0.985   3.023   7.005
10625SOL    HW132774   1.010   2.932   6.973
10625SOL    HW232775   1.013   3.091   6.937
10626SOL     OW32776   5.957   2.039   1.997
10626SOL    HW132777   6.029   1.971   1.991
10626SOL    HW232778   5.996   2.130   1.982
10627SOL     OW32779   6.180   5.948   4.322
10627SOL    HW132780   6.155   6.013   4.393
10627SOL    HW232781   6.278   5.956   4.302
10628SOL     OW32782   0.066   5.653   5.697
10628SOL    HW132783   0.031   5.663   5.604
10628SOL    HW232784   0.007   5.704   5.760
10629SOL     OW32785   2.755   4.761   6.278
10629SOL    HW132786   2.821   4.760   6.353
10629SOL    HW232787   2.791   4.708   6.202
10630SOL     OW32788   6.679   1.008   2.383
10630SOL    HW132789   6.633   1.093   2.407
10630SOL    HW232790   6.649   0.936   2.446
10631SOL     OW32791   0.953   6.681   4.729
10631SOL    HW132792   1.031   6.627   4.762
10631SOL    HW232793   0.898   6.710   4.807
10632SOL     OW32794   0.305   3.007   6.041
10632SOL    HW132795   0.309   3.040   6.135
10632SOL    HW232796   0.225   3.045   5.995
10633SOL     OW32797   0.544   5.047   1.040
10633SOL    HW132798   0.517   5.036   0.945
10633SOL    HW232799   0.508   4.972   1.095
10634SOL     OW32800   4.159   6.422   2.239
10634SOL    HW132801   4.258   6.439   2.238
10634SOL    HW232802   4.142   6.324   2.245
10635SOL     OW32803   1.377   0.793   1.611
10635SOL    HW132804   1.448   0.723   1.604
10635SOL    HW232805   1.381   0.853   1.532
10636SOL     OW32806   5.766   1.383   0.891
10636SOL    HW132807   5.823   1.464   0.880
10636SOL    HW232808   5.807   1.306   0.841
10637SOL     OW32809   3.356   4.390   5.923
10637SOL    HW132810   3.377   4.351   5.833
10637SOL    HW232811   3.370   4.489   5.919
10638SOL     OW32812   6.830   0.241   5.885
10638SOL    HW132813   6.854   0.338   5.884
10638SOL    HW232814   6.885   0.192   5.817
10639SOL     OW32815   3.453   1.793   4.989
10639SOL    HW132816   3.389   1.805   4.914
10639SOL    HW232817   3.435   1.862   5.060
10640SOL     OW32818   4.429   5.905   0.716
10640SOL    HW132819   4.385   5.864   0.795
10640SOL    HW232820   4.413   6.004   0.717
10641SOL     OW32821   3.675   1.140   6.391
10641SOL    HW132822   3.703   1.182   6.305
10641SOL    HW232823   3.601   1.075   6.373
10642SOL     OW32824   0.202   4.708   0.316
10642SOL    HW132825   0.232   4.669   0.403
10642SOL    HW232826   0.235   4.650   0.241
10643SOL     OW32827   4.124   3.331   5.788
10643SOL    HW132828   4.209   3.377   5.813
10643SOL    HW232829   4.142   3.234   5.772
10644SOL     OW32830   3.770   1.343   4.841
10644SOL    HW132831   3.674   1.340   4.813
10644SOL    HW232832   3.808   1.432   4.818
10645SOL     OW32833   2.235   6.910   5.072
10645SOL    HW132834   2.158   6.871   5.023
10645SOL    HW232835   2.289   6.967   5.010
10646SOL     OW32836   1.409   4.539   6.647
10646SOL    HW132837   1.495   4.581   6.673
10646SOL    HW232838   1.359   4.599   6.585
10647SOL     OW32839   0.105   5.930   0.697
10647SOL    HW132840   0.096   6.003   0.764
10647SOL    HW232841   0.050   5.851   0.726
10648SOL     OW32842   4.758   5.136   6.557
10648SOL    HW132843   4.811   5.111   6.639
10648SOL    HW232844   4.700   5.215   6.579
10649SOL     OW32845   0.079   4.348   6.306
10649SOL    HW132846   0.107   4.434   6.262
10649SOL    HW232847   7.017   4.312   6.260
10650SOL     OW32848   3.156   0.826   5.176
10650SOL    HW132849   3.069   0.832   5.226
10650SOL    HW232850   3.208   0.749   5.211
10651SOL     OW32851   2.750   0.373   5.511
10651SOL    HW132852   2.754   0.328   5.600
10651SOL    HW232853   2.823   0.441   5.504
10652SOL     OW32854   3.730   1.309   0.496
10652SOL    HW132855   3.782   1.236   0.539
10652SOL    HW232856   3.660   1.270   0.436
10653SOL     OW32857   5.755   3.461   4.275
10653SOL    HW132858   5.838   3.416   4.243
10653SOL    HW232859   5.778   3.551   4.312
10654SOL     OW32860   4.414   0.835   1.791
10654SOL    HW132861   4.346   0.835   1.864
10654SOL    HW232862   4.375   0.873   1.708
10655SOL     OW32863   2.865   5.444   0.953
10655SOL    HW132864   2.850   5.436   1.052
10655SOL    HW232865   2.939   5.384   0.926
10656SOL     OW32866   6.242   2.540   6.955
10656SOL    HW132867   6.326   2.487   6.970
10656SOL    HW232868   6.198   2.560   0.023
10657SOL     OW32869   6.211   0.136   1.349
10657SOL    HW132870   6.295   0.173   1.309
10657SOL    HW232871   6.232   0.049   1.394
10658SOL     OW32872   0.541   6.419   4.749
10658SOL    HW132873   0.523   6.470   4.665
10658SOL    HW232874   0.538   6.321   4.730
10659SOL     OW32875   4.807   0.838   0.612
10659SOL    HW132876   4.776   0.760   0.666
10659SOL    HW232877   4.879   0.809   0.549
10660SOL     OW32878   5.747   5.657   5.874
10660SOL    HW132879   5.764   5.560   5.857
10660SOL    HW232880   5.834   5.703   5.893
10661SOL     OW32881   0.532   0.525   2.469
10661SOL    HW132882   0.556   0.440   2.517
10661SOL    HW232883   0.608   0.590   2.477
10662SOL     OW32884   6.212   1.591   0.103
10662SOL    HW132885   6.262   1.516   0.060
10662SOL    HW232886   6.213   1.579   0.203
10663SOL     OW32887   0.356   1.805   0.737
10663SOL    HW132888   0.357   1.904   0.731
10663SOL    HW232889   0.450   1.771   0.749
10664SOL     OW32890   2.237   5.212   6.134
10664SOL    HW132891   2.226   5.294   6.077
10664SOL    HW232892   2.148   5.168   6.146
10665SOL     OW32893   5.336   0.988   6.642
10665SOL    HW132894   5.283   1.008   6.725
10665SOL    HW232895   5.352   0.889   6.637
10666SOL     OW32896   0.301   0.053   0.224
10666SOL    HW132897   0.226   0.070   0.161
10666SOL    HW232898   0.387   0.084   0.183
10667SOL     OW32899   3.074   2.605   5.754
10667SOL    HW132900   2.983   2.584   5.789
10667SOL    HW232901   3.071   2.618   5.655
10668SOL     OW32902   2.545   1.037   6.507
10668SOL    HW132903   2.590   0.996   6.428
10668SOL    HW232904   2.454   1.070   6.480
10669SOL     OW32905   1.022   6.534   6.747
10669SOL    HW132906   1.040   6.593   6.825
10669SOL    HW232907   1.093   6.546   6.678
10670SOL     OW32908   6.524   4.218   4.803
10670SOL    HW132909   6.603   4.157   4.790
10670SOL    HW232910   6.552   4.312   4.788
10671SOL     OW32911   1.718   2.298   3.034
10671SOL    HW132912   1.709   2.288   3.133
10671SOL    HW232913   1.649   2.362   3.001
10672SOL     OW32914   6.979   2.638   0.908
10672SOL    HW132915   0.032   2.640   0.978
10672SOL    HW232916   6.914   2.712   0.925
10673SOL     OW32917   3.510   3.781   4.562
10673SOL    HW132918   3.490   3.756   4.656
10673SOL    HW232919   3.429   3.767   4.505
10674SOL     OW32920   3.878   1.355   2.298
10674SOL    HW132921   3.873   1.259   2.325
10674SOL    HW232922   3.792   1.382   2.254
10675SOL     OW32923   1.046   1.099   5.919
10675SOL    HW132924   1.011   1.182   5.876
10675SOL    HW232925   1.005   1.088   6.009
10676SOL     OW32926   6.650   0.229   6.669
10676SOL    HW132927   6.714   0.262   6.601
10676SOL    HW232928   6.662   0.280   6.755
10677SOL     OW32929   6.157   0.997   0.920
10677SOL    HW132930   6.197   0.997   0.828
10677SOL    HW232931   6.228   0.981   0.988
10678SOL     OW32932   2.097   5.169   3.651
10678SOL    HW132933   2.083   5.263   3.685
10678SOL    HW232934   2.099   5.170   3.551
10679SOL     OW32935   5.662   4.923   3.632
10679SOL    HW132936   5.689   4.833   3.600
10679SOL    HW232937   5.711   4.946   3.716
10680SOL     OW32938   0.954   2.592   3.989
10680SOL    HW132939   1.046   2.625   3.966
10680SOL    HW232940   0.895   2.602   3.909
10681SOL     OW32941   0.424   2.542   6.663
10681SOL    HW132942   0.362   2.524   6.740
10681SOL    HW232943   0.479   2.460   6.646
10682SOL     OW32944   6.432   1.920   2.904
10682SOL    HW132945   6.500   1.935   2.976
10682SOL    HW232946   6.423   1.822   2.888
10683SOL     OW32947   1.431   0.413   4.130
10683SOL    HW132948   1.388   0.405   4.040
10683SOL    HW232949   1.489   0.495   4.131
10684SOL     OW32950   5.275   5.772   0.320
10684SOL    HW132951   5.270   5.865   0.282
10684SOL    HW232952   5.327   5.713   0.258
10685SOL     OW32953   6.270   2.436   2.358
10685SOL    HW132954   6.334   2.381   2.412
10685SOL    HW232955   6.318   2.516   2.321
10686SOL     OW32956   4.258   4.932   0.745
10686SOL    HW132957   4.343   4.881   0.734
10686SOL    HW232958   4.231   4.971   0.657
10687SOL     OW32959   6.652   5.486   1.135
10687SOL    HW132960   6.631   5.552   1.207
10687SOL    HW232961   6.597   5.507   1.054
10688SOL     OW32962   0.192   5.118   0.950
10688SOL    HW132963   0.197   5.170   1.035
10688SOL    HW232964   0.161   5.178   0.876
10689SOL     OW32965   0.727   6.946   1.183
10689SOL    HW132966   0.687   0.016   1.162
10689SOL    HW232967   0.706   6.921   1.277
10690SOL     OW32968   4.695   6.344   3.152
10690SOL    HW132969   4.731   6.403   3.225
10690SOL    HW232970   4.627   6.282   3.190
10691SOL     OW32971   6.003   1.580   1.820
10691SOL    HW132972   5.907   1.573   1.793
10691SOL    HW232973   6.010   1.575   1.919
10692SOL     OW32974   6.292   6.408   3.619
10692SOL    HW132975   6.224   6.436   3.685
10692SOL    HW232976   6.303   6.478   3.549
10693SOL     OW32977   5.176   2.578   3.632
10693SOL    HW132978   5.143   2.599   3.540
10693SOL    HW232979   5.276   2.573   3.631
10694SOL     OW32980   2.891   6.796   0.401
10694SOL    HW132981   2.797   6.821   0.381
10694SOL    HW232982   2.899   6.769   0.497
10695SOL     OW32983   5.409   2.905   5.497
10695SOL    HW132984   5.425   2.965   5.575
10695SOL    HW232985   5.363   2.955   5.424
10696SOL     OW32986   6.320   6.939   1.501
10696SOL    HW132987   6.337   6.841   1.509
10696SOL    HW232988   6.393   6.990   1.546
10697SOL     OW32989   1.762   6.550   2.710
10697SOL    HW132990   1.744   6.598   2.796
10697SOL    HW232991   1.854   6.571   2.679
10698SOL     OW32992   3.294   0.065   4.377
10698SOL    HW132993   3.314   0.053   4.279
10698SOL    HW232994   3.243   0.150   4.390
10699SOL     OW32995   1.773   2.638   3.527
10699SOL    HW132996   1.819   2.551   3.512
10699SOL    HW232997   1.813   2.683   3.607
10700SOL     OW32998   1.045   1.996   2.473
10700SOL    HW132999   1.083   2.042   2.392
10700SOL    HW233000   0.970   2.052   2.510
10701SOL     OW33001   3.054   0.257   1.660
10701SOL    HW133002   2.984   0.232   1.593
10701SOL    HW233003   3.034   0.348   1.696
10702SOL     OW33004   4.889   2.399   0.921
10702SOL    HW133005   4.804   2.401   0.869
10702SOL    HW233006   4.888   2.473   0.989
10703SOL     OW33007   3.733   2.861   4.335
10703SOL    HW133008   3.723   2.891   4.430
10703SOL    HW233009   3.825   2.883   4.303
10704SOL     OW33010   5.754   6.036   2.072
10704SOL    HW133011   5.664   6.077   2.057
10704SOL    HW233012   5.806   6.093   2.136
10705SOL     OW33013   1.539   3.050   6.531
10705SOL    HW133014   1.591   3.128   6.494
10705SOL    HW233015   1.490   3.079   6.613
10706SOL     OW33016   2.986   3.161   1.178
10706SOL    HW133017   3.036   3.127   1.257
10706SOL    HW233018   2.912   3.098   1.155
10707SOL     OW33019   6.067   0.004   6.329
10707SOL    HW133020   6.064   0.074   6.258
10707SOL    HW233021   6.155   0.009   6.377
10708SOL     OW33022   5.014   1.235   1.260
10708SOL    HW133023   4.921   1.269   1.276
10708SOL    HW233024   5.079   1.311   1.270
10709SOL     OW33025   0.710   0.233   6.107
10709SOL    HW133026   0.782   0.165   6.095
10709SOL    HW233027   0.749   0.325   6.102
10710SOL     OW33028   6.757   6.240   3.659
10710SOL    HW133029   6.759   6.175   3.583
10710SOL    HW233030   6.670   6.288   3.659
10711SOL     OW33031   2.277   4.892   5.298
10711SOL    HW133032   2.270   4.929   5.205
10711SOL    HW233033   2.266   4.967   5.364
10712SOL     OW33034   3.477   1.718   6.113
10712SOL    HW133035   3.530   1.782   6.169
10712SOL    HW233036   3.531   1.635   6.097
10713SOL     OW33037   2.048   6.901   0.644
10713SOL    HW133038   2.005   6.990   0.660
10713SOL    HW233039   1.994   6.829   0.687
10714SOL     OW33040   6.266   5.884   4.633
10714SOL    HW133041   6.256   5.802   4.689
10714SOL    HW233042   6.177   5.913   4.599
10715SOL     OW33043   5.888   0.800   2.743
10715SOL    HW133044   5.870   0.806   2.644
10715SOL    HW233045   5.806   0.825   2.794
10716SOL     OW33046   0.374   0.856   1.910
10716SOL    HW133047   0.455   0.901   1.946
10716SOL    HW233048   0.292   0.899   1.948
10717SOL     OW33049   0.091   6.744   2.317
10717SOL    HW133050   0.162   6.807   2.347
10717SOL    HW233051   0.133   6.665   2.273
10718SOL     OW33052   0.980   4.286   5.150
10718SOL    HW133053   1.058   4.347   5.164
10718SOL    HW233054   0.897   4.340   5.135
10719SOL     OW33055   3.795   6.060   2.253
10719SOL    HW133056   3.867   6.031   2.189
10719SOL    HW233057   3.720   6.101   2.202
10720SOL     OW33058   0.265   3.498   6.690
10720SOL    HW133059   0.257   3.407   6.650
10720SOL    HW233060   0.311   3.559   6.625
10721SOL     OW33061   5.403   2.046   4.329
10721SOL    HW133062   5.306   2.066   4.345
10721SOL    HW233063   5.452   2.132   4.309
10722SOL     OW33064   0.341   5.445   0.398
10722SOL    HW133065   0.323   5.477   0.491
10722SOL    HW233066   0.254   5.435   0.350
10723SOL     OW33067   6.324   4.343   6.642
10723SOL    HW133068   6.300   4.394   6.559
10723SOL    HW233069   6.345   4.248   6.617
10724SOL     OW33070   3.717   6.992   5.324
10724SOL    HW133071   3.623   6.960   5.333
10724SOL    HW233072   3.729   0.016   5.234
10725SOL     OW33073   0.495   6.753   5.088
10725SOL    HW133074   0.469   6.665   5.048
10725SOL    HW233075   0.464   6.757   5.183
10726SOL     OW33076   6.720   0.596   3.618
10726SOL    HW133077   6.777   0.655   3.674
10726SOL    HW233078   6.757   0.503   3.621
10727SOL     OW33079   4.518   0.113   6.275
10727SOL    HW133080   4.453   0.156   6.338
10727SOL    HW233081   4.521   0.015   6.291
10728SOL     OW33082   5.924   5.457   3.880
10728SOL    HW133083   5.873   5.407   3.810
10728SOL    HW233084   5.919   5.409   3.967
10729SOL     OW33085   6.354   3.515   3.997
10729SOL    HW133086   6.270   3.482   4.039
10729SOL    HW233087   6.414   3.437   3.976
10730SOL     OW33088   1.215   6.508   4.332
10730SOL    HW133089   1.130   6.539   4.375
10730SOL    HW233090   1.270   6.458   4.399
10731SOL     OW33091   5.027   5.879   6.502
10731SOL    HW133092   4.985   5.823   6.573
10731SOL    HW233093   5.119   5.844   6.482
10732SOL     OW33094   6.801   5.967   2.335
10732SOL    HW133095   6.882   5.934   2.384
10732SOL    HW233096   6.728   5.988   2.400
10733SOL     OW33097   0.432   1.742   6.111
10733SOL    HW133098   0.470   1.725   6.202
10733SOL    HW233099   0.480   1.820   6.069
10734SOL     OW33100   0.599   0.850   4.293
10734SOL    HW133101   0.501   0.863   4.299
10734SOL    HW233102   0.632   0.801   4.374
10735SOL     OW33103   0.191   0.663   2.271
10735SOL    HW133104   0.254   0.654   2.194
10735SOL    HW233105   0.234   0.628   2.354
10736SOL     OW33106   6.306   5.852   3.922
10736SOL    HW133107   6.214   5.863   3.886
10736SOL    HW233108   6.358   5.936   3.907
10737SOL     OW33109   0.039   0.662   1.638
10737SOL    HW133110   0.030   0.755   1.675
10737SOL    HW233111   6.968   0.629   1.610
10738SOL     OW33112   2.655   6.862   1.335
10738SOL    HW133113   2.643   6.942   1.394
10738SOL    HW233114   2.747   6.826   1.345
10739SOL     OW33115   4.829   3.001   4.333
10739SOL    HW133116   4.795   3.008   4.239
10739SOL    HW233117   4.794   2.917   4.374
10740SOL     OW33118   3.031   0.186   5.965
10740SOL    HW133119   3.053   0.095   6.000
10740SOL    HW233120   3.029   0.251   6.041
10741SOL     OW33121   1.207   2.667   3.925
10741SOL    HW133122   1.252   2.715   4.001
10741SOL    HW233123   1.267   2.669   3.845
10742SOL     OW33124   6.929   0.472   1.982
10742SOL    HW133125   6.875   0.537   1.929
10742SOL    HW233126   6.936   0.504   2.076
10743SOL     OW33127   3.523   1.918   5.468
10743SOL    HW133128   3.573   1.999   5.437
10743SOL    HW233129   3.498   1.928   5.564
10744SOL     OW33130   2.615   1.611   1.667
10744SOL    HW133131   2.703   1.660   1.664
10744SOL    HW233132   2.553   1.651   1.600
10745SOL     OW33133   2.440   5.660   1.599
10745SOL    HW133134   2.531   5.693   1.575
10745SOL    HW233135   2.398   5.615   1.521
10746SOL     OW33136   1.997   5.571   6.111
10746SOL    HW133137   1.947   5.542   6.030
10746SOL    HW233138   2.087   5.605   6.084
10747SOL     OW33139   0.476   0.811   4.646
10747SOL    HW133140   0.541   0.761   4.588
10747SOL    HW233141   0.441   0.750   4.716
10748SOL     OW33142   2.989   6.458   2.446
10748SOL    HW133143   2.993   6.458   2.546
10748SOL    HW233144   2.927   6.386   2.415
10749SOL     OW33145   6.134   4.477   2.006
10749SOL    HW133146   6.090   4.425   2.079
10749SOL    HW233147   6.098   4.446   1.917
10750SOL     OW33148   4.198   2.243   4.231
10750SOL    HW133149   4.216   2.146   4.216
10750SOL    HW233150   4.132   2.254   4.306
10751SOL     OW33151   6.344   6.274   4.033
10751SOL    HW133152   6.368   6.351   4.092
10751SOL    HW233153   6.283   6.306   3.960
10752SOL     OW33154   6.961   6.543   6.696
10752SOL    HW133155   6.896   6.564   6.623
10752SOL    HW233156   0.026   6.594   6.681
10753SOL     OW33157   5.394   6.937   4.930
10753SOL    HW133158   5.319   6.987   4.972
10753SOL    HW233159   5.391   6.841   4.960
10754SOL     OW33160   0.770   5.657   2.361
10754SOL    HW133161   0.725   5.745   2.368
10754SOL    HW233162   0.868   5.670   2.344
10755SOL     OW33163   0.446   2.402   1.744
10755SOL    HW133164   0.483   2.459   1.671
10755SOL    HW233165   0.516   2.339   1.777
10756SOL     OW33166   1.031   0.222   6.921
10756SOL    HW133167   1.078   0.295   6.873
10756SOL    HW233168   1.097   0.153   6.952
10757SOL     OW33169   6.697   3.152   2.099
10757SOL    HW133170   6.711   3.092   2.177
10757SOL    HW233171   6.682   3.097   2.017
10758SOL     OW33172   1.315   1.571   0.432
10758SOL    HW133173   1.298   1.584   0.335
10758SOL    HW233174   1.394   1.512   0.445
10759SOL     OW33175   2.864   3.638   4.905
10759SOL    HW133176   2.960   3.634   4.877
10759SOL    HW233177   2.819   3.551   4.882
10760SOL     OW33178   0.595   5.214   0.244
10760SOL    HW133179   0.578   5.121   0.212
10760SOL    HW233180   0.534   5.235   0.321
10761SOL     OW33181   1.654   1.208   6.047
10761SOL    HW133182   1.645   1.257   6.134
10761SOL    HW233183   1.632   1.270   5.972
10762SOL     OW33184   1.487   6.857   0.362
10762SOL    HW133185   1.475   6.868   0.460
10762SOL    HW233186   1.578   6.821   0.343
10763SOL     OW33187   4.831   1.031   2.957
10763SOL    HW133188   4.820   1.072   2.866
10763SOL    HW233189   4.850   0.933   2.948
10764SOL     OW33190   4.938   5.779   4.927
10764SOL    HW133191   4.909   5.807   4.836
10764SOL    HW233192   4.876   5.708   4.962
10765SOL     OW33193   0.881   2.191   0.897
10765SOL    HW133194   0.794   2.195   0.948
10765SOL    HW233195   0.875   2.251   0.817
10766SOL     OW33196   2.371   5.384   5.939
10766SOL    HW133197   2.406   5.452   5.874
10766SOL    HW233198   2.335   5.305   5.889
10767SOL     OW33199   1.403   5.041   6.734
10767SOL    HW133200   1.321   4.993   6.702
10767SOL    HW233201   1.390   5.139   6.725
10768SOL     OW33202   5.379   6.402   6.775
10768SOL    HW133203   5.367   6.315   6.822
10768SOL    HW233204   5.307   6.465   6.802
10769SOL     OW33205   2.949   3.660   4.524
10769SOL    HW133206   3.044   3.632   4.537
10769SOL    HW233207   2.911   3.612   4.445
10770SOL     OW33208   5.181   0.249   3.303
10770SOL    HW133209   5.095   0.216   3.341
10770SOL    HW233210   5.191   0.216   3.210
10771SOL     OW33211   4.499   6.083   6.104
10771SOL    HW133212   4.477   6.111   6.197
10771SOL    HW233213   4.511   6.165   6.047
10772SOL     OW33214   5.048   4.472   2.622
10772SOL    HW133215   5.003   4.549   2.577
10772SOL    HW233216   5.071   4.497   2.716
10773SOL     OW33217   0.718   4.010   0.428
10773SOL    HW133218   0.747   4.065   0.507
10773SOL    HW233219   0.681   4.070   0.357
10774SOL     OW33220   0.440   3.352   0.630
10774SOL    HW133221   0.517   3.416   0.630
10774SOL    HW233222   0.357   3.400   0.657
10775SOL     OW33223   1.871   4.111   0.378
10775SOL    HW133224   1.965   4.093   0.406
10775SOL    HW233225   1.848   4.055   0.298
10776SOL     OW33226   0.705   2.956   3.296
10776SOL    HW133227   0.800   2.944   3.325
10776SOL    HW233228   0.673   2.874   3.250
10777SOL     OW33229   1.167   0.154   1.000
10777SOL    HW133230   1.110   0.134   1.080
10777SOL    HW233231   1.247   0.094   1.000
10778SOL     OW33232   4.712   0.245   3.617
10778SOL    HW133233   4.684   0.279   3.707
10778SOL    HW233234   4.633   0.209   3.568
10779SOL     OW33235   5.708   2.956   5.700
10779SOL    HW133236   5.707   3.056   5.703
10779SOL    HW233237   5.624   2.921   5.741
10780SOL     OW33238   1.360   4.923   5.210
10780SOL    HW133239   1.291   4.947   5.141
10780SOL    HW233240   1.438   4.881   5.164
10781SOL     OW33241   5.977   2.250   6.101
10781SOL    HW133242   5.893   2.240   6.048
10781SOL    HW233243   6.053   2.208   6.051
10782SOL     OW33244   1.311   2.583   4.973
10782SOL    HW133245   1.393   2.609   4.921
10782SOL    HW233246   1.335   2.574   5.070
10783SOL     OW33247   1.303   3.705   3.250
10783SOL    HW133248   1.358   3.786   3.232
10783SOL    HW233249   1.361   3.633   3.289
10784SOL     OW33250   4.916   5.367   3.636
10784SOL    HW133251   4.953   5.287   3.588
10784SOL    HW233252   4.985   5.405   3.696
10785SOL     OW33253   1.897   5.060   1.695
10785SOL    HW133254   1.864   5.028   1.606
10785SOL    HW233255   1.824   5.110   1.741
10786SOL     OW33256   4.985   1.349   2.414
10786SOL    HW133257   4.999   1.253   2.437
10786SOL    HW233258   4.971   1.358   2.315
10787SOL     OW33259   3.761   1.906   3.585
10787SOL    HW133260   3.822   1.922   3.507
10787SOL    HW233261   3.815   1.873   3.663
10788SOL     OW33262   1.738   3.426   0.201
10788SOL    HW133263   1.742   3.519   0.236
10788SOL    HW233264   1.704   3.427   0.106
10789SOL     OW33265   6.958   1.510   2.361
10789SOL    HW133266   6.952   1.551   2.270
10789SOL    HW233267   7.013   1.426   2.356
10790SOL     OW33268   6.956   2.059   5.586
10790SOL    HW133269   7.016   2.139   5.594
10790SOL    HW233270   6.995   1.982   5.638
10791SOL     OW33271   1.876   2.658   3.794
10791SOL    HW133272   1.860   2.719   3.872
10791SOL    HW233273   1.972   2.631   3.791
10792SOL     OW33274   3.617   0.873   2.453
10792SOL    HW133275   3.611   0.936   2.531
10792SOL    HW233276   3.545   0.804   2.459
10793SOL     OW33277   3.395   1.644   4.391
10793SOL    HW133278   3.466   1.582   4.424
10793SOL    HW233279   3.308   1.621   4.434
10794SOL     OW33280   4.715   2.974   6.718
10794SOL    HW133281   4.711   2.918   6.635
10794SOL    HW233282   4.810   2.997   6.738
10795SOL     OW33283   6.321   3.252   3.406
10795SOL    HW133284   6.278   3.341   3.423
10795SOL    HW233285   6.354   3.249   3.312
10796SOL     OW33286   0.622   1.528   6.029
10796SOL    HW133287   0.696   1.537   6.096
10796SOL    HW233288   0.553   1.599   6.046
10797SOL     OW33289   5.283   4.708   6.733
10797SOL    HW133290   5.277   4.755   6.821
10797SOL    HW233291   5.213   4.744   6.671
10798SOL     OW33292   1.971   6.619   0.531
10798SOL    HW133293   2.022   6.623   0.445
10798SOL    HW233294   2.035   6.610   0.607
10799SOL     OW33295   3.274   0.431   2.236
10799SOL    HW133296   3.196   0.469   2.286
10799SOL    HW233297   3.323   0.504   2.188
10800SOL     OW33298   2.092   0.092   5.199
10800SOL    HW133299   2.008   0.041   5.215
10800SOL    HW233300   2.150   0.042   5.134
10801SOL     OW33301   2.611   5.880   6.841
10801SOL    HW133302   2.529   5.822   6.833
10801SOL    HW233303   2.594   5.967   6.794
10802SOL     OW33304   0.717   4.547   4.203
10802SOL    HW133305   0.644   4.526   4.268
10802SOL    HW233306   0.679   4.556   4.111
10803SOL     OW33307   6.732   3.730   4.762
10803SOL    HW133308   6.696   3.781   4.840
10803SOL    HW233309   6.769   3.642   4.793
10804SOL     OW33310   3.603   4.683   1.090
10804SOL    HW133311   3.692   4.656   1.053
10804SOL    HW233312   3.548   4.601   1.107
10805SOL     OW33313   3.952   6.137   0.469
10805SOL    HW133314   3.913   6.151   0.378
10805SOL    HW233315   3.916   6.206   0.532
10806SOL     OW33316   5.680   3.431   6.284
10806SOL    HW133317   5.730   3.482   6.354
10806SOL    HW233318   5.732   3.350   6.258
10807SOL     OW33319   5.223   2.468   4.413
10807SOL    HW133320   5.163   2.511   4.481
10807SOL    HW233321   5.179   2.386   4.377
10808SOL     OW33322   0.806   2.034   6.510
10808SOL    HW133323   0.828   2.087   6.592
10808SOL    HW233324   0.859   1.949   6.510
10809SOL     OW33325   1.518   0.801   2.612
10809SOL    HW133326   1.454   0.812   2.536
10809SOL    HW233327   1.609   0.781   2.577
10810SOL     OW33328   1.958   1.016   6.263
10810SOL    HW133329   1.962   1.112   6.234
10810SOL    HW233330   1.938   0.958   6.184
10811SOL     OW33331   4.278   5.622   6.912
10811SOL    HW133332   4.374   5.596   6.918
10811SOL    HW233333   4.226   5.549   6.869
10812SOL     OW33334   6.533   2.871   2.422
10812SOL    HW133335   6.515   2.886   2.519
10812SOL    HW233336   6.606   2.932   2.392
10813SOL     OW33337   3.450   6.356   2.215
10813SOL    HW133338   3.365   6.407   2.228
10813SOL    HW233339   3.435   6.259   2.233
10814SOL     OW33340   1.695   6.720   4.251
10814SOL    HW133341   1.654   6.642   4.204
10814SOL    HW233342   1.758   6.767   4.190
10815SOL     OW33343   5.091   1.914   5.073
10815SOL    HW133344   5.118   1.982   5.005
10815SOL    HW233345   5.169   1.893   5.132
10816SOL     OW33346   2.158   1.667   1.679
10816SOL    HW133347   2.121   1.672   1.772
10816SOL    HW233348   2.165   1.571   1.652
10817SOL     OW33349   3.531   1.571   1.770
10817SOL    HW133350   3.558   1.517   1.691
10817SOL    HW233351   3.573   1.662   1.765
10818SOL     OW33352   4.483   3.482   6.258
10818SOL    HW133353   4.510   3.423   6.183
10818SOL    HW233354   4.561   3.495   6.321
10819SOL     OW33355   1.597   3.886   5.451
10819SOL    HW133356   1.536   3.861   5.375
10819SOL    HW233357   1.631   3.979   5.438
10820SOL     OW33358   0.552   5.879   4.459
10820SOL    HW133359   0.552   5.813   4.534
10820SOL    HW233360   0.498   5.843   4.383
10821SOL     OW33361   0.758   1.094   6.747
10821SOL    HW133362   0.728   1.025   6.813
10821SOL    HW233363   0.851   1.123   6.770
10822SOL     OW33364   0.737   4.205   6.721
10822SOL    HW133365   0.715   4.121   6.671
10822SOL    HW233366   0.784   4.269   6.661
10823SOL     OW33367   1.890   2.723   0.724
10823SOL    HW133368   1.806   2.668   0.721
10823SOL    HW233369   1.957   2.678   0.783
10824SOL     OW33370   5.568   1.465   4.084
10824SOL    HW133371   5.474   1.498   4.082
10824SOL    HW233372   5.582   1.399   4.011
10825SOL     OW33373   2.999   1.301   2.513
10825SOL    HW133374   2.977   1.300   2.610
10825SOL    HW233375   3.099   1.303   2.501
10826SOL     OW33376   0.131   3.437   1.260
10826SOL    HW133377   0.105   3.528   1.292
10826SOL    HW233378   0.067   3.369   1.298
10827SOL     OW33379   0.641   2.575   4.471
10827SOL    HW133380   0.725   2.540   4.429
10827SOL    HW233381   0.600   2.504   4.528
10828SOL     OW33382   2.458   5.169   0.321
10828SOL    HW133383   2.390   5.147   0.392
10828SOL    HW233384   2.417   5.229   0.252
10829SOL     OW33385   2.266   4.078   1.792
10829SOL    HW133386   2.271   4.043   1.885
10829SOL    HW233387   2.292   4.005   1.728
10830SOL     OW33388   6.147   0.735   3.427
10830SOL    HW133389   6.229   0.784   3.395
10830SOL    HW233390   6.131   0.656   3.368
10831SOL     OW33391   5.379   2.477   1.693
10831SOL    HW133392   5.373   2.492   1.792
10831SOL    HW233393   5.445   2.405   1.673
10832SOL     OW33394   0.709   2.957   2.939
10832SOL    HW133395   0.741   2.865   2.914
10832SOL    HW233396   0.700   3.013   2.856
10833SOL     OW33397   3.356   6.821   4.230
10833SOL    HW133398   3.409   6.829   4.146
10833SOL    HW233399   3.268   6.868   4.218
10834SOL     OW33400   6.878   1.197   6.220
10834SOL    HW133401   6.898   1.263   6.148
10834SOL    HW233402   6.959   1.184   6.277
10835SOL     OW33403   0.795   1.932   0.949
10835SOL    HW133404   0.841   2.021   0.945
10835SOL    HW233405   0.750   1.914   0.861
10836SOL     OW33406   0.843   2.656   1.172
10836SOL    HW133407   0.792   2.581   1.214
10836SOL    HW233408   0.940   2.632   1.167
10837SOL     OW33409   0.602   5.954   0.697
10837SOL    HW133410   0.550   5.948   0.612
10837SOL    HW233411   0.677   5.888   0.695
10838SOL     OW33412   6.300   6.420   0.836
10838SOL    HW133413   6.362   6.498   0.828
10838SOL    HW233414   6.207   6.449   0.812
10839SOL     OW33415   1.945   1.713   6.612
10839SOL    HW133416   1.990   1.644   6.669
10839SOL    HW233417   2.014   1.763   6.559
10840SOL     OW33418   2.318   6.870   2.612
10840SOL    HW133419   2.396   6.916   2.655
10840SOL    HW233420   2.352   6.802   2.546
10841SOL     OW33421   4.487   3.618   0.760
10841SOL    HW133422   4.485   3.561   0.842
10841SOL    HW233423   4.581   3.639   0.736
10842SOL     OW33424   5.789   2.163   1.606
10842SOL    HW133425   5.856   2.092   1.588
10842SOL    HW233426   5.821   2.250   1.568
10843SOL     OW33427   0.474   1.975   1.933
10843SOL    HW133428   0.558   1.924   1.951
10843SOL    HW233429   0.486   2.032   1.852
10844SOL     OW33430   5.052   0.432   3.972
10844SOL    HW133431   5.070   0.364   3.901
10844SOL    HW233432   5.033   0.386   4.059
10845SOL     OW33433   2.108   2.993   1.060
10845SOL    HW133434   2.052   3.073   1.042
10845SOL    HW233435   2.167   2.975   0.982
10846SOL     OW33436   3.524   2.754   1.582
10846SOL    HW133437   3.562   2.816   1.651
10846SOL    HW233438   3.598   2.702   1.540
10847SOL     OW33439   4.655   2.296   5.254
10847SOL    HW133440   4.574   2.268   5.202
10847SOL    HW233441   4.712   2.355   5.196
10848SOL     OW33442   1.387   0.942   0.134
10848SOL    HW133443   1.464   0.943   0.070
10848SOL    HW233444   1.387   0.856   0.185
10849SOL     OW33445   1.627   4.887   4.259
10849SOL    HW133446   1.622   4.846   4.351
10849SOL    HW233447   1.550   4.855   4.205
10850SOL     OW33448   5.400   1.229   2.111
10850SOL    HW133449   5.482   1.187   2.149
10850SOL    HW233450   5.417   1.254   2.016
10851SOL     OW33451   4.326   3.001   0.056
10851SOL    HW133452   4.399   2.956   0.004
10851SOL    HW233453   4.257   2.933   0.081
10852SOL     OW33454   6.415   0.667   6.030
10852SOL    HW133455   6.349   0.667   6.105
10852SOL    HW233456   6.500   0.711   6.060
10853SOL     OW33457   3.432   0.745   4.465
10853SOL    HW133458   3.451   0.671   4.401
10853SOL    HW233459   3.417   0.707   4.556
10854SOL     OW33460   5.986   0.050   0.479
10854SOL    HW133461   5.954   6.988   0.430
10854SOL    HW233462   6.047   0.023   0.553
10855SOL     OW33463   0.400   6.001   1.445
10855SOL    HW133464   0.444   5.934   1.385
10855SOL    HW233465   0.444   6.090   1.434
10856SOL     OW33466   5.610   6.572   6.783
10856SOL    HW133467   5.605   6.645   6.714
10856SOL    HW233468   5.527   6.516   6.778
10857SOL     OW33469   6.441   6.833   4.670
10857SOL    HW133470   6.479   6.748   4.707
10857SOL    HW233471   6.443   6.829   4.570
10858SOL     OW33472   2.172   2.376   6.945
10858SOL    HW133473   2.218   2.454   6.903
10858SOL    HW233474   2.208   2.291   6.907
10859SOL     OW33475   2.153   5.444   2.817
10859SOL    HW133476   2.059   5.428   2.847
10859SOL    HW233477   2.189   5.361   2.774
10860SOL     OW33478   5.853   2.176   1.278
10860SOL    HW133479   5.764   2.158   1.320
10860SOL    HW233480   5.845   2.255   1.217
10861SOL     OW33481   1.618   4.183   1.617
10861SOL    HW133482   1.623   4.091   1.579
10861SOL    HW233483   1.522   4.211   1.625
10862SOL     OW33484   3.570   4.358   5.246
10862SOL    HW133485   3.664   4.381   5.220
10862SOL    HW233486   3.569   4.318   5.337
10863SOL     OW33487   2.014   0.220   3.227
10863SOL    HW133488   2.093   0.225   3.166
10863SOL    HW233489   1.931   0.207   3.173
10864SOL     OW33490   2.853   3.635   1.915
10864SOL    HW133491   2.899   3.704   1.970
10864SOL    HW233492   2.921   3.571   1.877
10865SOL     OW33493   3.193   1.928   2.669
10865SOL    HW133494   3.188   1.844   2.614
10865SOL    HW233495   3.101   1.965   2.681
10866SOL     OW33496   0.844   3.388   4.280
10866SOL    HW133497   0.907   3.311   4.281
10866SOL    HW233498   0.862   3.447   4.360
10867SOL     OW33499   4.441   3.340   0.150
10867SOL    HW133500   4.381   3.309   0.076
10867SOL    HW233501   4.462   3.264   0.210
10868SOL     OW33502   1.127   6.971   5.292
10868SOL    HW133503   1.182   6.890   5.310
10868SOL    HW233504   1.036   6.944   5.260
10869NA      NA33505   0.196   1.150   6.510
10870NA      NA33506   4.554   4.753   5.303
10871NA      NA33507   0.881   4.716   2.683
10872NA      NA33508   5.990   3.477   3.343
10873NA      NA33509   4.000   2.785   5.493
10874NA      NA33510   2.429   4.622   6.825
10875NA      NA33511   1.634   5.671   0.363
10876NA      NA33512   4.150   4.901   1.703
10877NA      NA33513   5.147   3.843   1.200
10878NA      NA33514   3.629   1.737   0.579
10879NA      NA33515   5.280   6.514   1.574
10880NA      NA33516   2.431   6.887   5.262
10881NA      NA33517   4.153   4.911   2.731
10882NA      NA33518   4.101   4.486   6.546
   7.01933   7.01933   7.01933
