Generated by trjconv : CNT in water t= 569.00000
33518
    1C        C    1   2.846   2.771   4.743
    1C        C    2   2.902   2.724   4.864
    1C        C    3   2.842   2.770   4.981
    1C        C    4   2.850   2.778   4.258
    1C        C    5   2.902   2.733   4.381
    1C        C    6   2.845   2.772   4.504
    1C        C    7   3.013   2.638   4.624
    1C        C    8   2.895   2.716   4.623
    1C        C    9   3.079   2.607   4.745
    1C        C   10   3.016   2.641   4.867
    1C        C   11   3.177   2.490   4.972
    1C        C   12   3.057   2.562   4.975
    1C        C   13   2.849   2.774   3.770
    1C        C   14   2.904   2.729   3.892
    1C        C   15   2.849   2.777   4.012
    1C        C   16   3.016   2.647   4.136
    1C        C   17   2.902   2.731   4.135
    1C        C   18   3.078   2.616   4.259
    1C        C   19   3.017   2.651   4.381
    1C        C   20   3.210   2.560   4.502
    1C        C   21   3.078   2.610   4.502
    1C        C   22   3.278   2.531   4.623
    1C        C   23   3.207   2.545   4.744
    1C        C   24   3.412   2.483   4.860
    1C        C   25   3.270   2.503   4.864
    1C        C   26   3.486   2.477   4.979
    1C        C   27   2.850   2.770   3.281
    1C        C   28   2.911   2.730   3.402
    1C        C   29   2.859   2.776   3.525
    1C        C   30   3.016   2.639   3.648
    1C        C   31   2.904   2.725   3.649
    1C        C   32   3.076   2.602   3.771
    1C        C   33   3.016   2.643   3.892
    1C        C   34   3.206   2.550   4.015
    1C        C   35   3.077   2.607   4.015
    1C        C   36   3.273   2.530   4.138
    1C        C   37   3.208   2.559   4.260
    1C        C   38   3.415   2.503   4.378
    1C        C   39   3.278   2.537   4.381
    1C        C   40   3.489   2.499   4.498
    1C        C   41   3.417   2.506   4.619
    1C        C   42   3.628   2.480   4.742
    1C        C   43   3.486   2.477   4.739
    1C        C   44   3.703   2.484   4.862
    1C        C   45   3.625   2.480   4.978
    1C        C   46   2.838   2.753   2.792
    1C        C   47   2.896   2.714   2.915
    1C        C   48   2.840   2.757   3.037
    1C        C   49   3.019   2.643   3.161
    1C        C   50   2.899   2.718   3.159
    1C        C   51   3.082   2.609   3.282
    1C        C   52   3.024   2.644   3.406
    1C        C   53   3.209   2.543   3.526
    1C        C   54   3.081   2.602   3.528
    1C        C   55   3.274   2.524   3.650
    1C        C   56   3.205   2.545   3.772
    1C        C   57   3.415   2.505   3.894
    1C        C   58   3.275   2.530   3.894
    1C        C   59   3.484   2.496   4.017
    1C        C   60   3.412   2.505   4.138
    1C        C   61   3.628   2.493   4.258
    1C        C   62   3.487   2.492   4.257
    1C        C   63   3.703   2.502   4.378
    1C        C   64   3.630   2.497   4.499
    1C        C   65   3.834   2.541   4.619
    1C        C   66   3.700   2.498   4.622
    1C        C   67   3.902   2.559   4.742
    1C        C   68   3.839   2.522   4.863
    1C        C   69   4.053   2.579   4.980
    1C        C   70   3.922   2.528   4.975
    1C        C   71   2.824   2.735   2.310
    1C        C   72   2.880   2.687   2.430
    1C        C   73   2.832   2.743   2.551
    1C        C   74   3.006   2.620   2.671
    1C        C   75   2.888   2.698   2.672
    1C        C   76   3.070   2.589   2.793
    1C        C   77   3.014   2.636   2.914
    1C        C   78   3.204   2.546   3.035
    1C        C   79   3.075   2.602   3.038
    1C        C   80   3.273   2.526   3.157
    1C        C   81   3.210   2.549   3.281
    1C        C   82   3.412   2.487   3.402
    1C        C   83   3.274   2.518   3.403
    1C        C   84   3.482   2.487   3.525
    1C        C   85   3.413   2.501   3.648
    1C        C   86   3.624   2.496   3.767
    1C        C   87   3.483   2.499   3.770
    1C        C   88   3.693   2.503   3.890
    1C        C   89   3.625   2.495   4.014
    1C        C   90   3.834   2.538   4.134
    1C        C   91   3.697   2.502   4.135
    1C        C   92   3.903   2.565   4.255
    1C        C   93   3.840   2.536   4.377
    1C        C   94   4.031   2.627   4.497
    1C        C   95   3.907   2.559   4.499
    1C        C   96   4.089   2.666   4.620
    1C        C   97   4.029   2.622   4.741
    1C        C   98   4.190   2.757   4.861
    1C        C   99   4.099   2.646   4.862
    1C        C  100   4.216   2.835   4.975
    1C        C  101   2.820   2.729   2.070
    1C        C  102   2.988   2.592   2.187
    1C        C  103   2.872   2.676   2.189
    1C        C  104   3.062   2.575   2.307
    1C        C  105   3.000   2.612   2.428
    1C        C  106   3.195   2.524   2.549
    1C        C  107   3.066   2.582   2.549
    1C        C  108   3.266   2.509   2.671
    1C        C  109   3.199   2.532   2.793
    1C        C  110   3.409   2.491   2.914
    1C        C  111   3.270   2.515   2.914
    1C        C  112   3.481   2.492   3.036
    1C        C  113   3.412   2.500   3.159
    1C        C  114   3.624   2.493   3.279
    1C        C  115   3.483   2.486   3.280
    1C        C  116   3.694   2.506   3.402
    1C        C  117   3.623   2.498   3.524
    1C        C  118   3.831   2.541   3.643
    1C        C  119   3.695   2.501   3.645
    1C        C  120   3.894   2.567   3.767
    1C        C  121   3.829   2.542   3.890
    1C        C  122   4.022   2.632   4.011
    1C        C  123   3.898   2.566   4.011
    1C        C  124   4.087   2.670   4.131
    1C        C  125   4.028   2.630   4.253
    1C        C  126   4.193   2.765   4.374
    1C        C  127   4.087   2.671   4.375
    1C        C  128   4.237   2.816   4.498
    1C        C  129   4.192   2.762   4.620
    1C        C  130   4.319   2.934   4.737
    1C        C  131   4.238   2.817   4.742
    1C        C  132   4.346   3.001   4.858
    1C        C  133   4.286   2.955   4.976
    1C        C  134   3.174   2.468   2.078
    1C        C  135   3.039   2.507   2.085
    1C        C  136   3.259   2.478   2.189
    1C        C  137   3.192   2.517   2.308
    1C        C  138   3.402   2.473   2.429
    1C        C  139   3.263   2.495   2.428
    1C        C  140   3.476   2.478   2.549
    1C        C  141   3.405   2.487   2.671
    1C        C  142   3.620   2.493   2.789
    1C        C  143   3.479   2.486   2.792
    1C        C  144   3.692   2.497   2.910
    1C        C  145   3.623   2.492   3.033
    1C        C  146   3.829   2.538   3.153
    1C        C  147   3.692   2.502   3.156
    1C        C  148   3.896   2.559   3.275
    1C        C  149   3.832   2.534   3.399
    1C        C  150   4.026   2.623   3.521
    1C        C  151   3.899   2.560   3.521
    1C        C  152   4.083   2.662   3.645
    1C        C  153   4.018   2.635   3.767
    1C        C  154   4.191   2.761   3.887
    1C        C  155   4.080   2.672   3.888
    1C        C  156   4.245   2.807   4.008
    1C        C  157   4.196   2.759   4.132
    1C        C  158   4.337   2.921   4.251
    1C        C  159   4.249   2.810   4.252
    1C        C  160   4.367   2.985   4.373
    1C        C  161   4.323   2.929   4.495
    1C        C  162   4.431   3.115   4.614
    1C        C  163   4.362   2.991   4.615
    1C        C  164   4.458   3.183   4.734
    1C        C  165   4.428   3.116   4.854
    1C        C  166   4.513   3.315   4.970
    1C        C  167   4.473   3.182   4.970
    1C        C  168   3.475   2.430   2.073
    1C        C  169   3.398   2.456   2.187
    1C        C  170   3.614   2.460   2.308
    1C        C  171   3.472   2.455   2.307
    1C        C  172   3.690   2.481   2.425
    1C        C  173   3.617   2.479   2.547
    1C        C  174   3.827   2.535   2.663
    1C        C  175   3.690   2.498   2.666
    1C        C  176   3.892   2.558   2.787
    1C        C  177   3.829   2.532   2.910
    1C        C  178   4.023   2.624   3.029
    1C        C  179   3.897   2.560   3.031
    1C        C  180   4.081   2.661   3.152
    1C        C  181   4.022   2.622   3.275
    1C        C  182   4.190   2.751   3.396
    1C        C  183   4.082   2.659   3.397
    1C        C  184   4.238   2.802   3.519
    1C        C  185   4.192   2.751   3.642
    1C        C  186   4.327   2.918   3.761
    1C        C  187   4.239   2.808   3.763
    1C        C  188   4.367   2.977   3.883
    1C        C  189   4.330   2.921   4.007
    1C        C  190   4.438   3.105   4.125
    1C        C  191   4.372   2.981   4.128
    1C        C  192   4.460   3.173   4.247
    1C        C  193   4.429   3.112   4.370
    1C        C  194   4.495   3.316   4.487
    1C        C  195   4.458   3.180   4.491
    1C        C  196   4.512   3.387   4.608
    1C        C  197   4.503   3.318   4.731
    1C        C  198   4.553   3.530   4.848
    1C        C  199   4.525   3.390   4.852
    1C        C  200   4.578   3.617   4.959
    1C        C  201   3.615   2.415   2.073
    1C        C  202   3.823   2.510   2.183
    1C        C  203   3.689   2.459   2.187
    1C        C  204   3.898   2.540   2.300
    1C        C  205   3.827   2.513   2.419
    1C        C  206   4.015   2.619   2.540
    1C        C  207   3.892   2.551   2.539
    1C        C  208   4.078   2.657   2.662
    1C        C  209   4.019   2.620   2.785
    1C        C  210   4.192   2.748   2.906
    1C        C  211   4.081   2.660   2.905
    1C        C  212   4.242   2.797   3.028
    1C        C  213   4.191   2.750   3.151
    1C        C  214   4.329   2.909   3.272
    1C        C  215   4.243   2.797   3.274
    1C        C  216   4.365   2.971   3.393
    1C        C  217   4.324   2.915   3.516
    1C        C  218   4.429   3.101   3.636
    1C        C  219   4.365   2.975   3.637
    1C        C  220   4.454   3.168   3.758
    1C        C  221   4.428   3.105   3.881
    1C        C  222   4.495   3.308   4.001
    1C        C  223   4.458   3.172   4.002
    1C        C  224   4.513   3.378   4.122
    1C        C  225   4.499   3.309   4.245
    1C        C  226   4.522   3.524   4.362
    1C        C  227   4.514   3.383   4.364
    1C        C  228   4.520   3.597   4.483
    1C        C  229   4.526   3.528   4.606
    1C        C  230   4.503   3.739   4.726
    1C        C  231   4.537   3.601   4.726
    1C        C  232   4.495   3.816   4.844
    1C        C  233   4.541   3.752   4.960
    1C        C  234   4.018   2.604   2.059
    1C        C  235   3.892   2.544   2.066
    1C        C  236   4.086   2.639   2.176
    1C        C  237   4.023   2.608   2.298
    1C        C  238   4.195   2.737   2.419
    1C        C  239   4.079   2.655   2.419
    1C        C  240   4.246   2.787   2.541
    1C        C  241   4.190   2.742   2.663
    1C        C  242   4.332   2.904   2.783
    1C        C  243   4.245   2.793   2.783
    1C        C  244   4.377   2.959   2.905
    1C        C  245   4.336   2.903   3.029
    1C        C  246   4.432   3.094   3.147
    1C        C  247   4.369   2.968   3.150
    1C        C  248   4.456   3.161   3.270
    1C        C  249   4.428   3.097   3.393
    1C        C  250   4.493   3.302   3.513
    1C        C  251   4.454   3.166   3.513
    1C        C  252   4.506   3.373   3.634
    1C        C  253   4.491   3.304   3.757
    1C        C  254   4.520   3.516   3.874
    1C        C  255   4.511   3.375   3.877
    1C        C  256   4.519   3.588   3.996
    1C        C  257   4.528   3.519   4.118
    1C        C  258   4.499   3.732   4.238
    1C        C  259   4.526   3.593   4.239
    1C        C  260   4.481   3.802   4.359
    1C        C  261   4.500   3.737   4.483
    1C        C  262   4.428   3.938   4.600
    1C        C  263   4.479   3.806   4.604
    1C        C  264   4.404   4.009   4.719
    1C        C  265   4.438   3.945   4.841
    1C        C  266   4.327   4.130   4.955
    1C        C  267   4.401   4.013   4.957
    1C        C  268   4.258   2.775   2.057
    1C        C  269   4.197   2.727   2.174
    1C        C  270   4.342   2.885   2.298
    1C        C  271   4.249   2.778   2.295
    1C        C  272   4.380   2.951   2.417
    1C        C  273   4.338   2.894   2.539
    1C        C  274   4.443   3.082   2.658
    1C        C  275   4.373   2.959   2.659
    1C        C  276   4.465   3.150   2.780
    1C        C  277   4.443   3.084   2.903
    1C        C  278   4.504   3.289   3.022
    1C        C  279   4.468   3.153   3.024
    1C        C  280   4.513   3.361   3.144
    1C        C  281   4.499   3.295   3.268
    1C        C  282   4.512   3.509   3.388
    1C        C  283   4.507   3.368   3.389
    1C        C  284   4.517   3.584   3.508
    1C        C  285   4.517   3.514   3.630
    1C        C  286   4.496   3.726   3.750
    1C        C  287   4.517   3.587   3.752
    1C        C  288   4.477   3.795   3.872
    1C        C  289   4.498   3.728   3.995
    1C        C  290   4.430   3.931   4.114
    1C        C  291   4.481   3.799   4.116
    1C        C  292   4.397   3.995   4.235
    1C        C  293   4.427   3.933   4.358
    1C        C  294   4.330   4.126   4.475
    1C        C  295   4.401   4.004   4.477
    1C        C  296   4.285   4.182   4.596
    1C        C  297   4.327   4.128   4.720
    1C        C  298   4.201   4.311   4.833
    1C        C  299   4.288   4.197   4.838
    1C        C  300   4.166   4.394   4.944
    1C        C  301   4.345   2.883   2.062
    1C        C  302   4.459   3.072   2.174
    1C        C  303   4.386   2.949   2.179
    1C        C  304   4.474   3.144   2.296
    1C        C  305   4.440   3.079   2.416
    1C        C  306   4.502   3.285   2.535
    1C        C  307   4.470   3.147   2.536
    1C        C  308   4.510   3.358   2.656
    1C        C  309   4.497   3.287   2.778
    1C        C  310   4.524   3.499   2.898
    1C        C  311   4.513   3.358   2.899
    1C        C  312   4.518   3.571   3.020
    1C        C  313   4.519   3.502   3.143
    1C        C  314   4.499   3.716   3.259
    1C        C  315   4.517   3.576   3.264
    1C        C  316   4.483   3.788   3.380
    1C        C  317   4.504   3.724   3.504
    1C        C  318   4.435   3.925   3.625
    1C        C  319   4.486   3.793   3.626
    1C        C  320   4.402   3.989   3.747
    1C        C  321   4.426   3.926   3.871
    1C        C  322   4.322   4.113   3.989
    1C        C  323   4.394   3.992   3.992
    1C        C  324   4.283   4.173   4.111
    1C        C  325   4.325   4.117   4.234
    1C        C  326   4.183   4.280   4.353
    1C        C  327   4.282   4.179   4.353
    1C        C  328   4.134   4.336   4.473
    1C        C  329   4.191   4.288   4.593
    1C        C  330   4.022   4.428   4.709
    1C        C  331   4.139   4.346   4.711
    1C        C  332   3.969   4.488   4.825
    1C        C  333   4.051   4.475   4.938
    1C        C  334   4.544   3.264   2.059
    1C        C  335   4.530   3.125   2.062
    1C        C  336   4.535   3.348   2.171
    1C        C  337   4.506   3.283   2.293
    1C        C  338   4.522   3.496   2.410
    1C        C  339   4.518   3.355   2.414
    1C        C  340   4.523   3.568   2.531
    1C        C  341   4.522   3.499   2.654
    1C        C  342   4.500   3.710   2.772
    1C        C  343   4.519   3.570   2.776
    1C        C  344   4.483   3.780   2.894
    1C        C  345   4.500   3.711   3.016
    1C        C  346   4.432   3.915   3.135
    1C        C  347   4.481   3.783   3.136
    1C        C  348   4.397   3.979   3.256
    1C        C  349   4.430   3.919   3.380
    1C        C  350   4.322   4.102   3.498
    1C        C  351   4.400   3.984   3.502
    1C        C  352   4.279   4.160   3.620
    1C        C  353   4.324   4.107   3.743
    1C        C  354   4.174   4.259   3.866
    1C        C  355   4.278   4.163   3.864
    1C        C  356   4.119   4.308   3.986
    1C        C  357   4.175   4.264   4.108
    1C        C  358   4.009   4.397   4.226
    1C        C  359   4.126   4.318   4.230
    1C        C  360   3.952   4.440   4.348
    1C        C  361   4.014   4.411   4.471
    1C        C  362   3.821   4.509   4.590
    1C        C  363   3.951   4.452   4.590
    1C        C  364   3.758   4.545   4.710
    1C        C  365   3.837   4.541   4.827
    1C        C  366   3.628   4.595   4.948
    1C        C  367   3.764   4.570   4.943
    1C        C  368   4.508   3.561   2.053
    1C        C  369   4.528   3.489   2.171
    1C        C  370   4.504   3.708   2.284
    1C        C  371   4.523   3.568   2.288
    1C        C  372   4.487   3.778   2.406
    1C        C  373   4.508   3.709   2.527
    1C        C  374   4.436   3.909   2.646
    1C        C  375   4.488   3.778   2.649
    1C        C  376   4.397   3.972   2.767
    1C        C  377   4.427   3.910   2.890
    1C        C  378   4.316   4.090   3.011
    1C        C  379   4.396   3.974   3.012
    1C        C  380   4.273   4.150   3.131
    1C        C  381   4.315   4.094   3.254
    1C        C  382   4.176   4.255   3.375
    1C        C  383   4.275   4.154   3.376
    1C        C  384   4.123   4.301   3.497
    1C        C  385   4.176   4.256   3.621
    1C        C  386   4.004   4.382   3.741
    1C        C  387   4.121   4.302   3.743
    1C        C  388   3.941   4.421   3.861
    1C        C  389   4.000   4.385   3.983
    1C        C  390   3.812   4.482   4.106
    1C        C  391   3.941   4.425   4.105
    1C        C  392   3.747   4.507   4.229
    1C        C  393   3.823   4.497   4.348
    1C        C  394   3.613   4.547   4.472
    1C        C  395   3.752   4.524   4.467
    1C        C  396   3.541   4.561   4.593
    1C        C  397   3.617   4.558   4.712
    1C        C  398   3.409   4.552   4.840
    1C        C  399   3.549   4.573   4.835
    1C        C  400   3.337   4.516   4.955
    1C        C  401   4.507   3.700   2.049
    1C        C  402   4.458   3.916   2.164
    1C        C  403   4.497   3.780   2.163
    1C        C  404   4.413   3.978   2.282
    1C        C  405   4.432   3.908   2.404
    1C        C  406   4.323   4.092   2.524
    1C        C  407   4.398   3.972   2.525
    1C        C  408   4.276   4.144   2.646
    1C        C  409   4.320   4.090   2.769
    1C        C  410   4.175   4.250   2.885
    1C        C  411   4.272   4.147   2.889
    1C        C  412   4.119   4.294   3.007
    1C        C  413   4.173   4.250   3.130
    1C        C  414   3.999   4.370   3.250
    1C        C  415   4.119   4.297   3.252
    1C        C  416   3.938   4.403   3.373
    1C        C  417   4.002   4.374   3.495
    1C        C  418   3.812   4.466   3.618
    1C        C  419   3.942   4.411   3.617
    1C        C  420   3.744   4.495   3.738
    1C        C  421   3.810   4.475   3.862
    1C        C  422   3.607   4.534   3.981
    1C        C  423   3.746   4.506   3.984
    1C        C  424   3.540   4.540   4.105
    1C        C  425   3.609   4.535   4.228
    1C        C  426   3.399   4.545   4.354
    1C        C  427   3.540   4.549   4.351
    1C        C  428   3.331   4.543   4.478
    1C        C  429   3.400   4.556   4.600
    1C        C  430   3.190   4.523   4.721
    1C        C  431   3.330   4.550   4.723
    1C        C  432   3.122   4.494   4.842
    1C        C  433   3.199   4.501   4.958
    1C        C  434   4.379   4.117   2.044
    1C        C  435   4.442   3.992   2.047
    1C        C  436   4.301   4.158   2.157
    1C        C  437   4.334   4.096   2.280
    1C        C  438   4.183   4.249   2.401
    1C        C  439   4.285   4.150   2.401
    1C        C  440   4.123   4.295   2.521
    1C        C  441   4.175   4.243   2.642
    1C        C  442   4.003   4.371   2.761
    1C        C  443   4.116   4.288   2.762
    1C        C  444   3.941   4.408   2.883
    1C        C  445   4.001   4.371   3.006
    1C        C  446   3.809   4.465   3.129
    1C        C  447   3.937   4.405   3.127
    1C        C  448   3.745   4.492   3.252
    1C        C  449   3.812   4.468   3.374
    1C        C  450   3.606   4.518   3.495
    1C        C  451   3.744   4.492   3.496
    1C        C  452   3.536   4.528   3.618
    1C        C  453   3.606   4.525   3.740
    1C        C  454   3.393   4.548   3.859
    1C        C  455   3.534   4.540   3.861
    1C        C  456   3.327   4.539   3.984
    1C        C  457   3.398   4.544   4.106
    1C        C  458   3.194   4.502   4.233
    1C        C  459   3.331   4.536   4.230
    1C        C  460   3.127   4.485   4.356
    1C        C  461   3.194   4.512   4.477
    1C        C  462   2.995   4.439   4.599
    1C        C  463   3.123   4.498   4.599
    1C        C  464   2.930   4.401   4.719
    1C        C  465   2.988   4.443   4.842
    1C        C  466   2.798   4.338   4.958
    1C        C  467   2.906   4.427   4.958
    1C        C  468   4.122   4.285   2.041
    1C        C  469   4.187   4.245   2.159
    1C        C  470   4.007   4.366   2.275
    1C        C  471   4.130   4.295   2.279
    1C        C  472   3.939   4.397   2.395
    1C        C  473   4.002   4.367   2.518
    1C        C  474   3.810   4.459   2.639
    1C        C  475   3.939   4.402   2.639
    1C        C  476   3.745   4.487   2.762
    1C        C  477   3.812   4.466   2.884
    1C        C  478   3.604   4.513   3.006
    1C        C  479   3.743   4.488   3.006
    1C        C  480   3.535   4.527   3.129
    1C        C  481   3.606   4.517   3.251
    1C        C  482   3.394   4.532   3.374
    1C        C  483   3.535   4.525   3.373
    1C        C  484   3.323   4.531   3.496
    1C        C  485   3.395   4.541   3.618
    1C        C  486   3.185   4.502   3.741
    1C        C  487   3.321   4.538   3.738
    1C        C  488   3.122   4.480   3.865
    1C        C  489   3.190   4.503   3.986
    1C        C  490   3.002   4.415   4.113
    1C        C  491   3.126   4.483   4.110
    1C        C  492   2.941   4.383   4.236
    1C        C  493   3.000   4.421   4.358
    1C        C  494   2.829   4.300   4.479
    1C        C  495   2.935   4.393   4.480
    1C        C  496   2.774   4.256   4.602
    1C        C  497   2.818   4.314   4.723
    1C        C  498   2.663   4.164   4.843
    1C        C  499   2.753   4.274   4.842
    1C        C  500   2.594   4.116   4.955
    1C        C  501   4.000   4.352   2.039
    1C        C  502   3.809   4.456   2.155
    1C        C  503   3.939   4.400   2.156
    1C        C  504   3.738   4.475   2.276
    1C        C  505   3.806   4.447   2.396
    1C        C  506   3.602   4.503   2.520
    1C        C  507   3.740   4.475   2.517
    1C        C  508   3.530   4.515   2.641
    1C        C  509   3.605   4.506   2.761
    1C        C  510   3.394   4.524   2.886
    1C        C  511   3.535   4.518   2.883
    1C        C  512   3.321   4.521   3.007
    1C        C  513   3.394   4.531   3.128
    1C        C  514   3.187   4.498   3.253
    1C        C  515   3.325   4.526   3.251
    1C        C  516   3.118   4.474   3.374
    1C        C  517   3.187   4.494   3.496
    1C        C  518   2.996   4.406   3.621
    1C        C  519   3.119   4.476   3.618
    1C        C  520   2.940   4.371   3.746
    1C        C  521   2.997   4.413   3.868
    1C        C  522   2.833   4.285   3.993
    1C        C  523   2.940   4.377   3.992
    1C        C  524   2.785   4.235   4.116
    1C        C  525   2.832   4.293   4.235
    1C        C  526   2.700   4.129   4.361
    1C        C  527   2.782   4.244   4.358
    1C        C  528   2.659   4.074   4.485
    1C        C  529   2.691   4.142   4.604
    1C        C  530   2.589   3.957   4.727
    1C        C  531   2.639   4.090   4.725
    1C        C  532   2.542   3.899   4.848
    1C        C  533   2.527   3.992   4.955
    1C        C  534   3.613   4.558   2.037
    1C        C  535   3.741   4.501   2.041
    1C        C  536   3.532   4.535   2.152
    1C        C  537   3.600   4.510   2.274
    1C        C  538   3.392   4.512   2.397
    1C        C  539   3.533   4.520   2.398
    1C        C  540   3.321   4.505   2.520
    1C        C  541   3.389   4.515   2.643
    1C        C  542   3.182   4.485   2.762
    1C        C  543   3.320   4.514   2.766
    1C        C  544   3.117   4.464   2.886
    1C        C  545   3.184   4.490   3.008
    1C        C  546   2.994   4.403   3.132
    1C        C  547   3.119   4.469   3.132
    1C        C  548   2.932   4.370   3.255
    1C        C  549   2.993   4.408   3.376
    1C        C  550   2.826   4.279   3.504
    1C        C  551   2.936   4.368   3.499
    1C        C  552   2.775   4.233   3.628
    1C        C  553   2.830   4.282   3.749
    1C        C  554   2.700   4.116   3.873
    1C        C  555   2.783   4.231   3.872
    1C        C  556   2.664   4.057   3.997
    1C        C  557   2.698   4.123   4.117
    1C        C  558   2.596   3.941   4.246
    1C        C  559   2.660   4.066   4.241
    1C        C  560   2.563   3.877   4.368
    1C        C  561   2.590   3.951   4.485
    1C        C  562   2.531   3.749   4.615
    1C        C  563   2.565   3.885   4.608
    1C        C  564   2.512   3.679   4.737
    1C        C  565   2.521   3.758   4.855
    1C        C  566   2.526   3.547   4.974
    1C        C  567   2.530   3.686   4.975
    1C        C  568   3.327   4.471   2.039
    1C        C  569   3.391   4.513   2.156
    1C        C  570   3.180   4.470   2.278
    1C        C  571   3.317   4.506   2.278
    1C        C  572   3.111   4.455   2.400
    1C        C  573   3.182   4.480   2.520
    1C        C  574   2.984   4.403   2.645
    1C        C  575   3.112   4.464   2.641
    1C        C  576   2.926   4.365   2.768
    1C        C  577   2.990   4.402   2.888
    1C        C  578   2.825   4.272   3.014
    1C        C  579   2.932   4.365   3.011
    1C        C  580   2.778   4.221   3.137
    1C        C  581   2.826   4.277   3.258
    1C        C  582   2.694   4.115   3.381
    1C        C  583   2.780   4.227   3.381
    1C        C  584   2.658   4.058   3.505
    1C        C  585   2.696   4.117   3.628
    1C        C  586   2.596   3.932   3.755
    1C        C  587   2.663   4.056   3.751
    1C        C  588   2.567   3.870   3.879
    1C        C  589   2.606   3.929   4.001
    1C        C  590   2.535   3.734   4.128
    1C        C  591   2.577   3.869   4.126
    1C        C  592   2.525   3.666   4.252
    1C        C  593   2.526   3.741   4.371
    1C        C  594   2.511   3.534   4.497
    1C        C  595   2.514   3.675   4.496
    1C        C  596   2.518   3.462   4.618
    1C        C  597   2.518   3.537   4.738
    1C        C  598   2.532   3.325   4.861
    1C        C  599   2.527   3.466   4.859
    1C        C  600   2.527   3.248   4.978
    1C        C  601   3.195   4.432   2.046
    1C        C  602   2.976   4.391   2.158
    1C        C  603   3.111   4.439   2.157
    1C        C  604   2.918   4.361   2.285
    1C        C  605   2.984   4.395   2.405
    1C        C  606   2.813   4.270   2.528
    1C        C  607   2.918   4.365   2.526
    1C        C  608   2.768   4.218   2.651
    1C        C  609   2.818   4.274   2.770
    1C        C  610   2.688   4.109   2.893
    1C        C  611   2.770   4.224   2.893
    1C        C  612   2.652   4.049   3.016
    1C        C  613   2.692   4.109   3.138
    1C        C  614   2.589   3.926   3.265
    1C        C  615   2.652   4.052   3.261
    1C        C  616   2.571   3.862   3.390
    1C        C  617   2.602   3.928   3.511
    1C        C  618   2.529   3.729   3.636
    1C        C  619   2.572   3.864   3.634
    1C        C  620   2.513   3.663   3.759
    1C        C  621   2.526   3.735   3.881
    1C        C  622   2.515   3.526   4.009
    1C        C  623   2.522   3.667   4.004
    1C        C  624   2.513   3.454   4.131
    1C        C  625   2.511   3.525   4.253
    1C        C  626   2.537   3.319   4.378
    1C        C  627   2.515   3.459   4.378
    1C        C  628   2.549   3.249   4.500
    1C        C  629   2.531   3.321   4.620
    1C        C  630   2.592   3.116   4.743
    1C        C  631   2.545   3.251   4.742
    1C        C  632   2.612   3.047   4.865
    1C        C  633   2.557   3.111   4.981
    1C        C  634   2.774   4.300   2.048
    1C        C  635   2.890   4.379   2.044
    1C        C  636   2.744   4.229   2.165
    1C        C  637   2.804   4.276   2.283
    1C        C  638   2.677   4.107   2.406
    1C        C  639   2.760   4.222   2.406
    1C        C  640   2.641   4.045   2.528
    1C        C  641   2.681   4.107   2.649
    1C        C  642   2.585   3.921   2.774
    1C        C  643   2.644   4.050   2.773
    1C        C  644   2.562   3.855   2.896
    1C        C  645   2.590   3.922   3.018
    1C        C  646   2.527   3.724   3.145
    1C        C  647   2.567   3.860   3.143
    1C        C  648   2.514   3.656   3.268
    1C        C  649   2.530   3.727   3.389
    1C        C  650   2.514   3.519   3.517
    1C        C  651   2.521   3.660   3.513
    1C        C  652   2.514   3.450   3.640
    1C        C  653   2.505   3.522   3.762
    1C        C  654   2.528   3.316   3.886
    1C        C  655   2.509   3.456   3.886
    1C        C  656   2.546   3.249   4.009
    1C        C  657   2.531   3.314   4.133
    1C        C  658   2.599   3.116   4.257
    1C        C  659   2.549   3.248   4.256
    1C        C  660   2.631   3.054   4.380
    1C        C  661   2.601   3.118   4.502
    1C        C  662   2.709   2.934   4.625
    1C        C  663   2.631   3.052   4.624
    1C        C  664   2.749   2.875   4.747
    1C        C  665   2.697   2.932   4.866
    1C        C  666   2.743   2.869   4.983
    1C        C  667   2.675   4.020   2.053
    1C        C  668   2.683   4.102   2.167
    1C        C  669   2.590   3.909   2.291
    1C        C  670   2.640   4.042   2.287
    1C        C  671   2.558   3.844   2.412
    1C        C  672   2.584   3.916   2.531
    1C        C  673   2.513   3.717   2.658
    1C        C  674   2.556   3.852   2.654
    1C        C  675   2.504   3.647   2.780
    1C        C  676   2.528   3.718   2.900
    1C        C  677   2.505   3.511   3.028
    1C        C  678   2.517   3.652   3.024
    1C        C  679   2.506   3.442   3.152
    1C        C  680   2.503   3.515   3.272
    1C        C  681   2.527   3.307   3.399
    1C        C  682   2.505   3.446   3.396
    1C        C  683   2.548   3.240   3.522
    1C        C  684   2.531   3.310   3.643
    1C        C  685   2.601   3.112   3.767
    1C        C  686   2.548   3.243   3.766
    1C        C  687   2.630   3.051   3.891
    1C        C  688   2.596   3.116   4.012
    1C        C  689   2.712   2.939   4.136
    1C        C  690   2.626   3.051   4.134
    1C        C  691   2.758   2.885   4.259
    1C        C  692   2.708   2.936   4.381
    1C        C  693   2.751   2.878   4.502
    1C        C  694   2.629   3.888   2.055
    1C        C  695   2.522   3.702   2.175
    1C        C  696   2.578   3.832   2.173
    1C        C  697   2.500   3.635   2.297
    1C        C  698   2.519   3.709   2.416
    1C        C  699   2.492   3.502   2.541
    1C        C  700   2.500   3.643   2.539
    1C        C  701   2.502   3.433   2.664
    1C        C  702   2.498   3.506   2.786
    1C        C  703   2.522   3.296   2.909
    1C        C  704   2.505   3.436   2.908
    1C        C  705   2.542   3.232   3.033
    1C        C  706   2.527   3.302   3.155
    1C        C  707   2.590   3.102   3.276
    1C        C  708   2.543   3.235   3.278
    1C        C  709   2.628   3.043   3.399
    1C        C  710   2.598   3.108   3.521
    1C        C  711   2.712   2.932   3.646
    1C        C  712   2.630   3.047   3.645
    1C        C  713   2.752   2.876   3.769
    1C        C  714   2.708   2.933   3.891
    1C        C  715   2.753   2.881   4.014
    1C        C  716   2.447   3.495   2.062
    1C        C  717   2.491   3.628   2.060
    1C        C  718   2.464   3.418   2.181
    1C        C  719   2.477   3.495   2.300
    1C        C  720   2.513   3.287   2.422
    1C        C  721   2.484   3.425   2.423
    1C        C  722   2.534   3.220   2.544
    1C        C  723   2.520   3.293   2.664
    1C        C  724   2.590   3.095   2.791
    1C        C  725   2.533   3.225   2.787
    1C        C  726   2.622   3.033   2.913
    1C        C  727   2.590   3.099   3.034
    1C        C  728   2.704   2.920   3.157
    1C        C  729   2.621   3.035   3.156
    1C        C  730   2.752   2.872   3.281
    1C        C  731   2.713   2.931   3.403
    1C        C  732   2.759   2.876   3.525
    1C        C  733   2.485   3.189   2.070
    1C        C  734   2.491   3.278   2.178
    1C        C  735   2.581   3.084   2.304
    1C        C  736   2.522   3.214   2.301
    1C        C  737   2.611   3.018   2.425
    1C        C  738   2.585   3.088   2.545
    1C        C  739   2.697   2.912   2.669
    1C        C  740   2.618   3.029   2.670
    1C        C  741   2.742   2.857   2.791
    1C        C  742   2.697   2.912   2.913
    1C        C  743   2.746   2.862   3.035
    1C        C  744   2.544   3.063   2.072
    1C        C  745   2.685   2.894   2.184
    1C        C  746   2.609   3.013   2.185
    1C        C  747   2.729   2.841   2.307
    1C        C  748   2.684   2.898   2.429
    1C        C  749   2.735   2.846   2.550
    1C        C  750   2.734   2.837   2.066
    1C        C  751   3.669   2.313   1.981
    1C        O  752   3.680   2.190   2.007
    1C        O  753   3.676   2.344   1.844
    1C        C  754   4.650   3.053   2.013
    1C        O  755   4.659   2.972   1.917
    1C        O  756   4.781   3.080   2.056
    1C        C  757   4.439   4.214   1.950
    1C        O  758   4.496   4.315   2.000
    1C        O  759   4.462   4.189   1.814
    1C        C  760   3.581   4.656   1.931
    1C        O  761   3.645   4.763   1.916
    1C        O  762   3.575   4.601   1.802
    1C        C  763   2.879   4.495   1.953
    1C        O  764   2.896   4.491   1.828
    1C        O  765   2.860   4.626   1.997
    1C        C  766   2.323   3.473   1.983
    1C        O  767   2.343   3.449   1.861
    1C        O  768   2.197   3.528   2.012
    1C        C  769   4.675   3.584   5.066
    1C        O  770   4.637   3.587   5.186
    1C        O  771   4.812   3.601   5.041
    1C        C  772   4.265   4.448   5.040
    1C        O  773   4.254   4.436   5.165
    1C        O  774   4.333   4.568   5.015
    1C        C  775   4.151   2.511   5.067
    1C        O  776   4.132   2.390   5.098
    1C        O  777   4.230   2.573   5.164
    1C        C  778   2.889   4.545   5.046
    1C        O  779   2.859   4.656   4.994
    1C        O  780   2.918   4.543   5.183
    1C        C  781   2.477   3.035   5.080
    1C        O  782   2.389   2.952   5.046
    1C        O  783   2.505   3.041   5.216
    1C        C  784   2.403   3.992   5.036
    1C        O  785   2.291   3.969   4.982
    1C        O  786   2.410   3.963   5.173
    1C        C  787   2.959   2.439   1.980
    1C        O  788   2.971   2.472   1.859
    1C        O  789   2.888   2.320   1.991
    1C        C  790   3.164   2.365   5.051
    1C        O  791   3.180   2.248   5.008
    1C        O  792   3.146   2.361   5.190
    1C        H  793   4.273   3.024   5.057
    1C        H  794   4.158   2.816   5.062
    1C        H  795   4.473   3.131   5.064
    1C        H  796   4.512   3.367   5.063
    1C        H  797   4.561   3.806   5.050
    1C        H  798   4.432   3.973   5.052
    1C        H  799   4.286   4.164   5.048
    1C        H  800   4.064   4.567   4.989
    1C        H  801   3.821   4.592   5.031
    1C        H  802   3.585   4.623   5.042
    1C        H  803   3.387   4.515   5.050
    1C        H  804   3.160   4.558   5.040
    1C        H  805   3.893   2.479   5.066
    1C        H  806   3.671   2.510   5.070
    1C        H  807   2.986   2.542   5.052
    1C        H  808   3.442   2.451   5.073
    1C        H  809   2.861   2.715   5.071
    1C        H  810   2.745   2.938   5.064
    1C        H  811   2.532   3.294   5.074
    1C        H  812   2.483   3.505   5.062
    1C        H  813   2.598   3.729   5.046
    1C        H  814   2.585   4.180   5.040
    1C        H  815   2.793   4.274   5.044
    1C        H  816   2.700   2.876   1.972
    1C        H  817   2.839   2.671   1.982
    1C        H  818   3.197   2.403   1.996
    1C        H  819   3.435   2.456   1.978
    1C        H  820   3.838   2.537   1.975
    1C        H  821   4.042   2.660   1.971
    1C        H  822   4.275   2.711   1.973
    1C        H  823   4.419   2.881   1.984
    1C        H  824   4.554   3.313   1.964
    1C        H  825   4.461   3.508   1.973
    1C        H  826   4.548   3.748   1.963
    1C        H  827   3.799   4.510   1.952
    1C        H  828   3.948   4.351   1.945
    1C        H  829   4.169   4.271   1.946
    1C        H  830   4.496   3.961   1.959
    1C        H  831   2.638   3.825   1.969
    1C        H  832   2.714   4.057   1.961
    1C        H  833   2.723   4.283   1.956
    1C        H  834   3.374   4.465   1.943
    1C        H  835   3.165   4.360   1.972
    1C        H  836   2.521   2.997   1.991
    1C        H  837   2.457   3.220   1.971
    1C        H  838   2.460   3.679   1.971
    2V3OU   H29  839   2.803   3.547   6.158
    2V3OU   C27  840   2.782   3.500   6.258
    2V3OU   H27  841   2.720   3.570   6.319
    2V3OU   H28  842   2.725   3.404   6.253
    2V3OU   O11  843   2.909   3.480   6.321
    2V3OU   C15  844   2.919   3.392   6.427
    2V3OU   C13  845   3.049   3.375   6.478
    2V3OU   C14  846   3.076   3.270   6.567
    2V3OU   C16  847   2.973   3.184   6.601
    2V3OU    H6  848   2.987   3.097   6.667
    2V3OU   C12  849   3.215   3.223   6.588
    2V3OU    O2  850   3.235   3.126   6.664
    2V3OU   C10  851   3.328   3.302   6.537
    2V3OU    C8  852   3.460   3.265   6.559
    2V3OU   O10  853   3.489   3.145   6.617
    2V3OU   H26  854   3.403   3.115   6.650
    2V3OU    C6  855   3.565   3.352   6.517
    2V3OU    C5  856   3.535   3.469   6.447
    2V3OU    C4  857   3.701   3.292   6.499
    2V3OU    H4  858   3.721   3.224   6.587
    2V3OU    H5  859   3.707   3.233   6.403
    2V3OU    C2  860   3.812   3.396   6.505
    2V3OU    O6  861   3.802   3.477   6.623
    2V3OU   H21  862   3.762   3.553   6.578
    2V3OU    C3  863   3.780   3.494   6.392
    2V3OU    H2  864   3.859   3.574   6.387
    2V3OU    H3  865   3.783   3.441   6.294
    2V3OU   C25  866   3.947   3.323   6.496
    2V3OU    O7  867   4.002   3.295   6.390
    2V3OU   C26  868   4.025   3.286   6.621
    2V3OU   H22  869   4.066   3.377   6.672
    2V3OU   H23  870   4.114   3.224   6.593
    2V3OU    O8  871   3.956   3.205   6.712
    2V3OU   H24  872   3.916   3.261   6.781
    2V3OU    C1  873   3.645   3.562   6.405
    2V3OU    H1  874   3.624   3.617   6.309
    2V3OU    O3  875   3.656   3.655   6.513
    2V3OU   C19  876   3.620   3.792   6.490
    2V3OU    H9  877   3.523   3.791   6.431
    2V3OU    O4  878   3.713   3.854   6.404
    2V3OU   C20  879   3.845   3.867   6.458
    2V3OU   H10  880   3.896   3.768   6.471
    2V3OU   C24  881   3.607   3.856   6.628
    2V3OU   H16  882   3.536   3.792   6.688
    2V3OU   H17  883   3.564   3.957   6.607
    2V3OU   C23  884   3.747   3.873   6.686
    2V3OU   H15  885   3.793   3.770   6.704
    2V3OU    N1  886   3.729   3.955   6.805
    2V3OU   H19  887   3.801   3.918   6.863
    2V3OU   H20  888   3.641   3.931   6.846
    2V3OU   C21  889   3.847   3.945   6.590
    2V3OU   H11  890   3.951   3.922   6.627
    2V3OU    O5  891   3.822   4.084   6.597
    2V3OU   H18  892   3.776   4.098   6.681
    2V3OU   C22  893   3.914   3.952   6.352
    2V3OU   H12  894   3.860   4.050   6.340
    2V3OU   H13  895   3.907   3.898   6.255
    2V3OU   H14  896   4.024   3.958   6.370
    2V3OU   C11  897   3.159   3.471   6.459
    2V3OU    O1  898   3.130   3.591   6.438
    2V3OU    C9  899   3.297   3.419   6.462
    2V3OU    C7  900   3.399   3.500   6.414
    2V3OU    O9  901   3.382   3.614   6.340
    2V3OU   H25  902   3.289   3.636   6.320
    2V3OU   C17  903   2.818   3.310   6.481
    2V3OU    H7  904   2.716   3.347   6.473
    2V3OU   C18  905   2.839   3.206   6.571
    2V3OU    H8  906   2.749   3.152   6.604
    3SOL     OW  907   2.917   3.855   4.970
    3SOL    HW1  908   2.825   3.878   4.938
    3SOL    HW2  909   2.984   3.911   4.921
    4SOL     OW  910   1.200   0.319   0.799
    4SOL    HW1  911   1.250   0.404   0.783
    4SOL    HW2  912   1.254   0.259   0.858
    5SOL     OW  913   4.171   2.030   0.886
    5SOL    HW1  914   4.135   2.123   0.878
    5SOL    HW2  915   4.103   1.964   0.854
    6SOL     OW  916   3.615   1.710   2.344
    6SOL    HW1  917   3.581   1.629   2.295
    6SOL    HW2  918   3.619   1.788   2.281
    7SOL     OW  919   2.248   2.827   4.850
    7SOL    HW1  920   2.156   2.819   4.890
    7SOL    HW2  921   2.311   2.866   4.917
    8SOL     OW  922   1.497   1.835   6.248
    8SOL    HW1  923   1.492   1.735   6.244
    8SOL    HW2  924   1.422   1.873   6.194
    9SOL     OW  925   2.133   2.180   5.818
    9SOL    HW1  926   2.173   2.103   5.868
    9SOL    HW2  927   2.034   2.167   5.811
   10SOL     OW  928   5.741   5.275   1.050
   10SOL    HW1  929   5.656   5.267   0.998
   10SOL    HW2  930   5.760   5.372   1.067
   11SOL     OW  931   3.684   1.661   0.240
   11SOL    HW1  932   3.750   1.618   0.302
   11SOL    HW2  933   3.672   1.602   0.159
   12SOL     OW  934   5.563   4.813   1.047
   12SOL    HW1  935   5.557   4.720   1.085
   12SOL    HW2  936   5.515   4.876   1.108
   13SOL     OW  937   4.604   5.554   1.800
   13SOL    HW1  938   4.571   5.635   1.752
   13SOL    HW2  939   4.530   5.517   1.856
   14SOL     OW  940   4.358   5.721   0.953
   14SOL    HW1  941   4.297   5.642   0.962
   14SOL    HW2  942   4.351   5.759   0.860
   15SOL     OW  943   0.735   6.986   6.820
   15SOL    HW1  944   0.811   6.985   6.756
   15SOL    HW2  945   0.763   0.011   6.906
   16SOL     OW  946   2.177   5.240   5.633
   16SOL    HW1  947   2.158   5.195   5.720
   16SOL    HW2  948   2.091   5.263   5.588
   17SOL     OW  949   7.014   1.912   3.898
   17SOL    HW1  950   6.983   2.007   3.899
   17SOL    HW2  951   6.947   1.856   3.849
   18SOL     OW  952   2.770   0.444   5.722
   18SOL    HW1  953   2.863   0.415   5.698
   18SOL    HW2  954   2.738   0.509   5.654
   19SOL     OW  955   3.703   5.875   3.175
   19SOL    HW1  956   3.632   5.805   3.174
   19SOL    HW2  957   3.769   5.855   3.249
   20SOL     OW  958   0.201   1.838   5.030
   20SOL    HW1  959   0.154   1.803   4.949
   20SOL    HW2  960   0.217   1.936   5.020
   21SOL     OW  961   1.621   3.370   1.686
   21SOL    HW1  962   1.523   3.372   1.666
   21SOL    HW2  963   1.639   3.307   1.762
   22SOL     OW  964   0.718   0.905   0.372
   22SOL    HW1  965   0.777   0.827   0.351
   22SOL    HW2  966   0.714   0.918   0.471
   23SOL     OW  967   0.373   5.140   0.190
   23SOL    HW1  968   0.442   5.080   0.231
   23SOL    HW2  969   0.346   5.210   0.257
   24SOL     OW  970   4.916   0.659   0.390
   24SOL    HW1  971   4.835   0.695   0.344
   24SOL    HW2  972   4.902   0.562   0.411
   25SOL     OW  973   1.061   0.879   5.010
   25SOL    HW1  974   1.071   0.960   4.952
   25SOL    HW2  975   0.973   0.882   5.057
   26SOL     OW  976   2.061   6.856   5.599
   26SOL    HW1  977   1.969   6.837   5.631
   26SOL    HW2  978   2.125   6.790   5.637
   27SOL     OW  979   6.949   6.843   2.304
   27SOL    HW1  980   0.023   6.807   2.300
   27SOL    HW2  981   6.929   6.894   2.221
   28SOL     OW  982   1.638   0.638   5.093
   28SOL    HW1  983   1.612   0.558   5.147
   28SOL    HW2  984   1.738   0.640   5.082
   29SOL     OW  985   5.722   0.743   1.282
   29SOL    HW1  986   5.694   0.647   1.282
   29SOL    HW2  987   5.725   0.777   1.375
   30SOL     OW  988   4.568   6.923   4.487
   30SOL    HW1  989   4.625   6.887   4.560
   30SOL    HW2  990   4.474   6.935   4.519
   31SOL     OW  991   6.241   4.516   4.316
   31SOL    HW1  992   6.198   4.592   4.364
   31SOL    HW2  993   6.330   4.546   4.280
   32SOL     OW  994   3.559   1.220   1.079
   32SOL    HW1  995   3.607   1.270   1.151
   32SOL    HW2  996   3.602   1.237   0.991
   33SOL     OW  997   1.914   4.213   6.025
   33SOL    HW1  998   1.998   4.193   5.975
   33SOL    HW2  999   1.927   4.296   6.079
   34SOL     OW 1000   2.410   6.711   4.742
   34SOL    HW1 1001   2.488   6.760   4.782
   34SOL    HW2 1002   2.368   6.652   4.811
   35SOL     OW 1003   1.980   2.759   4.691
   35SOL    HW1 1004   2.072   2.720   4.698
   35SOL    HW2 1005   1.962   2.784   4.596
   36SOL     OW 1006   5.615   1.179   4.106
   36SOL    HW1 1007   5.680   1.106   4.127
   36SOL    HW2 1008   5.640   1.262   4.157
   37SOL     OW 1009   1.334   6.646   4.260
   37SOL    HW1 1010   1.335   6.728   4.318
   37SOL    HW2 1011   1.239   6.619   4.243
   38SOL     OW 1012   1.089   3.509   1.429
   38SOL    HW1 1013   1.188   3.513   1.424
   38SOL    HW2 1014   1.050   3.555   1.349
   39SOL     OW 1015   6.366   5.505   1.468
   39SOL    HW1 1016   6.333   5.543   1.554
   39SOL    HW2 1017   6.466   5.510   1.466
   40SOL     OW 1018   3.704   0.638   6.505
   40SOL    HW1 1019   3.803   0.628   6.513
   40SOL    HW2 1020   3.661   0.548   6.514
   41SOL     OW 1021   6.815   3.152   1.430
   41SOL    HW1 1022   6.856   3.069   1.468
   41SOL    HW2 1023   6.884   3.224   1.424
   42SOL     OW 1024   2.732   3.712   0.677
   42SOL    HW1 1025   2.671   3.647   0.723
   42SOL    HW2 1026   2.757   3.784   0.741
   43SOL     OW 1027   4.917   0.796   3.507
   43SOL    HW1 1028   4.994   0.796   3.443
   43SOL    HW2 1029   4.928   0.723   3.573
   44SOL     OW 1030   6.910   0.625   7.017
   44SOL    HW1 1031   6.957   0.547   0.038
   44SOL    HW2 1032   6.819   0.598   6.986
   45SOL     OW 1033   2.172   3.581   5.823
   45SOL    HW1 1034   2.255   3.547   5.868
   45SOL    HW2 1035   2.110   3.504   5.805
   46SOL     OW 1036   1.197   4.529   4.313
   46SOL    HW1 1037   1.184   4.590   4.391
   46SOL    HW2 1038   1.292   4.533   4.282
   47SOL     OW 1039   7.011   4.551   6.466
   47SOL    HW1 1040   7.006   4.498   6.550
   47SOL    HW2 1041   6.997   4.648   6.487
   48SOL     OW 1042   0.851   4.122   0.079
   48SOL    HW1 1043   0.904   4.090   0.158
   48SOL    HW2 1044   0.765   4.161   0.111
   49SOL     OW 1045   3.064   1.094   0.060
   49SOL    HW1 1046   3.156   1.054   0.065
   49SOL    HW2 1047   3.071   1.186   0.021
   50SOL     OW 1048   4.834   1.771   5.625
   50SOL    HW1 1049   4.826   1.844   5.694
   50SOL    HW2 1050   4.882   1.693   5.665
   51SOL     OW 1051   1.595   6.285   2.222
   51SOL    HW1 1052   1.630   6.205   2.271
   51SOL    HW2 1053   1.618   6.368   2.273
   52SOL     OW 1054   5.589   3.167   2.821
   52SOL    HW1 1055   5.646   3.221   2.883
   52SOL    HW2 1056   5.647   3.103   2.770
   53SOL     OW 1057   4.126   0.073   0.775
   53SOL    HW1 1058   4.120   0.072   0.875
   53SOL    HW2 1059   4.211   0.119   0.747
   54SOL     OW 1060   0.555   1.445   5.918
   54SOL    HW1 1061   0.564   1.461   6.017
   54SOL    HW2 1062   0.599   1.359   5.894
   55SOL     OW 1063   1.965   3.227   6.733
   55SOL    HW1 1064   1.930   3.162   6.800
   55SOL    HW2 1065   1.899   3.301   6.720
   56SOL     OW 1066   1.127   2.082   6.586
   56SOL    HW1 1067   1.189   2.057   6.659
   56SOL    HW2 1068   1.100   2.178   6.596
   57SOL     OW 1069   4.001   5.440   1.340
   57SOL    HW1 1070   4.078   5.503   1.328
   57SOL    HW2 1071   3.919   5.492   1.364
   58SOL     OW 1072   0.595   0.910   6.954
   58SOL    HW1 1073   0.537   0.839   6.994
   58SOL    HW2 1074   0.652   0.869   6.883
   59SOL     OW 1075   4.080   3.018   6.917
   59SOL    HW1 1076   4.085   2.973   6.828
   59SOL    HW2 1077   4.138   3.100   6.916
   60SOL     OW 1078   6.323   2.273   2.718
   60SOL    HW1 1079   6.300   2.176   2.713
   60SOL    HW2 1080   6.358   2.303   2.629
   61SOL     OW 1081   1.741   5.408   2.571
   61SOL    HW1 1082   1.788   5.344   2.632
   61SOL    HW2 1083   1.762   5.385   2.476
   62SOL     OW 1084   4.886   3.242   3.502
   62SOL    HW1 1085   4.850   3.148   3.505
   62SOL    HW2 1086   4.884   3.276   3.408
   63SOL     OW 1087   3.843   6.689   6.020
   63SOL    HW1 1088   3.799   6.599   6.021
   63SOL    HW2 1089   3.772   6.760   6.023
   64SOL     OW 1090   2.025   1.974   6.714
   64SOL    HW1 1091   2.103   2.025   6.678
   64SOL    HW2 1092   1.999   2.012   6.803
   65SOL     OW 1093   0.797   5.298   5.031
   65SOL    HW1 1094   0.760   5.384   4.997
   65SOL    HW2 1095   0.820   5.238   4.954
   66SOL     OW 1096   4.275   1.236   1.404
   66SOL    HW1 1097   4.194   1.212   1.458
   66SOL    HW2 1098   4.248   1.256   1.310
   67SOL     OW 1099   0.048   2.968   2.044
   67SOL    HW1 1100   0.048   2.981   1.945
   67SOL    HW2 1101   0.079   3.052   2.089
   68SOL     OW 1102   0.888   1.184   6.184
   68SOL    HW1 1103   0.852   1.095   6.158
   68SOL    HW2 1104   0.921   1.233   6.103
   69SOL     OW 1105   1.518   0.301   6.347
   69SOL    HW1 1106   1.588   0.372   6.355
   69SOL    HW2 1107   1.531   0.251   6.261
   70SOL     OW 1108   4.683   4.770   3.331
   70SOL    HW1 1109   4.663   4.841   3.263
   70SOL    HW2 1110   4.781   4.752   3.333
   71SOL     OW 1111   5.152   0.471   5.140
   71SOL    HW1 1112   5.222   0.451   5.072
   71SOL    HW2 1113   5.081   0.400   5.135
   72SOL     OW 1114   6.467   1.329   2.707
   72SOL    HW1 1115   6.533   1.365   2.773
   72SOL    HW2 1116   6.487   1.232   2.689
   73SOL     OW 1117   2.994   0.885   0.877
   73SOL    HW1 1118   2.908   0.936   0.866
   73SOL    HW2 1119   2.986   0.797   0.830
   74SOL     OW 1120   2.491   0.702   0.619
   74SOL    HW1 1121   2.533   0.792   0.605
   74SOL    HW2 1122   2.545   0.632   0.572
   75SOL     OW 1123   2.577   2.728   1.640
   75SOL    HW1 1124   2.553   2.772   1.554
   75SOL    HW2 1125   2.676   2.720   1.648
   76SOL     OW 1126   3.153   4.976   6.529
   76SOL    HW1 1127   3.234   5.023   6.493
   76SOL    HW2 1128   3.181   4.914   6.603
   77SOL     OW 1129   6.955   4.884   4.806
   77SOL    HW1 1130   6.969   4.978   4.840
   77SOL    HW2 1131   7.004   4.820   4.865
   78SOL     OW 1132   5.365   1.528   1.479
   78SOL    HW1 1133   5.392   1.503   1.386
   78SOL    HW2 1134   5.445   1.554   1.532
   79SOL     OW 1135   1.710   3.945   3.927
   79SOL    HW1 1136   1.712   3.969   4.024
   79SOL    HW2 1137   1.695   3.847   3.916
   80SOL     OW 1138   3.914   2.250   5.188
   80SOL    HW1 1139   3.989   2.315   5.172
   80SOL    HW2 1140   3.845   2.292   5.246
   81SOL     OW 1141   2.863   4.725   3.151
   81SOL    HW1 1142   2.823   4.755   3.238
   81SOL    HW2 1143   2.799   4.664   3.105
   82SOL     OW 1144   2.652   0.811   1.353
   82SOL    HW1 1145   2.604   0.760   1.424
   82SOL    HW2 1146   2.669   0.905   1.385
   83SOL     OW 1147   5.695   2.359   3.867
   83SOL    HW1 1148   5.781   2.349   3.917
   83SOL    HW2 1149   5.660   2.269   3.843
   84SOL     OW 1150   5.176   2.582   2.792
   84SOL    HW1 1151   5.157   2.589   2.890
   84SOL    HW2 1152   5.090   2.570   2.742
   85SOL     OW 1153   2.854   5.583   3.246
   85SOL    HW1 1154   2.891   5.616   3.160
   85SOL    HW2 1155   2.807   5.496   3.231
   86SOL     OW 1156   4.906   0.800   6.850
   86SOL    HW1 1157   4.947   0.732   6.911
   86SOL    HW2 1158   4.902   0.889   6.896
   87SOL     OW 1159   3.058   2.890   6.417
   87SOL    HW1 1160   3.089   2.875   6.511
   87SOL    HW2 1161   3.138   2.893   6.356
   88SOL     OW 1162   1.565   2.236   1.050
   88SOL    HW1 1163   1.572   2.289   1.134
   88SOL    HW2 1164   1.657   2.209   1.019
   89SOL     OW 1165   4.216   3.526   5.043
   89SOL    HW1 1166   4.240   3.505   5.138
   89SOL    HW2 1167   4.289   3.581   5.001
   90SOL     OW 1168   6.757   4.117   1.814
   90SOL    HW1 1169   6.780   4.172   1.735
   90SOL    HW2 1170   6.750   4.021   1.787
   91SOL     OW 1171   5.075   5.163   0.259
   91SOL    HW1 1172   5.071   5.104   0.340
   91SOL    HW2 1173   5.012   5.240   0.271
   92SOL     OW 1174   5.867   6.016   6.616
   92SOL    HW1 1175   5.909   6.002   6.706
   92SOL    HW2 1176   5.914   5.961   6.548
   93SOL     OW 1177   2.793   3.637   1.773
   93SOL    HW1 1178   2.725   3.571   1.805
   93SOL    HW2 1179   2.843   3.599   1.696
   94SOL     OW 1180   3.396   1.157   4.428
   94SOL    HW1 1181   3.305   1.129   4.395
   94SOL    HW2 1182   3.437   1.220   4.362
   95SOL     OW 1183   0.952   6.387   4.680
   95SOL    HW1 1184   0.984   6.397   4.774
   95SOL    HW2 1185   1.004   6.315   4.634
   96SOL     OW 1186   6.970   6.420   6.996
   96SOL    HW1 1187   6.938   6.327   6.981
   96SOL    HW2 1188   7.006   6.457   6.910
   97SOL     OW 1189   3.655   5.294   4.683
   97SOL    HW1 1190   3.744   5.336   4.669
   97SOL    HW2 1191   3.654   5.204   4.641
   98SOL     OW 1192   6.911   2.666   4.697
   98SOL    HW1 1193   6.940   2.762   4.693
   98SOL    HW2 1194   6.942   2.625   4.782
   99SOL     OW 1195   4.450   4.580   4.731
   99SOL    HW1 1196   4.413   4.582   4.824
   99SOL    HW2 1197   4.389   4.528   4.672
  100SOL     OW 1198   1.794   1.907   5.039
  100SOL    HW1 1199   1.698   1.893   5.014
  100SOL    HW2 1200   1.845   1.823   5.023
  101SOL     OW 1201   5.126   2.982   2.572
  101SOL    HW1 1202   5.115   3.062   2.513
  101SOL    HW2 1203   5.053   2.917   2.554
  102SOL     OW 1204   4.434   6.194   0.724
  102SOL    HW1 1205   4.397   6.269   0.671
  102SOL    HW2 1206   4.485   6.230   0.802
  103SOL     OW 1207   2.046   2.092   1.212
  103SOL    HW1 1208   2.130   2.039   1.200
  103SOL    HW2 1209   1.998   2.099   1.124
  104SOL     OW 1210   0.612   3.922   1.526
  104SOL    HW1 1211   0.646   3.956   1.614
  104SOL    HW2 1212   0.657   3.971   1.452
  105SOL     OW 1213   6.634   2.100   4.986
  105SOL    HW1 1214   6.732   2.121   4.991
  105SOL    HW2 1215   6.585   2.152   5.056
  106SOL     OW 1216   4.598   3.482   1.727
  106SOL    HW1 1217   4.592   3.402   1.667
  106SOL    HW2 1218   4.678   3.536   1.703
  107SOL     OW 1219   4.401   0.682   2.061
  107SOL    HW1 1220   4.451   0.728   2.134
  107SOL    HW2 1221   4.421   0.726   1.974
  108SOL     OW 1222   3.445   1.476   4.882
  108SOL    HW1 1223   3.486   1.393   4.920
  108SOL    HW2 1224   3.465   1.553   4.943
  109SOL     OW 1225   2.392   1.627   4.951
  109SOL    HW1 1226   2.487   1.598   4.960
  109SOL    HW2 1227   2.387   1.708   4.893
  110SOL     OW 1228   4.106   4.636   5.400
  110SOL    HW1 1229   4.032   4.669   5.343
  110SOL    HW2 1230   4.069   4.578   5.473
  111SOL     OW 1231   6.584   3.399   0.995
  111SOL    HW1 1232   6.631   3.487   1.001
  111SOL    HW2 1233   6.596   3.349   1.081
  112SOL     OW 1234   4.020   6.668   4.783
  112SOL    HW1 1235   4.021   6.728   4.863
  112SOL    HW2 1236   3.951   6.701   4.718
  113SOL     OW 1237   1.683   4.939   2.511
  113SOL    HW1 1238   1.771   4.892   2.503
  113SOL    HW2 1239   1.669   4.998   2.432
  114SOL     OW 1240   6.746   2.084   1.600
  114SOL    HW1 1241   6.712   2.054   1.690
  114SOL    HW2 1242   6.705   2.172   1.578
  115SOL     OW 1243   4.024   1.415   2.973
  115SOL    HW1 1244   4.049   1.451   3.063
  115SOL    HW2 1245   4.080   1.334   2.953
  116SOL     OW 1246   6.019   5.783   6.859
  116SOL    HW1 1247   6.052   5.769   6.766
  116SOL    HW2 1248   5.927   5.746   6.868
  117SOL     OW 1249   2.425   1.143   0.478
  117SOL    HW1 1250   2.472   1.058   0.454
  117SOL    HW2 1251   2.339   1.121   0.524
  118SOL     OW 1252   1.089   2.457   1.718
  118SOL    HW1 1253   1.014   2.457   1.652
  118SOL    HW2 1254   1.091   2.370   1.767
  119SOL     OW 1255   5.374   5.276   4.982
  119SOL    HW1 1256   5.435   5.281   4.902
  119SOL    HW2 1257   5.401   5.346   5.049
  120SOL     OW 1258   4.547   1.837   4.287
  120SOL    HW1 1259   4.522   1.746   4.253
  120SOL    HW2 1260   4.577   1.830   4.382
  121SOL     OW 1261   0.338   5.048   5.999
  121SOL    HW1 1262   0.312   5.035   6.095
  121SOL    HW2 1263   0.412   4.985   5.976
  122SOL     OW 1264   0.335   4.349   5.990
  122SOL    HW1 1265   0.417   4.292   5.995
  122SOL    HW2 1266   0.284   4.344   6.075
  123SOL     OW 1267   0.796   2.417   0.906
  123SOL    HW1 1268   0.840   2.444   0.992
  123SOL    HW2 1269   0.698   2.406   0.921
  124SOL     OW 1270   2.067   3.616   0.011
  124SOL    HW1 1271   2.037   3.707   0.040
  124SOL    HW2 1272   2.160   3.622   6.994
  125SOL     OW 1273   4.098   2.682   0.462
  125SOL    HW1 1274   4.027   2.719   0.402
  125SOL    HW2 1275   4.179   2.660   0.408
  126SOL     OW 1276   3.662   3.301   5.178
  126SOL    HW1 1277   3.721   3.255   5.244
  126SOL    HW2 1278   3.589   3.239   5.150
  127SOL     OW 1279   0.314   4.611   5.870
  127SOL    HW1 1280   0.215   4.617   5.857
  127SOL    HW2 1281   0.335   4.532   5.928
  128SOL     OW 1282   4.907   4.143   5.976
  128SOL    HW1 1283   4.892   4.173   6.070
  128SOL    HW2 1284   5.002   4.162   5.950
  129SOL     OW 1285   1.259   5.689   2.005
  129SOL    HW1 1286   1.263   5.627   2.083
  129SOL    HW2 1287   1.278   5.639   1.921
  130SOL     OW 1288   6.417   3.364   4.732
  130SOL    HW1 1289   6.490   3.431   4.721
  130SOL    HW2 1290   6.409   3.309   4.649
  131SOL     OW 1291   0.623   3.575   2.663
  131SOL    HW1 1292   0.631   3.477   2.680
  131SOL    HW2 1293   0.546   3.612   2.717
  132SOL     OW 1294   4.156   3.252   2.180
  132SOL    HW1 1295   4.248   3.292   2.178
  132SOL    HW2 1296   4.108   3.276   2.096
  133SOL     OW 1297   4.073   4.377   5.550
  133SOL    HW1 1298   4.097   4.340   5.639
  133SOL    HW2 1299   4.094   4.309   5.479
  134SOL     OW 1300   7.012   1.867   6.823
  134SOL    HW1 1301   6.959   1.825   6.896
  134SOL    HW2 1302   6.950   1.903   6.753
  135SOL     OW 1303   4.640   5.666   3.869
  135SOL    HW1 1304   4.687   5.603   3.931
  135SOL    HW2 1305   4.679   5.757   3.878
  136SOL     OW 1306   3.713   6.051   6.139
  136SOL    HW1 1307   3.662   6.065   6.054
  136SOL    HW2 1308   3.661   6.089   6.216
  137SOL     OW 1309   2.024   4.323   0.253
  137SOL    HW1 1310   2.092   4.384   0.212
  137SOL    HW2 1311   2.069   4.255   0.311
  138SOL     OW 1312   0.794   5.169   1.059
  138SOL    HW1 1313   0.811   5.128   1.149
  138SOL    HW2 1314   0.732   5.247   1.068
  139SOL     OW 1315   0.942   0.582   1.111
  139SOL    HW1 1316   0.931   0.497   1.059
  139SOL    HW2 1317   1.007   0.567   1.186
  140SOL     OW 1318   2.415   6.989   2.068
  140SOL    HW1 1319   2.322   0.004   2.078
  140SOL    HW2 1320   2.480   0.039   2.099
  141SOL     OW 1321   2.171   1.682   0.038
  141SOL    HW1 1322   2.244   1.706   0.101
  141SOL    HW2 1323   2.182   1.587   0.007
  142SOL     OW 1324   2.222   4.086   6.225
  142SOL    HW1 1325   2.140   4.033   6.246
  142SOL    HW2 1326   2.217   4.175   6.270
  143SOL     OW 1327   5.756   5.966   1.914
  143SOL    HW1 1328   5.831   6.003   1.970
  143SOL    HW2 1329   5.753   5.866   1.923
  144SOL     OW 1330   2.006   5.202   3.219
  144SOL    HW1 1331   2.063   5.132   3.176
  144SOL    HW2 1332   1.913   5.167   3.229
  145SOL     OW 1333   6.602   6.315   3.171
  145SOL    HW1 1334   6.699   6.336   3.161
  145SOL    HW2 1335   6.580   6.230   3.123
  146SOL     OW 1336   6.680   0.598   4.680
  146SOL    HW1 1337   6.762   0.564   4.633
  146SOL    HW2 1338   6.703   0.682   4.730
  147SOL     OW 1339   5.937   0.262   4.908
  147SOL    HW1 1340   5.924   0.255   4.809
  147SOL    HW2 1341   6.032   0.239   4.931
  148SOL     OW 1342   1.428   6.563   2.905
  148SOL    HW1 1343   1.499   6.620   2.945
  148SOL    HW2 1344   1.338   6.604   2.923
  149SOL     OW 1345   1.892   2.148   5.115
  149SOL    HW1 1346   1.875   2.085   5.039
  149SOL    HW2 1347   1.906   2.095   5.199
  150SOL     OW 1348   5.339   2.756   4.807
  150SOL    HW1 1349   5.298   2.809   4.734
  150SOL    HW2 1350   5.267   2.715   4.863
  151SOL     OW 1351   5.810   3.002   1.590
  151SOL    HW1 1352   5.772   3.093   1.577
  151SOL    HW2 1353   5.886   3.007   1.656
  152SOL     OW 1354   6.612   2.443   0.252
  152SOL    HW1 1355   6.564   2.421   0.167
  152SOL    HW2 1356   6.668   2.365   0.279
  153SOL     OW 1357   2.305   1.800   3.811
  153SOL    HW1 1358   2.335   1.707   3.828
  153SOL    HW2 1359   2.266   1.806   3.719
  154SOL     OW 1360   0.031   1.105   3.897
  154SOL    HW1 1361   0.054   1.178   3.962
  154SOL    HW2 1362   6.954   1.112   3.871
  155SOL     OW 1363   5.918   5.186   3.290
  155SOL    HW1 1364   5.992   5.153   3.233
  155SOL    HW2 1365   5.926   5.147   3.382
  156SOL     OW 1366   4.284   0.390   1.082
  156SOL    HW1 1367   4.380   0.388   1.054
  156SOL    HW2 1368   4.240   0.471   1.043
  157SOL     OW 1369   5.256   0.351   0.933
  157SOL    HW1 1370   5.269   0.291   1.012
  157SOL    HW2 1371   5.161   0.345   0.903
  158SOL     OW 1372   1.202   2.493   5.492
  158SOL    HW1 1373   1.167   2.512   5.584
  158SOL    HW2 1374   1.126   2.500   5.426
  159SOL     OW 1375   0.084   4.793   6.648
  159SOL    HW1 1376   0.152   4.767   6.578
  159SOL    HW2 1377   0.129   4.799   6.737
  160SOL     OW 1378   4.049   0.217   1.921
  160SOL    HW1 1379   4.060   0.309   1.883
  160SOL    HW2 1380   4.060   0.220   2.020
  161SOL     OW 1381   6.059   6.953   0.793
  161SOL    HW1 1382   6.099   6.883   0.853
  161SOL    HW2 1383   6.092   6.939   0.700
  162SOL     OW 1384   4.622   0.123   5.139
  162SOL    HW1 1385   4.588   0.040   5.095
  162SOL    HW2 1386   4.665   0.182   5.070
  163SOL     OW 1387   0.981   3.665   3.025
  163SOL    HW1 1388   0.916   3.684   2.952
  163SOL    HW2 1389   1.007   3.750   3.070
  164SOL     OW 1390   2.012   2.332   2.869
  164SOL    HW1 1391   2.066   2.311   2.950
  164SOL    HW2 1392   2.058   2.296   2.788
  165SOL     OW 1393   0.254   6.009   5.061
  165SOL    HW1 1394   0.274   6.086   5.001
  165SOL    HW2 1395   0.158   6.013   5.090
  166SOL     OW 1396   0.727   4.967   4.202
  166SOL    HW1 1397   0.786   5.043   4.230
  166SOL    HW2 1398   0.783   4.892   4.168
  167SOL     OW 1399   6.944   1.235   3.122
  167SOL    HW1 1400   6.947   1.330   3.091
  167SOL    HW2 1401   6.849   1.203   3.120
  168SOL     OW 1402   3.606   4.181   3.975
  168SOL    HW1 1403   3.606   4.278   4.000
  168SOL    HW2 1404   3.666   4.130   4.037
  169SOL     OW 1405   5.081   2.734   6.187
  169SOL    HW1 1406   5.036   2.649   6.159
  169SOL    HW2 1407   5.027   2.777   6.260
  170SOL     OW 1408   0.057   5.510   2.821
  170SOL    HW1 1409   0.150   5.532   2.792
  170SOL    HW2 1410   0.015   5.446   2.756
  171SOL     OW 1411   3.546   2.861   0.954
  171SOL    HW1 1412   3.631   2.893   0.914
  171SOL    HW2 1413   3.552   2.763   0.971
  172SOL     OW 1414   1.510   1.090   0.353
  172SOL    HW1 1415   1.545   1.005   0.392
  172SOL    HW2 1416   1.410   1.092   0.363
  173SOL     OW 1417   5.870   0.470   5.060
  173SOL    HW1 1418   5.896   0.405   4.989
  173SOL    HW2 1419   5.926   0.454   5.141
  174SOL     OW 1420   6.760   3.813   4.825
  174SOL    HW1 1421   6.678   3.869   4.816
  174SOL    HW2 1422   6.782   3.771   4.736
  175SOL     OW 1423   0.811   5.242   2.596
  175SOL    HW1 1424   0.746   5.217   2.523
  175SOL    HW2 1425   0.812   5.341   2.607
  176SOL     OW 1426   6.058   4.184   0.710
  176SOL    HW1 1427   6.145   4.140   0.732
  176SOL    HW2 1428   5.990   4.162   0.780
  177SOL     OW 1429   5.697   2.825   3.294
  177SOL    HW1 1430   5.706   2.900   3.228
  177SOL    HW2 1431   5.620   2.766   3.268
  178SOL     OW 1432   1.741   5.420   5.004
  178SOL    HW1 1433   1.723   5.327   4.973
  178SOL    HW2 1434   1.740   5.423   5.104
  179SOL     OW 1435   3.462   4.181   2.263
  179SOL    HW1 1436   3.493   4.199   2.169
  179SOL    HW2 1437   3.384   4.118   2.261
  180SOL     OW 1438   4.334   0.768   6.437
  180SOL    HW1 1439   4.430   0.740   6.436
  180SOL    HW2 1440   4.328   0.867   6.437
  181SOL     OW 1441   3.551   0.424   5.701
  181SOL    HW1 1442   3.497   0.343   5.677
  181SOL    HW2 1443   3.526   0.499   5.641
  182SOL     OW 1444   3.032   2.989   5.733
  182SOL    HW1 1445   2.935   2.993   5.758
  182SOL    HW2 1446   3.042   2.992   5.634
  183SOL     OW 1447   2.338   1.248   3.086
  183SOL    HW1 1448   2.333   1.180   3.013
  183SOL    HW2 1449   2.387   1.210   3.164
  184SOL     OW 1450   5.448   6.572   3.435
  184SOL    HW1 1451   5.500   6.621   3.505
  184SOL    HW2 1452   5.388   6.505   3.479
  185SOL     OW 1453   0.354   5.881   5.732
  185SOL    HW1 1454   0.362   5.878   5.633
  185SOL    HW2 1455   0.298   5.805   5.764
  186SOL     OW 1456   3.234   5.511   6.978
  186SOL    HW1 1457   3.160   5.474   6.923
  186SOL    HW2 1458   3.321   5.491   6.934
  187SOL     OW 1459   3.266   5.148   0.447
  187SOL    HW1 1460   3.346   5.092   0.425
  187SOL    HW2 1461   3.247   5.210   0.371
  188SOL     OW 1462   1.730   3.989   4.237
  188SOL    HW1 1463   1.810   4.040   4.268
  188SOL    HW2 1464   1.649   4.019   4.288
  189SOL     OW 1465   6.097   4.164   6.080
  189SOL    HW1 1466   6.095   4.125   6.172
  189SOL    HW2 1467   6.184   4.142   6.037
  190SOL     OW 1468   6.071   6.389   6.801
  190SOL    HW1 1469   5.990   6.396   6.743
  190SOL    HW2 1470   6.150   6.423   6.751
  191SOL     OW 1471   2.140   3.536   6.273
  191SOL    HW1 1472   2.112   3.594   6.196
  191SOL    HW2 1473   2.068   3.469   6.292
  192SOL     OW 1474   0.960   0.233   1.214
  192SOL    HW1 1475   0.900   0.186   1.149
  192SOL    HW2 1476   1.053   0.198   1.206
  193SOL     OW 1477   3.263   6.749   1.642
  193SOL    HW1 1478   3.337   6.810   1.669
  193SOL    HW2 1479   3.239   6.767   1.546
  194SOL     OW 1480   4.075   6.394   3.264
  194SOL    HW1 1481   4.071   6.297   3.241
  194SOL    HW2 1482   4.095   6.405   3.362
  195SOL     OW 1483   3.233   0.922   1.195
  195SOL    HW1 1484   3.186   0.844   1.153
  195SOL    HW2 1485   3.256   0.900   1.289
  196SOL     OW 1486   4.010   2.894   1.168
  196SOL    HW1 1487   4.023   2.800   1.136
  196SOL    HW2 1488   4.031   2.899   1.265
  197SOL     OW 1489   0.890   5.887   1.263
  197SOL    HW1 1490   0.818   5.859   1.199
  197SOL    HW2 1491   0.978   5.854   1.231
  198SOL     OW 1492   6.210   0.108   5.798
  198SOL    HW1 1493   6.287   0.165   5.771
  198SOL    HW2 1494   6.135   0.167   5.829
  199SOL     OW 1495   1.767   1.085   3.311
  199SOL    HW1 1496   1.821   1.072   3.394
  199SOL    HW2 1497   1.672   1.103   3.335
  200SOL     OW 1498   1.562   3.701   3.276
  200SOL    HW1 1499   1.605   3.612   3.288
  200SOL    HW2 1500   1.475   3.704   3.323
  201SOL     OW 1501   4.864   0.978   0.267
  201SOL    HW1 1502   4.946   0.924   0.286
  201SOL    HW2 1503   4.881   1.039   0.190
  202SOL     OW 1504   4.293   0.712   2.858
  202SOL    HW1 1505   4.355   0.789   2.874
  202SOL    HW2 1506   4.345   0.632   2.827
  203SOL     OW 1507   5.878   3.157   0.331
  203SOL    HW1 1508   5.801   3.101   0.301
  203SOL    HW2 1509   5.904   3.131   0.424
  204SOL     OW 1510   2.242   5.935   0.746
  204SOL    HW1 1511   2.313   5.916   0.814
  204SOL    HW2 1512   2.242   5.863   0.677
  205SOL     OW 1513   5.617   0.400   1.490
  205SOL    HW1 1514   5.688   0.338   1.523
  205SOL    HW2 1515   5.638   0.428   1.396
  206SOL     OW 1516   0.157   5.915   1.274
  206SOL    HW1 1517   0.176   5.880   1.365
  206SOL    HW2 1518   0.067   5.884   1.244
  207SOL     OW 1519   6.440   2.506   5.984
  207SOL    HW1 1520   6.482   2.464   6.065
  207SOL    HW2 1521   6.405   2.597   6.008
  208SOL     OW 1522   4.200   3.808   0.820
  208SOL    HW1 1523   4.178   3.721   0.863
  208SOL    HW2 1524   4.225   3.874   0.891
  209SOL     OW 1525   6.408   0.029   4.373
  209SOL    HW1 1526   6.476   6.978   4.355
  209SOL    HW2 1527   6.382   0.026   4.470
  210SOL     OW 1528   4.559   1.879   0.098
  210SOL    HW1 1529   4.509   1.964   0.116
  210SOL    HW2 1530   4.619   1.859   0.175
  211SOL     OW 1531   0.024   3.955   2.861
  211SOL    HW1 1532   0.033   4.054   2.876
  211SOL    HW2 1533   6.970   3.938   2.795
  212SOL     OW 1534   1.379   5.314   5.111
  212SOL    HW1 1535   1.287   5.278   5.125
  212SOL    HW2 1536   1.442   5.239   5.093
  213SOL     OW 1537   4.432   2.613   1.038
  213SOL    HW1 1538   4.524   2.651   1.028
  213SOL    HW2 1539   4.364   2.686   1.027
  214SOL     OW 1540   0.286   6.188   3.910
  214SOL    HW1 1541   0.189   6.165   3.906
  214SOL    HW2 1542   0.310   6.216   4.003
  215SOL     OW 1543   3.926   3.573   3.746
  215SOL    HW1 1544   3.886   3.650   3.695
  215SOL    HW2 1545   3.977   3.608   3.824
  216SOL     OW 1546   3.481   6.998   5.650
  216SOL    HW1 1547   3.462   0.071   5.617
  216SOL    HW2 1548   3.575   6.992   5.681
  217SOL     OW 1549   6.624   2.297   5.559
  217SOL    HW1 1550   6.684   2.221   5.537
  217SOL    HW2 1551   6.674   2.383   5.546
  218SOL     OW 1552   2.926   4.479   6.026
  218SOL    HW1 1553   2.963   4.540   5.956
  218SOL    HW2 1554   2.870   4.408   5.982
  219SOL     OW 1555   3.121   5.789   6.571
  219SOL    HW1 1556   3.065   5.707   6.567
  219SOL    HW2 1557   3.071   5.861   6.621
  220SOL     OW 1558   1.518   4.873   0.306
  220SOL    HW1 1559   1.500   4.807   0.233
  220SOL    HW2 1560   1.436   4.929   0.321
  221SOL     OW 1561   6.155   3.685   4.829
  221SOL    HW1 1562   6.091   3.740   4.774
  221SOL    HW2 1563   6.169   3.597   4.785
  222SOL     OW 1564   1.895   6.872   3.832
  222SOL    HW1 1565   1.906   6.969   3.851
  222SOL    HW2 1566   1.962   6.820   3.886
  223SOL     OW 1567   5.205   5.034   2.621
  223SOL    HW1 1568   5.283   5.094   2.635
  223SOL    HW2 1569   5.124   5.073   2.664
  224SOL     OW 1570   5.231   4.034   2.983
  224SOL    HW1 1571   5.287   4.115   2.998
  224SOL    HW2 1572   5.203   4.029   2.887
  225SOL     OW 1573   4.659   5.838   1.907
  225SOL    HW1 1574   4.632   5.799   1.996
  225SOL    HW2 1575   4.589   5.818   1.839
  226SOL     OW 1576   1.396   5.571   2.398
  226SOL    HW1 1577   1.309   5.543   2.358
  226SOL    HW2 1578   1.414   5.667   2.376
  227SOL     OW 1579   0.733   4.020   3.389
  227SOL    HW1 1580   0.810   3.961   3.414
  227SOL    HW2 1581   0.738   4.042   3.291
  228SOL     OW 1582   4.034   6.148   3.224
  228SOL    HW1 1583   4.062   6.114   3.314
  228SOL    HW2 1584   3.934   6.141   3.216
  229SOL     OW 1585   5.913   6.071   2.391
  229SOL    HW1 1586   5.873   6.002   2.451
  229SOL    HW2 1587   5.929   6.155   2.442
  230SOL     OW 1588   1.388   4.804   5.801
  230SOL    HW1 1589   1.423   4.735   5.864
  230SOL    HW2 1590   1.435   4.795   5.713
  231SOL     OW 1591   0.651   1.743   6.190
  231SOL    HW1 1592   0.696   1.654   6.198
  231SOL    HW2 1593   0.688   1.792   6.111
  232SOL     OW 1594   1.712   3.547   5.867
  232SOL    HW1 1595   1.650   3.550   5.789
  232SOL    HW2 1596   1.700   3.629   5.922
  233SOL     OW 1597   3.595   0.040   6.830
  233SOL    HW1 1598   3.535   0.042   6.749
  233SOL    HW2 1599   3.670   6.995   6.814
  234SOL     OW 1600   1.579   4.911   6.747
  234SOL    HW1 1601   1.545   4.943   6.835
  234SOL    HW2 1602   1.676   4.889   6.755
  235SOL     OW 1603   3.839   3.361   6.046
  235SOL    HW1 1604   3.896   3.309   5.982
  235SOL    HW2 1605   3.895   3.430   6.092
  236SOL     OW 1606   0.166   0.890   6.075
  236SOL    HW1 1607   0.138   0.910   5.981
  236SOL    HW2 1608   0.246   0.945   6.099
  237SOL     OW 1609   6.470   6.549   2.172
  237SOL    HW1 1610   6.409   6.558   2.094
  237SOL    HW2 1611   6.470   6.635   2.224
  238SOL     OW 1612   1.080   2.205   3.259
  238SOL    HW1 1613   1.141   2.268   3.307
  238SOL    HW2 1614   1.079   2.117   3.306
  239SOL     OW 1615   6.316   4.908   0.305
  239SOL    HW1 1616   6.243   4.866   0.251
  239SOL    HW2 1617   6.378   4.957   0.244
  240SOL     OW 1618   0.454   2.049   4.515
  240SOL    HW1 1619   0.437   2.114   4.442
  240SOL    HW2 1620   0.548   2.059   4.549
  241SOL     OW 1621   6.315   2.476   5.036
  241SOL    HW1 1622   6.279   2.406   5.098
  241SOL    HW2 1623   6.243   2.505   4.973
  242SOL     OW 1624   2.693   2.432   3.333
  242SOL    HW1 1625   2.751   2.351   3.327
  242SOL    HW2 1626   2.664   2.445   3.428
  243SOL     OW 1627   4.912   1.353   6.805
  243SOL    HW1 1628   4.827   1.402   6.785
  243SOL    HW2 1629   4.938   1.298   6.725
  244SOL     OW 1630   0.863   1.426   6.009
  244SOL    HW1 1631   0.843   1.519   5.978
  244SOL    HW2 1632   0.870   1.366   5.930
  245SOL     OW 1633   5.455   1.867   3.929
  245SOL    HW1 1634   5.526   1.803   3.958
  245SOL    HW2 1635   5.497   1.945   3.882
  246SOL     OW 1636   5.641   3.703   4.198
  246SOL    HW1 1637   5.588   3.783   4.225
  246SOL    HW2 1638   5.624   3.628   4.263
  247SOL     OW 1639   2.368   0.698   3.093
  247SOL    HW1 1640   2.306   0.624   3.120
  247SOL    HW2 1641   2.358   0.715   2.995
  248SOL     OW 1642   0.233   2.659   3.424
  248SOL    HW1 1643   0.278   2.667   3.335
  248SOL    HW2 1644   0.289   2.603   3.485
  249SOL     OW 1645   2.281   6.007   4.955
  249SOL    HW1 1646   2.367   5.968   4.920
  249SOL    HW2 1647   2.262   5.970   5.046
  250SOL     OW 1648   5.281   2.418   6.546
  250SOL    HW1 1649   5.329   2.494   6.502
  250SOL    HW2 1650   5.318   2.404   6.638
  251SOL     OW 1651   2.009   0.366   1.716
  251SOL    HW1 1652   2.096   0.386   1.671
  251SOL    HW2 1653   1.946   0.442   1.702
  252SOL     OW 1654   6.866   2.392   0.113
  252SOL    HW1 1655   6.869   2.410   0.212
  252SOL    HW2 1656   6.836   2.475   0.066
  253SOL     OW 1657   2.142   4.839   5.723
  253SOL    HW1 1658   2.114   4.912   5.785
  253SOL    HW2 1659   2.081   4.836   5.644
  254SOL     OW 1660   4.538   3.114   6.021
  254SOL    HW1 1661   4.492   3.153   5.941
  254SOL    HW2 1662   4.479   3.043   6.062
  255SOL     OW 1663   4.451   2.310   2.269
  255SOL    HW1 1664   4.354   2.290   2.255
  255SOL    HW2 1665   4.468   2.331   2.365
  256SOL     OW 1666   0.345   6.293   1.179
  256SOL    HW1 1667   0.372   6.198   1.194
  256SOL    HW2 1668   0.325   6.308   1.083
  257SOL     OW 1669   3.144   5.844   6.283
  257SOL    HW1 1670   3.179   5.825   6.375
  257SOL    HW2 1671   3.196   5.791   6.216
  258SOL     OW 1672   4.833   5.173   4.715
  258SOL    HW1 1673   4.785   5.254   4.680
  258SOL    HW2 1674   4.800   5.092   4.668
  259SOL     OW 1675   0.540   1.499   2.322
  259SOL    HW1 1676   0.496   1.576   2.368
  259SOL    HW2 1677   0.623   1.530   2.277
  260SOL     OW 1678   6.714   6.450   5.815
  260SOL    HW1 1679   6.618   6.464   5.840
  260SOL    HW2 1680   6.721   6.375   5.748
  261SOL     OW 1681   0.661   0.945   3.989
  261SOL    HW1 1682   0.745   0.992   3.962
  261SOL    HW2 1683   0.684   0.868   4.049
  262SOL     OW 1684   1.921   5.387   1.030
  262SOL    HW1 1685   1.941   5.466   0.973
  262SOL    HW2 1686   2.004   5.332   1.041
  263SOL     OW 1687   0.787   4.904   4.826
  263SOL    HW1 1688   0.815   4.998   4.844
  263SOL    HW2 1689   0.745   4.866   4.909
  264SOL     OW 1690   3.562   3.719   1.249
  264SOL    HW1 1691   3.494   3.792   1.261
  264SOL    HW2 1692   3.638   3.735   1.311
  265SOL     OW 1693   4.310   5.795   4.068
  265SOL    HW1 1694   4.329   5.716   4.010
  265SOL    HW2 1695   4.283   5.764   4.159
  266SOL     OW 1696   4.435   3.460   0.053
  266SOL    HW1 1697   4.512   3.446   7.010
  266SOL    HW2 1698   4.374   3.530   0.016
  267SOL     OW 1699   2.583   2.533   6.089
  267SOL    HW1 1700   2.608   2.456   6.030
  267SOL    HW2 1701   2.512   2.588   6.044
  268SOL     OW 1702   1.504   3.871   3.049
  268SOL    HW1 1703   1.513   3.971   3.043
  268SOL    HW2 1704   1.532   3.841   3.140
  269SOL     OW 1705   3.148   1.362   6.146
  269SOL    HW1 1706   3.108   1.277   6.114
  269SOL    HW2 1707   3.084   1.438   6.128
  270SOL     OW 1708   5.707   5.592   4.884
  270SOL    HW1 1709   5.748   5.683   4.886
  270SOL    HW2 1710   5.777   5.523   4.862
  271SOL     OW 1711   2.734   1.439   6.903
  271SOL    HW1 1712   2.676   1.514   6.936
  271SOL    HW2 1713   2.795   1.474   6.832
  272SOL     OW 1714   5.334   4.838   6.631
  272SOL    HW1 1715   5.415   4.896   6.622
  272SOL    HW2 1716   5.344   4.781   6.713
  273SOL     OW 1717   0.678   6.278   3.766
  273SOL    HW1 1718   0.652   6.285   3.863
  273SOL    HW2 1719   0.603   6.238   3.714
  274SOL     OW 1720   5.439   3.074   2.506
  274SOL    HW1 1721   5.511   3.141   2.520
  274SOL    HW2 1722   5.350   3.121   2.502
  275SOL     OW 1723   6.036   5.196   5.459
  275SOL    HW1 1724   6.024   5.259   5.382
  275SOL    HW2 1725   6.038   5.102   5.426
  276SOL     OW 1726   1.106   0.000   4.287
  276SOL    HW1 1727   1.053   6.944   4.248
  276SOL    HW2 1728   1.085   0.085   4.238
  277SOL     OW 1729   4.141   3.254   5.634
  277SOL    HW1 1730   4.126   3.171   5.580
  277SOL    HW2 1731   4.236   3.258   5.663
  278SOL     OW 1732   5.988   4.713   2.241
  278SOL    HW1 1733   6.064   4.748   2.187
  278SOL    HW2 1734   5.994   4.613   2.247
  279SOL     OW 1735   0.662   3.510   4.477
  279SOL    HW1 1736   0.698   3.552   4.560
  279SOL    HW2 1737   0.694   3.415   4.471
  280SOL     OW 1738   4.814   1.837   2.902
  280SOL    HW1 1739   4.860   1.835   2.813
  280SOL    HW2 1740   4.847   1.916   2.953
  281SOL     OW 1741   4.948   5.192   5.467
  281SOL    HW1 1742   4.875   5.200   5.399
  281SOL    HW2 1743   5.029   5.240   5.434
  282SOL     OW 1744   0.417   2.373   6.993
  282SOL    HW1 1745   0.323   2.366   0.007
  282SOL    HW2 1746   0.422   2.336   6.900
  283SOL     OW 1747   5.939   3.926   2.568
  283SOL    HW1 1748   5.951   3.867   2.488
  283SOL    HW2 1749   6.023   3.927   2.622
  284SOL     OW 1750   5.724   6.701   3.005
  284SOL    HW1 1751   5.722   6.654   2.917
  284SOL    HW2 1752   5.652   6.665   3.064
  285SOL     OW 1753   4.602   6.031   6.534
  285SOL    HW1 1754   4.538   6.075   6.597
  285SOL    HW2 1755   4.684   6.086   6.525
  286SOL     OW 1756   3.338   5.015   5.366
  286SOL    HW1 1757   3.270   5.083   5.341
  286SOL    HW2 1758   3.294   4.925   5.374
  287SOL     OW 1759   3.854   6.294   0.839
  287SOL    HW1 1760   3.831   6.235   0.916
  287SOL    HW2 1761   3.898   6.240   0.767
  288SOL     OW 1762   4.262   0.877   0.162
  288SOL    HW1 1763   4.339   0.842   0.110
  288SOL    HW2 1764   4.267   0.844   0.256
  289SOL     OW 1765   5.277   4.981   4.964
  289SOL    HW1 1766   5.245   4.947   5.052
  289SOL    HW2 1767   5.265   5.080   4.959
  290SOL     OW 1768   3.187   0.749   5.303
  290SOL    HW1 1769   3.272   0.780   5.260
  290SOL    HW2 1770   3.122   0.722   5.233
  291SOL     OW 1771   5.865   1.228   5.057
  291SOL    HW1 1772   5.814   1.204   5.140
  291SOL    HW2 1773   5.887   1.146   5.006
  292SOL     OW 1774   2.347   0.760   3.707
  292SOL    HW1 1775   2.290   0.811   3.642
  292SOL    HW2 1776   2.347   0.663   3.684
  293SOL     OW 1777   5.335   1.152   3.094
  293SOL    HW1 1778   5.289   1.189   3.013
  293SOL    HW2 1779   5.311   1.207   3.174
  294SOL     OW 1780   6.751   1.263   6.837
  294SOL    HW1 1781   6.845   1.231   6.845
  294SOL    HW2 1782   6.746   1.360   6.860
  295SOL     OW 1783   6.977   0.333   4.793
  295SOL    HW1 1784   6.896   0.274   4.797
  295SOL    HW2 1785   7.007   0.355   4.886
  296SOL     OW 1786   6.731   1.722   0.398
  296SOL    HW1 1787   6.785   1.791   0.349
  296SOL    HW2 1788   6.762   1.717   0.493
  297SOL     OW 1789   4.877   3.466   3.665
  297SOL    HW1 1790   4.851   3.377   3.626
  297SOL    HW2 1791   4.875   3.461   3.764
  298SOL     OW 1792   4.194   6.987   5.259
  298SOL    HW1 1793   4.215   6.891   5.277
  298SOL    HW2 1794   4.095   6.998   5.246
  299SOL     OW 1795   0.404   1.065   6.031
  299SOL    HW1 1796   0.382   1.159   6.006
  299SOL    HW2 1797   0.416   1.010   5.949
  300SOL     OW 1798   4.450   6.325   4.566
  300SOL    HW1 1799   4.397   6.410   4.564
  300SOL    HW2 1800   4.434   6.274   4.481
  301SOL     OW 1801   6.707   6.280   5.348
  301SOL    HW1 1802   6.725   6.370   5.389
  301SOL    HW2 1803   6.752   6.275   5.259
  302SOL     OW 1804   6.773   0.100   1.775
  302SOL    HW1 1805   6.739   0.180   1.726
  302SOL    HW2 1806   6.843   0.055   1.719
  303SOL     OW 1807   5.138   5.301   2.818
  303SOL    HW1 1808   5.091   5.320   2.732
  303SOL    HW2 1809   5.080   5.331   2.895
  304SOL     OW 1810   0.888   1.081   3.927
  304SOL    HW1 1811   0.897   1.156   3.994
  304SOL    HW2 1812   0.978   1.041   3.911
  305SOL     OW 1813   2.729   1.872   1.177
  305SOL    HW1 1814   2.788   1.854   1.099
  305SOL    HW2 1815   2.701   1.785   1.218
  306SOL     OW 1816   0.176   6.543   2.587
  306SOL    HW1 1817   0.096   6.486   2.606
  306SOL    HW2 1818   0.255   6.507   2.638
  307SOL     OW 1819   4.044   3.933   4.745
  307SOL    HW1 1820   4.053   3.848   4.798
  307SOL    HW2 1821   4.131   3.981   4.745
  308SOL     OW 1822   6.140   2.517   1.528
  308SOL    HW1 1823   6.185   2.429   1.547
  308SOL    HW2 1824   6.187   2.589   1.578
  309SOL     OW 1825   1.806   4.739   0.214
  309SOL    HW1 1826   1.788   4.654   0.264
  309SOL    HW2 1827   1.719   4.776   0.180
  310SOL     OW 1828   4.829   6.433   5.099
  310SOL    HW1 1829   4.884   6.430   5.016
  310SOL    HW2 1830   4.847   6.518   5.148
  311SOL     OW 1831   1.984   6.113   2.460
  311SOL    HW1 1832   2.053   6.071   2.519
  311SOL    HW2 1833   1.991   6.212   2.467
  312SOL     OW 1834   3.437   0.824   4.319
  312SOL    HW1 1835   3.470   0.839   4.225
  312SOL    HW2 1836   3.357   0.765   4.317
  313SOL     OW 1837   3.560   3.410   3.362
  313SOL    HW1 1838   3.558   3.510   3.353
  313SOL    HW2 1839   3.654   3.380   3.376
  314SOL     OW 1840   2.487   4.472   6.101
  314SOL    HW1 1841   2.405   4.427   6.067
  314SOL    HW2 1842   2.495   4.457   6.200
  315SOL     OW 1843   6.269   6.773   4.870
  315SOL    HW1 1844   6.249   6.675   4.870
  315SOL    HW2 1845   6.354   6.790   4.919
  316SOL     OW 1846   3.965   1.187   5.033
  316SOL    HW1 1847   3.939   1.247   4.957
  316SOL    HW2 1848   4.026   1.236   5.095
  317SOL     OW 1849   0.815   1.880   1.653
  317SOL    HW1 1850   0.843   1.969   1.617
  317SOL    HW2 1851   0.804   1.886   1.752
  318SOL     OW 1852   0.870   1.101   3.633
  318SOL    HW1 1853   0.837   1.125   3.725
  318SOL    HW2 1854   0.850   1.176   3.570
  319SOL     OW 1855   0.728   1.866   2.299
  319SOL    HW1 1856   0.736   1.867   2.399
  319SOL    HW2 1857   0.739   1.772   2.266
  320SOL     OW 1858   5.157   0.911   0.279
  320SOL    HW1 1859   5.189   0.967   0.355
  320SOL    HW2 1860   5.200   0.821   0.283
  321SOL     OW 1861   4.029   3.292   1.258
  321SOL    HW1 1862   4.057   3.254   1.346
  321SOL    HW2 1863   4.109   3.315   1.204
  322SOL     OW 1864   2.832   2.102   6.704
  322SOL    HW1 1865   2.784   2.082   6.789
  322SOL    HW2 1866   2.783   2.061   6.627
  323SOL     OW 1867   0.797   4.249   2.498
  323SOL    HW1 1868   0.864   4.175   2.487
  323SOL    HW2 1869   0.845   4.337   2.503
  324SOL     OW 1870   5.945   0.356   3.754
  324SOL    HW1 1871   5.968   0.400   3.667
  324SOL    HW2 1872   6.001   0.395   3.827
  325SOL     OW 1873   6.316   3.432   0.673
  325SOL    HW1 1874   6.376   3.471   0.603
  325SOL    HW2 1875   6.231   3.401   0.630
  326SOL     OW 1876   6.199   5.859   6.257
  326SOL    HW1 1877   6.111   5.814   6.275
  326SOL    HW2 1878   6.205   5.881   6.160
  327SOL     OW 1879   4.296   6.139   6.327
  327SOL    HW1 1880   4.235   6.071   6.284
  327SOL    HW2 1881   4.241   6.210   6.370
  328SOL     OW 1882   2.134   4.548   3.797
  328SOL    HW1 1883   2.150   4.612   3.872
  328SOL    HW2 1884   2.198   4.472   3.805
  329SOL     OW 1885   3.181   3.431   2.781
  329SOL    HW1 1886   3.150   3.350   2.731
  329SOL    HW2 1887   3.263   3.467   2.738
  330SOL     OW 1888   2.486   3.994   6.517
  330SOL    HW1 1889   2.458   3.964   6.608
  330SOL    HW2 1890   2.481   3.918   6.454
  331SOL     OW 1891   4.909   5.644   3.608
  331SOL    HW1 1892   4.809   5.653   3.604
  331SOL    HW2 1893   4.951   5.735   3.604
  332SOL     OW 1894   5.918   1.962   3.056
  332SOL    HW1 1895   5.908   2.062   3.050
  332SOL    HW2 1896   6.015   1.938   3.056
  333SOL     OW 1897   3.347   6.673   3.587
  333SOL    HW1 1898   3.392   6.742   3.531
  333SOL    HW2 1899   3.397   6.660   3.673
  334SOL     OW 1900   4.106   3.491   4.207
  334SOL    HW1 1901   4.086   3.443   4.122
  334SOL    HW2 1902   4.116   3.424   4.281
  335SOL     OW 1903   4.693   1.589   0.658
  335SOL    HW1 1904   4.664   1.518   0.593
  335SOL    HW2 1905   4.791   1.582   0.673
  336SOL     OW 1906   3.893   2.066   4.600
  336SOL    HW1 1907   3.984   2.104   4.616
  336SOL    HW2 1908   3.835   2.087   4.678
  337SOL     OW 1909   0.437   1.920   5.438
  337SOL    HW1 1910   0.356   1.863   5.429
  337SOL    HW2 1911   0.412   2.008   5.478
  338SOL     OW 1912   5.010   1.000   1.865
  338SOL    HW1 1913   5.046   0.952   1.785
  338SOL    HW2 1914   4.965   1.084   1.836
  339SOL     OW 1915   3.249   5.128   5.942
  339SOL    HW1 1916   3.159   5.099   5.973
  339SOL    HW2 1917   3.287   5.059   5.880
  340SOL     OW 1918   5.269   3.679   5.006
  340SOL    HW1 1919   5.314   3.620   4.938
  340SOL    HW2 1920   5.325   3.683   5.088
  341SOL     OW 1921   6.453   0.611   1.698
  341SOL    HW1 1922   6.550   0.617   1.721
  341SOL    HW2 1923   6.407   0.696   1.723
  342SOL     OW 1924   4.631   1.050   2.259
  342SOL    HW1 1925   4.558   1.091   2.204
  342SOL    HW2 1926   4.600   1.040   2.354
  343SOL     OW 1927   6.237   0.447   1.638
  343SOL    HW1 1928   6.317   0.508   1.633
  343SOL    HW2 1929   6.204   0.443   1.732
  344SOL     OW 1930   6.934   2.524   1.644
  344SOL    HW1 1931   6.956   2.435   1.605
  344SOL    HW2 1932   6.834   2.533   1.653
  345SOL     OW 1933   6.993   3.103   4.204
  345SOL    HW1 1934   6.902   3.097   4.163
  345SOL    HW2 1935   0.005   3.011   4.228
  346SOL     OW 1936   1.091   6.354   2.547
  346SOL    HW1 1937   1.095   6.445   2.588
  346SOL    HW2 1938   1.152   6.351   2.467
  347SOL     OW 1939   1.820   4.490   1.567
  347SOL    HW1 1940   1.904   4.519   1.611
  347SOL    HW2 1941   1.773   4.423   1.625
  348SOL     OW 1942   5.648   4.447   1.134
  348SOL    HW1 1943   5.746   4.459   1.123
  348SOL    HW2 1944   5.606   4.432   1.045
  349SOL     OW 1945   6.288   5.366   0.369
  349SOL    HW1 1946   6.293   5.282   0.424
  349SOL    HW2 1947   6.215   5.357   0.301
  350SOL     OW 1948   2.400   0.909   1.200
  350SOL    HW1 1949   2.364   0.877   1.113
  350SOL    HW2 1950   2.496   0.883   1.209
  351SOL     OW 1951   3.350   4.162   0.958
  351SOL    HW1 1952   3.398   4.076   0.973
  351SOL    HW2 1953   3.360   4.190   0.863
  352SOL     OW 1954   3.827   0.415   2.216
  352SOL    HW1 1955   3.731   0.421   2.245
  352SOL    HW2 1956   3.881   0.482   2.266
  353SOL     OW 1957   2.446   5.925   0.297
  353SOL    HW1 1958   2.459   6.018   0.334
  353SOL    HW2 1959   2.356   5.919   0.254
  354SOL     OW 1960   2.071   1.998   0.458
  354SOL    HW1 1961   1.982   2.020   0.498
  354SOL    HW2 1962   2.142   2.009   0.528
  355SOL     OW 1963   0.356   2.654   3.164
  355SOL    HW1 1964   0.412   2.736   3.157
  355SOL    HW2 1965   0.295   2.649   3.085
  356SOL     OW 1966   2.606   0.240   5.841
  356SOL    HW1 1967   2.511   0.270   5.849
  356SOL    HW2 1968   2.659   0.309   5.791
  357SOL     OW 1969   6.010   5.482   4.268
  357SOL    HW1 1970   6.053   5.453   4.353
  357SOL    HW2 1971   5.926   5.430   4.253
  358SOL     OW 1972   3.163   6.426   0.000
  358SOL    HW1 1973   3.136   6.488   6.946
  358SOL    HW2 1974   3.090   6.420   0.068
  359SOL     OW 1975   1.832   2.736   1.210
  359SOL    HW1 1976   1.901   2.674   1.172
  359SOL    HW2 1977   1.866   2.829   1.207
  360SOL     OW 1978   2.258   4.174   3.101
  360SOL    HW1 1979   2.322   4.100   3.078
  360SOL    HW2 1980   2.164   4.143   3.089
  361SOL     OW 1981   6.817   2.950   2.832
  361SOL    HW1 1982   6.819   2.865   2.884
  361SOL    HW2 1983   6.752   3.014   2.874
  362SOL     OW 1984   4.130   3.297   2.959
  362SOL    HW1 1985   4.058   3.229   2.947
  362SOL    HW2 1986   4.102   3.383   2.917
  363SOL     OW 1987   4.797   4.499   0.597
  363SOL    HW1 1988   4.854   4.582   0.603
  363SOL    HW2 1989   4.787   4.472   0.501
  364SOL     OW 1990   0.875   0.369   6.922
  364SOL    HW1 1991   0.872   0.381   6.823
  364SOL    HW2 1992   0.869   0.271   6.944
  365SOL     OW 1993   4.970   0.481   3.933
  365SOL    HW1 1994   5.009   0.438   4.014
  365SOL    HW2 1995   4.871   0.480   3.939
  366SOL     OW 1996   4.940   2.178   0.371
  366SOL    HW1 1997   5.024   2.204   0.418
  366SOL    HW2 1998   4.955   2.093   0.320
  367SOL     OW 1999   5.815   0.734   0.396
  367SOL    HW1 2000   5.896   0.744   0.340
  367SOL    HW2 2001   5.751   0.808   0.377
  368SOL     OW 2002   3.195   1.479   5.648
  368SOL    HW1 2003   3.234   1.548   5.709
  368SOL    HW2 2004   3.197   1.513   5.554
  369SOL     OW 2005   4.977   4.101   0.184
  369SOL    HW1 2006   4.905   4.073   0.121
  369SOL    HW2 2007   5.038   4.167   0.138
  370SOL     OW 2008   2.018   2.410   3.856
  370SOL    HW1 2009   2.107   2.385   3.894
  370SOL    HW2 2010   2.018   2.507   3.831
  371SOL     OW 2011   2.555   5.178   0.373
  371SOL    HW1 2012   2.539   5.266   0.417
  371SOL    HW2 2013   2.573   5.109   0.444
  372SOL     OW 2014   2.733   6.049   6.139
  372SOL    HW1 2015   2.779   5.994   6.069
  372SOL    HW2 2016   2.641   6.073   6.108
  373SOL     OW 2017   5.439   4.920   2.773
  373SOL    HW1 2018   5.454   4.993   2.839
  373SOL    HW2 2019   5.345   4.924   2.739
  374SOL     OW 2020   2.648   2.267   1.930
  374SOL    HW1 2021   2.632   2.340   1.863
  374SOL    HW2 2022   2.735   2.282   1.976
  375SOL     OW 2023   6.810   5.934   4.008
  375SOL    HW1 2024   6.872   5.957   3.932
  375SOL    HW2 2025   6.722   5.979   3.993
  376SOL     OW 2026   4.253   0.522   3.686
  376SOL    HW1 2027   4.168   0.513   3.737
  376SOL    HW2 2028   4.252   0.459   3.608
  377SOL     OW 2029   2.889   2.974   6.062
  377SOL    HW1 2030   2.951   2.906   6.022
  377SOL    HW2 2031   2.847   3.028   5.989
  378SOL     OW 2032   4.110   1.130   1.832
  378SOL    HW1 2033   4.166   1.213   1.843
  378SOL    HW2 2034   4.113   1.077   1.916
  379SOL     OW 2035   3.610   3.244   6.905
  379SOL    HW1 2036   3.661   3.158   6.895
  379SOL    HW2 2037   3.517   3.223   6.936
  380SOL     OW 2038   4.749   2.082   0.527
  380SOL    HW1 2039   4.827   2.141   0.506
  380SOL    HW2 2040   4.763   2.039   0.617
  381SOL     OW 2041   1.270   3.598   2.257
  381SOL    HW1 2042   1.225   3.517   2.294
  381SOL    HW2 2043   1.314   3.576   2.170
  382SOL     OW 2044   6.490   0.153   0.184
  382SOL    HW1 2045   6.502   0.206   0.269
  382SOL    HW2 2046   6.503   0.213   0.105
  383SOL     OW 2047   4.789   3.213   0.290
  383SOL    HW1 2048   4.885   3.190   0.280
  383SOL    HW2 2049   4.772   3.305   0.254
  384SOL     OW 2050   1.066   2.658   5.081
  384SOL    HW1 2051   1.157   2.691   5.053
  384SOL    HW2 2052   1.030   2.598   5.009
  385SOL     OW 2053   4.626   2.561   6.214
  385SOL    HW1 2054   4.650   2.566   6.311
  385SOL    HW2 2055   4.595   2.651   6.184
  386SOL     OW 2056   3.424   6.294   4.998
  386SOL    HW1 2057   3.347   6.357   5.011
  386SOL    HW2 2058   3.507   6.346   4.978
  387SOL     OW 2059   2.460   6.320   3.865
  387SOL    HW1 2060   2.457   6.368   3.953
  387SOL    HW2 2061   2.505   6.232   3.877
  388SOL     OW 2062   1.731   5.415   5.952
  388SOL    HW1 2063   1.663   5.351   5.987
  388SOL    HW2 2064   1.693   5.467   5.876
  389SOL     OW 2065   2.769   2.380   0.493
  389SOL    HW1 2066   2.732   2.473   0.495
  389SOL    HW2 2067   2.710   2.320   0.547
  390SOL     OW 2068   2.857   1.939   3.911
  390SOL    HW1 2069   2.882   1.931   4.007
  390SOL    HW2 2070   2.759   1.957   3.903
  391SOL     OW 2071   0.377   2.071   0.365
  391SOL    HW1 2072   0.356   2.043   0.272
  391SOL    HW2 2073   0.459   2.128   0.366
  392SOL     OW 2074   3.772   5.245   5.005
  392SOL    HW1 2075   3.773   5.165   4.945
  392SOL    HW2 2076   3.679   5.283   5.007
  393SOL     OW 2077   5.949   3.377   5.300
  393SOL    HW1 2078   5.854   3.365   5.328
  393SOL    HW2 2079   5.977   3.472   5.317
  394SOL     OW 2080   1.892   1.056   6.399
  394SOL    HW1 2081   1.797   1.035   6.423
  394SOL    HW2 2082   1.904   1.156   6.399
  395SOL     OW 2083   6.963   2.964   1.558
  395SOL    HW1 2084   6.958   2.990   1.655
  395SOL    HW2 2085   7.007   2.874   1.551
  396SOL     OW 2086   3.509   2.540   5.362
  396SOL    HW1 2087   3.567   2.522   5.442
  396SOL    HW2 2088   3.414   2.522   5.385
  397SOL     OW 2089   4.331   0.373   6.290
  397SOL    HW1 2090   4.261   0.334   6.231
  397SOL    HW2 2091   4.421   0.339   6.262
  398SOL     OW 2092   6.817   4.766   2.476
  398SOL    HW1 2093   6.872   4.702   2.422
  398SOL    HW2 2094   6.722   4.733   2.481
  399SOL     OW 2095   4.202   5.189   1.946
  399SOL    HW1 2096   4.263   5.114   1.919
  399SOL    HW2 2097   4.107   5.157   1.942
  400SOL     OW 2098   2.208   5.013   5.300
  400SOL    HW1 2099   2.288   5.068   5.324
  400SOL    HW2 2100   2.238   4.922   5.271
  401SOL     OW 2101   6.368   1.569   1.674
  401SOL    HW1 2102   6.424   1.651   1.659
  401SOL    HW2 2103   6.271   1.596   1.680
  402SOL     OW 2104   0.515   5.387   0.860
  402SOL    HW1 2105   0.441   5.422   0.802
  402SOL    HW2 2106   0.601   5.432   0.835
  403SOL     OW 2107   4.600   4.191   0.698
  403SOL    HW1 2108   4.651   4.276   0.716
  403SOL    HW2 2109   4.530   4.179   0.768
  404SOL     OW 2110   6.987   5.914   5.066
  404SOL    HW1 2111   0.019   5.885   4.985
  404SOL    HW2 2112   6.912   5.850   5.084
  405SOL     OW 2113   1.456   1.896   1.172
  405SOL    HW1 2114   1.473   1.827   1.242
  405SOL    HW2 2115   1.360   1.924   1.175
  406SOL     OW 2116   0.553   2.785   3.585
  406SOL    HW1 2117   0.495   2.722   3.534
  406SOL    HW2 2118   0.593   2.852   3.522
  407SOL     OW 2119   3.523   2.030   3.746
  407SOL    HW1 2120   3.465   2.086   3.688
  407SOL    HW2 2121   3.514   2.059   3.841
  408SOL     OW 2122   2.872   0.533   4.070
  408SOL    HW1 2123   2.773   0.546   4.063
  408SOL    HW2 2124   2.913   0.535   3.979
  409SOL     OW 2125   6.994   4.330   4.224
  409SOL    HW1 2126   7.014   4.427   4.228
  409SOL    HW2 2127   0.007   4.292   4.138
  410SOL     OW 2128   2.827   6.705   6.111
  410SOL    HW1 2129   2.850   6.717   6.207
  410SOL    HW2 2130   2.746   6.761   6.089
  411SOL     OW 2131   0.190   4.327   5.563
  411SOL    HW1 2132   0.282   4.365   5.557
  411SOL    HW2 2133   0.154   4.339   5.656
  412SOL     OW 2134   3.506   6.434   2.108
  412SOL    HW1 2135   3.427   6.489   2.135
  412SOL    HW2 2136   3.487   6.337   2.126
  413SOL     OW 2137   2.015   0.793   2.470
  413SOL    HW1 2138   1.928   0.801   2.518
  413SOL    HW2 2139   2.019   0.860   2.396
  414SOL     OW 2140   5.100   4.508   0.948
  414SOL    HW1 2141   5.060   4.423   0.983
  414SOL    HW2 2142   5.111   4.572   1.024
  415SOL     OW 2143   4.055   0.412   2.629
  415SOL    HW1 2144   4.137   0.355   2.622
  415SOL    HW2 2145   4.023   0.412   2.724
  416SOL     OW 2146   4.014   5.938   0.082
  416SOL    HW1 2147   4.040   5.851   0.124
  416SOL    HW2 2148   4.092   6.000   0.083
  417SOL     OW 2149   5.356   5.170   1.156
  417SOL    HW1 2150   5.267   5.213   1.139
  417SOL    HW2 2151   5.429   5.231   1.124
  418SOL     OW 2152   6.919   4.980   6.619
  418SOL    HW1 2153   6.978   4.905   6.649
  418SOL    HW2 2154   6.910   4.978   6.519
  419SOL     OW 2155   5.044   5.422   0.051
  419SOL    HW1 2156   5.114   5.424   0.123
  419SOL    HW2 2157   4.983   5.501   0.062
  420SOL     OW 2158   4.799   3.675   6.407
  420SOL    HW1 2159   4.826   3.757   6.456
  420SOL    HW2 2160   4.780   3.698   6.311
  421SOL     OW 2161   1.762   6.354   6.815
  421SOL    HW1 2162   1.756   6.255   6.803
  421SOL    HW2 2163   1.697   6.384   6.885
  422SOL     OW 2164   6.329   3.826   6.690
  422SOL    HW1 2165   6.239   3.784   6.691
  422SOL    HW2 2166   6.382   3.791   6.612
  423SOL     OW 2167   1.051   3.636   6.386
  423SOL    HW1 2168   0.994   3.624   6.304
  423SOL    HW2 2169   1.027   3.721   6.431
  424SOL     OW 2170   1.692   4.286   6.268
  424SOL    HW1 2171   1.665   4.235   6.186
  424SOL    HW2 2172   1.738   4.371   6.240
  425SOL     OW 2173   3.436   0.333   0.330
  425SOL    HW1 2174   3.435   0.334   0.430
  425SOL    HW2 2175   3.517   0.283   0.299
  426SOL     OW 2176   0.328   4.072   6.763
  426SOL    HW1 2177   0.423   4.043   6.749
  426SOL    HW2 2178   0.303   4.140   6.695
  427SOL     OW 2179   3.626   3.566   6.850
  427SOL    HW1 2180   3.712   3.553   6.800
  427SOL    HW2 2181   3.603   3.481   6.898
  428SOL     OW 2182   4.227   1.574   4.826
  428SOL    HW1 2183   4.326   1.582   4.840
  428SOL    HW2 2184   4.205   1.603   4.733
  429SOL     OW 2185   3.314   6.624   0.497
  429SOL    HW1 2186   3.386   6.673   0.449
  429SOL    HW2 2187   3.276   6.683   0.569
  430SOL     OW 2188   3.110   0.635   4.655
  430SOL    HW1 2189   3.098   0.727   4.618
  430SOL    HW2 2190   3.171   0.582   4.596
  431SOL     OW 2191   4.005   0.890   0.193
  431SOL    HW1 2192   4.105   0.888   0.195
  431SOL    HW2 2193   3.973   0.983   0.175
  432SOL     OW 2194   6.620   1.507   0.927
  432SOL    HW1 2195   6.581   1.477   1.014
  432SOL    HW2 2196   6.647   1.428   0.873
  433SOL     OW 2197   3.229   6.543   4.933
  433SOL    HW1 2198   3.240   6.532   5.031
  433SOL    HW2 2199   3.133   6.526   4.908
  434SOL     OW 2200   6.362   3.652   0.827
  434SOL    HW1 2201   6.337   3.622   0.919
  434SOL    HW2 2202   6.324   3.589   0.760
  435SOL     OW 2203   3.783   3.597   0.712
  435SOL    HW1 2204   3.806   3.686   0.673
  435SOL    HW2 2205   3.708   3.608   0.777
  436SOL     OW 2206   3.348   1.339   0.429
  436SOL    HW1 2207   3.430   1.286   0.451
  436SOL    HW2 2208   3.336   1.342   0.330
  437SOL     OW 2209   6.945   6.526   6.263
  437SOL    HW1 2210   0.003   6.530   6.327
  437SOL    HW2 2211   6.898   6.439   6.274
  438SOL     OW 2212   1.193   3.231   0.875
  438SOL    HW1 2213   1.108   3.220   0.925
  438SOL    HW2 2214   1.187   3.312   0.815
  439SOL     OW 2215   6.266   5.142   1.582
  439SOL    HW1 2216   6.311   5.165   1.495
  439SOL    HW2 2217   6.286   5.047   1.605
  440SOL     OW 2218   1.659   3.069   3.042
  440SOL    HW1 2219   1.730   3.000   3.031
  440SOL    HW2 2220   1.589   3.036   3.105
  441SOL     OW 2221   0.146   1.428   3.075
  441SOL    HW1 2222   0.134   1.527   3.084
  441SOL    HW2 2223   0.236   1.409   3.035
  442SOL     OW 2224   0.795   5.089   6.150
  442SOL    HW1 2225   0.780   5.072   6.053
  442SOL    HW2 2226   0.735   5.164   6.180
  443SOL     OW 2227   0.637   4.895   5.623
  443SOL    HW1 2228   0.542   4.868   5.643
  443SOL    HW2 2229   0.699   4.846   5.683
  444SOL     OW 2230   5.306   2.879   6.697
  444SOL    HW1 2231   5.279   2.927   6.780
  444SOL    HW2 2232   5.259   2.919   6.618
  445SOL     OW 2233   0.943   3.856   3.441
  445SOL    HW1 2234   1.022   3.889   3.493
  445SOL    HW2 2235   0.914   3.768   3.477
  446SOL     OW 2236   2.166   5.149   4.151
  446SOL    HW1 2237   2.098   5.148   4.224
  446SOL    HW2 2238   2.177   5.243   4.116
  447SOL     OW 2239   0.238   5.809   0.642
  447SOL    HW1 2240   0.208   5.778   0.552
  447SOL    HW2 2241   0.306   5.744   0.678
  448SOL     OW 2242   4.380   0.306   5.816
  448SOL    HW1 2243   4.282   0.287   5.823
  448SOL    HW2 2244   4.405   0.320   5.721
  449SOL     OW 2245   5.101   0.519   4.492
  449SOL    HW1 2246   5.061   0.461   4.563
  449SOL    HW2 2247   5.030   0.577   4.453
  450SOL     OW 2248   6.818   6.582   2.435
  450SOL    HW1 2249   6.745   6.621   2.491
  450SOL    HW2 2250   6.788   6.576   2.340
  451SOL     OW 2251   6.401   3.515   3.990
  451SOL    HW1 2252   6.323   3.452   3.984
  451SOL    HW2 2253   6.390   3.574   4.070
  452SOL     OW 2254   6.684   5.294   5.906
  452SOL    HW1 2255   6.660   5.222   5.971
  452SOL    HW2 2256   6.783   5.307   5.906
  453SOL     OW 2257   3.600   1.629   6.130
  453SOL    HW1 2258   3.626   1.638   6.226
  453SOL    HW2 2259   3.523   1.566   6.121
  454SOL     OW 2260   1.006   6.166   0.634
  454SOL    HW1 2261   0.920   6.162   0.582
  454SOL    HW2 2262   0.986   6.164   0.732
  455SOL     OW 2263   5.325   0.846   5.297
  455SOL    HW1 2264   5.325   0.795   5.211
  455SOL    HW2 2265   5.232   0.869   5.323
  456SOL     OW 2266   3.967   4.647   0.133
  456SOL    HW1 2267   4.010   4.643   0.043
  456SOL    HW2 2268   3.900   4.573   0.141
  457SOL     OW 2269   0.788   4.565   1.661
  457SOL    HW1 2270   0.847   4.610   1.728
  457SOL    HW2 2271   0.744   4.486   1.704
  458SOL     OW 2272   0.562   5.696   5.240
  458SOL    HW1 2273   0.545   5.708   5.142
  458SOL    HW2 2274   0.564   5.785   5.285
  459SOL     OW 2275   1.404   0.604   3.531
  459SOL    HW1 2276   1.380   0.701   3.530
  459SOL    HW2 2277   1.377   0.562   3.444
  460SOL     OW 2278   6.460   2.117   3.667
  460SOL    HW1 2279   6.529   2.179   3.704
  460SOL    HW2 2280   6.420   2.157   3.584
  461SOL     OW 2281   5.793   4.956   5.748
  461SOL    HW1 2282   5.755   4.893   5.679
  461SOL    HW2 2283   5.877   4.997   5.712
  462SOL     OW 2284   3.068   2.040   0.212
  462SOL    HW1 2285   3.011   2.095   0.150
  462SOL    HW2 2286   3.164   2.059   0.194
  463SOL     OW 2287   6.288   5.942   2.190
  463SOL    HW1 2288   6.302   6.024   2.135
  463SOL    HW2 2289   6.313   5.861   2.137
  464SOL     OW 2290   1.792   1.221   6.137
  464SOL    HW1 2291   1.778   1.266   6.049
  464SOL    HW2 2292   1.875   1.165   6.133
  465SOL     OW 2293   0.059   3.332   6.253
  465SOL    HW1 2294   0.143   3.278   6.250
  465SOL    HW2 2295   0.050   3.385   6.169
  466SOL     OW 2296   2.170   0.513   3.110
  466SOL    HW1 2297   2.112   0.433   3.094
  466SOL    HW2 2298   2.128   0.571   3.180
  467SOL     OW 2299   1.639   1.677   5.433
  467SOL    HW1 2300   1.695   1.750   5.473
  467SOL    HW2 2301   1.680   1.647   5.347
  468SOL     OW 2302   3.066   3.684   2.703
  468SOL    HW1 2303   3.104   3.598   2.737
  468SOL    HW2 2304   3.004   3.665   2.627
  469SOL     OW 2305   3.528   6.555   0.066
  469SOL    HW1 2306   3.505   6.458   0.058
  469SOL    HW2 2307   3.627   6.566   0.063
  470SOL     OW 2308   4.472   6.898   3.284
  470SOL    HW1 2309   4.475   6.958   3.204
  470SOL    HW2 2310   4.510   6.809   3.259
  471SOL     OW 2311   2.797   2.362   4.097
  471SOL    HW1 2312   2.703   2.389   4.117
  471SOL    HW2 2313   2.849   2.361   4.182
  472SOL     OW 2314   3.810   4.401   5.612
  472SOL    HW1 2315   3.792   4.304   5.629
  472SOL    HW2 2316   3.906   4.414   5.587
  473SOL     OW 2317   0.680   4.396   3.847
  473SOL    HW1 2318   0.693   4.305   3.886
  473SOL    HW2 2319   0.740   4.461   3.893
  474SOL     OW 2320   4.898   4.389   5.184
  474SOL    HW1 2321   4.948   4.403   5.269
  474SOL    HW2 2322   4.934   4.450   5.113
  475SOL     OW 2323   2.154   6.216   6.922
  475SOL    HW1 2324   2.226   6.276   6.957
  475SOL    HW2 2325   2.173   6.122   6.950
  476SOL     OW 2326   6.968   5.785   2.771
  476SOL    HW1 2327   0.020   5.821   2.711
  476SOL    HW2 2328   6.974   5.686   2.773
  477SOL     OW 2329   2.158   4.744   3.995
  477SOL    HW1 2330   2.114   4.797   4.068
  477SOL    HW2 2331   2.249   4.780   3.978
  478SOL     OW 2332   1.301   5.576   3.217
  478SOL    HW1 2333   1.279   5.673   3.228
  478SOL    HW2 2334   1.378   5.567   3.153
  479SOL     OW 2335   4.004   1.912   1.271
  479SOL    HW1 2336   4.089   1.859   1.277
  479SOL    HW2 2337   4.000   1.977   1.347
  480SOL     OW 2338   1.504   6.464   3.573
  480SOL    HW1 2339   1.438   6.407   3.622
  480SOL    HW2 2340   1.596   6.440   3.602
  481SOL     OW 2341   2.202   6.937   0.860
  481SOL    HW1 2342   2.228   0.013   0.877
  481SOL    HW2 2343   2.281   6.886   0.827
  482SOL     OW 2344   5.738   5.326   0.596
  482SOL    HW1 2345   5.775   5.277   0.675
  482SOL    HW2 2346   5.725   5.422   0.619
  483SOL     OW 2347   5.974   2.181   2.685
  483SOL    HW1 2348   6.066   2.146   2.706
  483SOL    HW2 2349   5.909   2.106   2.685
  484SOL     OW 2350   6.280   2.019   4.165
  484SOL    HW1 2351   6.309   1.924   4.155
  484SOL    HW2 2352   6.312   2.072   4.086
  485SOL     OW 2353   3.391   6.352   1.391
  485SOL    HW1 2354   3.434   6.336   1.480
  485SOL    HW2 2355   3.430   6.290   1.323
  486SOL     OW 2356   0.382   0.898   5.799
  486SOL    HW1 2357   0.346   0.846   5.721
  486SOL    HW2 2358   0.435   0.837   5.858
  487SOL     OW 2359   6.624   3.037   6.451
  487SOL    HW1 2360   6.671   3.123   6.472
  487SOL    HW2 2361   6.525   3.049   6.461
  488SOL     OW 2362   0.878   4.527   2.276
  488SOL    HW1 2363   0.833   4.459   2.218
  488SOL    HW2 2364   0.969   4.546   2.239
  489SOL     OW 2365   3.363   5.524   6.389
  489SOL    HW1 2366   3.350   5.621   6.371
  489SOL    HW2 2367   3.397   5.511   6.482
  490SOL     OW 2368   4.951   0.294   4.581
  490SOL    HW1 2369   4.869   0.326   4.534
  490SOL    HW2 2370   4.944   0.314   4.678
  491SOL     OW 2371   0.548   2.254   3.454
  491SOL    HW1 2372   0.615   2.215   3.391
  491SOL    HW2 2373   0.494   2.323   3.407
  492SOL     OW 2374   1.490   1.374   4.645
  492SOL    HW1 2375   1.490   1.278   4.672
  492SOL    HW2 2376   1.535   1.429   4.715
  493SOL     OW 2377   6.934   4.060   4.617
  493SOL    HW1 2378   6.862   3.992   4.605
  493SOL    HW2 2379   6.943   4.083   4.714
  494SOL     OW 2380   6.338   1.234   6.683
  494SOL    HW1 2381   6.407   1.199   6.747
  494SOL    HW2 2382   6.309   1.325   6.712
  495SOL     OW 2383   4.837   4.550   0.297
  495SOL    HW1 2384   4.915   4.610   0.310
  495SOL    HW2 2385   4.865   4.455   0.311
  496SOL     OW 2386   5.507   3.507   3.021
  496SOL    HW1 2387   5.439   3.475   2.955
  496SOL    HW2 2388   5.476   3.487   3.114
  497SOL     OW 2389   4.171   6.878   3.818
  497SOL    HW1 2390   4.111   6.956   3.796
  497SOL    HW2 2391   4.149   6.844   3.909
  498SOL     OW 2392   1.254   2.577   1.498
  498SOL    HW1 2393   1.336   2.629   1.476
  498SOL    HW2 2394   1.238   2.579   1.597
  499SOL     OW 2395   3.555   1.199   4.954
  499SOL    HW1 2396   3.606   1.192   4.868
  499SOL    HW2 2397   3.536   1.107   4.989
  500SOL     OW 2398   1.846   4.312   2.727
  500SOL    HW1 2399   1.874   4.406   2.708
  500SOL    HW2 2400   1.746   4.306   2.726
  501SOL     OW 2401   0.868   5.445   6.820
  501SOL    HW1 2402   0.794   5.418   6.758
  501SOL    HW2 2403   0.834   5.445   6.914
  502SOL     OW 2404   2.532   4.961   6.536
  502SOL    HW1 2405   2.627   4.978   6.562
  502SOL    HW2 2406   2.511   4.864   6.548
  503SOL     OW 2407   6.351   5.336   4.514
  503SOL    HW1 2408   6.399   5.269   4.571
  503SOL    HW2 2409   6.261   5.355   4.553
  504SOL     OW 2410   1.769   5.672   4.891
  504SOL    HW1 2411   1.764   5.579   4.927
  504SOL    HW2 2412   1.864   5.695   4.870
  505SOL     OW 2413   3.417   6.728   4.931
  505SOL    HW1 2414   3.348   6.659   4.953
  505SOL    HW2 2415   3.405   6.808   4.989
  506SOL     OW 2416   1.936   3.224   0.688
  506SOL    HW1 2417   1.988   3.139   0.691
  506SOL    HW2 2418   1.858   3.214   0.626
  507SOL     OW 2419   4.044   2.138   4.121
  507SOL    HW1 2420   3.945   2.125   4.125
  507SOL    HW2 2421   4.078   2.168   4.210
  508SOL     OW 2422   6.395   4.926   4.241
  508SOL    HW1 2423   6.440   4.999   4.190
  508SOL    HW2 2424   6.322   4.887   4.185
  509SOL     OW 2425   4.264   3.249   0.935
  509SOL    HW1 2426   4.326   3.176   0.906
  509SOL    HW2 2427   4.187   3.254   0.873
  510SOL     OW 2428   1.092   4.331   4.567
  510SOL    HW1 2429   1.046   4.414   4.599
  510SOL    HW2 2430   1.028   4.276   4.514
  511SOL     OW 2431   0.480   6.560   1.191
  511SOL    HW1 2432   0.445   6.466   1.199
  511SOL    HW2 2433   0.517   6.573   1.099
  512SOL     OW 2434   1.285   3.659   6.188
  512SOL    HW1 2435   1.213   3.603   6.229
  512SOL    HW2 2436   1.243   3.727   6.127
  513SOL     OW 2437   1.061   5.051   4.019
  513SOL    HW1 2438   1.078   5.019   3.926
  513SOL    HW2 2439   1.103   5.141   4.032
  514SOL     OW 2440   5.518   1.862   3.048
  514SOL    HW1 2441   5.577   1.934   3.084
  514SOL    HW2 2442   5.573   1.796   2.997
  515SOL     OW 2443   2.704   5.408   0.034
  515SOL    HW1 2444   2.748   5.496   0.053
  515SOL    HW2 2445   2.614   5.423   7.013
  516SOL     OW 2446   1.139   4.756   3.642
  516SOL    HW1 2447   1.150   4.767   3.543
  516SOL    HW2 2448   1.043   4.736   3.663
  517SOL     OW 2449   4.602   0.669   6.509
  517SOL    HW1 2450   4.695   0.706   6.517
  517SOL    HW2 2451   4.580   0.617   6.592
  518SOL     OW 2452   2.472   1.592   0.458
  518SOL    HW1 2453   2.471   1.622   0.554
  518SOL    HW2 2454   2.409   1.515   0.446
  519SOL     OW 2455   0.877   6.737   0.669
  519SOL    HW1 2456   0.937   6.658   0.679
  519SOL    HW2 2457   0.784   6.706   0.650
  520SOL     OW 2458   5.739   4.666   4.382
  520SOL    HW1 2459   5.710   4.629   4.293
  520SOL    HW2 2460   5.838   4.678   4.382
  521SOL     OW 2461   6.742   0.369   0.507
  521SOL    HW1 2462   6.810   0.433   0.471
  521SOL    HW2 2463   6.693   0.412   0.583
  522SOL     OW 2464   3.489   3.700   5.678
  522SOL    HW1 2465   3.463   3.754   5.758
  522SOL    HW2 2466   3.407   3.660   5.636
  523SOL     OW 2467   6.216   6.788   3.914
  523SOL    HW1 2468   6.232   6.744   3.826
  523SOL    HW2 2469   6.119   6.811   3.923
  524SOL     OW 2470   4.052   0.675   5.299
  524SOL    HW1 2471   4.012   0.763   5.272
  524SOL    HW2 2472   4.013   0.647   5.387
  525SOL     OW 2473   2.804   2.495   0.060
  525SOL    HW1 2474   2.825   2.413   0.008
  525SOL    HW2 2475   2.777   2.469   0.153
  526SOL     OW 2476   4.782   5.690   4.563
  526SOL    HW1 2477   4.688   5.719   4.543
  526SOL    HW2 2478   4.842   5.770   4.563
  527SOL     OW 2479   6.827   1.955   0.260
  527SOL    HW1 2480   6.877   1.992   0.338
  527SOL    HW2 2481   6.852   2.006   0.178
  528SOL     OW 2482   1.783   1.336   5.875
  528SOL    HW1 2483   1.752   1.427   5.901
  528SOL    HW2 2484   1.839   1.342   5.792
  529SOL     OW 2485   6.717   5.079   4.156
  529SOL    HW1 2486   6.784   5.144   4.191
  529SOL    HW2 2487   6.661   5.122   4.086
  530SOL     OW 2488   0.006   3.069   5.052
  530SOL    HW1 2489   0.022   3.082   4.954
  530SOL    HW2 2490   6.977   2.982   5.066
  531SOL     OW 2491   6.912   0.841   0.248
  531SOL    HW1 2492   6.988   0.788   0.213
  531SOL    HW2 2493   6.871   0.895   0.174
  532SOL     OW 2494   2.104   0.683   5.849
  532SOL    HW1 2495   2.124   0.585   5.850
  532SOL    HW2 2496   2.175   0.731   5.798
  533SOL     OW 2497   4.681   0.335   4.952
  533SOL    HW1 2498   4.621   0.414   4.963
  533SOL    HW2 2499   4.640   0.270   4.887
  534SOL     OW 2500   3.183   5.417   3.119
  534SOL    HW1 2501   3.198   5.386   3.213
  534SOL    HW2 2502   3.091   5.390   3.089
  535SOL     OW 2503   5.872   3.740   1.866
  535SOL    HW1 2504   5.959   3.733   1.819
  535SOL    HW2 2505   5.866   3.669   1.936
  536SOL     OW 2506   1.373   6.396   1.178
  536SOL    HW1 2507   1.331   6.390   1.088
  536SOL    HW2 2508   1.444   6.466   1.177
  537SOL     OW 2509   2.077   6.880   3.434
  537SOL    HW1 2510   2.154   6.857   3.494
  537SOL    HW2 2511   1.993   6.842   3.471
  538SOL     OW 2512   1.621   5.109   4.374
  538SOL    HW1 2513   1.581   5.017   4.376
  538SOL    HW2 2514   1.661   5.125   4.283
  539SOL     OW 2515   1.183   5.546   1.306
  539SOL    HW1 2516   1.179   5.487   1.226
  539SOL    HW2 2517   1.106   5.526   1.367
  540SOL     OW 2518   1.975   3.179   0.988
  540SOL    HW1 2519   1.977   3.259   1.048
  540SOL    HW2 2520   2.004   3.205   0.896
  541SOL     OW 2521   4.383   5.543   5.283
  541SOL    HW1 2522   4.300   5.491   5.303
  541SOL    HW2 2523   4.461   5.500   5.329
  542SOL     OW 2524   5.862   6.811   6.142
  542SOL    HW1 2525   5.812   6.756   6.075
  542SOL    HW2 2526   5.814   6.808   6.229
  543SOL     OW 2527   5.928   6.922   1.118
  543SOL    HW1 2528   5.972   6.928   1.028
  543SOL    HW2 2529   5.976   6.981   1.183
  544SOL     OW 2530   0.699   5.454   0.428
  544SOL    HW1 2531   0.708   5.382   0.497
  544SOL    HW2 2532   0.602   5.475   0.414
  545SOL     OW 2533   3.296   1.668   3.554
  545SOL    HW1 2534   3.215   1.640   3.606
  545SOL    HW2 2535   3.307   1.607   3.475
  546SOL     OW 2536   2.129   2.000   0.165
  546SOL    HW1 2537   2.110   1.985   0.262
  546SOL    HW2 2538   2.211   1.950   0.139
  547SOL     OW 2539   2.875   1.571   0.154
  547SOL    HW1 2540   2.958   1.613   0.190
  547SOL    HW2 2541   2.895   1.523   0.069
  548SOL     OW 2542   3.424   3.524   5.336
  548SOL    HW1 2543   3.505   3.512   5.394
  548SOL    HW2 2544   3.392   3.618   5.343
  549SOL     OW 2545   0.450   4.280   0.934
  549SOL    HW1 2546   0.414   4.254   0.844
  549SOL    HW2 2547   0.547   4.300   0.926
  550SOL     OW 2548   6.806   3.474   0.282
  550SOL    HW1 2549   6.822   3.498   0.187
  550SOL    HW2 2550   6.891   3.438   0.322
  551SOL     OW 2551   0.169   1.183   0.338
  551SOL    HW1 2552   0.076   1.181   0.301
  551SOL    HW2 2553   0.174   1.124   0.419
  552SOL     OW 2554   4.674   4.429   0.823
  552SOL    HW1 2555   4.706   4.483   0.745
  552SOL    HW2 2556   4.686   4.481   0.907
  553SOL     OW 2557   0.998   2.318   1.326
  553SOL    HW1 2558   0.922   2.293   1.265
  553SOL    HW2 2559   1.028   2.411   1.304
  554SOL     OW 2560   4.181   5.080   4.587
  554SOL    HW1 2561   4.092   5.049   4.621
  554SOL    HW2 2562   4.194   5.049   4.493
  555SOL     OW 2563   1.667   4.636   5.209
  555SOL    HW1 2564   1.753   4.585   5.205
  555SOL    HW2 2565   1.596   4.577   5.248
  556SOL     OW 2566   6.028   4.064   2.958
  556SOL    HW1 2567   6.009   4.144   2.902
  556SOL    HW2 2568   6.009   4.085   3.054
  557SOL     OW 2569   6.526   5.858   5.603
  557SOL    HW1 2570   6.512   5.761   5.622
  557SOL    HW2 2571   6.623   5.873   5.581
  558SOL     OW 2572   4.198   3.538   5.746
  558SOL    HW1 2573   4.120   3.482   5.718
  558SOL    HW2 2574   4.166   3.617   5.798
  559SOL     OW 2575   5.705   5.045   6.372
  559SOL    HW1 2576   5.794   5.015   6.337
  559SOL    HW2 2577   5.715   5.136   6.413
  560SOL     OW 2578   3.931   6.454   0.326
  560SOL    HW1 2579   4.005   6.391   0.300
  560SOL    HW2 2580   3.964   6.548   0.321
  561SOL     OW 2581   5.798   6.978   1.914
  561SOL    HW1 2582   5.761   6.950   2.003
  561SOL    HW2 2583   5.897   6.984   1.920
  562SOL     OW 2584   6.628   0.562   0.688
  562SOL    HW1 2585   6.703   0.626   0.669
  562SOL    HW2 2586   6.638   0.526   0.780
  563SOL     OW 2587   2.680   0.864   5.379
  563SOL    HW1 2588   2.657   0.922   5.457
  563SOL    HW2 2589   2.747   0.911   5.321
  564SOL     OW 2590   0.906   1.724   5.636
  564SOL    HW1 2591   0.873   1.700   5.727
  564SOL    HW2 2592   0.828   1.735   5.574
  565SOL     OW 2593   4.532   3.891   5.941
  565SOL    HW1 2594   4.628   3.880   5.916
  565SOL    HW2 2595   4.487   3.950   5.874
  566SOL     OW 2596   6.632   4.797   2.128
  566SOL    HW1 2597   6.576   4.715   2.120
  566SOL    HW2 2598   6.728   4.773   2.116
  567SOL     OW 2599   3.883   3.812   5.289
  567SOL    HW1 2600   3.851   3.866   5.211
  567SOL    HW2 2601   3.915   3.873   5.361
  568SOL     OW 2602   2.154   0.990   6.430
  568SOL    HW1 2603   2.056   1.005   6.423
  568SOL    HW2 2604   2.189   1.034   6.513
  569SOL     OW 2605   1.926   4.150   6.602
  569SOL    HW1 2606   1.975   4.122   6.519
  569SOL    HW2 2607   1.831   4.170   6.579
  570SOL     OW 2608   6.904   6.136   0.022
  570SOL    HW1 2609   6.935   6.168   0.112
  570SOL    HW2 2610   6.807   6.114   0.026
  571SOL     OW 2611   4.036   6.422   2.270
  571SOL    HW1 2612   3.945   6.379   2.275
  571SOL    HW2 2613   4.093   6.387   2.344
  572SOL     OW 2614   1.248   4.238   4.215
  572SOL    HW1 2615   1.312   4.285   4.155
  572SOL    HW2 2616   1.254   4.277   4.307
  573SOL     OW 2617   3.482   2.412   6.733
  573SOL    HW1 2618   3.523   2.430   6.643
  573SOL    HW2 2619   3.553   2.416   6.803
  574SOL     OW 2620   2.638   2.358   3.661
  574SOL    HW1 2621   2.646   2.304   3.577
  574SOL    HW2 2622   2.727   2.362   3.706
  575SOL     OW 2623   4.448   2.410   6.403
  575SOL    HW1 2624   4.419   2.330   6.350
  575SOL    HW2 2625   4.540   2.393   6.440
  576SOL     OW 2626   1.443   3.484   2.904
  576SOL    HW1 2627   1.348   3.492   2.874
  576SOL    HW2 2628   1.502   3.467   2.825
  577SOL     OW 2629   4.398   1.816   3.988
  577SOL    HW1 2630   4.382   1.717   3.991
  577SOL    HW2 2631   4.458   1.838   3.912
  578SOL     OW 2632   0.032   3.944   4.252
  578SOL    HW1 2633   0.100   3.938   4.325
  578SOL    HW2 2634   6.988   4.019   4.271
  579SOL     OW 2635   3.857   3.452   0.498
  579SOL    HW1 2636   3.851   3.520   0.425
  579SOL    HW2 2637   3.815   3.488   0.581
  580SOL     OW 2638   0.171   6.476   0.148
  580SOL    HW1 2639   0.080   6.445   0.122
  580SOL    HW2 2640   0.218   6.402   0.196
  581SOL     OW 2641   4.130   3.346   3.220
  581SOL    HW1 2642   4.129   3.338   3.121
  581SOL    HW2 2643   4.129   3.443   3.245
  582SOL     OW 2644   6.712   4.317   0.618
  582SOL    HW1 2645   6.804   4.354   0.631
  582SOL    HW2 2646   6.648   4.364   0.679
  583SOL     OW 2647   2.416   6.240   6.453
  583SOL    HW1 2648   2.400   6.336   6.430
  583SOL    HW2 2649   2.497   6.232   6.510
  584SOL     OW 2650   1.397   4.889   4.252
  584SOL    HW1 2651   1.481   4.868   4.301
  584SOL    HW2 2652   1.321   4.894   4.316
  585SOL     OW 2653   5.572   0.757   5.419
  585SOL    HW1 2654   5.480   0.760   5.379
  585SOL    HW2 2655   5.639   0.787   5.352
  586SOL     OW 2656   2.921   5.798   1.047
  586SOL    HW1 2657   2.961   5.834   1.132
  586SOL    HW2 2658   2.982   5.730   1.008
  587SOL     OW 2659   2.055   3.044   6.516
  587SOL    HW1 2660   2.021   2.952   6.537
  587SOL    HW2 2661   2.012   3.111   6.576
  588SOL     OW 2662   2.041   0.125   1.837
  588SOL    HW1 2663   2.067   0.051   1.774
  588SOL    HW2 2664   2.026   0.209   1.784
  589SOL     OW 2665   4.555   4.625   1.267
  589SOL    HW1 2666   4.518   4.712   1.300
  589SOL    HW2 2667   4.570   4.564   1.344
  590SOL     OW 2668   6.888   3.759   1.791
  590SOL    HW1 2669   6.887   3.711   1.704
  590SOL    HW2 2670   6.818   3.721   1.851
  591SOL     OW 2671   2.891   0.095   3.052
  591SOL    HW1 2672   2.795   0.104   3.026
  591SOL    HW2 2673   2.941   0.177   3.022
  592SOL     OW 2674   5.553   0.141   5.872
  592SOL    HW1 2675   5.555   0.215   5.806
  592SOL    HW2 2676   5.470   0.148   5.928
  593SOL     OW 2677   6.965   0.810   4.672
  593SOL    HW1 2678   0.036   0.852   4.678
  593SOL    HW2 2679   6.974   0.711   4.668
  594SOL     OW 2680   5.845   2.190   1.452
  594SOL    HW1 2681   5.849   2.211   1.550
  594SOL    HW2 2682   5.793   2.262   1.405
  595SOL     OW 2683   3.469   0.086   3.636
  595SOL    HW1 2684   3.481   0.008   3.698
  595SOL    HW2 2685   3.402   0.150   3.675
  596SOL     OW 2686   0.906   4.304   1.791
  596SOL    HW1 2687   0.912   4.276   1.887
  596SOL    HW2 2688   0.971   4.251   1.736
  597SOL     OW 2689   4.836   1.978   5.829
  597SOL    HW1 2690   4.843   2.078   5.834
  597SOL    HW2 2691   4.842   1.939   5.921
  598SOL     OW 2692   3.018   3.565   1.552
  598SOL    HW1 2693   3.023   3.483   1.495
  598SOL    HW2 2694   3.099   3.571   1.610
  599SOL     OW 2695   6.002   6.160   3.652
  599SOL    HW1 2696   6.058   6.077   3.650
  599SOL    HW2 2697   6.040   6.227   3.589
  600SOL     OW 2698   2.843   1.291   1.324
  600SOL    HW1 2699   2.904   1.226   1.279
  600SOL    HW2 2700   2.770   1.317   1.261
  601SOL     OW 2701   2.203   5.056   3.075
  601SOL    HW1 2702   2.145   5.058   2.993
  601SOL    HW2 2703   2.266   4.979   3.069
  602SOL     OW 2704   6.985   0.353   2.422
  602SOL    HW1 2705   6.976   0.253   2.423
  602SOL    HW2 2706   6.899   0.394   2.389
  603SOL     OW 2707   4.252   1.719   3.050
  603SOL    HW1 2708   4.200   1.685   2.972
  603SOL    HW2 2709   4.194   1.721   3.131
  604SOL     OW 2710   1.336   3.276   5.743
  604SOL    HW1 2711   1.353   3.374   5.742
  604SOL    HW2 2712   1.415   3.229   5.703
  605SOL     OW 2713   5.422   0.244   4.503
  605SOL    HW1 2714   5.324   0.259   4.495
  605SOL    HW2 2715   5.444   0.214   4.596
  606SOL     OW 2716   2.591   6.342   1.993
  606SOL    HW1 2717   2.608   6.374   1.900
  606SOL    HW2 2718   2.667   6.284   2.023
  607SOL     OW 2719   3.945   0.679   4.296
  607SOL    HW1 2720   4.020   0.613   4.292
  607SOL    HW2 2721   3.861   0.632   4.322
  608SOL     OW 2722   5.780   3.025   1.153
  608SOL    HW1 2723   5.867   3.012   1.200
  608SOL    HW2 2724   5.754   2.942   1.105
  609SOL     OW 2725   3.580   3.941   4.842
  609SOL    HW1 2726   3.498   3.987   4.808
  609SOL    HW2 2727   3.578   3.938   4.942
  610SOL     OW 2728   6.410   1.800   4.659
  610SOL    HW1 2729   6.427   1.895   4.686
  610SOL    HW2 2730   6.367   1.751   4.735
  611SOL     OW 2731   5.830   0.115   0.329
  611SOL    HW1 2732   5.807   0.019   0.342
  611SOL    HW2 2733   5.929   0.124   0.316
  612SOL     OW 2734   1.897   4.512   6.462
  612SOL    HW1 2735   1.874   4.502   6.559
  612SOL    HW2 2736   1.968   4.446   6.437
  613SOL     OW 2737   3.850   1.414   6.799
  613SOL    HW1 2738   3.908   1.380   6.725
  613SOL    HW2 2739   3.787   1.483   6.763
  614SOL     OW 2740   5.119   3.022   1.017
  614SOL    HW1 2741   5.173   3.106   1.023
  614SOL    HW2 2742   5.153   2.955   1.083
  615SOL     OW 2743   6.345   6.109   0.100
  615SOL    HW1 2744   6.261   6.072   0.061
  615SOL    HW2 2745   6.393   6.037   0.149
  616SOL     OW 2746   4.959   1.719   4.575
  616SOL    HW1 2747   5.014   1.711   4.658
  616SOL    HW2 2748   4.987   1.800   4.524
  617SOL     OW 2749   6.641   6.532   4.984
  617SOL    HW1 2750   6.549   6.511   5.018
  617SOL    HW2 2751   6.643   6.523   4.885
  618SOL     OW 2752   5.610   4.927   0.522
  618SOL    HW1 2753   5.581   4.877   0.603
  618SOL    HW2 2754   5.693   4.885   0.485
  619SOL     OW 2755   2.117   0.070   6.584
  619SOL    HW1 2756   2.123   0.155   6.637
  619SOL    HW2 2757   2.138   0.090   6.488
  620SOL     OW 2758   4.933   2.036   1.948
  620SOL    HW1 2759   4.905   2.015   1.854
  620SOL    HW2 2760   4.888   1.973   2.011
  621SOL     OW 2761   2.568   0.161   6.094
  621SOL    HW1 2762   2.584   0.185   5.998
  621SOL    HW2 2763   2.482   0.111   6.102
  622SOL     OW 2764   0.081   3.348   5.605
  622SOL    HW1 2765   0.012   3.280   5.583
  622SOL    HW2 2766   0.172   3.313   5.582
  623SOL     OW 2767   6.632   1.406   2.885
  623SOL    HW1 2768   6.615   1.477   2.953
  623SOL    HW2 2769   6.636   1.317   2.930
  624SOL     OW 2770   6.904   0.848   6.457
  624SOL    HW1 2771   6.949   0.935   6.437
  624SOL    HW2 2772   6.805   0.861   6.453
  625SOL     OW 2773   3.286   0.825   1.453
  625SOL    HW1 2774   3.378   0.787   1.465
  625SOL    HW2 2775   3.261   0.878   1.534
  626SOL     OW 2776   0.497   5.877   3.641
  626SOL    HW1 2777   0.584   5.842   3.606
  626SOL    HW2 2778   0.443   5.802   3.678
  627SOL     OW 2779   6.463   5.264   6.475
  627SOL    HW1 2780   6.395   5.283   6.546
  627SOL    HW2 2781   6.554   5.264   6.515
  628SOL     OW 2782   3.697   4.466   6.558
  628SOL    HW1 2783   3.602   4.456   6.587
  628SOL    HW2 2784   3.757   4.434   6.632
  629SOL     OW 2785   1.938   0.122   0.156
  629SOL    HW1 2786   1.911   0.166   0.070
  629SOL    HW2 2787   1.880   0.042   0.172
  630SOL     OW 2788   5.993   2.494   0.849
  630SOL    HW1 2789   6.052   2.456   0.778
  630SOL    HW2 2790   6.050   2.530   0.924
  631SOL     OW 2791   1.935   3.479   2.610
  631SOL    HW1 2792   1.948   3.471   2.709
  631SOL    HW2 2793   1.912   3.574   2.587
  632SOL     OW 2794   3.391   4.492   1.341
  632SOL    HW1 2795   3.323   4.565   1.342
  632SOL    HW2 2796   3.408   4.460   1.434
  633SOL     OW 2797   0.835   5.943   0.239
  633SOL    HW1 2798   0.863   5.977   0.329
  633SOL    HW2 2799   0.737   5.958   0.227
  634SOL     OW 2800   2.851   3.290   5.521
  634SOL    HW1 2801   2.785   3.257   5.453
  634SOL    HW2 2802   2.827   3.383   5.549
  635SOL     OW 2803   6.383   0.062   6.438
  635SOL    HW1 2804   6.371   6.990   6.477
  635SOL    HW2 2805   6.396   0.128   6.512
  636SOL     OW 2806   2.225   1.574   4.166
  636SOL    HW1 2807   2.284   1.645   4.129
  636SOL    HW2 2808   2.141   1.614   4.201
  637SOL     OW 2809   6.910   1.651   2.116
  637SOL    HW1 2810   6.825   1.667   2.166
  637SOL    HW2 2811   6.894   1.667   2.018
  638SOL     OW 2812   6.681   3.360   5.140
  638SOL    HW1 2813   6.762   3.337   5.086
  638SOL    HW2 2814   6.649   3.451   5.114
  639SOL     OW 2815   5.678   3.251   1.569
  639SOL    HW1 2816   5.578   3.250   1.565
  639SOL    HW2 2817   5.713   3.328   1.515
  640SOL     OW 2818   6.214   3.322   2.800
  640SOL    HW1 2819   6.212   3.381   2.720
  640SOL    HW2 2820   6.151   3.357   2.869
  641SOL     OW 2821   2.395   5.628   4.322
  641SOL    HW1 2822   2.455   5.585   4.390
  641SOL    HW2 2823   2.451   5.661   4.246
  642SOL     OW 2824   0.999   5.112   4.298
  642SOL    HW1 2825   0.995   5.204   4.337
  642SOL    HW2 2826   1.093   5.088   4.277
  643SOL     OW 2827   4.435   5.094   0.486
  643SOL    HW1 2828   4.407   5.078   0.581
  643SOL    HW2 2829   4.514   5.155   0.484
  644SOL     OW 2830   6.269   0.545   4.698
  644SOL    HW1 2831   6.277   0.483   4.621
  644SOL    HW2 2832   6.176   0.543   4.734
  645SOL     OW 2833   4.172   6.635   1.912
  645SOL    HW1 2834   4.094   6.641   1.975
  645SOL    HW2 2835   4.153   6.567   1.842
  646SOL     OW 2836   3.750   2.055   4.839
  646SOL    HW1 2837   3.730   2.093   4.929
  646SOL    HW2 2838   3.724   1.958   4.837
  647SOL     OW 2839   2.888   2.276   0.260
  647SOL    HW1 2840   2.849   2.279   0.352
  647SOL    HW2 2841   2.956   2.348   0.250
  648SOL     OW 2842   5.359   1.653   4.183
  648SOL    HW1 2843   5.355   1.749   4.156
  648SOL    HW2 2844   5.326   1.643   4.277
  649SOL     OW 2845   3.526   5.620   0.693
  649SOL    HW1 2846   3.612   5.574   0.671
  649SOL    HW2 2847   3.540   5.684   0.769
  650SOL     OW 2848   2.209   3.278   1.344
  650SOL    HW1 2849   2.116   3.246   1.325
  650SOL    HW2 2850   2.227   3.274   1.442
  651SOL     OW 2851   0.193   1.614   2.741
  651SOL    HW1 2852   0.139   1.607   2.824
  651SOL    HW2 2853   0.135   1.649   2.667
  652SOL     OW 2854   3.984   6.205   0.614
  652SOL    HW1 2855   4.079   6.207   0.581
  652SOL    HW2 2856   3.922   6.220   0.537
  653SOL     OW 2857   1.478   0.016   2.752
  653SOL    HW1 2858   1.500   0.040   2.847
  653SOL    HW2 2859   1.562   7.016   2.702
  654SOL     OW 2860   1.409   0.133   6.068
  654SOL    HW1 2861   1.461   0.048   6.074
  654SOL    HW2 2862   1.420   0.172   5.976
  655SOL     OW 2863   1.665   3.762   1.160
  655SOL    HW1 2864   1.621   3.736   1.075
  655SOL    HW2 2865   1.743   3.822   1.141
  656SOL     OW 2866   2.261   0.431   7.010
  656SOL    HW1 2867   2.290   0.504   6.949
  656SOL    HW2 2868   2.220   0.356   6.958
  657SOL     OW 2869   3.699   3.259   4.099
  657SOL    HW1 2870   3.799   3.263   4.103
  657SOL    HW2 2871   3.669   3.164   4.112
  658SOL     OW 2872   1.883   0.796   4.741
  658SOL    HW1 2873   1.826   0.869   4.778
  658SOL    HW2 2874   1.895   0.725   4.811
  659SOL     OW 2875   2.066   5.647   6.953
  659SOL    HW1 2876   2.012   5.570   6.986
  659SOL    HW2 2877   2.020   5.688   6.874
  660SOL     OW 2878   5.544   4.106   2.657
  660SOL    HW1 2879   5.463   4.121   2.600
  660SOL    HW2 2880   5.519   4.049   2.736
  661SOL     OW 2881   4.746   5.862   4.188
  661SOL    HW1 2882   4.717   5.848   4.283
  661SOL    HW2 2883   4.792   5.780   4.155
  662SOL     OW 2884   6.062   3.745   6.737
  662SOL    HW1 2885   6.073   3.679   6.811
  662SOL    HW2 2886   5.984   3.805   6.757
  663SOL     OW 2887   1.332   4.094   5.807
  663SOL    HW1 2888   1.370   4.186   5.798
  663SOL    HW2 2889   1.263   4.094   5.879
  664SOL     OW 2890   1.599   0.389   5.435
  664SOL    HW1 2891   1.663   0.337   5.380
  664SOL    HW2 2892   1.531   0.433   5.376
  665SOL     OW 2893   2.432   4.419   3.310
  665SOL    HW1 2894   2.360   4.351   3.318
  665SOL    HW2 2895   2.482   4.426   3.396
  666SOL     OW 2896   3.279   0.410   7.012
  666SOL    HW1 2897   3.294   0.403   0.091
  666SOL    HW2 2898   3.184   0.434   6.994
  667SOL     OW 2899   1.149   2.865   2.326
  667SOL    HW1 2900   1.076   2.847   2.259
  667SOL    HW2 2901   1.119   2.936   2.389
  668SOL     OW 2902   5.418   6.959   0.113
  668SOL    HW1 2903   5.501   6.906   0.131
  668SOL    HW2 2904   5.399   7.018   0.192
  669SOL     OW 2905   6.908   5.561   2.548
  669SOL    HW1 2906   6.869   5.652   2.533
  669SOL    HW2 2907   6.923   5.516   2.460
  670SOL     OW 2908   3.915   3.984   2.992
  670SOL    HW1 2909   3.921   4.000   2.894
  670SOL    HW2 2910   3.830   4.022   3.028
  671SOL     OW 2911   1.694   0.030   6.519
  671SOL    HW1 2912   1.678   0.052   6.616
  671SOL    HW2 2913   1.653   6.960   6.498
  672SOL     OW 2914   1.284   2.604   3.249
  672SOL    HW1 2915   1.366   2.649   3.285
  672SOL    HW2 2916   1.206   2.626   3.307
  673SOL     OW 2917   5.229   0.176   6.772
  673SOL    HW1 2918   5.278   0.205   6.689
  673SOL    HW2 2919   5.216   0.077   6.771
  674SOL     OW 2920   6.807   2.337   4.441
  674SOL    HW1 2921   6.742   2.263   4.428
  674SOL    HW2 2922   6.875   2.310   4.509
  675SOL     OW 2923   5.316   6.178   3.613
  675SOL    HW1 2924   5.398   6.191   3.557
  675SOL    HW2 2925   5.343   6.145   3.703
  676SOL     OW 2926   3.107   4.940   4.512
  676SOL    HW1 2927   3.143   4.965   4.602
  676SOL    HW2 2928   3.034   4.872   4.523
  677SOL     OW 2929   4.803   6.724   0.945
  677SOL    HW1 2930   4.751   6.711   1.029
  677SOL    HW2 2931   4.779   6.652   0.879
  678SOL     OW 2932   2.381   1.047   6.349
  678SOL    HW1 2933   2.449   0.991   6.397
  678SOL    HW2 2934   2.290   1.024   6.384
  679SOL     OW 2935   6.423   0.337   2.515
  679SOL    HW1 2936   6.324   0.324   2.519
  679SOL    HW2 2937   6.461   0.282   2.441
  680SOL     OW 2938   6.290   4.069   4.111
  680SOL    HW1 2939   6.341   4.154   4.126
  680SOL    HW2 2940   6.197   4.079   4.146
  681SOL     OW 2941   0.994   5.470   2.397
  681SOL    HW1 2942   1.016   5.565   2.420
  681SOL    HW2 2943   1.054   5.409   2.450
  682SOL     OW 2944   0.602   0.196   5.889
  682SOL    HW1 2945   0.588   0.104   5.928
  682SOL    HW2 2946   0.519   0.250   5.900
  683SOL     OW 2947   5.368   1.534   1.872
  683SOL    HW1 2948   5.438   1.580   1.928
  683SOL    HW2 2949   5.291   1.596   1.859
  684SOL     OW 2950   7.019   5.797   6.632
  684SOL    HW1 2951   6.981   5.840   6.713
  684SOL    HW2 2952   0.019   5.700   6.650
  685SOL     OW 2953   6.063   0.303   5.546
  685SOL    HW1 2954   5.990   0.334   5.607
  685SOL    HW2 2955   6.069   0.203   5.550
  686SOL     OW 2956   5.454   4.547   1.722
  686SOL    HW1 2957   5.538   4.492   1.727
  686SOL    HW2 2958   5.434   4.568   1.626
  687SOL     OW 2959   5.440   1.900   6.600
  687SOL    HW1 2960   5.536   1.923   6.616
  687SOL    HW2 2961   5.428   1.871   6.505
  688SOL     OW 2962   6.165   3.198   5.302
  688SOL    HW1 2963   6.211   3.217   5.216
  688SOL    HW2 2964   6.081   3.253   5.308
  689SOL     OW 2965   5.524   4.425   4.452
  689SOL    HW1 2966   5.513   4.442   4.550
  689SOL    HW2 2967   5.460   4.483   4.401
  690SOL     OW 2968   0.155   2.691   4.940
  690SOL    HW1 2969   0.069   2.724   4.978
  690SOL    HW2 2970   0.229   2.753   4.966
  691SOL     OW 2971   0.410   3.128   6.788
  691SOL    HW1 2972   0.375   3.039   6.817
  691SOL    HW2 2973   0.506   3.119   6.761
  692SOL     OW 2974   2.667   0.332   3.642
  692SOL    HW1 2975   2.567   0.337   3.640
  692SOL    HW2 2976   2.698   0.267   3.572
  693SOL     OW 2977   6.218   1.572   3.730
  693SOL    HW1 2978   6.313   1.601   3.741
  693SOL    HW2 2979   6.181   1.545   3.819
  694SOL     OW 2980   1.326   0.481   3.005
  694SOL    HW1 2981   1.385   0.436   2.938
  694SOL    HW2 2982   1.316   0.577   2.981
  695SOL     OW 2983   4.704   5.541   6.664
  695SOL    HW1 2984   4.703   5.521   6.566
  695SOL    HW2 2985   4.690   5.639   6.679
  696SOL     OW 2986   5.331   5.515   2.666
  696SOL    HW1 2987   5.244   5.473   2.692
  696SOL    HW2 2988   5.335   5.521   2.566
  697SOL     OW 2989   1.224   4.090   3.314
  697SOL    HW1 2990   1.230   4.147   3.396
  697SOL    HW2 2991   1.230   3.994   3.339
  698SOL     OW 2992   4.966   6.362   3.810
  698SOL    HW1 2993   4.931   6.452   3.784
  698SOL    HW2 2994   4.894   6.311   3.858
  699SOL     OW 2995   1.499   4.938   6.068
  699SOL    HW1 2996   1.488   5.031   6.033
  699SOL    HW2 2997   1.459   4.874   6.002
  700SOL     OW 2998   1.523   1.788   4.961
  700SOL    HW1 2999   1.493   1.813   5.053
  700SOL    HW2 3000   1.463   1.829   4.893
  701SOL     OW 3001   1.313   4.767   5.108
  701SOL    HW1 3002   1.288   4.803   5.197
  701SOL    HW2 3003   1.269   4.678   5.094
  702SOL     OW 3004   5.938   6.086   5.229
  702SOL    HW1 3005   6.021   6.035   5.209
  702SOL    HW2 3006   5.893   6.112   5.143
  703SOL     OW 3007   5.637   3.730   6.293
  703SOL    HW1 3008   5.713   3.795   6.284
  703SOL    HW2 3009   5.614   3.693   6.203
  704SOL     OW 3010   2.302   6.645   1.713
  704SOL    HW1 3011   2.362   6.697   1.774
  704SOL    HW2 3012   2.243   6.586   1.768
  705SOL     OW 3013   0.856   2.036   3.663
  705SOL    HW1 3014   0.887   2.130   3.648
  705SOL    HW2 3015   0.793   2.034   3.740
  706SOL     OW 3016   5.399   3.563   4.000
  706SOL    HW1 3017   5.451   3.607   3.927
  706SOL    HW2 3018   5.461   3.507   4.056
  707SOL     OW 3019   5.005   2.939   2.906
  707SOL    HW1 3020   4.987   3.006   2.977
  707SOL    HW2 3021   5.026   2.986   2.820
  708SOL     OW 3022   4.987   1.667   1.669
  708SOL    HW1 3023   4.991   1.701   1.575
  708SOL    HW2 3024   4.995   1.568   1.669
  709SOL     OW 3025   1.288   4.889   6.677
  709SOL    HW1 3026   1.297   4.790   6.692
  709SOL    HW2 3027   1.362   4.936   6.724
  710SOL     OW 3028   3.006   3.605   3.168
  710SOL    HW1 3029   2.928   3.558   3.210
  710SOL    HW2 3030   3.054   3.659   3.236
  711SOL     OW 3031   0.445   0.836   4.702
  711SOL    HW1 3032   0.431   0.740   4.676
  711SOL    HW2 3033   0.474   0.888   4.622
  712SOL     OW 3034   6.970   4.039   3.359
  712SOL    HW1 3035   0.024   4.107   3.350
  712SOL    HW2 3036   6.942   4.009   3.268
  713SOL     OW 3037   2.828   4.216   5.477
  713SOL    HW1 3038   2.865   4.177   5.393
  713SOL    HW2 3039   2.858   4.161   5.555
  714SOL     OW 3040   4.430   4.955   4.968
  714SOL    HW1 3041   4.375   4.887   4.919
  714SOL    HW2 3042   4.525   4.924   4.973
  715SOL     OW 3043   6.587   0.371   6.282
  715SOL    HW1 3044   6.526   0.323   6.219
  715SOL    HW2 3045   6.559   0.352   6.377
  716SOL     OW 3046   6.128   5.526   0.056
  716SOL    HW1 3047   6.099   5.542   6.981
  716SOL    HW2 3048   6.059   5.472   0.104
  717SOL     OW 3049   6.057   3.282   6.075
  717SOL    HW1 3050   6.123   3.253   6.007
  717SOL    HW2 3051   6.102   3.294   6.164
  718SOL     OW 3052   3.181   2.598   0.055
  718SOL    HW1 3053   3.139   2.688   0.042
  718SOL    HW2 3054   3.270   2.595   0.009
  719SOL     OW 3055   5.903   4.748   6.751
  719SOL    HW1 3056   5.999   4.755   6.776
  719SOL    HW2 3057   5.855   4.832   6.779
  720SOL     OW 3058   4.172   1.353   5.995
  720SOL    HW1 3059   4.233   1.368   6.073
  720SOL    HW2 3060   4.105   1.283   6.019
  721SOL     OW 3061   1.198   6.916   5.097
  721SOL    HW1 3062   1.198   6.865   5.183
  721SOL    HW2 3063   1.229   6.856   5.023
  722SOL     OW 3064   4.696   0.604   5.280
  722SOL    HW1 3065   4.751   0.524   5.305
  722SOL    HW2 3066   4.750   0.665   5.222
  723SOL     OW 3067   0.677   3.275   2.071
  723SOL    HW1 3068   0.646   3.370   2.066
  723SOL    HW2 3069   0.772   3.272   2.103
  724SOL     OW 3070   0.204   2.004   4.595
  724SOL    HW1 3071   0.148   2.010   4.512
  724SOL    HW2 3072   0.299   2.025   4.572
  725SOL     OW 3073   2.587   4.822   2.597
  725SOL    HW1 3074   2.530   4.742   2.613
  725SOL    HW2 3075   2.646   4.806   2.518
  726SOL     OW 3076   5.270   5.709   5.959
  726SOL    HW1 3077   5.310   5.618   5.958
  726SOL    HW2 3078   5.343   5.777   5.966
  727SOL     OW 3079   2.021   4.587   4.424
  727SOL    HW1 3080   2.073   4.531   4.488
  727SOL    HW2 3081   1.932   4.545   4.407
  728SOL     OW 3082   6.369   2.766   6.081
  728SOL    HW1 3083   6.338   2.731   6.170
  728SOL    HW2 3084   6.351   2.864   6.076
  729SOL     OW 3085   4.261   1.652   0.597
  729SOL    HW1 3086   4.284   1.562   0.631
  729SOL    HW2 3087   4.312   1.722   0.648
  730SOL     OW 3088   6.356   1.431   4.464
  730SOL    HW1 3089   6.363   1.445   4.562
  730SOL    HW2 3090   6.273   1.379   4.443
  731SOL     OW 3091   6.737   2.231   3.677
  731SOL    HW1 3092   6.827   2.271   3.691
  731SOL    HW2 3093   6.741   2.133   3.697
  732SOL     OW 3094   0.844   3.510   3.189
  732SOL    HW1 3095   0.803   3.444   3.127
  732SOL    HW2 3096   0.900   3.575   3.137
  733SOL     OW 3097   4.626   4.789   4.101
  733SOL    HW1 3098   4.579   4.706   4.132
  733SOL    HW2 3099   4.690   4.819   4.172
  734SOL     OW 3100   0.833   6.261   0.368
  734SOL    HW1 3101   0.796   6.182   0.416
  734SOL    HW2 3102   0.801   6.261   0.273
  735SOL     OW 3103   3.295   4.410   6.334
  735SOL    HW1 3104   3.374   4.465   6.309
  735SOL    HW2 3105   3.211   4.460   6.312
  736SOL     OW 3106   5.815   1.129   2.466
  736SOL    HW1 3107   5.739   1.127   2.400
  736SOL    HW2 3108   5.840   1.224   2.484
  737SOL     OW 3109   5.522   3.833   0.247
  737SOL    HW1 3110   5.586   3.800   0.178
  737SOL    HW2 3111   5.463   3.903   0.206
  738SOL     OW 3112   0.533   4.169   3.461
  738SOL    HW1 3113   0.610   4.106   3.450
  738SOL    HW2 3114   0.524   4.225   3.378
  739SOL     OW 3115   4.838   6.328   6.030
  739SOL    HW1 3116   4.889   6.242   6.021
  739SOL    HW2 3117   4.812   6.360   5.939
  740SOL     OW 3118   5.760   6.638   0.549
  740SOL    HW1 3119   5.794   6.598   0.635
  740SOL    HW2 3120   5.803   6.728   0.536
  741SOL     OW 3121   2.589   0.510   3.995
  741SOL    HW1 3122   2.535   0.447   3.939
  741SOL    HW2 3123   2.577   0.488   4.092
  742SOL     OW 3124   1.480   6.544   2.630
  742SOL    HW1 3125   1.570   6.507   2.611
  742SOL    HW2 3126   1.457   6.530   2.727
  743SOL     OW 3127   1.804   4.009   3.038
  743SOL    HW1 3128   1.795   3.911   3.021
  743SOL    HW2 3129   1.788   4.028   3.135
  744SOL     OW 3130   6.524   5.043   0.945
  744SOL    HW1 3131   6.584   4.965   0.961
  744SOL    HW2 3132   6.441   5.013   0.898
  745SOL     OW 3133   1.902   5.870   2.333
  745SOL    HW1 3134   1.944   5.948   2.379
  745SOL    HW2 3135   1.921   5.786   2.386
  746SOL     OW 3136   3.064   6.725   3.301
  746SOL    HW1 3137   3.059   6.714   3.400
  746SOL    HW2 3138   3.010   6.805   3.274
  747SOL     OW 3139   6.651   3.528   0.728
  747SOL    HW1 3140   6.619   3.510   0.821
  747SOL    HW2 3141   6.595   3.600   0.687
  748SOL     OW 3142   3.216   2.948   3.205
  748SOL    HW1 3143   3.184   3.015   3.138
  748SOL    HW2 3144   3.265   2.875   3.158
  749SOL     OW 3145   5.589   2.242   5.176
  749SOL    HW1 3146   5.511   2.274   5.121
  749SOL    HW2 3147   5.621   2.317   5.234
  750SOL     OW 3148   3.300   3.579   2.221
  750SOL    HW1 3149   3.251   3.623   2.145
  750SOL    HW2 3150   3.336   3.649   2.283
  751SOL     OW 3151   5.817   1.465   0.064
  751SOL    HW1 3152   5.806   1.525   0.143
  751SOL    HW2 3153   5.747   1.487   7.015
  752SOL     OW 3154   4.576   0.738   2.289
  752SOL    HW1 3155   4.545   0.816   2.343
  752SOL    HW2 3156   4.654   0.766   2.232
  753SOL     OW 3157   3.862   1.704   2.097
  753SOL    HW1 3158   3.900   1.757   2.173
  753SOL    HW2 3159   3.774   1.745   2.070
  754SOL     OW 3160   5.117   5.615   6.835
  754SOL    HW1 3161   5.183   5.608   6.910
  754SOL    HW2 3162   5.033   5.660   6.868
  755SOL     OW 3163   6.220   5.442   1.924
  755SOL    HW1 3164   6.274   5.405   2.000
  755SOL    HW2 3165   6.263   5.418   1.838
  756SOL     OW 3166   2.523   6.646   3.822
  756SOL    HW1 3167   2.623   6.654   3.821
  756SOL    HW2 3168   2.497   6.556   3.857
  757SOL     OW 3169   6.777   0.503   4.013
  757SOL    HW1 3170   6.713   0.537   4.082
  757SOL    HW2 3171   6.758   0.548   3.926
  758SOL     OW 3172   4.349   1.832   0.800
  758SOL    HW1 3173   4.296   1.910   0.834
  758SOL    HW2 3174   4.344   1.758   0.867
  759SOL     OW 3175   2.159   0.731   1.879
  759SOL    HW1 3176   2.248   0.709   1.839
  759SOL    HW2 3177   2.115   0.804   1.826
  760SOL     OW 3178   4.464   1.787   6.222
  760SOL    HW1 3179   4.516   1.865   6.258
  760SOL    HW2 3180   4.500   1.702   6.261
  761SOL     OW 3181   5.431   0.617   6.927
  761SOL    HW1 3182   5.393   0.680   6.859
  761SOL    HW2 3183   5.477   0.668   6.999
  762SOL     OW 3184   2.190   4.793   4.902
  762SOL    HW1 3185   2.126   4.865   4.927
  762SOL    HW2 3186   2.245   4.823   4.824
  763SOL     OW 3187   6.901   5.111   0.381
  763SOL    HW1 3188   6.982   5.112   0.322
  763SOL    HW2 3189   6.851   5.196   0.371
  764SOL     OW 3190   6.104   1.248   2.575
  764SOL    HW1 3191   6.088   1.174   2.640
  764SOL    HW2 3192   6.018   1.296   2.557
  765SOL     OW 3193   0.920   6.874   3.132
  765SOL    HW1 3194   0.877   6.922   3.209
  765SOL    HW2 3195   0.962   6.942   3.071
  766SOL     OW 3196   6.931   6.181   0.296
  766SOL    HW1 3197   6.987   6.196   0.378
  766SOL    HW2 3198   6.864   6.255   0.288
  767SOL     OW 3199   5.838   6.069   1.171
  767SOL    HW1 3200   5.765   6.114   1.222
  767SOL    HW2 3201   5.800   5.991   1.120
  768SOL     OW 3202   3.037   7.019   3.997
  768SOL    HW1 3203   3.011   7.019   4.094
  768SOL    HW2 3204   2.957   0.017   3.941
  769SOL     OW 3205   4.432   0.663   7.014
  769SOL    HW1 3206   4.364   0.714   6.962
  769SOL    HW2 3207   4.523   0.695   6.991
  770SOL     OW 3208   3.198   5.046   4.752
  770SOL    HW1 3209   3.115   5.028   4.806
  770SOL    HW2 3210   3.278   5.043   4.813
  771SOL     OW 3211   0.567   6.311   4.555
  771SOL    HW1 3212   0.586   6.223   4.513
  771SOL    HW2 3213   0.477   6.343   4.525
  772SOL     OW 3214   0.406   3.343   6.249
  772SOL    HW1 3215   0.341   3.404   6.295
  772SOL    HW2 3216   0.393   3.250   6.283
  773SOL     OW 3217   0.061   3.152   2.311
  773SOL    HW1 3218   7.017   3.214   2.265
  773SOL    HW2 3219   0.098   3.196   2.393
  774SOL     OW 3220   1.378   1.224   2.117
  774SOL    HW1 3221   1.395   1.132   2.080
  774SOL    HW2 3222   1.457   1.282   2.099
  775SOL     OW 3223   1.869   2.959   4.053
  775SOL    HW1 3224   1.864   2.982   4.151
  775SOL    HW2 3225   1.865   2.860   4.042
  776SOL     OW 3226   1.897   0.563   4.894
  776SOL    HW1 3227   1.980   0.508   4.894
  776SOL    HW2 3228   1.817   0.504   4.890
  777SOL     OW 3229   4.199   6.804   6.486
  777SOL    HW1 3230   4.129   6.853   6.538
  777SOL    HW2 3231   4.277   6.785   6.545
  778SOL     OW 3232   4.890   5.500   4.881
  778SOL    HW1 3233   4.856   5.495   4.787
  778SOL    HW2 3234   4.931   5.590   4.896
  779SOL     OW 3235   0.507   0.296   2.060
  779SOL    HW1 3236   0.526   0.202   2.085
  779SOL    HW2 3237   0.489   0.350   2.142
  780SOL     OW 3238   5.705   2.604   4.900
  780SOL    HW1 3239   5.737   2.640   4.812
  780SOL    HW2 3240   5.727   2.506   4.905
  781SOL     OW 3241   1.067   3.100   6.536
  781SOL    HW1 3242   1.089   3.116   6.440
  781SOL    HW2 3243   0.992   3.161   6.564
  782SOL     OW 3244   6.968   4.888   1.042
  782SOL    HW1 3245   7.003   4.936   0.961
  782SOL    HW2 3246   0.011   4.813   1.065
  783SOL     OW 3247   1.715   5.885   0.323
  783SOL    HW1 3248   1.647   5.923   0.261
  783SOL    HW2 3249   1.670   5.822   0.387
  784SOL     OW 3250   5.556   5.379   3.448
  784SOL    HW1 3251   5.498   5.451   3.486
  784SOL    HW2 3252   5.558   5.301   3.510
  785SOL     OW 3253   6.532   2.407   3.340
  785SOL    HW1 3254   6.472   2.384   3.416
  785SOL    HW2 3255   6.583   2.490   3.362
  786SOL     OW 3256   6.020   6.443   0.780
  786SOL    HW1 3257   6.066   6.365   0.738
  786SOL    HW2 3258   5.990   6.418   0.872
  787SOL     OW 3259   4.518   1.026   0.337
  787SOL    HW1 3260   4.555   1.111   0.375
  787SOL    HW2 3261   4.543   1.020   0.240
  788SOL     OW 3262   0.220   4.202   3.314
  788SOL    HW1 3263   0.146   4.269   3.320
  788SOL    HW2 3264   0.249   4.175   3.406
  789SOL     OW 3265   5.483   3.230   1.174
  789SOL    HW1 3266   5.575   3.246   1.210
  789SOL    HW2 3267   5.455   3.136   1.192
  790SOL     OW 3268   3.192   0.519   4.040
  790SOL    HW1 3269   3.132   0.582   3.992
  790SOL    HW2 3270   3.175   0.426   4.008
  791SOL     OW 3271   4.036   1.310   4.416
  791SOL    HW1 3272   3.969   1.236   4.402
  791SOL    HW2 3273   3.990   1.398   4.404
  792SOL     OW 3274   5.322   0.724   3.554
  792SOL    HW1 3275   5.352   0.744   3.647
  792SOL    HW2 3276   5.264   0.799   3.521
  793SOL     OW 3277   0.172   0.005   6.545
  793SOL    HW1 3278   0.223   0.090   6.553
  793SOL    HW2 3279   0.233   6.947   6.565
  794SOL     OW 3280   3.450   4.731   5.241
  794SOL    HW1 3281   3.514   4.807   5.249
  794SOL    HW2 3282   3.444   4.682   5.328
  795SOL     OW 3283   5.280   5.048   0.085
  795SOL    HW1 3284   5.259   5.084   7.013
  795SOL    HW2 3285   5.200   5.059   0.144
  796SOL     OW 3286   0.551   1.640   5.611
  796SOL    HW1 3287   0.554   1.704   5.687
  796SOL    HW2 3288   0.558   1.691   5.524
  797SOL     OW 3289   5.666   3.085   5.652
  797SOL    HW1 3290   5.757   3.099   5.691
  797SOL    HW2 3291   5.674   3.064   5.555
  798SOL     OW 3292   6.798   0.929   4.482
  798SOL    HW1 3293   6.863   0.877   4.539
  798SOL    HW2 3294   6.711   0.937   4.529
  799SOL     OW 3295   6.772   4.151   3.532
  799SOL    HW1 3296   6.749   4.066   3.579
  799SOL    HW2 3297   6.844   4.134   3.465
  800SOL     OW 3298   0.235   2.195   2.450
  800SOL    HW1 3299   0.231   2.136   2.369
  800SOL    HW2 3300   0.145   2.235   2.467
  801SOL     OW 3301   0.326   2.846   3.750
  801SOL    HW1 3302   0.322   2.751   3.781
  801SOL    HW2 3303   0.413   2.863   3.704
  802SOL     OW 3304   6.532   1.229   1.049
  802SOL    HW1 3305   6.580   1.195   1.130
  802SOL    HW2 3306   6.597   1.241   0.974
  803SOL     OW 3307   1.793   0.018   4.459
  803SOL    HW1 3308   1.876   0.004   4.405
  803SOL    HW2 3309   1.750   0.104   4.431
  804SOL     OW 3310   6.146   6.616   0.612
  804SOL    HW1 3311   6.244   6.600   0.626
  804SOL    HW2 3312   6.094   6.575   0.687
  805SOL     OW 3313   2.020   3.120   6.245
  805SOL    HW1 3314   2.027   3.072   6.332
  805SOL    HW2 3315   1.955   3.072   6.185
  806SOL     OW 3316   4.195   6.623   0.139
  806SOL    HW1 3317   4.202   6.722   0.128
  806SOL    HW2 3318   4.226   6.598   0.230
  807SOL     OW 3319   0.609   6.614   3.269
  807SOL    HW1 3320   0.613   6.696   3.325
  807SOL    HW2 3321   0.517   6.574   3.274
  808SOL     OW 3322   5.609   3.963   4.767
  808SOL    HW1 3323   5.660   3.999   4.688
  808SOL    HW2 3324   5.531   4.022   4.787
  809SOL     OW 3325   0.598   6.387   5.805
  809SOL    HW1 3326   0.683   6.438   5.795
  809SOL    HW2 3327   0.611   6.313   5.872
  810SOL     OW 3328   5.967   5.672   6.297
  810SOL    HW1 3329   6.021   5.595   6.330
  810SOL    HW2 3330   5.873   5.642   6.279
  811SOL     OW 3331   3.332   4.879   3.000
  811SOL    HW1 3332   3.268   4.909   2.929
  811SOL    HW2 3333   3.283   4.824   3.067
  812SOL     OW 3334   6.894   0.703   2.704
  812SOL    HW1 3335   6.907   0.639   2.780
  812SOL    HW2 3336   6.839   0.659   2.633
  813SOL     OW 3337   5.021   5.179   2.012
  813SOL    HW1 3338   5.100   5.241   2.011
  813SOL    HW2 3339   4.943   5.226   2.053
  814SOL     OW 3340   5.096   5.360   1.735
  814SOL    HW1 3341   5.194   5.361   1.755
  814SOL    HW2 3342   5.081   5.316   1.646
  815SOL     OW 3343   1.414   1.006   0.732
  815SOL    HW1 3344   1.467   0.965   0.807
  815SOL    HW2 3345   1.389   1.099   0.757
  816SOL     OW 3346   5.791   0.708   1.999
  816SOL    HW1 3347   5.852   0.760   1.940
  816SOL    HW2 3348   5.737   0.770   2.056
  817SOL     OW 3349   0.739   2.259   2.478
  817SOL    HW1 3350   0.745   2.164   2.508
  817SOL    HW2 3351   0.649   2.276   2.440
  818SOL     OW 3352   5.877   1.370   2.549
  818SOL    HW1 3353   5.798   1.403   2.496
  818SOL    HW2 3354   5.868   1.398   2.644
  819SOL     OW 3355   0.436   5.317   2.049
  819SOL    HW1 3356   0.501   5.357   2.114
  819SOL    HW2 3357   0.416   5.223   2.075
  820SOL     OW 3358   2.158   2.834   5.715
  820SOL    HW1 3359   2.181   2.931   5.729
  820SOL    HW2 3360   2.214   2.797   5.640
  821SOL     OW 3361   0.894   4.350   0.603
  821SOL    HW1 3362   0.909   4.333   0.701
  821SOL    HW2 3363   0.959   4.418   0.571
  822SOL     OW 3364   0.883   3.120   5.009
  822SOL    HW1 3365   0.943   3.098   5.086
  822SOL    HW2 3366   0.910   3.067   4.929
  823SOL     OW 3367   3.797   3.982   1.984
  823SOL    HW1 3368   3.801   3.888   1.950
  823SOL    HW2 3369   3.879   4.000   2.040
  824SOL     OW 3370   6.337   2.654   6.343
  824SOL    HW1 3371   6.364   2.558   6.343
  824SOL    HW2 3372   6.329   2.686   6.438
  825SOL     OW 3373   1.506   3.098   1.357
  825SOL    HW1 3374   1.568   3.079   1.433
  825SOL    HW2 3375   1.443   3.021   1.346
  826SOL     OW 3376   1.323   2.837   6.445
  826SOL    HW1 3377   1.231   2.798   6.450
  826SOL    HW2 3378   1.326   2.907   6.374
  827SOL     OW 3379   3.430   4.476   0.930
  827SOL    HW1 3380   3.383   4.563   0.948
  827SOL    HW2 3381   3.402   4.441   0.841
  828SOL     OW 3382   5.974   0.495   5.361
  828SOL    HW1 3383   5.876   0.492   5.381
  828SOL    HW2 3384   6.023   0.433   5.423
  829SOL     OW 3385   3.599   3.930   5.536
  829SOL    HW1 3386   3.687   3.893   5.508
  829SOL    HW2 3387   3.542   3.856   5.574
  830SOL     OW 3388   4.688   3.419   5.859
  830SOL    HW1 3389   4.709   3.325   5.835
  830SOL    HW2 3390   4.627   3.459   5.790
  831SOL     OW 3391   5.476   0.216   5.041
  831SOL    HW1 3392   5.570   0.191   5.017
  831SOL    HW2 3393   5.450   0.172   5.127
  832SOL     OW 3394   2.598   1.632   5.990
  832SOL    HW1 3395   2.669   1.562   6.001
  832SOL    HW2 3396   2.629   1.699   5.922
  833SOL     OW 3397   1.273   0.487   5.037
  833SOL    HW1 3398   1.201   0.419   5.050
  833SOL    HW2 3399   1.338   0.455   4.968
  834SOL     OW 3400   3.382   4.619   5.719
  834SOL    HW1 3401   3.342   4.593   5.631
  834SOL    HW2 3402   3.473   4.576   5.728
  835SOL     OW 3403   3.901   1.449   2.166
  835SOL    HW1 3404   3.854   1.427   2.252
  835SOL    HW2 3405   3.890   1.547   2.147
  836SOL     OW 3406   2.219   0.760   6.294
  836SOL    HW1 3407   2.195   0.850   6.328
  836SOL    HW2 3408   2.145   0.696   6.313
  837SOL     OW 3409   4.135   1.662   4.557
  837SOL    HW1 3410   4.131   1.675   4.457
  837SOL    HW2 3411   4.051   1.699   4.598
  838SOL     OW 3412   1.152   6.218   1.932
  838SOL    HW1 3413   1.232   6.165   1.904
  838SOL    HW2 3414   1.124   6.278   1.857
  839SOL     OW 3415   2.228   1.641   1.878
  839SOL    HW1 3416   2.299   1.591   1.827
  839SOL    HW2 3417   2.241   1.739   1.866
  840SOL     OW 3418   1.226   0.665   5.894
  840SOL    HW1 3419   1.235   0.724   5.814
  840SOL    HW2 3420   1.314   0.658   5.940
  841SOL     OW 3421   0.387   3.417   1.002
  841SOL    HW1 3422   0.346   3.387   1.089
  841SOL    HW2 3423   0.466   3.359   0.981
  842SOL     OW 3424   4.125   4.776   4.187
  842SOL    HW1 3425   4.176   4.756   4.103
  842SOL    HW2 3426   4.039   4.821   4.163
  843SOL     OW 3427   0.097   3.518   1.718
  843SOL    HW1 3428   0.135   3.525   1.626
  843SOL    HW2 3429   7.019   3.540   1.717
  844SOL     OW 3430   6.002   4.677   6.311
  844SOL    HW1 3431   5.987   4.674   6.410
  844SOL    HW2 3432   6.052   4.595   6.283
  845SOL     OW 3433   1.970   4.927   5.527
  845SOL    HW1 3434   1.875   4.908   5.552
  845SOL    HW2 3435   1.975   5.013   5.476
  846SOL     OW 3436   3.845   2.160   0.268
  846SOL    HW1 3437   3.759   2.112   0.247
  846SOL    HW2 3438   3.897   2.106   0.335
  847SOL     OW 3439   5.056   4.365   2.011
  847SOL    HW1 3440   5.037   4.288   1.949
  847SOL    HW2 3441   5.123   4.426   1.968
  848SOL     OW 3442   5.634   6.958   5.499
  848SOL    HW1 3443   5.587   0.027   5.490
  848SOL    HW2 3444   5.575   6.885   5.466
  849SOL     OW 3445   0.518   6.005   4.247
  849SOL    HW1 3446   0.580   6.025   4.171
  849SOL    HW2 3447   0.567   6.014   4.333
  850SOL     OW 3448   3.184   0.734   3.178
  850SOL    HW1 3449   3.137   0.805   3.127
  850SOL    HW2 3450   3.279   0.727   3.147
  851SOL     OW 3451   0.018   1.137   5.932
  851SOL    HW1 3452   6.979   1.196   5.988
  851SOL    HW2 3453   0.063   1.191   5.861
  852SOL     OW 3454   2.837   5.024   5.204
  852SOL    HW1 3455   2.817   5.100   5.142
  852SOL    HW2 3456   2.786   4.943   5.175
  853SOL     OW 3457   0.643   4.449   0.550
  853SOL    HW1 3458   0.646   4.528   0.488
  853SOL    HW2 3459   0.736   4.417   0.568
  854SOL     OW 3460   5.989   4.958   1.167
  854SOL    HW1 3461   5.924   5.023   1.207
  854SOL    HW2 3462   6.082   4.988   1.186
  855SOL     OW 3463   4.900   0.237   0.728
  855SOL    HW1 3464   4.972   0.262   0.664
  855SOL    HW2 3465   4.833   0.312   0.732
  856SOL     OW 3466   1.382   0.169   4.597
  856SOL    HW1 3467   1.433   0.087   4.625
  856SOL    HW2 3468   1.445   0.246   4.590
  857SOL     OW 3469   5.492   4.119   1.470
  857SOL    HW1 3470   5.494   4.175   1.387
  857SOL    HW2 3471   5.409   4.064   1.470
  858SOL     OW 3472   3.599   4.005   2.664
  858SOL    HW1 3473   3.523   4.050   2.618
  858SOL    HW2 3474   3.565   3.939   2.730
  859SOL     OW 3475   0.385   4.478   0.307
  859SOL    HW1 3476   0.407   4.461   0.403
  859SOL    HW2 3477   0.467   4.510   0.260
  860SOL     OW 3478   1.639   3.697   6.484
  860SOL    HW1 3479   1.718   3.668   6.539
  860SOL    HW2 3480   1.602   3.618   6.435
  861SOL     OW 3481   4.112   4.720   6.407
  861SOL    HW1 3482   4.117   4.726   6.307
  861SOL    HW2 3483   4.164   4.640   6.438
  862SOL     OW 3484   4.816   4.220   3.769
  862SOL    HW1 3485   4.816   4.152   3.842
  862SOL    HW2 3486   4.828   4.312   3.808
  863SOL     OW 3487   5.916   2.744   1.785
  863SOL    HW1 3488   5.881   2.659   1.745
  863SOL    HW2 3489   5.869   2.822   1.745
  864SOL     OW 3490   0.328   5.903   2.250
  864SOL    HW1 3491   0.292   5.818   2.213
  864SOL    HW2 3492   0.284   5.981   2.205
  865SOL     OW 3493   2.017   0.870   3.790
  865SOL    HW1 3494   2.011   0.944   3.857
  865SOL    HW2 3495   2.072   0.900   3.712
  866SOL     OW 3496   4.372   0.990   1.568
  866SOL    HW1 3497   4.306   1.065   1.574
  866SOL    HW2 3498   4.327   0.909   1.530
  867SOL     OW 3499   2.616   1.818   6.199
  867SOL    HW1 3500   2.595   1.777   6.288
  867SOL    HW2 3501   2.612   1.748   6.128
  868SOL     OW 3502   5.344   2.008   3.616
  868SOL    HW1 3503   5.342   1.960   3.528
  868SOL    HW2 3504   5.281   1.965   3.680
  869SOL     OW 3505   6.631   3.682   1.026
  869SOL    HW1 3506   6.553   3.709   1.082
  869SOL    HW2 3507   6.639   3.744   0.948
  870SOL     OW 3508   6.195   1.589   0.554
  870SOL    HW1 3509   6.145   1.526   0.613
  870SOL    HW2 3510   6.277   1.544   0.519
  871SOL     OW 3511   6.923   4.499   0.698
  871SOL    HW1 3512   6.918   4.483   0.797
  871SOL    HW2 3513   7.010   4.462   0.664
  872SOL     OW 3514   6.952   2.041   1.834
  872SOL    HW1 3515   7.002   2.118   1.873
  872SOL    HW2 3516   6.914   2.067   1.745
  873SOL     OW 3517   3.877   6.827   4.602
  873SOL    HW1 3518   3.902   6.848   4.507
  873SOL    HW2 3519   3.850   6.911   4.648
  874SOL     OW 3520   0.962   4.103   6.602
  874SOL    HW1 3521   0.904   4.178   6.570
  874SOL    HW2 3522   1.051   4.109   6.556
  875SOL     OW 3523   6.274   5.932   6.507
  875SOL    HW1 3524   6.259   5.902   6.413
  875SOL    HW2 3525   6.318   6.022   6.507
  876SOL     OW 3526   2.849   2.048   1.543
  876SOL    HW1 3527   2.789   2.112   1.493
  876SOL    HW2 3528   2.792   1.985   1.597
  877SOL     OW 3529   5.586   5.813   6.228
  877SOL    HW1 3530   5.639   5.875   6.286
  877SOL    HW2 3531   5.567   5.729   6.278
  878SOL     OW 3532   3.973   3.125   1.028
  878SOL    HW1 3533   3.993   3.198   1.094
  878SOL    HW2 3534   3.985   3.036   1.071
  879SOL     OW 3535   5.208   3.071   3.941
  879SOL    HW1 3536   5.164   3.100   3.855
  879SOL    HW2 3537   5.303   3.048   3.924
  880SOL     OW 3538   4.119   6.118   1.721
  880SOL    HW1 3539   4.083   6.101   1.813
  880SOL    HW2 3540   4.207   6.165   1.729
  881SOL     OW 3541   5.381   5.336   3.204
  881SOL    HW1 3542   5.438   5.365   3.281
  881SOL    HW2 3543   5.418   5.253   3.164
  882SOL     OW 3544   0.919   2.100   4.946
  882SOL    HW1 3545   0.873   2.012   4.953
  882SOL    HW2 3546   0.866   2.170   4.994
  883SOL     OW 3547   2.943   4.768   0.118
  883SOL    HW1 3548   2.901   4.724   0.040
  883SOL    HW2 3549   2.873   4.818   0.170
  884SOL     OW 3550   3.847   4.363   1.599
  884SOL    HW1 3551   3.787   4.364   1.679
  884SOL    HW2 3552   3.806   4.306   1.528
  885SOL     OW 3553   4.442   6.034   5.883
  885SOL    HW1 3554   4.381   5.998   5.955
  885SOL    HW2 3555   4.457   5.963   5.814
  886SOL     OW 3556   4.041   2.210   6.207
  886SOL    HW1 3557   3.972   2.172   6.146
  886SOL    HW2 3558   4.009   2.296   6.246
  887SOL     OW 3559   6.289   6.082   4.772
  887SOL    HW1 3560   6.318   6.110   4.681
  887SOL    HW2 3561   6.361   6.104   4.838
  888SOL     OW 3562   6.286   1.055   3.366
  888SOL    HW1 3563   6.360   1.082   3.427
  888SOL    HW2 3564   6.241   1.137   3.329
  889SOL     OW 3565   0.456   0.459   4.940
  889SOL    HW1 3566   0.549   0.427   4.921
  889SOL    HW2 3567   0.392   0.419   4.874
  890SOL     OW 3568   1.939   3.389   1.150
  890SOL    HW1 3569   1.935   3.376   1.249
  890SOL    HW2 3570   2.029   3.426   1.125
  891SOL     OW 3571   6.241   3.560   5.949
  891SOL    HW1 3572   6.215   3.656   5.945
  891SOL    HW2 3573   6.190   3.508   5.881
  892SOL     OW 3574   2.141   4.549   1.789
  892SOL    HW1 3575   2.121   4.591   1.877
  892SOL    HW2 3576   2.121   4.451   1.794
  893SOL     OW 3577   1.965   0.047   2.283
  893SOL    HW1 3578   1.966   6.992   2.350
  893SOL    HW2 3579   1.874   0.088   2.280
  894SOL     OW 3580   1.402   5.469   4.381
  894SOL    HW1 3581   1.489   5.438   4.419
  894SOL    HW2 3582   1.418   5.515   4.294
  895SOL     OW 3583   2.626   0.880   4.767
  895SOL    HW1 3584   2.591   0.937   4.693
  895SOL    HW2 3585   2.721   0.904   4.786
  896SOL     OW 3586   4.575   0.097   3.091
  896SOL    HW1 3587   4.630   0.090   3.008
  896SOL    HW2 3588   4.547   0.193   3.104
  897SOL     OW 3589   5.949   0.962   6.092
  897SOL    HW1 3590   5.922   0.868   6.072
  897SOL    HW2 3591   5.952   0.975   6.191
  898SOL     OW 3592   5.252   6.438   3.573
  898SOL    HW1 3593   5.257   6.351   3.622
  898SOL    HW2 3594   5.161   6.448   3.532
  899SOL     OW 3595   1.297   5.072   0.278
  899SOL    HW1 3596   1.323   5.087   0.374
  899SOL    HW2 3597   1.290   5.160   0.231
  900SOL     OW 3598   0.636   5.079   3.208
  900SOL    HW1 3599   0.615   5.068   3.111
  900SOL    HW2 3600   0.554   5.109   3.257
  901SOL     OW 3601   6.409   1.739   3.374
  901SOL    HW1 3602   6.326   1.726   3.319
  901SOL    HW2 3603   6.389   1.800   3.451
  902SOL     OW 3604   1.494   5.980   0.136
  902SOL    HW1 3605   1.451   6.068   0.157
  902SOL    HW2 3606   1.436   5.930   0.071
  903SOL     OW 3607   1.178   4.800   6.351
  903SOL    HW1 3608   1.154   4.734   6.422
  903SOL    HW2 3609   1.097   4.854   6.326
  904SOL     OW 3610   2.055   1.805   4.021
  904SOL    HW1 3611   2.052   1.779   4.118
  904SOL    HW2 3612   2.068   1.904   4.014
  905SOL     OW 3613   5.916   3.438   3.865
  905SOL    HW1 3614   6.000   3.483   3.833
  905SOL    HW2 3615   5.887   3.371   3.798
  906SOL     OW 3616   6.290   3.363   5.521
  906SOL    HW1 3617   6.248   3.294   5.462
  906SOL    HW2 3618   6.302   3.448   5.470
  907SOL     OW 3619   6.896   3.720   2.492
  907SOL    HW1 3620   6.877   3.631   2.451
  907SOL    HW2 3621   6.810   3.766   2.513
  908SOL     OW 3622   2.803   1.347   3.849
  908SOL    HW1 3623   2.737   1.277   3.878
  908SOL    HW2 3624   2.845   1.388   3.929
  909SOL     OW 3625   3.928   6.948   2.086
  909SOL    HW1 3626   3.956   6.956   1.990
  909SOL    HW2 3627   3.839   6.993   2.098
  910SOL     OW 3628   1.280   0.745   1.843
  910SOL    HW1 3629   1.272   0.796   1.929
  910SOL    HW2 3630   1.371   0.761   1.804
  911SOL     OW 3631   0.973   2.851   0.760
  911SOL    HW1 3632   0.930   2.912   0.693
  911SOL    HW2 3633   0.945   2.879   0.852
  912SOL     OW 3634   1.785   1.218   0.296
  912SOL    HW1 3635   1.691   1.247   0.279
  912SOL    HW2 3636   1.786   1.123   0.328
  913SOL     OW 3637   2.080   1.880   2.163
  913SOL    HW1 3638   2.159   1.870   2.102
  913SOL    HW2 3639   1.997   1.892   2.109
  914SOL     OW 3640   2.737   4.737   2.327
  914SOL    HW1 3641   2.667   4.786   2.275
  914SOL    HW2 3642   2.821   4.732   2.272
  915SOL     OW 3643   2.691   2.156   0.739
  915SOL    HW1 3644   2.741   2.226   0.789
  915SOL    HW2 3645   2.742   2.070   0.743
  916SOL     OW 3646   0.922   3.589   1.995
  916SOL    HW1 3647   0.885   3.609   1.904
  916SOL    HW2 3648   0.934   3.490   2.004
  917SOL     OW 3649   3.667   0.652   6.141
  917SOL    HW1 3650   3.628   0.629   6.051
  917SOL    HW2 3651   3.680   0.568   6.194
  918SOL     OW 3652   6.931   2.463   4.919
  918SOL    HW1 3653   6.852   2.412   4.883
  918SOL    HW2 3654   7.014   2.433   4.872
  919SOL     OW 3655   1.096   1.094   1.081
  919SOL    HW1 3656   1.153   1.027   1.127
  919SOL    HW2 3657   1.003   1.088   1.116
  920SOL     OW 3658   1.351   1.961   2.243
  920SOL    HW1 3659   1.317   1.891   2.180
  920SOL    HW2 3660   1.379   2.042   2.191
  921SOL     OW 3661   4.243   4.408   0.676
  921SOL    HW1 3662   4.178   4.461   0.622
  921SOL    HW2 3663   4.335   4.445   0.663
  922SOL     OW 3664   2.340   5.655   6.963
  922SOL    HW1 3665   2.370   5.562   6.941
  922SOL    HW2 3666   2.241   5.657   6.977
  923SOL     OW 3667   3.954   1.211   0.050
  923SOL    HW1 3668   3.861   1.218   0.016
  923SOL    HW2 3669   3.966   1.272   0.129
  924SOL     OW 3670   5.866   4.747   1.967
  924SOL    HW1 3671   5.889   4.721   2.061
  924SOL    HW2 3672   5.775   4.712   1.944
  925SOL     OW 3673   5.882   2.321   2.011
  925SOL    HW1 3674   5.963   2.378   2.025
  925SOL    HW2 3675   5.891   2.273   1.924
  926SOL     OW 3676   4.267   5.650   1.532
  926SOL    HW1 3677   4.250   5.571   1.591
  926SOL    HW2 3678   4.195   5.718   1.546
  927SOL     OW 3679   4.736   5.401   5.127
  927SOL    HW1 3680   4.808   5.455   5.082
  927SOL    HW2 3681   4.718   5.318   5.073
  928SOL     OW 3682   0.282   1.674   1.580
  928SOL    HW1 3683   0.373   1.715   1.589
  928SOL    HW2 3684   0.220   1.714   1.647
  929SOL     OW 3685   0.336   2.755   2.188
  929SOL    HW1 3686   0.424   2.718   2.220
  929SOL    HW2 3687   0.268   2.682   2.187
  930SOL     OW 3688   5.924   5.068   2.227
  930SOL    HW1 3689   5.842   5.011   2.234
  930SOL    HW2 3690   6.005   5.015   2.253
  931SOL     OW 3691   0.841   2.572   1.617
  931SOL    HW1 3692   0.755   2.611   1.583
  931SOL    HW2 3693   0.908   2.571   1.543
  932SOL     OW 3694   4.572   6.069   1.123
  932SOL    HW1 3695   4.511   6.042   1.197
  932SOL    HW2 3696   4.649   6.122   1.161
  933SOL     OW 3697   1.025   6.346   3.491
  933SOL    HW1 3698   1.095   6.408   3.455
  933SOL    HW2 3699   0.940   6.359   3.440
  934SOL     OW 3700   3.779   1.868   5.234
  934SOL    HW1 3701   3.731   1.781   5.240
  934SOL    HW2 3702   3.722   1.934   5.184
  935SOL     OW 3703   0.982   3.504   4.408
  935SOL    HW1 3704   0.910   3.557   4.363
  935SOL    HW2 3705   1.037   3.564   4.465
  936SOL     OW 3706   1.000   1.363   1.629
  936SOL    HW1 3707   0.940   1.325   1.700
  936SOL    HW2 3708   0.977   1.459   1.615
  937SOL     OW 3709   4.832   2.071   3.212
  937SOL    HW1 3710   4.851   2.100   3.118
  937SOL    HW2 3711   4.910   2.019   3.247
  938SOL     OW 3712   0.735   0.776   6.313
  938SOL    HW1 3713   0.739   0.687   6.268
  938SOL    HW2 3714   0.707   0.763   6.409
  939SOL     OW 3715   6.266   0.857   4.668
  939SOL    HW1 3716   6.359   0.893   4.663
  939SOL    HW2 3717   6.269   0.760   4.694
  940SOL     OW 3718   6.001   0.045   3.490
  940SOL    HW1 3719   5.907   0.060   3.459
  940SOL    HW2 3720   6.005   6.978   3.540
  941SOL     OW 3721   5.638   3.058   5.383
  941SOL    HW1 3722   5.590   2.972   5.364
  941SOL    HW2 3723   5.736   3.040   5.391
  942SOL     OW 3724   4.254   6.714   5.300
  942SOL    HW1 3725   4.241   6.639   5.234
  942SOL    HW2 3726   4.351   6.731   5.313
  943SOL     OW 3727   5.270   2.400   0.200
  943SOL    HW1 3728   5.279   2.313   0.249
  943SOL    HW2 3729   5.208   2.389   0.123
  944SOL     OW 3730   4.935   4.629   4.229
  944SOL    HW1 3731   4.998   4.638   4.306
  944SOL    HW2 3732   4.915   4.532   4.213
  945SOL     OW 3733   5.568   2.790   6.634
  945SOL    HW1 3734   5.477   2.818   6.665
  945SOL    HW2 3735   5.569   2.690   6.622
  946SOL     OW 3736   6.314   3.539   6.345
  946SOL    HW1 3737   6.291   3.462   6.286
  946SOL    HW2 3738   6.248   3.545   6.419
  947SOL     OW 3739   1.192   2.664   5.933
  947SOL    HW1 3740   1.291   2.669   5.924
  947SOL    HW2 3741   1.169   2.629   6.024
  948SOL     OW 3742   3.634   2.071   0.513
  948SOL    HW1 3743   3.554   2.124   0.540
  948SOL    HW2 3744   3.627   2.046   0.416
  949SOL     OW 3745   5.287   5.517   6.213
  949SOL    HW1 3746   5.329   5.486   6.127
  949SOL    HW2 3747   5.351   5.575   6.263
  950SOL     OW 3748   3.320   5.326   0.731
  950SOL    HW1 3749   3.419   5.311   0.741
  950SOL    HW2 3750   3.279   5.247   0.686
  951SOL     OW 3751   1.408   2.876   3.912
  951SOL    HW1 3752   1.443   2.969   3.913
  951SOL    HW2 3753   1.474   2.815   3.956
  952SOL     OW 3754   4.813   0.958   1.336
  952SOL    HW1 3755   4.827   0.996   1.427
  952SOL    HW2 3756   4.881   0.887   1.318
  953SOL     OW 3757   4.020   6.627   5.815
  953SOL    HW1 3758   3.978   6.663   5.898
  953SOL    HW2 3759   4.087   6.693   5.781
  954SOL     OW 3760   6.505   6.708   1.160
  954SOL    HW1 3761   6.406   6.695   1.157
  954SOL    HW2 3762   6.538   6.700   1.254
  955SOL     OW 3763   1.252   5.838   3.261
  955SOL    HW1 3764   1.174   5.799   3.310
  955SOL    HW2 3765   1.219   5.888   3.181
  956SOL     OW 3766   1.860   2.909   0.843
  956SOL    HW1 3767   1.876   2.811   0.846
  956SOL    HW2 3768   1.765   2.927   0.816
  957SOL     OW 3769   2.005   6.153   4.410
  957SOL    HW1 3770   1.993   6.129   4.506
  957SOL    HW2 3771   1.917   6.175   4.369
  958SOL     OW 3772   4.439   2.765   6.780
  958SOL    HW1 3773   4.451   2.822   6.861
  958SOL    HW2 3774   4.463   2.670   6.802
  959SOL     OW 3775   1.485   3.923   0.912
  959SOL    HW1 3776   1.432   3.972   0.981
  959SOL    HW2 3777   1.516   3.987   0.842
  960SOL     OW 3778   1.697   3.766   6.022
  960SOL    HW1 3779   1.640   3.817   6.087
  960SOL    HW2 3780   1.793   3.784   6.040
  961SOL     OW 3781   3.364   6.621   6.509
  961SOL    HW1 3782   3.444   6.643   6.453
  961SOL    HW2 3783   3.379   6.533   6.554
  962SOL     OW 3784   1.007   0.417   3.312
  962SOL    HW1 3785   1.031   0.512   3.289
  962SOL    HW2 3786   1.085   0.358   3.294
  963SOL     OW 3787   5.585   0.373   2.342
  963SOL    HW1 3788   5.681   0.355   2.322
  963SOL    HW2 3789   5.558   0.461   2.304
  964SOL     OW 3790   5.874   4.078   1.384
  964SOL    HW1 3791   5.838   4.163   1.424
  964SOL    HW2 3792   5.809   4.045   1.315
  965SOL     OW 3793   2.121   1.500   0.526
  965SOL    HW1 3794   2.193   1.457   0.472
  965SOL    HW2 3795   2.078   1.573   0.473
  966SOL     OW 3796   5.980   3.046   1.788
  966SOL    HW1 3797   6.040   3.117   1.751
  966SOL    HW2 3798   6.017   3.012   1.874
  967SOL     OW 3799   1.204   5.143   2.899
  967SOL    HW1 3800   1.249   5.141   2.810
  967SOL    HW2 3801   1.107   5.164   2.887
  968SOL     OW 3802   0.418   4.213   0.400
  968SOL    HW1 3803   0.423   4.283   0.330
  968SOL    HW2 3804   0.500   4.157   0.398
  969SOL     OW 3805   3.893   6.611   6.470
  969SOL    HW1 3806   3.947   6.627   6.387
  969SOL    HW2 3807   3.954   6.607   6.549
  970SOL     OW 3808   4.966   3.425   6.320
  970SOL    HW1 3809   4.973   3.427   6.220
  970SOL    HW2 3810   4.941   3.515   6.354
  971SOL     OW 3811   6.975   2.500   6.655
  971SOL    HW1 3812   0.010   2.467   6.732
  971SOL    HW2 3813   0.004   2.576   6.610
  972SOL     OW 3814   4.744   6.900   6.669
  972SOL    HW1 3815   4.710   6.969   6.734
  972SOL    HW2 3816   4.715   6.809   6.699
  973SOL     OW 3817   6.303   3.206   5.932
  973SOL    HW1 3818   6.354   3.179   6.014
  973SOL    HW2 3819   6.363   3.198   5.852
  974SOL     OW 3820   2.020   0.237   4.665
  974SOL    HW1 3821   2.010   0.155   4.609
  974SOL    HW2 3822   1.931   0.280   4.679
  975SOL     OW 3823   2.993   0.245   4.767
  975SOL    HW1 3824   3.083   0.202   4.759
  975SOL    HW2 3825   2.953   0.259   4.676
  976SOL     OW 3826   0.275   5.006   4.102
  976SOL    HW1 3827   0.202   4.996   4.169
  976SOL    HW2 3828   0.300   5.102   4.094
  977SOL     OW 3829   1.463   2.189   2.100
  977SOL    HW1 3830   1.435   2.258   2.167
  977SOL    HW2 3831   1.554   2.155   2.124
  978SOL     OW 3832   5.985   3.084   4.266
  978SOL    HW1 3833   5.991   3.058   4.170
  978SOL    HW2 3834   5.934   3.015   4.316
  979SOL     OW 3835   6.345   1.812   2.926
  979SOL    HW1 3836   6.342   1.878   3.001
  979SOL    HW2 3837   6.424   1.753   2.935
  980SOL     OW 3838   6.644   0.069   5.537
  980SOL    HW1 3839   6.654   0.135   5.611
  980SOL    HW2 3840   6.648   6.995   5.574
  981SOL     OW 3841   6.613   3.280   6.791
  981SOL    HW1 3842   6.595   3.377   6.778
  981SOL    HW2 3843   6.526   3.230   6.795
  982SOL     OW 3844   1.780   4.595   0.475
  982SOL    HW1 3845   1.846   4.626   0.545
  982SOL    HW2 3846   1.690   4.635   0.494
  983SOL     OW 3847   5.256   1.147   3.483
  983SOL    HW1 3848   5.282   1.217   3.416
  983SOL    HW2 3849   5.268   1.056   3.443
  984SOL     OW 3850   4.827   3.096   5.004
  984SOL    HW1 3851   4.793   3.037   4.931
  984SOL    HW2 3852   4.857   3.183   4.966
  985SOL     OW 3853   1.874   4.091   0.412
  985SOL    HW1 3854   1.968   4.106   0.384
  985SOL    HW2 3855   1.858   3.994   0.429
  986SOL     OW 3856   4.917   4.123   5.374
  986SOL    HW1 3857   4.981   4.079   5.310
  986SOL    HW2 3858   4.895   4.215   5.341
  987SOL     OW 3859   3.128   0.820   2.828
  987SOL    HW1 3860   3.110   0.871   2.912
  987SOL    HW2 3861   3.216   0.772   2.837
  988SOL     OW 3862   3.792   2.861   1.451
  988SOL    HW1 3863   3.780   2.846   1.353
  988SOL    HW2 3864   3.808   2.774   1.497
  989SOL     OW 3865   0.555   1.291   4.312
  989SOL    HW1 3866   0.630   1.253   4.365
  989SOL    HW2 3867   0.517   1.220   4.251
  990SOL     OW 3868   5.061   6.685   2.250
  990SOL    HW1 3869   5.058   6.771   2.200
  990SOL    HW2 3870   5.128   6.624   2.208
  991SOL     OW 3871   5.975   1.659   5.425
  991SOL    HW1 3872   5.958   1.616   5.514
  991SOL    HW2 3873   6.054   1.721   5.433
  992SOL     OW 3874   0.111   2.730   1.085
  992SOL    HW1 3875   0.039   2.661   1.078
  992SOL    HW2 3876   0.131   2.747   1.182
  993SOL     OW 3877   4.265   7.011   4.693
  993SOL    HW1 3878   4.236   0.079   4.652
  993SOL    HW2 3879   4.241   7.010   4.790
  994SOL     OW 3880   3.122   3.746   3.363
  994SOL    HW1 3881   3.087   3.686   3.435
  994SOL    HW2 3882   3.130   3.839   3.399
  995SOL     OW 3883   0.451   1.999   5.184
  995SOL    HW1 3884   0.404   2.085   5.203
  995SOL    HW2 3885   0.463   1.947   5.269
  996SOL     OW 3886   1.051   3.569   6.996
  996SOL    HW1 3887   1.071   3.648   6.939
  996SOL    HW2 3888   0.966   3.525   6.964
  997SOL     OW 3889   6.444   1.509   0.492
  997SOL    HW1 3890   6.494   1.587   0.531
  997SOL    HW2 3891   6.461   1.428   0.548
  998SOL     OW 3892   5.005   0.097   3.129
  998SOL    HW1 3893   4.944   0.173   3.107
  998SOL    HW2 3894   5.050   0.115   3.217
  999SOL     OW 3895   6.692   5.319   0.609
  999SOL    HW1 3896   6.752   5.323   0.689
  999SOL    HW2 3897   6.659   5.226   0.597
 1000SOL     OW 3898   4.298   1.950   4.915
 1000SOL    HW1 3899   4.215   1.988   4.956
 1000SOL    HW2 3900   4.336   1.881   4.977
 1001SOL     OW 3901   4.713   0.968   5.017
 1001SOL    HW1 3902   4.761   1.048   4.982
 1001SOL    HW2 3903   4.645   0.939   4.950
 1002SOL     OW 3904   0.692   1.169   0.286
 1002SOL    HW1 3905   0.606   1.211   0.318
 1002SOL    HW2 3906   0.695   1.074   0.316
 1003SOL     OW 3907   4.149   5.200   2.847
 1003SOL    HW1 3908   4.167   5.281   2.790
 1003SOL    HW2 3909   4.113   5.126   2.790
 1004SOL     OW 3910   5.973   5.891   0.176
 1004SOL    HW1 3911   5.901   5.831   0.141
 1004SOL    HW2 3912   6.057   5.838   0.189
 1005SOL     OW 3913   5.926   6.441   3.170
 1005SOL    HW1 3914   6.021   6.416   3.186
 1005SOL    HW2 3915   5.922   6.527   3.118
 1006SOL     OW 3916   1.715   5.009   0.155
 1006SOL    HW1 3917   1.781   5.034   0.226
 1006SOL    HW2 3918   1.630   4.978   0.197
 1007SOL     OW 3919   6.126   1.658   2.861
 1007SOL    HW1 3920   6.190   1.596   2.815
 1007SOL    HW2 3921   6.177   1.734   2.902
 1008SOL     OW 3922   3.157   1.957   4.988
 1008SOL    HW1 3923   3.206   1.955   4.901
 1008SOL    HW2 3924   3.147   2.051   5.018
 1009SOL     OW 3925   3.218   6.272   6.040
 1009SOL    HW1 3926   3.159   6.214   5.984
 1009SOL    HW2 3927   3.186   6.272   6.134
 1010SOL     OW 3928   5.160   6.783   5.389
 1010SOL    HW1 3929   5.062   6.762   5.393
 1010SOL    HW2 3930   5.202   6.727   5.317
 1011SOL     OW 3931   2.701   5.380   4.457
 1011SOL    HW1 3932   2.704   5.468   4.409
 1011SOL    HW2 3933   2.653   5.313   4.400
 1012SOL     OW 3934   3.715   6.676   1.214
 1012SOL    HW1 3935   3.757   6.590   1.187
 1012SOL    HW2 3936   3.779   6.752   1.197
 1013SOL     OW 3937   0.540   0.344   6.935
 1013SOL    HW1 3938   0.506   0.270   6.992
 1013SOL    HW2 3939   0.582   0.307   6.853
 1014SOL     OW 3940   6.112   6.886   5.864
 1014SOL    HW1 3941   6.151   6.951   5.798
 1014SOL    HW2 3942   6.134   6.915   5.957
 1015SOL     OW 3943   2.590   0.711   5.069
 1015SOL    HW1 3944   2.516   0.766   5.030
 1015SOL    HW2 3945   2.661   0.697   5.000
 1016SOL     OW 3946   4.662   2.914   1.339
 1016SOL    HW1 3947   4.714   2.853   1.399
 1016SOL    HW2 3948   4.576   2.938   1.383
 1017SOL     OW 3949   4.484   6.764   6.029
 1017SOL    HW1 3950   4.460   6.858   6.002
 1017SOL    HW2 3951   4.460   6.749   6.125
 1018SOL     OW 3952   1.527   1.962   1.736
 1018SOL    HW1 3953   1.505   2.056   1.761
 1018SOL    HW2 3954   1.452   1.924   1.681
 1019SOL     OW 3955   5.531   1.074   0.704
 1019SOL    HW1 3956   5.498   1.047   0.795
 1019SOL    HW2 3957   5.611   1.019   0.681
 1020SOL     OW 3958   3.703   2.006   1.818
 1020SOL    HW1 3959   3.715   2.051   1.906
 1020SOL    HW2 3960   3.632   2.053   1.766
 1021SOL     OW 3961   0.056   1.765   1.257
 1021SOL    HW1 3962   0.032   1.784   1.161
 1021SOL    HW2 3963   0.147   1.725   1.261
 1022SOL     OW 3964   3.503   3.044   0.166
 1022SOL    HW1 3965   3.544   2.959   0.200
 1022SOL    HW2 3966   3.405   3.042   0.182
 1023SOL     OW 3967   6.580   0.657   4.417
 1023SOL    HW1 3968   6.507   0.720   4.388
 1023SOL    HW2 3969   6.563   0.628   4.511
 1024SOL     OW 3970   6.214   2.338   3.648
 1024SOL    HW1 3971   6.134   2.321   3.706
 1024SOL    HW2 3972   6.186   2.392   3.568
 1025SOL     OW 3973   2.630   4.231   1.497
 1025SOL    HW1 3974   2.604   4.235   1.401
 1025SOL    HW2 3975   2.564   4.283   1.551
 1026SOL     OW 3976   0.788   2.413   6.261
 1026SOL    HW1 3977   0.884   2.430   6.284
 1026SOL    HW2 3978   0.750   2.344   6.323
 1027SOL     OW 3979   2.147   4.927   1.072
 1027SOL    HW1 3980   2.200   4.861   1.020
 1027SOL    HW2 3981   2.061   4.885   1.102
 1028SOL     OW 3982   0.644   5.351   6.670
 1028SOL    HW1 3983   0.610   5.313   6.757
 1028SOL    HW2 3984   0.599   5.304   6.594
 1029SOL     OW 3985   3.733   0.514   4.797
 1029SOL    HW1 3986   3.772   0.598   4.760
 1029SOL    HW2 3987   3.635   0.526   4.813
 1030SOL     OW 3988   4.289   5.181   5.010
 1030SOL    HW1 3989   4.321   5.088   4.993
 1030SOL    HW2 3990   4.345   5.246   4.958
 1031SOL     OW 3991   2.529   6.063   1.035
 1031SOL    HW1 3992   2.456   6.010   0.990
 1031SOL    HW2 3993   2.569   6.008   1.108
 1032SOL     OW 3994   0.861   1.861   5.271
 1032SOL    HW1 3995   0.883   1.917   5.192
 1032SOL    HW2 3996   0.835   1.769   5.241
 1033SOL     OW 3997   2.998   7.018   1.692
 1033SOL    HW1 3998   2.988   6.927   1.732
 1033SOL    HW2 3999   3.002   7.011   1.592
 1034SOL     OW 4000   6.996   6.594   2.090
 1034SOL    HW1 4001   6.909   6.592   2.139
 1034SOL    HW2 4002   0.052   6.601   2.156
 1035SOL     OW 4003   3.420   2.104   3.140
 1035SOL    HW1 4004   3.373   2.096   3.053
 1035SOL    HW2 4005   3.518   2.085   3.127
 1036SOL     OW 4006   4.669   6.621   6.674
 1036SOL    HW1 4007   4.607   6.568   6.732
 1036SOL    HW2 4008   4.712   6.561   6.607
 1037SOL     OW 4009   4.171   1.174   6.337
 1037SOL    HW1 4010   4.117   1.123   6.270
 1037SOL    HW2 4011   4.215   1.252   6.292
 1038SOL     OW 4012   2.678   1.913   5.368
 1038SOL    HW1 4013   2.746   1.890   5.437
 1038SOL    HW2 4014   2.639   2.003   5.388
 1039SOL     OW 4015   5.199   1.782   2.630
 1039SOL    HW1 4016   5.117   1.839   2.632
 1039SOL    HW2 4017   5.215   1.742   2.720
 1040SOL     OW 4018   6.088   4.285   4.405
 1040SOL    HW1 4019   6.120   4.351   4.337
 1040SOL    HW2 4020   6.127   4.307   4.494
 1041SOL     OW 4021   1.667   6.704   4.468
 1041SOL    HW1 4022   1.705   6.728   4.379
 1041SOL    HW2 4023   1.731   6.646   4.518
 1042SOL     OW 4024   4.597   4.226   0.435
 1042SOL    HW1 4025   4.695   4.224   0.417
 1042SOL    HW2 4026   4.582   4.222   0.534
 1043SOL     OW 4027   4.091   0.244   6.526
 1043SOL    HW1 4028   4.124   0.207   6.613
 1043SOL    HW2 4029   4.144   0.203   6.451
 1044SOL     OW 4030   3.439   3.957   3.342
 1044SOL    HW1 4031   3.406   4.036   3.291
 1044SOL    HW2 4032   3.437   3.979   3.440
 1045SOL     OW 4033   2.780   0.977   2.878
 1045SOL    HW1 4034   2.692   1.002   2.918
 1045SOL    HW2 4035   2.822   1.059   2.838
 1046SOL     OW 4036   3.047   0.822   2.160
 1046SOL    HW1 4037   2.967   0.820   2.219
 1046SOL    HW2 4038   3.041   0.748   2.092
 1047SOL     OW 4039   6.756   6.537   1.775
 1047SOL    HW1 4040   6.724   6.518   1.682
 1047SOL    HW2 4041   6.827   6.471   1.800
 1048SOL     OW 4042   6.279   4.090   4.892
 1048SOL    HW1 4043   6.326   4.167   4.936
 1048SOL    HW2 4044   6.242   4.029   4.961
 1049SOL     OW 4045   0.797   3.848   5.548
 1049SOL    HW1 4046   0.885   3.803   5.534
 1049SOL    HW2 4047   0.742   3.794   5.612
 1050SOL     OW 4048   2.866   0.620   1.325
 1050SOL    HW1 4049   2.805   0.545   1.301
 1050SOL    HW2 4050   2.812   0.699   1.354
 1051SOL     OW 4051   4.540   4.429   1.472
 1051SOL    HW1 4052   4.587   4.384   1.548
 1051SOL    HW2 4053   4.445   4.399   1.469
 1052SOL     OW 4054   3.285   0.262   3.764
 1052SOL    HW1 4055   3.247   0.351   3.741
 1052SOL    HW2 4056   3.274   0.246   3.862
 1053SOL     OW 4057   3.823   5.239   3.678
 1053SOL    HW1 4058   3.769   5.217   3.759
 1053SOL    HW2 4059   3.762   5.259   3.601
 1054SOL     OW 4060   4.211   6.020   4.919
 1054SOL    HW1 4061   4.191   6.116   4.899
 1054SOL    HW2 4062   4.133   5.964   4.890
 1055SOL     OW 4063   4.148   4.761   4.508
 1055SOL    HW1 4064   4.242   4.787   4.532
 1055SOL    HW2 4065   4.148   4.713   4.421
 1056SOL     OW 4066   2.700   5.857   0.242
 1056SOL    HW1 4067   2.609   5.886   0.271
 1056SOL    HW2 4068   2.769   5.907   0.295
 1057SOL     OW 4069   3.516   3.995   1.592
 1057SOL    HW1 4070   3.458   3.927   1.549
 1057SOL    HW2 4071   3.542   3.964   1.684
 1058SOL     OW 4072   2.718   6.719   1.773
 1058SOL    HW1 4073   2.813   6.736   1.801
 1058SOL    HW2 4074   2.656   6.740   1.848
 1059SOL     OW 4075   4.378   0.454   0.759
 1059SOL    HW1 4076   4.440   0.461   0.837
 1059SOL    HW2 4077   4.285   0.480   0.788
 1060SOL     OW 4078   3.619   1.721   4.134
 1060SOL    HW1 4079   3.609   1.762   4.044
 1060SOL    HW2 4080   3.534   1.675   4.160
 1061SOL     OW 4081   2.421   5.821   0.905
 1061SOL    HW1 4082   2.336   5.794   0.950
 1061SOL    HW2 4083   2.493   5.755   0.926
 1062SOL     OW 4084   5.036   4.398   4.540
 1062SOL    HW1 4085   4.946   4.357   4.554
 1062SOL    HW2 4086   5.041   4.485   4.589
 1063SOL     OW 4087   3.660   2.093   5.821
 1063SOL    HW1 4088   3.614   2.180   5.842
 1063SOL    HW2 4089   3.640   2.066   5.727
 1064SOL     OW 4090   0.515   3.608   3.142
 1064SOL    HW1 4091   0.533   3.700   3.108
 1064SOL    HW2 4092   0.570   3.542   3.091
 1065SOL     OW 4093   4.461   4.941   6.616
 1065SOL    HW1 4094   4.383   4.882   6.638
 1065SOL    HW2 4095   4.450   5.029   6.663
 1066SOL     OW 4096   4.660   0.447   3.469
 1066SOL    HW1 4097   4.729   0.405   3.528
 1066SOL    HW2 4098   4.580   0.388   3.464
 1067SOL     OW 4099   3.191   3.984   0.168
 1067SOL    HW1 4100   3.146   4.069   0.139
 1067SOL    HW2 4101   3.266   3.963   0.106
 1068SOL     OW 4102   0.957   5.453   1.500
 1068SOL    HW1 4103   1.015   5.396   1.558
 1068SOL    HW2 4104   0.962   5.548   1.530
 1069SOL     OW 4105   3.404   3.238   2.902
 1069SOL    HW1 4106   3.393   3.331   2.935
 1069SOL    HW2 4107   3.375   3.174   2.973
 1070SOL     OW 4108   1.715   6.029   0.700
 1070SOL    HW1 4109   1.775   6.068   0.630
 1070SOL    HW2 4110   1.762   6.029   0.788
 1071SOL     OW 4111   5.108   6.089   3.492
 1071SOL    HW1 4112   5.127   6.107   3.396
 1071SOL    HW2 4113   5.175   6.137   3.549
 1072SOL     OW 4114   3.945   5.814   3.328
 1072SOL    HW1 4115   3.970   5.894   3.383
 1072SOL    HW2 4116   4.019   5.793   3.265
 1073SOL     OW 4117   2.742   5.419   3.518
 1073SOL    HW1 4118   2.734   5.434   3.419
 1073SOL    HW2 4119   2.838   5.429   3.545
 1074SOL     OW 4120   1.872   4.755   3.512
 1074SOL    HW1 4121   1.784   4.722   3.478
 1074SOL    HW2 4122   1.924   4.794   3.436
 1075SOL     OW 4123   0.524   4.223   2.484
 1075SOL    HW1 4124   0.622   4.215   2.503
 1075SOL    HW2 4125   0.498   4.154   2.417
 1076SOL     OW 4126   5.976   3.804   3.346
 1076SOL    HW1 4127   5.905   3.832   3.410
 1076SOL    HW2 4128   6.043   3.747   3.393
 1077SOL     OW 4129   4.427   0.473   1.827
 1077SOL    HW1 4130   4.350   0.419   1.793
 1077SOL    HW2 4131   4.396   0.564   1.851
 1078SOL     OW 4132   6.959   2.907   2.314
 1078SOL    HW1 4133   0.010   2.978   2.313
 1078SOL    HW2 4134   6.968   2.849   2.234
 1079SOL     OW 4135   1.303   4.606   3.137
 1079SOL    HW1 4136   1.322   4.703   3.144
 1079SOL    HW2 4137   1.266   4.572   3.224
 1080SOL     OW 4138   1.864   5.624   3.473
 1080SOL    HW1 4139   1.912   5.696   3.422
 1080SOL    HW2 4140   1.778   5.660   3.509
 1081SOL     OW 4141   1.707   0.385   0.087
 1081SOL    HW1 4142   1.734   0.310   0.027
 1081SOL    HW2 4143   1.623   0.426   0.053
 1082SOL     OW 4144   2.061   0.096   1.237
 1082SOL    HW1 4145   2.088   0.126   1.146
 1082SOL    HW2 4146   2.067   7.015   1.242
 1083SOL     OW 4147   3.680   2.862   1.863
 1083SOL    HW1 4148   3.772   2.901   1.873
 1083SOL    HW2 4149   3.613   2.921   1.907
 1084SOL     OW 4150   6.375   4.053   1.403
 1084SOL    HW1 4151   6.393   4.085   1.495
 1084SOL    HW2 4152   6.316   4.118   1.355
 1085SOL     OW 4153   1.450   5.551   4.109
 1085SOL    HW1 4154   1.445   5.517   4.015
 1085SOL    HW2 4155   1.441   5.651   4.109
 1086SOL     OW 4156   3.173   5.733   2.818
 1086SOL    HW1 4157   3.255   5.789   2.804
 1086SOL    HW2 4158   3.166   5.665   2.746
 1087SOL     OW 4159   3.912   2.930   5.269
 1087SOL    HW1 4160   3.837   2.891   5.214
 1087SOL    HW2 4161   3.985   2.863   5.279
 1088SOL     OW 4162   6.992   4.249   2.675
 1088SOL    HW1 4163   7.004   4.341   2.638
 1088SOL    HW2 4164   0.007   4.246   2.769
 1089SOL     OW 4165   6.526   0.016   3.132
 1089SOL    HW1 4166   6.438   0.039   3.174
 1089SOL    HW2 4167   6.557   6.946   3.166
 1090SOL     OW 4168   2.559   2.293   6.463
 1090SOL    HW1 4169   2.540   2.381   6.420
 1090SOL    HW2 4170   2.642   2.254   6.424
 1091SOL     OW 4171   1.430   2.181   6.108
 1091SOL    HW1 4172   1.411   2.122   6.029
 1091SOL    HW2 4173   1.375   2.264   6.102
 1092SOL     OW 4174   3.148   5.019   1.695
 1092SOL    HW1 4175   3.100   4.939   1.730
 1092SOL    HW2 4176   3.242   5.019   1.730
 1093SOL     OW 4177   0.595   2.579   1.522
 1093SOL    HW1 4178   0.558   2.543   1.608
 1093SOL    HW2 4179   0.633   2.503   1.469
 1094SOL     OW 4180   1.187   5.980   2.561
 1094SOL    HW1 4181   1.199   6.013   2.467
 1094SOL    HW2 4182   1.232   6.043   2.625
 1095SOL     OW 4183   0.854   3.255   6.236
 1095SOL    HW1 4184   0.780   3.238   6.301
 1095SOL    HW2 4185   0.941   3.257   6.284
 1096SOL     OW 4186   3.490   2.865   2.723
 1096SOL    HW1 4187   3.461   2.876   2.628
 1096SOL    HW2 4188   3.412   2.835   2.778
 1097SOL     OW 4189   2.846   5.097   5.691
 1097SOL    HW1 4190   2.839   5.197   5.700
 1097SOL    HW2 4191   2.754   5.057   5.695
 1098SOL     OW 4192   3.057   0.666   2.620
 1098SOL    HW1 4193   3.073   0.720   2.702
 1098SOL    HW2 4194   3.143   0.649   2.573
 1099SOL     OW 4195   3.131   0.370   2.244
 1099SOL    HW1 4196   3.162   0.381   2.338
 1099SOL    HW2 4197   3.211   0.362   2.183
 1100SOL     OW 4198   6.658   0.750   0.325
 1100SOL    HW1 4199   6.753   0.781   0.314
 1100SOL    HW2 4200   6.649   0.657   0.291
 1101SOL     OW 4201   5.638   3.475   1.021
 1101SOL    HW1 4202   5.691   3.410   1.075
 1101SOL    HW2 4203   5.565   3.427   0.972
 1102SOL     OW 4204   0.003   3.712   4.120
 1102SOL    HW1 4205   0.028   3.804   4.152
 1102SOL    HW2 4206   0.074   3.679   4.056
 1103SOL     OW 4207   0.373   2.839   0.246
 1103SOL    HW1 4208   0.424   2.799   0.171
 1103SOL    HW2 4209   0.381   2.939   0.242
 1104SOL     OW 4210   2.426   5.620   5.470
 1104SOL    HW1 4211   2.484   5.553   5.517
 1104SOL    HW2 4212   2.474   5.707   5.462
 1105SOL     OW 4213   4.234   5.784   0.670
 1105SOL    HW1 4214   4.324   5.829   0.672
 1105SOL    HW2 4215   4.162   5.853   0.671
 1106SOL     OW 4216   0.646   1.851   6.805
 1106SOL    HW1 4217   0.734   1.804   6.813
 1106SOL    HW2 4218   0.573   1.789   6.832
 1107SOL     OW 4219   6.485   0.007   1.403
 1107SOL    HW1 4220   6.424   0.069   1.453
 1107SOL    HW2 4221   6.435   6.943   1.379
 1108SOL     OW 4222   1.554   0.881   0.553
 1108SOL    HW1 4223   1.644   0.896   0.594
 1108SOL    HW2 4224   1.485   0.932   0.604
 1109SOL     OW 4225   4.223   1.201   3.708
 1109SOL    HW1 4226   4.125   1.217   3.699
 1109SOL    HW2 4227   4.257   1.155   3.626
 1110SOL     OW 4228   3.413   3.175   3.160
 1110SOL    HW1 4229   3.357   3.233   3.219
 1110SOL    HW2 4230   3.415   3.082   3.196
 1111SOL     OW 4231   4.046   6.580   6.735
 1111SOL    HW1 4232   4.135   6.556   6.698
 1111SOL    HW2 4233   4.057   6.649   6.806
 1112SOL     OW 4234   1.091   1.476   2.738
 1112SOL    HW1 4235   0.994   1.474   2.717
 1112SOL    HW2 4236   1.104   1.454   2.835
 1113SOL     OW 4237   6.587   3.632   1.549
 1113SOL    HW1 4238   6.546   3.545   1.574
 1113SOL    HW2 4239   6.532   3.676   1.477
 1114SOL     OW 4240   6.146   1.130   5.547
 1114SOL    HW1 4241   6.102   1.154   5.633
 1114SOL    HW2 4242   6.242   1.158   5.549
 1115SOL     OW 4243   2.119   5.137   0.601
 1115SOL    HW1 4244   2.036   5.156   0.653
 1115SOL    HW2 4245   2.109   5.173   0.509
 1116SOL     OW 4246   3.808   6.108   6.815
 1116SOL    HW1 4247   3.871   6.069   6.748
 1116SOL    HW2 4248   3.789   6.040   6.887
 1117SOL     OW 4249   2.562   2.911   0.865
 1117SOL    HW1 4250   2.603   2.916   0.774
 1117SOL    HW2 4251   2.570   2.999   0.910
 1118SOL     OW 4252   1.319   2.896   1.331
 1118SOL    HW1 4253   1.235   2.878   1.381
 1118SOL    HW2 4254   1.374   2.813   1.327
 1119SOL     OW 4255   3.082   3.960   3.802
 1119SOL    HW1 4256   3.024   3.879   3.788
 1119SOL    HW2 4257   3.177   3.937   3.779
 1120SOL     OW 4258   3.187   1.121   3.781
 1120SOL    HW1 4259   3.153   1.137   3.688
 1120SOL    HW2 4260   3.231   1.204   3.816
 1121SOL     OW 4261   4.831   4.066   3.048
 1121SOL    HW1 4262   4.922   4.048   3.086
 1121SOL    HW2 4263   4.778   3.982   3.046
 1122SOL     OW 4264   4.355   4.839   6.305
 1122SOL    HW1 4265   4.287   4.835   6.378
 1122SOL    HW2 4266   4.440   4.798   6.337
 1123SOL     OW 4267   3.657   0.759   2.234
 1123SOL    HW1 4268   3.618   0.792   2.321
 1123SOL    HW2 4269   3.718   0.828   2.197
 1124SOL     OW 4270   2.070   5.266   3.729
 1124SOL    HW1 4271   2.115   5.177   3.717
 1124SOL    HW2 4272   2.034   5.297   3.642
 1125SOL     OW 4273   3.228   4.042   5.453
 1125SOL    HW1 4274   3.132   4.066   5.438
 1125SOL    HW2 4275   3.245   4.034   5.551
 1126SOL     OW 4276   6.332   0.627   2.055
 1126SOL    HW1 4277   6.365   0.720   2.039
 1126SOL    HW2 4278   6.295   0.620   2.147
 1127SOL     OW 4279   1.974   5.520   6.216
 1127SOL    HW1 4280   1.909   5.460   6.263
 1127SOL    HW2 4281   1.956   5.517   6.117
 1128SOL     OW 4282   2.339   2.527   5.105
 1128SOL    HW1 4283   2.281   2.470   5.163
 1128SOL    HW2 4284   2.306   2.522   5.010
 1129SOL     OW 4285   4.179   5.751   6.357
 1129SOL    HW1 4286   4.158   5.663   6.315
 1129SOL    HW2 4287   4.277   5.757   6.374
 1130SOL     OW 4288   0.972   5.076   5.641
 1130SOL    HW1 4289   0.907   5.086   5.566
 1130SOL    HW2 4290   0.979   5.162   5.691
 1131SOL     OW 4291   0.099   4.773   6.163
 1131SOL    HW1 4292   0.078   4.675   6.173
 1131SOL    HW2 4293   0.077   4.802   6.070
 1132SOL     OW 4294   5.196   6.618   4.897
 1132SOL    HW1 4295   5.150   6.674   4.829
 1132SOL    HW2 4296   5.157   6.526   4.896
 1133SOL     OW 4297   6.884   2.118   6.691
 1133SOL    HW1 4298   6.806   2.145   6.747
 1133SOL    HW2 4299   6.893   2.182   6.614
 1134SOL     OW 4300   0.263   3.157   5.458
 1134SOL    HW1 4301   0.356   3.152   5.420
 1134SOL    HW2 4302   0.245   3.075   5.512
 1135SOL     OW 4303   0.149   1.611   4.410
 1135SOL    HW1 4304   0.192   1.547   4.475
 1135SOL    HW2 4305   0.099   1.560   4.341
 1136SOL     OW 4306   3.690   5.180   3.923
 1136SOL    HW1 4307   3.687   5.265   3.976
 1136SOL    HW2 4308   3.642   5.108   3.974
 1137SOL     OW 4309   0.757   0.639   6.940
 1137SOL    HW1 4310   0.791   0.546   6.924
 1137SOL    HW2 4311   0.657   0.636   6.946
 1138SOL     OW 4312   1.060   3.261   5.706
 1138SOL    HW1 4313   1.056   3.339   5.644
 1138SOL    HW2 4314   1.154   3.251   5.740
 1139SOL     OW 4315   0.515   0.430   2.319
 1139SOL    HW1 4316   0.551   0.359   2.380
 1139SOL    HW2 4317   0.489   0.510   2.372
 1140SOL     OW 4318   3.932   1.932   3.220
 1140SOL    HW1 4319   3.847   1.984   3.226
 1140SOL    HW2 4320   3.938   1.887   3.131
 1141SOL     OW 4321   0.164   6.330   5.931
 1141SOL    HW1 4322   0.168   6.281   5.844
 1141SOL    HW2 4323   0.094   6.401   5.926
 1142SOL     OW 4324   6.445   6.857   5.134
 1142SOL    HW1 4325   6.457   6.894   5.042
 1142SOL    HW2 4326   6.531   6.814   5.164
 1143SOL     OW 4327   5.356   2.936   1.190
 1143SOL    HW1 4328   5.440   2.934   1.245
 1143SOL    HW2 4329   5.282   2.891   1.240
 1144SOL     OW 4330   0.702   6.379   5.013
 1144SOL    HW1 4331   0.752   6.465   5.027
 1144SOL    HW2 4332   0.707   6.352   4.917
 1145SOL     OW 4333   2.093   5.179   4.832
 1145SOL    HW1 4334   2.145   5.128   4.900
 1145SOL    HW2 4335   2.154   5.238   4.780
 1146SOL     OW 4336   5.959   1.915   1.904
 1146SOL    HW1 4337   5.922   1.961   1.984
 1146SOL    HW2 4338   6.046   1.871   1.928
 1147SOL     OW 4339   6.537   3.822   2.054
 1147SOL    HW1 4340   6.529   3.920   2.033
 1147SOL    HW2 4341   6.497   3.804   2.143
 1148SOL     OW 4342   6.341   0.536   6.337
 1148SOL    HW1 4343   6.404   0.537   6.259
 1148SOL    HW2 4344   6.293   0.448   6.340
 1149SOL     OW 4345   4.882   3.375   3.258
 1149SOL    HW1 4346   4.784   3.370   3.241
 1149SOL    HW2 4347   4.902   3.453   3.317
 1150SOL     OW 4348   1.758   6.085   5.345
 1150SOL    HW1 4349   1.696   6.163   5.329
 1150SOL    HW2 4350   1.828   6.083   5.274
 1151SOL     OW 4351   2.366   5.127   0.182
 1151SOL    HW1 4352   2.432   5.143   0.256
 1151SOL    HW2 4353   2.326   5.214   0.153
 1152SOL     OW 4354   0.031   0.769   3.289
 1152SOL    HW1 4355   0.105   0.809   3.344
 1152SOL    HW2 4356   7.001   0.841   3.241
 1153SOL     OW 4357   2.331   4.446   2.297
 1153SOL    HW1 4358   2.348   4.539   2.328
 1153SOL    HW2 4359   2.315   4.387   2.377
 1154SOL     OW 4360   1.801   4.258   2.077
 1154SOL    HW1 4361   1.826   4.308   2.160
 1154SOL    HW2 4362   1.709   4.284   2.048
 1155SOL     OW 4363   4.677   0.533   1.985
 1155SOL    HW1 4364   4.600   0.589   2.015
 1155SOL    HW2 4365   4.673   0.519   1.886
 1156SOL     OW 4366   2.072   0.893   4.586
 1156SOL    HW1 4367   2.127   0.950   4.647
 1156SOL    HW2 4368   1.999   0.849   4.638
 1157SOL     OW 4369   1.180   3.476   3.708
 1157SOL    HW1 4370   1.223   3.566   3.710
 1157SOL    HW2 4371   1.158   3.447   3.801
 1158SOL     OW 4372   4.592   5.703   6.087
 1158SOL    HW1 4373   4.611   5.800   6.105
 1158SOL    HW2 4374   4.494   5.687   6.095
 1159SOL     OW 4375   6.129   4.468   2.566
 1159SOL    HW1 4376   6.157   4.483   2.661
 1159SOL    HW2 4377   6.112   4.556   2.522
 1160SOL     OW 4378   2.981   2.663   1.089
 1160SOL    HW1 4379   2.967   2.609   1.172
 1160SOL    HW2 4380   2.896   2.709   1.065
 1161SOL     OW 4381   3.822   0.768   3.572
 1161SOL    HW1 4382   3.885   0.821   3.629
 1161SOL    HW2 4383   3.859   0.761   3.480
 1162SOL     OW 4384   3.624   5.157   1.854
 1162SOL    HW1 4385   3.657   5.063   1.848
 1162SOL    HW2 4386   3.650   5.196   1.942
 1163SOL     OW 4387   4.660   6.921   2.410
 1163SOL    HW1 4388   4.594   6.944   2.338
 1163SOL    HW2 4389   4.710   6.838   2.384
 1164SOL     OW 4390   6.622   4.205   4.796
 1164SOL    HW1 4391   6.700   4.244   4.846
 1164SOL    HW2 4392   6.637   4.214   4.698
 1165SOL     OW 4393   0.717   4.784   1.986
 1165SOL    HW1 4394   0.760   4.712   1.931
 1165SOL    HW2 4395   0.633   4.814   1.942
 1166SOL     OW 4396   3.510   0.615   6.925
 1166SOL    HW1 4397   3.546   0.635   7.015
 1166SOL    HW2 4398   3.471   0.523   6.924
 1167SOL     OW 4399   4.568   1.486   5.501
 1167SOL    HW1 4400   4.650   1.455   5.549
 1167SOL    HW2 4401   4.511   1.408   5.477
 1168SOL     OW 4402   5.655   0.995   3.638
 1168SOL    HW1 4403   5.601   0.924   3.593
 1168SOL    HW2 4404   5.607   1.082   3.632
 1169SOL     OW 4405   1.631   2.718   1.002
 1169SOL    HW1 4406   1.621   2.809   0.961
 1169SOL    HW2 4407   1.712   2.715   1.060
 1170SOL     OW 4408   2.375   0.812   1.603
 1170SOL    HW1 4409   2.450   0.746   1.607
 1170SOL    HW2 4410   2.409   0.902   1.631
 1171SOL     OW 4411   4.428   0.913   0.750
 1171SOL    HW1 4412   4.363   0.856   0.699
 1171SOL    HW2 4413   4.506   0.936   0.691
 1172SOL     OW 4414   3.373   3.120   5.582
 1172SOL    HW1 4415   3.286   3.160   5.611
 1172SOL    HW2 4416   3.355   3.038   5.528
 1173SOL     OW 4417   5.412   6.554   5.882
 1173SOL    HW1 4418   5.341   6.621   5.899
 1173SOL    HW2 4419   5.502   6.594   5.900
 1174SOL     OW 4420   3.749   5.896   7.014
 1174SOL    HW1 4421   3.778   5.833   6.941
 1174SOL    HW2 4422   3.830   5.932   0.041
 1175SOL     OW 4423   0.056   5.163   4.908
 1175SOL    HW1 4424   0.059   5.232   4.981
 1175SOL    HW2 4425   0.138   5.107   4.912
 1176SOL     OW 4426   6.219   3.213   1.671
 1176SOL    HW1 4427   6.236   3.136   1.609
 1176SOL    HW2 4428   6.214   3.298   1.617
 1177SOL     OW 4429   6.477   3.483   6.048
 1177SOL    HW1 4430   6.518   3.550   6.110
 1177SOL    HW2 4431   6.393   3.521   6.009
 1178SOL     OW 4432   4.443   5.271   2.730
 1178SOL    HW1 4433   4.456   5.257   2.828
 1178SOL    HW2 4434   4.360   5.326   2.716
 1179SOL     OW 4435   1.246   5.192   6.121
 1179SOL    HW1 4436   1.225   5.125   6.050
 1179SOL    HW2 4437   1.269   5.145   6.206
 1180SOL     OW 4438   2.131   0.654   4.180
 1180SOL    HW1 4439   2.039   0.658   4.141
 1180SOL    HW2 4440   2.199   0.668   4.108
 1181SOL     OW 4441   1.431   4.510   2.255
 1181SOL    HW1 4442   1.358   4.450   2.288
 1181SOL    HW2 4443   1.391   4.594   2.220
 1182SOL     OW 4444   0.683   3.798   4.102
 1182SOL    HW1 4445   0.585   3.782   4.090
 1182SOL    HW2 4446   0.732   3.773   4.019
 1183SOL     OW 4447   4.147   5.548   0.860
 1183SOL    HW1 4448   4.165   5.632   0.808
 1183SOL    HW2 4449   4.077   5.566   0.930
 1184SOL     OW 4450   3.558   2.850   6.226
 1184SOL    HW1 4451   3.548   2.752   6.208
 1184SOL    HW2 4452   3.577   2.865   6.323
 1185SOL     OW 4453   3.062   1.181   6.523
 1185SOL    HW1 4454   3.091   1.166   6.617
 1185SOL    HW2 4455   3.008   1.103   6.491
 1186SOL     OW 4456   3.765   6.979   4.973
 1186SOL    HW1 4457   3.839   6.911   4.971
 1186SOL    HW2 4458   3.801   0.050   4.952
 1187SOL     OW 4459   0.711   2.067   4.627
 1187SOL    HW1 4460   0.809   2.086   4.637
 1187SOL    HW2 4461   0.686   1.992   4.688
 1188SOL     OW 4462   1.814   1.222   5.290
 1188SOL    HW1 4463   1.809   1.180   5.381
 1188SOL    HW2 4464   1.853   1.156   5.225
 1189SOL     OW 4465   1.390   0.902   1.488
 1189SOL    HW1 4466   1.411   0.994   1.522
 1189SOL    HW2 4467   1.439   0.834   1.543
 1190SOL     OW 4468   3.667   5.987   2.272
 1190SOL    HW1 4469   3.757   5.978   2.229
 1190SOL    HW2 4470   3.669   5.943   2.362
 1191SOL     OW 4471   2.255   4.229   1.848
 1191SOL    HW1 4472   2.275   4.261   1.941
 1191SOL    HW2 4473   2.160   4.247   1.826
 1192SOL     OW 4474   3.545   5.682   2.908
 1192SOL    HW1 4475   3.598   5.632   2.976
 1192SOL    HW2 4476   3.548   5.780   2.929
 1193SOL     OW 4477   2.974   1.038   3.931
 1193SOL    HW1 4478   3.053   1.047   3.870
 1193SOL    HW2 4479   2.890   1.056   3.880
 1194SOL     OW 4480   6.776   1.952   2.778
 1194SOL    HW1 4481   6.864   1.976   2.739
 1194SOL    HW2 4482   6.787   1.873   2.839
 1195SOL     OW 4483   3.330   0.048   0.154
 1195SOL    HW1 4484   3.246   7.016   0.173
 1195SOL    HW2 4485   3.314   0.145   0.170
 1196SOL     OW 4486   1.954   5.855   3.378
 1196SOL    HW1 4487   2.032   5.802   3.345
 1196SOL    HW2 4488   1.912   5.904   3.301
 1197SOL     OW 4489   3.814   4.899   0.144
 1197SOL    HW1 4490   3.858   4.809   0.143
 1197SOL    HW2 4491   3.874   4.966   0.101
 1198SOL     OW 4492   3.443   0.781   3.116
 1198SOL    HW1 4493   3.505   0.744   3.184
 1198SOL    HW2 4494   3.432   0.880   3.131
 1199SOL     OW 4495   3.754   3.811   3.920
 1199SOL    HW1 4496   3.761   3.720   3.961
 1199SOL    HW2 4497   3.662   3.847   3.934
 1200SOL     OW 4498   4.500   3.483   1.323
 1200SOL    HW1 4499   4.562   3.553   1.286
 1200SOL    HW2 4500   4.553   3.400   1.344
 1201SOL     OW 4501   1.603   2.149   5.257
 1201SOL    HW1 4502   1.644   2.198   5.180
 1201SOL    HW2 4503   1.673   2.130   5.326
 1202SOL     OW 4504   6.173   6.408   4.498
 1202SOL    HW1 4505   6.207   6.380   4.409
 1202SOL    HW2 4506   6.095   6.351   4.523
 1203SOL     OW 4507   6.245   0.199   2.177
 1203SOL    HW1 4508   6.271   0.193   2.080
 1203SOL    HW2 4509   6.326   0.185   2.234
 1204SOL     OW 4510   2.194   6.979   0.131
 1204SOL    HW1 4511   2.233   6.925   0.205
 1204SOL    HW2 4512   2.111   0.006   0.164
 1205SOL     OW 4513   0.957   3.484   5.910
 1205SOL    HW1 4514   0.922   3.403   5.863
 1205SOL    HW2 4515   1.053   3.472   5.932
 1206SOL     OW 4516   6.175   1.110   5.160
 1206SOL    HW1 4517   6.097   1.154   5.116
 1206SOL    HW2 4518   6.224   1.178   5.216
 1207SOL     OW 4519   6.505   6.045   6.245
 1207SOL    HW1 4520   6.405   6.045   6.244
 1207SOL    HW2 4521   6.538   6.134   6.212
 1208SOL     OW 4522   3.791   3.531   2.729
 1208SOL    HW1 4523   3.747   3.603   2.783
 1208SOL    HW2 4524   3.726   3.497   2.661
 1209SOL     OW 4525   6.862   3.680   5.057
 1209SOL    HW1 4526   6.807   3.679   5.140
 1209SOL    HW2 4527   6.814   3.731   4.985
 1210SOL     OW 4528   2.228   0.278   3.274
 1210SOL    HW1 4529   2.201   0.182   3.286
 1210SOL    HW2 4530   2.248   0.295   3.178
 1211SOL     OW 4531   0.068   3.445   3.477
 1211SOL    HW1 4532   0.133   3.392   3.422
 1211SOL    HW2 4533   6.995   3.431   3.442
 1212SOL     OW 4534   0.773   4.272   3.619
 1212SOL    HW1 4535   0.691   4.270   3.562
 1212SOL    HW2 4536   0.757   4.331   3.698
 1213SOL     OW 4537   5.671   3.646   5.261
 1213SOL    HW1 4538   5.670   3.710   5.184
 1213SOL    HW2 4539   5.762   3.648   5.304
 1214SOL     OW 4540   1.145   1.853   1.302
 1214SOL    HW1 4541   1.132   1.773   1.361
 1214SOL    HW2 4542   1.128   1.826   1.207
 1215SOL     OW 4543   0.702   5.526   2.501
 1215SOL    HW1 4544   0.742   5.549   2.412
 1215SOL    HW2 4545   0.736   5.590   2.569
 1216SOL     OW 4546   2.303   0.016   1.494
 1216SOL    HW1 4547   2.273   0.100   1.448
 1216SOL    HW2 4548   2.370   0.039   1.565
 1217SOL     OW 4549   1.891   2.903   3.309
 1217SOL    HW1 4550   1.925   2.815   3.342
 1217SOL    HW2 4551   1.850   2.890   3.219
 1218SOL     OW 4552   0.264   3.951   3.214
 1218SOL    HW1 4553   0.197   3.882   3.240
 1218SOL    HW2 4554   0.246   4.035   3.264
 1219SOL     OW 4555   2.343   6.180   3.053
 1219SOL    HW1 4556   2.413   6.251   3.056
 1219SOL    HW2 4557   2.266   6.208   3.112
 1220SOL     OW 4558   6.282   4.976   2.453
 1220SOL    HW1 4559   6.343   4.966   2.375
 1220SOL    HW2 4560   6.212   5.045   2.432
 1221SOL     OW 4561   4.591   4.690   6.391
 1221SOL    HW1 4562   4.549   4.652   6.474
 1221SOL    HW2 4563   4.635   4.777   6.413
 1222SOL     OW 4564   6.606   4.487   1.600
 1222SOL    HW1 4565   6.662   4.522   1.525
 1222SOL    HW2 4566   6.663   4.473   1.681
 1223SOL     OW 4567   0.258   4.743   4.736
 1223SOL    HW1 4568   0.293   4.661   4.692
 1223SOL    HW2 4569   0.238   4.724   4.832
 1224SOL     OW 4570   4.609   3.913   1.428
 1224SOL    HW1 4571   4.680   3.844   1.413
 1224SOL    HW2 4572   4.601   3.933   1.526
 1225SOL     OW 4573   4.969   1.583   6.214
 1225SOL    HW1 4574   5.059   1.595   6.172
 1225SOL    HW2 4575   4.908   1.656   6.183
 1226SOL     OW 4576   6.016   5.517   0.631
 1226SOL    HW1 4577   5.975   5.548   0.717
 1226SOL    HW2 4578   6.030   5.418   0.634
 1227SOL     OW 4579   5.245   4.178   6.723
 1227SOL    HW1 4580   5.314   4.244   6.752
 1227SOL    HW2 4581   5.162   4.192   6.776
 1228SOL     OW 4582   4.059   3.754   4.961
 1228SOL    HW1 4583   4.073   3.673   5.018
 1228SOL    HW2 4584   3.985   3.810   4.999
 1229SOL     OW 4585   2.038   5.307   2.434
 1229SOL    HW1 4586   2.014   5.222   2.480
 1229SOL    HW2 4587   2.137   5.313   2.423
 1230SOL     OW 4588   4.976   4.396   6.927
 1230SOL    HW1 4589   4.925   4.451   6.992
 1230SOL    HW2 4590   4.912   4.345   6.868
 1231SOL     OW 4591   2.087   0.460   0.589
 1231SOL    HW1 4592   2.104   0.558   0.588
 1231SOL    HW2 4593   2.053   0.431   0.500
 1232SOL     OW 4594   2.141   1.645   5.954
 1232SOL    HW1 4595   2.123   1.550   5.977
 1232SOL    HW2 4596   2.198   1.686   6.025
 1233SOL     OW 4597   0.111   5.339   4.661
 1233SOL    HW1 4598   0.073   5.337   4.754
 1233SOL    HW2 4599   0.084   5.256   4.612
 1234SOL     OW 4600   6.865   4.377   5.574
 1234SOL    HW1 4601   6.820   4.377   5.664
 1234SOL    HW2 4602   6.894   4.284   5.552
 1235SOL     OW 4603   6.155   5.327   0.901
 1235SOL    HW1 4604   6.130   5.385   0.824
 1235SOL    HW2 4605   6.242   5.282   0.882
 1236SOL     OW 4606   6.865   1.287   2.576
 1236SOL    HW1 4607   6.848   1.266   2.479
 1236SOL    HW2 4608   6.949   1.240   2.605
 1237SOL     OW 4609   0.606   0.411   4.131
 1237SOL    HW1 4610   0.597   0.361   4.045
 1237SOL    HW2 4611   0.695   0.393   4.172
 1238SOL     OW 4612   0.228   0.996   4.078
 1238SOL    HW1 4613   0.231   1.081   4.130
 1238SOL    HW2 4614   0.145   0.993   4.023
 1239SOL     OW 4615   5.323   4.763   3.626
 1239SOL    HW1 4616   5.226   4.777   3.604
 1239SOL    HW2 4617   5.355   4.838   3.684
 1240SOL     OW 4618   0.896   4.421   1.471
 1240SOL    HW1 4619   0.835   4.426   1.391
 1240SOL    HW2 4620   0.860   4.479   1.544
 1241SOL     OW 4621   3.351   5.126   6.413
 1241SOL    HW1 4622   3.301   5.195   6.362
 1241SOL    HW2 4623   3.442   5.161   6.436
 1242SOL     OW 4624   2.017   5.613   0.863
 1242SOL    HW1 4625   1.930   5.645   0.901
 1242SOL    HW2 4626   2.009   5.609   0.763
 1243SOL     OW 4627   0.042   3.671   3.638
 1243SOL    HW1 4628   0.126   3.692   3.689
 1243SOL    HW2 4629   0.051   3.582   3.594
 1244SOL     OW 4630   6.860   6.796   4.687
 1244SOL    HW1 4631   6.764   6.786   4.660
 1244SOL    HW2 4632   6.879   6.891   4.708
 1245SOL     OW 4633   4.905   0.511   1.636
 1245SOL    HW1 4634   4.836   0.439   1.625
 1245SOL    HW2 4635   4.981   0.494   1.573
 1246SOL     OW 4636   5.092   2.715   1.776
 1246SOL    HW1 4637   5.065   2.658   1.854
 1246SOL    HW2 4638   5.129   2.657   1.703
 1247SOL     OW 4639   4.718   0.047   2.052
 1247SOL    HW1 4640   4.795   0.026   2.112
 1247SOL    HW2 4641   4.722   7.008   1.971
 1248SOL     OW 4642   0.552   6.942   4.705
 1248SOL    HW1 4643   0.573   6.848   4.677
 1248SOL    HW2 4644   0.526   6.943   4.801
 1249SOL     OW 4645   6.744   6.685   6.451
 1249SOL    HW1 4646   6.829   6.636   6.435
 1249SOL    HW2 4647   6.761   6.784   6.448
 1250SOL     OW 4648   0.649   4.412   5.235
 1250SOL    HW1 4649   0.679   4.323   5.268
 1250SOL    HW2 4650   0.558   4.404   5.195
 1251SOL     OW 4651   2.577   0.666   3.275
 1251SOL    HW1 4652   2.628   0.584   3.247
 1251SOL    HW2 4653   2.496   0.676   3.218
 1252SOL     OW 4654   2.308   5.288   6.318
 1252SOL    HW1 4655   2.311   5.213   6.384
 1252SOL    HW2 4656   2.346   5.371   6.359
 1253SOL     OW 4657   2.795   5.598   0.515
 1253SOL    HW1 4658   2.782   5.691   0.551
 1253SOL    HW2 4659   2.889   5.569   0.533
 1254SOL     OW 4660   6.601   0.626   3.824
 1254SOL    HW1 4661   6.505   0.604   3.807
 1254SOL    HW2 4662   6.610   0.724   3.841
 1255SOL     OW 4663   6.089   2.284   6.189
 1255SOL    HW1 4664   5.992   2.287   6.168
 1255SOL    HW2 4665   6.109   2.347   6.265
 1256SOL     OW 4666   0.028   5.542   6.138
 1256SOL    HW1 4667   7.017   5.635   6.158
 1256SOL    HW2 4668   0.058   5.498   6.223
 1257SOL     OW 4669   0.033   6.566   2.969
 1257SOL    HW1 4670   6.979   6.607   2.914
 1257SOL    HW2 4671   0.104   6.635   2.985
 1258SOL     OW 4672   4.983   5.457   6.665
 1258SOL    HW1 4673   4.884   5.458   6.653
 1258SOL    HW2 4674   5.007   5.507   6.748
 1259SOL     OW 4675   5.786   6.587   4.835
 1259SOL    HW1 4676   5.756   6.624   4.747
 1259SOL    HW2 4677   5.713   6.534   4.876
 1260SOL     OW 4678   3.411   0.993   0.616
 1260SOL    HW1 4679   3.441   0.902   0.647
 1260SOL    HW2 4680   3.332   1.022   0.670
 1261SOL     OW 4681   0.478   4.269   4.916
 1261SOL    HW1 4682   0.449   4.293   4.823
 1261SOL    HW2 4683   0.453   4.343   4.979
 1262SOL     OW 4684   4.220   6.462   1.434
 1262SOL    HW1 4685   4.247   6.517   1.355
 1262SOL    HW2 4686   4.167   6.518   1.497
 1263SOL     OW 4687   6.870   1.462   1.226
 1263SOL    HW1 4688   6.913   1.393   1.168
 1263SOL    HW2 4689   6.879   1.435   1.322
 1264SOL     OW 4690   5.769   2.977   5.028
 1264SOL    HW1 4691   5.724   2.989   4.939
 1264SOL    HW2 4692   5.712   3.018   5.099
 1265SOL     OW 4693   6.036   4.894   4.874
 1265SOL    HW1 4694   5.938   4.888   4.892
 1265SOL    HW2 4695   6.054   4.975   4.817
 1266SOL     OW 4696   2.888   0.409   3.805
 1266SOL    HW1 4697   2.965   0.430   3.744
 1266SOL    HW2 4698   2.809   0.382   3.751
 1267SOL     OW 4699   0.497   4.064   2.241
 1267SOL    HW1 4700   0.406   4.024   2.243
 1267SOL    HW2 4701   0.515   4.102   2.151
 1268SOL     OW 4702   6.406   5.021   6.943
 1268SOL    HW1 4703   6.471   5.035   6.867
 1268SOL    HW2 4704   6.451   5.044   0.010
 1269SOL     OW 4705   0.809   4.310   6.498
 1269SOL    HW1 4706   0.762   4.271   6.419
 1269SOL    HW2 4707   0.771   4.401   6.518
 1270SOL     OW 4708   1.966   2.007   4.410
 1270SOL    HW1 4709   2.030   1.953   4.465
 1270SOL    HW2 4710   2.011   2.039   4.327
 1271SOL     OW 4711   5.473   3.450   3.283
 1271SOL    HW1 4712   5.395   3.463   3.344
 1271SOL    HW2 4713   5.511   3.358   3.296
 1272SOL     OW 4714   6.533   6.442   6.709
 1272SOL    HW1 4715   6.498   6.487   6.627
 1272SOL    HW2 4716   6.585   6.507   6.763
 1273SOL     OW 4717   2.836   0.004   4.889
 1273SOL    HW1 4718   2.890   0.040   4.964
 1273SOL    HW2 4719   2.886   0.014   4.803
 1274SOL     OW 4720   5.451   2.791   1.616
 1274SOL    HW1 4721   5.483   2.868   1.561
 1274SOL    HW2 4722   5.459   2.814   1.713
 1275SOL     OW 4723   3.596   1.253   3.764
 1275SOL    HW1 4724   3.671   1.314   3.738
 1275SOL    HW2 4725   3.621   1.159   3.741
 1276SOL     OW 4726   5.274   6.616   2.462
 1276SOL    HW1 4727   5.320   6.653   2.543
 1276SOL    HW2 4728   5.175   6.624   2.474
 1277SOL     OW 4729   0.656   1.724   4.488
 1277SOL    HW1 4730   0.734   1.785   4.470
 1277SOL    HW2 4731   0.598   1.719   4.407
 1278SOL     OW 4732   3.311   1.781   4.532
 1278SOL    HW1 4733   3.344   1.690   4.509
 1278SOL    HW2 4734   3.211   1.782   4.525
 1279SOL     OW 4735   1.904   4.953   0.365
 1279SOL    HW1 4736   1.871   4.868   0.325
 1279SOL    HW2 4737   2.003   4.961   0.352
 1280SOL     OW 4738   1.479   5.968   2.939
 1280SOL    HW1 4739   1.488   5.942   3.035
 1280SOL    HW2 4740   1.544   6.042   2.918
 1281SOL     OW 4741   0.669   6.523   3.633
 1281SOL    HW1 4742   0.656   6.437   3.683
 1281SOL    HW2 4743   0.709   6.503   3.543
 1282SOL     OW 4744   1.325   6.273   2.352
 1282SOL    HW1 4745   1.253   6.206   2.334
 1282SOL    HW2 4746   1.392   6.271   2.278
 1283SOL     OW 4747   5.097   3.998   5.221
 1283SOL    HW1 4748   5.133   3.916   5.266
 1283SOL    HW2 4749   5.151   4.018   5.139
 1284SOL     OW 4750   2.719   1.921   2.609
 1284SOL    HW1 4751   2.747   2.016   2.596
 1284SOL    HW2 4752   2.777   1.861   2.554
 1285SOL     OW 4753   5.698   2.424   5.924
 1285SOL    HW1 4754   5.748   2.500   5.966
 1285SOL    HW2 4755   5.763   2.355   5.893
 1286SOL     OW 4756   5.536   6.002   1.037
 1286SOL    HW1 4757   5.614   5.991   0.976
 1286SOL    HW2 4758   5.502   6.096   1.030
 1287SOL     OW 4759   6.141   3.835   5.832
 1287SOL    HW1 4760   6.206   3.904   5.863
 1287SOL    HW2 4761   6.051   3.852   5.871
 1288SOL     OW 4762   6.709   3.667   3.482
 1288SOL    HW1 4763   6.757   3.588   3.519
 1288SOL    HW2 4764   6.680   3.727   3.557
 1289SOL     OW 4765   0.078   5.161   2.847
 1289SOL    HW1 4766   0.140   5.239   2.840
 1289SOL    HW2 4767   7.004   5.191   2.824
 1290SOL     OW 4768   6.467   6.860   2.218
 1290SOL    HW1 4769   6.533   6.894   2.152
 1290SOL    HW2 4770   6.481   6.905   2.306
 1291SOL     OW 4771   1.372   6.404   1.444
 1291SOL    HW1 4772   1.390   6.496   1.477
 1291SOL    HW2 4773   1.371   6.404   1.344
 1292SOL     OW 4774   1.283   5.582   0.528
 1292SOL    HW1 4775   1.286   5.571   0.627
 1292SOL    HW2 4776   1.226   5.661   0.505
 1293SOL     OW 4777   6.116   1.804   6.498
 1293SOL    HW1 4778   6.171   1.883   6.470
 1293SOL    HW2 4779   6.021   1.817   6.469
 1294SOL     OW 4780   0.651   1.750   3.673
 1294SOL    HW1 4781   0.643   1.810   3.594
 1294SOL    HW2 4782   0.561   1.740   3.717
 1295SOL     OW 4783   4.951   4.029   1.310
 1295SOL    HW1 4784   4.881   4.000   1.245
 1295SOL    HW2 4785   4.923   4.115   1.353
 1296SOL     OW 4786   3.967   1.619   0.640
 1296SOL    HW1 4787   4.057   1.642   0.603
 1296SOL    HW2 4788   3.897   1.642   0.572
 1297SOL     OW 4789   6.483   1.210   6.149
 1297SOL    HW1 4790   6.511   1.232   6.243
 1297SOL    HW2 4791   6.547   1.144   6.110
 1298SOL     OW 4792   6.067   2.500   3.452
 1298SOL    HW1 4793   5.975   2.530   3.426
 1298SOL    HW2 4794   6.129   2.512   3.374
 1299SOL     OW 4795   1.360   3.439   4.850
 1299SOL    HW1 4796   1.348   3.463   4.754
 1299SOL    HW2 4797   1.457   3.435   4.872
 1300SOL     OW 4798   3.560   2.918   3.232
 1300SOL    HW1 4799   3.654   2.891   3.254
 1300SOL    HW2 4800   3.542   2.901   3.135
 1301SOL     OW 4801   1.418   1.560   1.765
 1301SOL    HW1 4802   1.502   1.576   1.817
 1301SOL    HW2 4803   1.428   1.596   1.673
 1302SOL     OW 4804   2.601   6.020   5.775
 1302SOL    HW1 4805   2.598   6.116   5.746
 1302SOL    HW2 4806   2.689   5.980   5.748
 1303SOL     OW 4807   3.137   0.042   1.224
 1303SOL    HW1 4808   3.051   7.011   1.207
 1303SOL    HW2 4809   3.214   6.998   1.219
 1304SOL     OW 4810   3.333   0.537   6.156
 1304SOL    HW1 4811   3.346   0.590   6.072
 1304SOL    HW2 4812   3.344   0.596   6.235
 1305SOL     OW 4813   5.916   6.847   3.917
 1305SOL    HW1 4814   5.870   6.930   3.883
 1305SOL    HW2 4815   5.849   6.788   3.962
 1306SOL     OW 4816   1.719   5.146   4.132
 1306SOL    HW1 4817   1.745   5.242   4.135
 1306SOL    HW2 4818   1.663   5.129   4.051
 1307SOL     OW 4819   1.145   1.446   4.304
 1307SOL    HW1 4820   1.151   1.348   4.323
 1307SOL    HW2 4821   1.051   1.470   4.283
 1308SOL     OW 4822   4.901   6.276   3.109
 1308SOL    HW1 4823   4.881   6.374   3.119
 1308SOL    HW2 4824   4.900   6.233   3.199
 1309SOL     OW 4825   5.823   2.941   4.418
 1309SOL    HW1 4826   5.732   2.968   4.447
 1309SOL    HW2 4827   5.816   2.873   4.345
 1310SOL     OW 4828   4.974   3.394   5.602
 1310SOL    HW1 4829   4.924   3.410   5.517
 1310SOL    HW2 4830   5.048   3.329   5.586
 1311SOL     OW 4831   4.696   4.783   6.735
 1311SOL    HW1 4832   4.617   4.823   6.690
 1311SOL    HW2 4833   4.738   4.715   6.675
 1312SOL     OW 4834   6.734   0.628   1.727
 1312SOL    HW1 4835   6.783   0.588   1.805
 1312SOL    HW2 4836   6.742   0.728   1.732
 1313SOL     OW 4837   3.442   5.030   4.891
 1313SOL    HW1 4838   3.451   5.112   4.947
 1313SOL    HW2 4839   3.429   4.950   4.949
 1314SOL     OW 4840   0.040   1.431   5.860
 1314SOL    HW1 4841   0.013   1.454   5.767
 1314SOL    HW2 4842   0.048   1.515   5.914
 1315SOL     OW 4843   1.829   6.772   3.556
 1315SOL    HW1 4844   1.732   6.763   3.533
 1315SOL    HW2 4845   1.841   6.755   3.654
 1316SOL     OW 4846   3.179   6.246   3.433
 1316SOL    HW1 4847   3.166   6.151   3.463
 1316SOL    HW2 4848   3.149   6.254   3.338
 1317SOL     OW 4849   0.086   3.112   4.493
 1317SOL    HW1 4850   0.165   3.174   4.496
 1317SOL    HW2 4851   0.007   3.162   4.457
 1318SOL     OW 4852   0.794   6.893   1.868
 1318SOL    HW1 4853   0.811   6.930   1.777
 1318SOL    HW2 4854   0.754   6.801   1.860
 1319SOL     OW 4855   6.905   6.757   0.731
 1319SOL    HW1 4856   6.873   6.663   0.739
 1319SOL    HW2 4857   6.920   6.779   0.634
 1320SOL     OW 4858   4.972   5.155   5.109
 1320SOL    HW1 4859   4.961   5.155   5.010
 1320SOL    HW2 4860   4.884   5.136   5.153
 1321SOL     OW 4861   3.726   1.186   0.816
 1321SOL    HW1 4862   3.737   1.280   0.785
 1321SOL    HW2 4863   3.696   1.129   0.740
 1322SOL     OW 4864   5.251   0.995   6.378
 1322SOL    HW1 4865   5.270   1.048   6.296
 1322SOL    HW2 4866   5.222   1.056   6.451
 1323SOL     OW 4867   6.405   0.782   3.960
 1323SOL    HW1 4868   6.445   0.712   4.019
 1323SOL    HW2 4869   6.305   0.771   3.959
 1324SOL     OW 4870   1.320   2.561   0.560
 1324SOL    HW1 4871   1.359   2.521   0.478
 1324SOL    HW2 4872   1.259   2.494   0.603
 1325SOL     OW 4873   4.448   5.469   4.458
 1325SOL    HW1 4874   4.374   5.428   4.512
 1325SOL    HW2 4875   4.414   5.491   4.366
 1326SOL     OW 4876   5.603   4.167   4.362
 1326SOL    HW1 4877   5.672   4.127   4.422
 1326SOL    HW2 4878   5.567   4.251   4.403
 1327SOL     OW 4879   2.948   6.516   4.006
 1327SOL    HW1 4880   2.878   6.451   4.034
 1327SOL    HW2 4881   3.039   6.476   4.019
 1328SOL     OW 4882   2.640   1.092   1.429
 1328SOL    HW1 4883   2.721   1.128   1.383
 1328SOL    HW2 4884   2.661   1.078   1.526
 1329SOL     OW 4885   1.470   6.189   1.579
 1329SOL    HW1 4886   1.426   6.277   1.561
 1329SOL    HW2 4887   1.558   6.185   1.532
 1330SOL     OW 4888   5.337   6.697   1.143
 1330SOL    HW1 4889   5.291   6.685   1.055
 1330SOL    HW2 4890   5.426   6.739   1.129
 1331SOL     OW 4891   0.678   2.178   1.840
 1331SOL    HW1 4892   0.671   2.123   1.924
 1331SOL    HW2 4893   0.722   2.265   1.861
 1332SOL     OW 4894   4.556   2.265   0.748
 1332SOL    HW1 4895   4.550   2.305   0.657
 1332SOL    HW2 4896   4.647   2.225   0.761
 1333SOL     OW 4897   4.244   3.196   5.272
 1333SOL    HW1 4898   4.249   3.292   5.298
 1333SOL    HW2 4899   4.161   3.180   5.218
 1334SOL     OW 4900   1.334   3.505   4.185
 1334SOL    HW1 4901   1.301   3.595   4.213
 1334SOL    HW2 4902   1.432   3.498   4.206
 1335SOL     OW 4903   1.904   5.345   3.524
 1335SOL    HW1 4904   1.885   5.437   3.491
 1335SOL    HW2 4905   1.894   5.280   3.449
 1336SOL     OW 4906   0.218   6.253   5.277
 1336SOL    HW1 4907   0.290   6.226   5.213
 1336SOL    HW2 4908   0.140   6.191   5.266
 1337SOL     OW 4909   3.727   6.394   6.552
 1337SOL    HW1 4910   3.781   6.475   6.527
 1337SOL    HW2 4911   3.707   6.396   6.650
 1338SOL     OW 4912   3.591   5.269   0.775
 1338SOL    HW1 4913   3.657   5.310   0.712
 1338SOL    HW2 4914   3.632   5.262   0.866
 1339SOL     OW 4915   0.152   3.877   6.722
 1339SOL    HW1 4916   0.219   3.950   6.734
 1339SOL    HW2 4917   0.168   3.806   6.790
 1340SOL     OW 4918   2.889   1.567   5.901
 1340SOL    HW1 4919   2.962   1.623   5.940
 1340SOL    HW2 4920   2.888   1.579   5.801
 1341SOL     OW 4921   6.013   2.006   4.574
 1341SOL    HW1 4922   5.969   1.938   4.516
 1341SOL    HW2 4923   5.964   2.013   4.661
 1342SOL     OW 4924   0.592   0.323   1.304
 1342SOL    HW1 4925   0.509   0.339   1.356
 1342SOL    HW2 4926   0.647   0.406   1.302
 1343SOL     OW 4927   2.864   5.710   3.767
 1343SOL    HW1 4928   2.881   5.657   3.685
 1343SOL    HW2 4929   2.886   5.656   3.848
 1344SOL     OW 4930   5.387   2.140   2.294
 1344SOL    HW1 4931   5.425   2.170   2.206
 1344SOL    HW2 4932   5.461   2.113   2.355
 1345SOL     OW 4933   6.559   6.151   2.447
 1345SOL    HW1 4934   6.547   6.058   2.480
 1345SOL    HW2 4935   6.634   6.154   2.380
 1346SOL     OW 4936   0.003   1.708   2.952
 1346SOL    HW1 4937   0.033   1.792   2.908
 1346SOL    HW2 4938   6.982   1.729   3.041
 1347SOL     OW 4939   4.653   1.107   3.289
 1347SOL    HW1 4940   4.718   1.068   3.223
 1347SOL    HW2 4941   4.676   1.203   3.306
 1348SOL     OW 4942   4.994   5.746   4.866
 1348SOL    HW1 4943   4.978   5.804   4.785
 1348SOL    HW2 4944   5.009   5.805   4.945
 1349SOL     OW 4945   4.645   2.262   0.318
 1349SOL    HW1 4946   4.706   2.182   0.322
 1349SOL    HW2 4947   4.572   2.245   0.252
 1350SOL     OW 4948   2.949   1.300   4.505
 1350SOL    HW1 4949   2.890   1.265   4.577
 1350SOL    HW2 4950   2.940   1.243   4.424
 1351SOL     OW 4951   1.640   1.447   3.421
 1351SOL    HW1 4952   1.706   1.390   3.470
 1351SOL    HW2 4953   1.572   1.481   3.486
 1352SOL     OW 4954   1.117   6.165   4.621
 1352SOL    HW1 4955   1.146   6.120   4.706
 1352SOL    HW2 4956   1.193   6.218   4.584
 1353SOL     OW 4957   2.441   3.105   5.561
 1353SOL    HW1 4958   2.513   3.172   5.542
 1353SOL    HW2 4959   2.363   3.123   5.501
 1354SOL     OW 4960   0.379   6.652   0.057
 1354SOL    HW1 4961   0.294   6.600   0.053
 1354SOL    HW2 4962   0.428   6.630   0.142
 1355SOL     OW 4963   4.146   3.385   6.981
 1355SOL    HW1 4964   4.140   3.386   0.062
 1355SOL    HW2 4965   4.056   3.361   6.943
 1356SOL     OW 4966   3.277   2.916   2.367
 1356SOL    HW1 4967   3.376   2.931   2.360
 1356SOL    HW2 4968   3.246   2.863   2.288
 1357SOL     OW 4969   3.401   2.133   5.433
 1357SOL    HW1 4970   3.322   2.076   5.455
 1357SOL    HW2 4971   3.416   2.131   5.334
 1358SOL     OW 4972   1.665   3.163   5.959
 1358SOL    HW1 4973   1.676   3.246   6.014
 1358SOL    HW2 4974   1.615   3.095   6.011
 1359SOL     OW 4975   0.297   1.825   6.558
 1359SOL    HW1 4976   0.384   1.875   6.560
 1359SOL    HW2 4977   0.271   1.807   6.464
 1360SOL     OW 4978   3.452   3.431   4.062
 1360SOL    HW1 4979   3.473   3.490   3.984
 1360SOL    HW2 4980   3.499   3.344   4.052
 1361SOL     OW 4981   1.004   6.378   1.131
 1361SOL    HW1 4982   1.090   6.347   1.091
 1361SOL    HW2 4983   0.994   6.339   1.222
 1362SOL     OW 4984   3.166   1.593   7.003
 1362SOL    HW1 4985   3.199   1.580   0.077
 1362SOL    HW2 4986   3.150   1.503   6.961
 1363SOL     OW 4987   6.666   6.608   0.962
 1363SOL    HW1 4988   6.753   6.642   0.998
 1363SOL    HW2 4989   6.590   6.656   1.006
 1364SOL     OW 4990   1.109   3.533   1.030
 1364SOL    HW1 4991   1.043   3.460   1.048
 1364SOL    HW2 4992   1.182   3.530   1.098
 1365SOL     OW 4993   1.079   3.329   6.368
 1365SOL    HW1 4994   1.167   3.335   6.321
 1365SOL    HW2 4995   1.076   3.396   6.442
 1366SOL     OW 4996   3.686   0.663   0.881
 1366SOL    HW1 4997   3.617   0.688   0.949
 1366SOL    HW2 4998   3.743   0.589   0.916
 1367SOL     OW 4999   0.796   6.947   4.374
 1367SOL    HW1 5000   0.856   6.910   4.303
 1367SOL    HW2 5001   0.708   6.971   4.333
 1368SOL     OW 5002   1.489   6.125   4.939
 1368SOL    HW1 5003   1.542   6.041   4.930
 1368SOL    HW2 5004   1.547   6.204   4.921
 1369SOL     OW 5005   2.030   6.080   3.531
 1369SOL    HW1 5006   2.126   6.097   3.555
 1369SOL    HW2 5007   2.020   5.985   3.504
 1370SOL     OW 5008   0.084   2.744   2.713
 1370SOL    HW1 5009   7.014   2.706   2.687
 1370SOL    HW2 5010   0.081   2.843   2.705
 1371SOL     OW 5011   6.008   1.916   6.123
 1371SOL    HW1 5012   5.989   1.824   6.157
 1371SOL    HW2 5013   5.935   1.977   6.152
 1372SOL     OW 5014   5.097   2.469   1.605
 1372SOL    HW1 5015   5.186   2.495   1.568
 1372SOL    HW2 5016   5.109   2.400   1.676
 1373SOL     OW 5017   5.311   2.529   1.116
 1373SOL    HW1 5018   5.298   2.603   1.050
 1373SOL    HW2 5019   5.408   2.525   1.143
 1374SOL     OW 5020   4.056   3.500   2.540
 1374SOL    HW1 5021   3.964   3.512   2.577
 1374SOL    HW2 5022   4.095   3.415   2.576
 1375SOL     OW 5023   5.183   4.327   5.061
 1375SOL    HW1 5024   5.120   4.324   4.984
 1375SOL    HW2 5025   5.235   4.412   5.059
 1376SOL     OW 5026   2.936   4.568   5.544
 1376SOL    HW1 5027   2.980   4.625   5.614
 1376SOL    HW2 5028   2.953   4.607   5.454
 1377SOL     OW 5029   1.181   1.710   3.418
 1377SOL    HW1 5030   1.148   1.705   3.512
 1377SOL    HW2 5031   1.251   1.781   3.410
 1378SOL     OW 5032   4.512   2.251   4.207
 1378SOL    HW1 5033   4.560   2.260   4.294
 1378SOL    HW2 5034   4.449   2.174   4.212
 1379SOL     OW 5035   4.852   5.778   6.872
 1379SOL    HW1 5036   4.882   5.864   6.829
 1379SOL    HW2 5037   4.753   5.781   6.886
 1380SOL     OW 5038   0.015   6.167   3.810
 1380SOL    HW1 5039   6.956   6.213   3.852
 1380SOL    HW2 5040   7.005   6.080   3.771
 1381SOL     OW 5041   6.400   3.050   6.136
 1381SOL    HW1 5042   6.324   3.046   6.201
 1381SOL    HW2 5043   6.476   3.100   6.177
 1382SOL     OW 5044   4.387   1.761   5.951
 1382SOL    HW1 5045   4.454   1.803   5.890
 1382SOL    HW2 5046   4.424   1.757   6.043
 1383SOL     OW 5047   6.278   0.836   1.130
 1383SOL    HW1 5048   6.373   0.804   1.125
 1383SOL    HW2 5049   6.227   0.803   1.051
 1384SOL     OW 5050   5.927   2.755   2.069
 1384SOL    HW1 5051   5.923   2.750   1.969
 1384SOL    HW2 5052   5.844   2.715   2.107
 1385SOL     OW 5053   6.700   6.192   1.466
 1385SOL    HW1 5054   6.723   6.230   1.376
 1385SOL    HW2 5055   6.776   6.209   1.529
 1386SOL     OW 5056   2.200   0.061   3.865
 1386SOL    HW1 5057   2.224   0.155   3.842
 1386SOL    HW2 5058   2.259   7.018   3.814
 1387SOL     OW 5059   1.244   5.789   1.625
 1387SOL    HW1 5060   1.267   5.864   1.563
 1387SOL    HW2 5061   1.209   5.827   1.711
 1388SOL     OW 5062   6.290   0.827   1.800
 1388SOL    HW1 5063   6.296   0.894   1.727
 1388SOL    HW2 5064   6.332   0.865   1.883
 1389SOL     OW 5065   6.169   1.149   1.891
 1389SOL    HW1 5066   6.195   1.246   1.894
 1389SOL    HW2 5067   6.245   1.096   1.853
 1390SOL     OW 5068   1.201   1.814   4.233
 1390SOL    HW1 5069   1.203   1.914   4.240
 1390SOL    HW2 5070   1.209   1.775   4.325
 1391SOL     OW 5071   0.999   3.146   3.530
 1391SOL    HW1 5072   1.078   3.207   3.519
 1391SOL    HW2 5073   1.006   3.071   3.464
 1392SOL     OW 5074   5.183   4.940   4.166
 1392SOL    HW1 5075   5.168   4.860   4.224
 1392SOL    HW2 5076   5.281   4.949   4.146
 1393SOL     OW 5077   3.749   4.755   6.866
 1393SOL    HW1 5078   3.710   4.763   6.774
 1393SOL    HW2 5079   3.679   4.718   6.928
 1394SOL     OW 5080   1.344   6.414   0.198
 1394SOL    HW1 5081   1.367   6.434   0.293
 1394SOL    HW2 5082   1.314   6.319   0.190
 1395SOL     OW 5083   3.648   4.820   6.199
 1395SOL    HW1 5084   3.587   4.839   6.276
 1395SOL    HW2 5085   3.743   4.834   6.227
 1396SOL     OW 5086   5.304   5.875   3.452
 1396SOL    HW1 5087   5.368   5.951   3.459
 1396SOL    HW2 5088   5.269   5.853   3.543
 1397SOL     OW 5089   5.224   6.211   5.074
 1397SOL    HW1 5090   5.200   6.140   5.141
 1397SOL    HW2 5091   5.221   6.301   5.117
 1398SOL     OW 5092   1.795   0.251   4.966
 1398SOL    HW1 5093   1.891   0.280   4.970
 1398SOL    HW2 5094   1.790   0.155   4.940
 1399SOL     OW 5095   3.449   5.571   2.438
 1399SOL    HW1 5096   3.434   5.658   2.393
 1399SOL    HW2 5097   3.368   5.513   2.428
 1400SOL     OW 5098   1.187   0.245   2.728
 1400SOL    HW1 5099   1.163   0.148   2.732
 1400SOL    HW2 5100   1.283   0.255   2.701
 1401SOL     OW 5101   6.793   1.928   4.564
 1401SOL    HW1 5102   6.780   1.833   4.534
 1401SOL    HW2 5103   6.719   1.985   4.528
 1402SOL     OW 5104   6.311   2.488   6.836
 1402SOL    HW1 5105   6.249   2.459   6.763
 1402SOL    HW2 5106   6.325   2.587   6.829
 1403SOL     OW 5107   3.830   0.502   1.942
 1403SOL    HW1 5108   3.829   0.461   2.034
 1403SOL    HW2 5109   3.755   0.567   1.933
 1404SOL     OW 5110   5.409   1.707   0.446
 1404SOL    HW1 5111   5.365   1.757   0.521
 1404SOL    HW2 5112   5.470   1.638   0.484
 1405SOL     OW 5113   3.523   2.917   1.445
 1405SOL    HW1 5114   3.617   2.891   1.466
 1405SOL    HW2 5115   3.474   2.837   1.410
 1406SOL     OW 5116   1.019   3.813   2.125
 1406SOL    HW1 5117   1.035   3.831   2.223
 1406SOL    HW2 5118   0.966   3.729   2.115
 1407SOL     OW 5119   7.007   2.531   2.471
 1407SOL    HW1 5120   6.968   2.574   2.553
 1407SOL    HW2 5121   7.008   2.432   2.483
 1408SOL     OW 5122   6.387   5.563   6.466
 1408SOL    HW1 5123   6.454   5.518   6.526
 1408SOL    HW2 5124   6.433   5.595   6.383
 1409SOL     OW 5125   0.103   1.519   3.621
 1409SOL    HW1 5126   0.114   1.475   3.531
 1409SOL    HW2 5127   0.188   1.510   3.673
 1410SOL     OW 5128   6.471   1.772   6.942
 1410SOL    HW1 5129   6.529   1.734   6.869
 1410SOL    HW2 5130   6.525   1.782   0.006
 1411SOL     OW 5131   1.531   0.961   2.094
 1411SOL    HW1 5132   1.568   1.026   2.027
 1411SOL    HW2 5133   1.533   0.869   2.055
 1412SOL     OW 5134   1.539   2.688   0.310
 1412SOL    HW1 5135   1.540   2.742   0.226
 1412SOL    HW2 5136   1.491   2.601   0.294
 1413SOL     OW 5137   2.670   6.724   3.137
 1413SOL    HW1 5138   2.661   6.806   3.194
 1413SOL    HW2 5139   2.723   6.747   3.055
 1414SOL     OW 5140   1.716   0.691   2.363
 1414SOL    HW1 5141   1.719   0.750   2.444
 1414SOL    HW2 5142   1.810   0.672   2.332
 1415SOL     OW 5143   5.429   6.198   4.914
 1415SOL    HW1 5144   5.473   6.282   4.943
 1415SOL    HW2 5145   5.336   6.195   4.950
 1416SOL     OW 5146   4.522   5.226   3.621
 1416SOL    HW1 5147   4.602   5.277   3.588
 1416SOL    HW2 5148   4.535   5.129   3.604
 1417SOL     OW 5149   3.497   2.729   5.855
 1417SOL    HW1 5150   3.407   2.742   5.814
 1417SOL    HW2 5151   3.561   2.797   5.817
 1418SOL     OW 5152   3.500   3.678   3.387
 1418SOL    HW1 5153   3.442   3.747   3.344
 1418SOL    HW2 5154   3.491   3.683   3.486
 1419SOL     OW 5155   3.667   6.491   3.983
 1419SOL    HW1 5156   3.672   6.391   3.987
 1419SOL    HW2 5157   3.734   6.525   3.917
 1420SOL     OW 5158   0.901   6.032   2.345
 1420SOL    HW1 5159   0.878   6.062   2.252
 1420SOL    HW2 5160   0.872   6.101   2.411
 1421SOL     OW 5161   3.858   0.958   2.712
 1421SOL    HW1 5162   3.812   0.915   2.789
 1421SOL    HW2 5163   3.934   0.901   2.682
 1422SOL     OW 5164   2.719   6.354   0.428
 1422SOL    HW1 5165   2.712   6.255   0.437
 1422SOL    HW2 5166   2.730   6.378   0.332
 1423SOL     OW 5167   5.237   1.013   2.099
 1423SOL    HW1 5168   5.213   1.103   2.065
 1423SOL    HW2 5169   5.158   0.951   2.090
 1424SOL     OW 5170   6.180   5.214   2.849
 1424SOL    HW1 5171   6.162   5.262   2.763
 1424SOL    HW2 5172   6.177   5.279   2.925
 1425SOL     OW 5173   1.351   0.736   4.398
 1425SOL    HW1 5174   1.307   0.747   4.487
 1425SOL    HW2 5175   1.449   0.720   4.412
 1426SOL     OW 5176   1.505   1.477   5.245
 1426SOL    HW1 5177   1.480   1.380   5.247
 1426SOL    HW2 5178   1.501   1.514   5.338
 1427SOL     OW 5179   5.525   1.312   5.338
 1427SOL    HW1 5180   5.438   1.266   5.318
 1427SOL    HW2 5181   5.530   1.397   5.285
 1428SOL     OW 5182   5.928   1.061   0.368
 1428SOL    HW1 5183   5.882   0.973   0.378
 1428SOL    HW2 5184   5.949   1.076   0.271
 1429SOL     OW 5185   5.690   6.102   6.929
 1429SOL    HW1 5186   5.785   6.132   6.941
 1429SOL    HW2 5187   5.671   6.028   6.993
 1430SOL     OW 5188   2.538   4.585   3.132
 1430SOL    HW1 5189   2.504   4.512   3.191
 1430SOL    HW2 5190   2.528   4.559   3.036
 1431SOL     OW 5191   1.904   0.031   0.884
 1431SOL    HW1 5192   1.960   6.976   0.921
 1431SOL    HW2 5193   1.963   0.094   0.832
 1432SOL     OW 5194   3.157   0.324   1.241
 1432SOL    HW1 5195   3.189   0.364   1.155
 1432SOL    HW2 5196   3.191   0.230   1.249
 1433SOL     OW 5197   4.681   0.491   3.992
 1433SOL    HW1 5198   4.662   0.417   4.057
 1433SOL    HW2 5199   4.597   0.515   3.944
 1434SOL     OW 5200   0.851   1.236   5.295
 1434SOL    HW1 5201   0.912   1.313   5.274
 1434SOL    HW2 5202   0.841   1.228   5.394
 1435SOL     OW 5203   0.052   2.339   3.256
 1435SOL    HW1 5204   0.081   2.362   3.163
 1435SOL    HW2 5205   6.971   2.337   3.260
 1436SOL     OW 5206   4.714   3.806   0.681
 1436SOL    HW1 5207   4.630   3.800   0.734
 1436SOL    HW2 5208   4.791   3.773   0.735
 1437SOL     OW 5209   4.623   1.400   2.539
 1437SOL    HW1 5210   4.533   1.419   2.579
 1437SOL    HW2 5211   4.675   1.340   2.600
 1438SOL     OW 5212   2.451   0.090   1.707
 1438SOL    HW1 5213   2.540   0.135   1.699
 1438SOL    HW2 5214   2.424   0.088   1.803
 1439SOL     OW 5215   0.619   5.669   2.040
 1439SOL    HW1 5216   0.584   5.755   2.077
 1439SOL    HW2 5217   0.606   5.668   1.941
 1440SOL     OW 5218   2.183   2.765   1.592
 1440SOL    HW1 5219   2.170   2.833   1.520
 1440SOL    HW2 5220   2.226   2.808   1.671
 1441SOL     OW 5221   5.147   5.815   6.652
 1441SOL    HW1 5222   5.142   5.749   6.726
 1441SOL    HW2 5223   5.075   5.796   6.585
 1442SOL     OW 5224   5.439   5.355   0.945
 1442SOL    HW1 5225   5.453   5.453   0.933
 1442SOL    HW2 5226   5.351   5.328   0.907
 1443SOL     OW 5227   6.994   2.693   2.078
 1443SOL    HW1 5228   0.038   2.641   2.135
 1443SOL    HW2 5229   0.023   2.770   2.036
 1444SOL     OW 5230   0.670   5.865   6.069
 1444SOL    HW1 5231   0.715   5.950   6.097
 1444SOL    HW2 5232   0.571   5.877   6.074
 1445SOL     OW 5233   0.478   2.930   1.140
 1445SOL    HW1 5234   0.545   2.922   1.215
 1445SOL    HW2 5235   0.496   2.859   1.072
 1446SOL     OW 5236   6.610   5.313   1.597
 1446SOL    HW1 5237   6.629   5.405   1.563
 1446SOL    HW2 5238   6.590   5.252   1.520
 1447SOL     OW 5239   6.551   6.366   3.852
 1447SOL    HW1 5240   6.458   6.378   3.818
 1447SOL    HW2 5241   6.565   6.422   3.933
 1448SOL     OW 5242   0.967   1.223   5.845
 1448SOL    HW1 5243   1.027   1.298   5.817
 1448SOL    HW2 5244   1.022   1.150   5.887
 1449SOL     OW 5245   2.143   3.223   2.929
 1449SOL    HW1 5246   2.155   3.158   3.004
 1449SOL    HW2 5247   2.194   3.192   2.849
 1450SOL     OW 5248   3.447   1.856   3.245
 1450SOL    HW1 5249   3.501   1.785   3.202
 1450SOL    HW2 5250   3.394   1.905   3.176
 1451SOL     OW 5251   3.252   1.211   2.453
 1451SOL    HW1 5252   3.271   1.252   2.543
 1451SOL    HW2 5253   3.204   1.124   2.466
 1452SOL     OW 5254   4.202   2.589   6.339
 1452SOL    HW1 5255   4.269   2.531   6.384
 1452SOL    HW2 5256   4.246   2.637   6.262
 1453SOL     OW 5257   1.000   3.491   4.933
 1453SOL    HW1 5258   1.063   3.415   4.921
 1453SOL    HW2 5259   0.932   3.468   5.003
 1454SOL     OW 5260   3.120   2.188   2.600
 1454SOL    HW1 5261   3.080   2.171   2.510
 1454SOL    HW2 5262   3.206   2.138   2.609
 1455SOL     OW 5263   0.045   5.266   2.460
 1455SOL    HW1 5264   0.045   5.193   2.528
 1455SOL    HW2 5265   6.973   5.308   2.457
 1456SOL     OW 5266   6.671   6.105   4.371
 1456SOL    HW1 5267   6.628   6.023   4.334
 1456SOL    HW2 5268   6.709   6.085   4.461
 1457SOL     OW 5269   0.909   5.334   5.762
 1457SOL    HW1 5270   0.837   5.403   5.776
 1457SOL    HW2 5271   0.996   5.371   5.793
 1458SOL     OW 5272   6.712   5.005   4.990
 1458SOL    HW1 5273   6.731   5.020   5.087
 1458SOL    HW2 5274   6.624   4.957   4.981
 1459SOL     OW 5275   6.374   6.459   5.067
 1459SOL    HW1 5276   6.351   6.538   5.125
 1459SOL    HW2 5277   6.381   6.378   5.125
 1460SOL     OW 5278   1.915   6.130   5.140
 1460SOL    HW1 5279   1.912   6.228   5.121
 1460SOL    HW2 5280   2.009   6.104   5.164
 1461SOL     OW 5281   5.897   3.667   4.023
 1461SOL    HW1 5282   5.889   3.568   4.009
 1461SOL    HW2 5283   5.915   3.686   4.119
 1462SOL     OW 5284   0.334   1.571   2.096
 1462SOL    HW1 5285   0.427   1.587   2.130
 1462SOL    HW2 5286   0.279   1.530   2.168
 1463SOL     OW 5287   1.295   5.246   6.626
 1463SOL    HW1 5288   1.383   5.209   6.656
 1463SOL    HW2 5289   1.306   5.288   6.535
 1464SOL     OW 5290   1.448   4.805   4.597
 1464SOL    HW1 5291   1.510   4.820   4.520
 1464SOL    HW2 5292   1.413   4.894   4.628
 1465SOL     OW 5293   1.490   2.414   5.809
 1465SOL    HW1 5294   1.455   2.341   5.868
 1465SOL    HW2 5295   1.486   2.501   5.859
 1466SOL     OW 5296   5.620   1.241   2.778
 1466SOL    HW1 5297   5.549   1.261   2.710
 1466SOL    HW2 5298   5.655   1.149   2.763
 1467SOL     OW 5299   0.333   0.025   3.580
 1467SOL    HW1 5300   0.376   0.044   3.491
 1467SOL    HW2 5301   0.354   6.951   3.608
 1468SOL     OW 5302   3.526   6.471   3.319
 1468SOL    HW1 5303   3.463   6.504   3.249
 1468SOL    HW2 5304   3.475   6.451   3.403
 1469SOL     OW 5305   5.851   4.409   3.142
 1469SOL    HW1 5306   5.837   4.396   3.240
 1469SOL    HW2 5307   5.803   4.491   3.112
 1470SOL     OW 5308   6.506   2.483   2.359
 1470SOL    HW1 5309   6.426   2.429   2.383
 1470SOL    HW2 5310   6.487   2.535   2.276
 1471SOL     OW 5311   4.718   0.069   6.879
 1471SOL    HW1 5312   4.711   0.110   6.970
 1471SOL    HW2 5313   4.751   0.137   6.814
 1472SOL     OW 5314   2.333   0.573   6.791
 1472SOL    HW1 5315   2.245   0.603   6.752
 1472SOL    HW2 5316   2.368   0.497   6.737
 1473SOL     OW 5317   2.006   5.947   3.039
 1473SOL    HW1 5318   2.047   5.908   3.122
 1473SOL    HW2 5319   2.050   5.907   2.958
 1474SOL     OW 5320   1.907   4.047   2.261
 1474SOL    HW1 5321   1.988   4.040   2.203
 1474SOL    HW2 5322   1.874   4.141   2.261
 1475SOL     OW 5323   6.130   0.108   6.681
 1475SOL    HW1 5324   6.088   0.051   6.610
 1475SOL    HW2 5325   6.058   0.159   6.729
 1476SOL     OW 5326   5.370   0.316   6.606
 1476SOL    HW1 5327   5.310   0.391   6.577
 1476SOL    HW2 5328   5.460   0.327   6.563
 1477SOL     OW 5329   3.223   3.996   1.767
 1477SOL    HW1 5330   3.259   4.077   1.721
 1477SOL    HW2 5331   3.279   3.977   1.849
 1478SOL     OW 5332   5.083   4.144   6.236
 1478SOL    HW1 5333   5.149   4.108   6.170
 1478SOL    HW2 5334   5.040   4.069   6.286
 1479SOL     OW 5335   4.835   4.229   1.046
 1479SOL    HW1 5336   4.808   4.311   0.996
 1479SOL    HW2 5337   4.758   4.165   1.051
 1480SOL     OW 5338   2.613   1.440   4.337
 1480SOL    HW1 5339   2.546   1.424   4.264
 1480SOL    HW2 5340   2.567   1.436   4.426
 1481SOL     OW 5341   4.269   1.632   5.632
 1481SOL    HW1 5342   4.321   1.704   5.585
 1481SOL    HW2 5343   4.237   1.668   5.720
 1482SOL     OW 5344   6.465   1.292   1.664
 1482SOL    HW1 5345   6.398   1.366   1.653
 1482SOL    HW2 5346   6.452   1.225   1.591
 1483SOL     OW 5347   6.514   0.327   6.972
 1483SOL    HW1 5348   6.554   0.296   6.886
 1483SOL    HW2 5349   6.415   0.324   6.966
 1484SOL     OW 5350   2.978   6.420   4.874
 1484SOL    HW1 5351   3.026   6.355   4.816
 1484SOL    HW2 5352   3.011   6.413   4.968
 1485SOL     OW 5353   5.133   3.877   3.644
 1485SOL    HW1 5354   5.095   3.817   3.714
 1485SOL    HW2 5355   5.200   3.939   3.686
 1486SOL     OW 5356   5.274   6.430   4.149
 1486SOL    HW1 5357   5.250   6.341   4.109
 1486SOL    HW2 5358   5.249   6.503   4.085
 1487SOL     OW 5359   6.240   0.932   0.170
 1487SOL    HW1 5360   6.219   1.022   0.131
 1487SOL    HW2 5361   6.338   0.926   0.187
 1488SOL     OW 5362   6.861   2.665   2.949
 1488SOL    HW1 5363   6.838   2.624   3.037
 1488SOL    HW2 5364   6.960   2.681   2.946
 1489SOL     OW 5365   3.287   5.265   6.794
 1489SOL    HW1 5366   3.307   5.196   6.725
 1489SOL    HW2 5367   3.189   5.263   6.816
 1490SOL     OW 5368   6.314   3.208   2.374
 1490SOL    HW1 5369   6.240   3.224   2.308
 1490SOL    HW2 5370   6.322   3.110   2.393
 1491SOL     OW 5371   5.264   2.667   3.681
 1491SOL    HW1 5372   5.245   2.678   3.583
 1491SOL    HW2 5373   5.249   2.754   3.728
 1492SOL     OW 5374   0.909   2.461   2.415
 1492SOL    HW1 5375   0.842   2.404   2.462
 1492SOL    HW2 5376   0.988   2.405   2.390
 1493SOL     OW 5377   6.011   2.185   6.570
 1493SOL    HW1 5378   5.939   2.205   6.637
 1493SOL    HW2 5379   5.992   2.097   6.526
 1494SOL     OW 5380   0.922   4.031   6.290
 1494SOL    HW1 5381   0.910   4.109   6.228
 1494SOL    HW2 5382   0.845   3.969   6.281
 1495SOL     OW 5383   6.672   4.086   3.987
 1495SOL    HW1 5384   6.687   4.140   3.904
 1495SOL    HW2 5385   6.581   4.106   4.024
 1496SOL     OW 5386   6.453   6.252   5.687
 1496SOL    HW1 5387   6.549   6.261   5.661
 1496SOL    HW2 5388   6.408   6.340   5.682
 1497SOL     OW 5389   5.129   2.829   2.143
 1497SOL    HW1 5390   5.180   2.751   2.106
 1497SOL    HW2 5391   5.174   2.861   2.226
 1498SOL     OW 5392   3.589   4.406   0.481
 1498SOL    HW1 5393   3.671   4.415   0.424
 1498SOL    HW2 5394   3.592   4.473   0.555
 1499SOL     OW 5395   0.591   4.504   4.344
 1499SOL    HW1 5396   0.575   4.413   4.306
 1499SOL    HW2 5397   0.599   4.498   4.443
 1500SOL     OW 5398   2.499   5.285   2.180
 1500SOL    HW1 5399   2.451   5.280   2.092
 1500SOL    HW2 5400   2.589   5.327   2.166
 1501SOL     OW 5401   6.054   1.574   1.066
 1501SOL    HW1 5402   5.998   1.590   0.984
 1501SOL    HW2 5403   6.067   1.661   1.114
 1502SOL     OW 5404   0.398   6.228   6.529
 1502SOL    HW1 5405   0.299   6.217   6.544
 1502SOL    HW2 5406   0.413   6.289   6.451
 1503SOL     OW 5407   0.135   5.132   1.673
 1503SOL    HW1 5408   0.085   5.219   1.677
 1503SOL    HW2 5409   0.090   5.071   1.608
 1504SOL     OW 5410   1.627   0.087   3.434
 1504SOL    HW1 5411   1.575   0.014   3.389
 1504SOL    HW2 5412   1.719   0.091   3.395
 1505SOL     OW 5413   6.567   4.663   4.895
 1505SOL    HW1 5414   6.504   4.735   4.924
 1505SOL    HW2 5415   6.634   4.701   4.831
 1506SOL     OW 5416   1.551   0.835   0.929
 1506SOL    HW1 5417   1.576   0.745   0.893
 1506SOL    HW2 5418   1.573   0.839   1.026
 1507SOL     OW 5419   2.737   2.314   2.845
 1507SOL    HW1 5420   2.747   2.413   2.857
 1507SOL    HW2 5421   2.655   2.283   2.892
 1508SOL     OW 5422   1.550   0.304   2.233
 1508SOL    HW1 5423   1.471   0.261   2.189
 1508SOL    HW2 5424   1.525   0.395   2.264
 1509SOL     OW 5425   5.013   1.648   4.236
 1509SOL    HW1 5426   4.938   1.625   4.298
 1509SOL    HW2 5427   5.075   1.570   4.228
 1510SOL     OW 5428   3.136   6.855   5.082
 1510SOL    HW1 5429   3.213   6.857   5.147
 1510SOL    HW2 5430   3.058   6.810   5.125
 1511SOL     OW 5431   3.490   4.113   5.351
 1511SOL    HW1 5432   3.397   4.131   5.383
 1511SOL    HW2 5433   3.534   4.046   5.411
 1512SOL     OW 5434   5.291   6.468   0.512
 1512SOL    HW1 5435   5.241   6.532   0.453
 1512SOL    HW2 5436   5.354   6.415   0.456
 1513SOL     OW 5437   2.698   0.626   5.898
 1513SOL    HW1 5438   2.743   0.562   5.835
 1513SOL    HW2 5439   2.720   0.602   5.992
 1514SOL     OW 5440   3.140   1.997   6.754
 1514SOL    HW1 5441   3.151   2.065   6.682
 1514SOL    HW2 5442   3.229   1.980   6.797
 1515SOL     OW 5443   3.710   0.821   2.894
 1515SOL    HW1 5444   3.628   0.858   2.851
 1515SOL    HW2 5445   3.700   0.723   2.909
 1516SOL     OW 5446   6.716   6.765   6.199
 1516SOL    HW1 5447   6.773   6.716   6.133
 1516SOL    HW2 5448   6.719   6.717   6.287
 1517SOL     OW 5449   2.527   6.386   3.028
 1517SOL    HW1 5450   2.597   6.326   3.067
 1517SOL    HW2 5451   2.506   6.460   3.093
 1518SOL     OW 5452   1.283   3.222   6.913
 1518SOL    HW1 5453   1.320   3.307   6.875
 1518SOL    HW2 5454   1.347   3.184   6.979
 1519SOL     OW 5455   0.523   4.388   6.657
 1519SOL    HW1 5456   0.580   4.307   6.671
 1519SOL    HW2 5457   0.499   4.396   6.560
 1520SOL     OW 5458   0.040   6.944   3.263
 1520SOL    HW1 5459   0.014   6.944   3.360
 1520SOL    HW2 5460   6.978   6.949   3.206
 1521SOL     OW 5461   1.930   4.782   6.504
 1521SOL    HW1 5462   1.907   4.806   6.598
 1521SOL    HW2 5463   1.957   4.685   6.500
 1522SOL     OW 5464   5.541   6.701   4.369
 1522SOL    HW1 5465   5.545   6.606   4.335
 1522SOL    HW2 5466   5.531   6.763   4.292
 1523SOL     OW 5467   2.481   6.614   0.358
 1523SOL    HW1 5468   2.471   6.539   0.424
 1523SOL    HW2 5469   2.523   6.693   0.403
 1524SOL     OW 5470   1.946   2.764   4.396
 1524SOL    HW1 5471   1.907   2.678   4.364
 1524SOL    HW2 5472   2.011   2.798   4.328
 1525SOL     OW 5473   5.636   4.076   6.514
 1525SOL    HW1 5474   5.619   4.067   6.612
 1525SOL    HW2 5475   5.700   4.151   6.498
 1526SOL     OW 5476   0.841   1.627   1.032
 1526SOL    HW1 5477   0.916   1.689   1.057
 1526SOL    HW2 5478   0.874   1.533   1.035
 1527SOL     OW 5479   5.388   1.377   4.803
 1527SOL    HW1 5480   5.411   1.473   4.819
 1527SOL    HW2 5481   5.339   1.369   4.717
 1528SOL     OW 5482   3.758   2.947   2.708
 1528SOL    HW1 5483   3.798   2.939   2.617
 1528SOL    HW2 5484   3.660   2.927   2.702
 1529SOL     OW 5485   4.265   1.334   5.579
 1529SOL    HW1 5486   4.267   1.419   5.631
 1529SOL    HW2 5487   4.173   1.317   5.545
 1530SOL     OW 5488   2.663   6.854   1.547
 1530SOL    HW1 5489   2.581   6.807   1.512
 1530SOL    HW2 5490   2.692   6.812   1.632
 1531SOL     OW 5491   4.973   6.278   4.461
 1531SOL    HW1 5492   4.983   6.206   4.392
 1531SOL    HW2 5493   4.939   6.237   4.546
 1532SOL     OW 5494   3.049   5.772   1.543
 1532SOL    HW1 5495   3.133   5.735   1.583
 1532SOL    HW2 5496   3.071   5.858   1.495
 1533SOL     OW 5497   5.881   6.183   0.851
 1533SOL    HW1 5498   5.873   6.145   0.943
 1533SOL    HW2 5499   5.942   6.126   0.796
 1534SOL     OW 5500   2.217   4.728   6.933
 1534SOL    HW1 5501   2.262   4.789   6.867
 1534SOL    HW2 5502   2.151   4.780   6.987
 1535SOL     OW 5503   5.145   4.209   3.710
 1535SOL    HW1 5504   5.124   4.265   3.631
 1535SOL    HW2 5505   5.061   4.167   3.745
 1536SOL     OW 5506   4.411   3.812   6.371
 1536SOL    HW1 5507   4.511   3.802   6.365
 1536SOL    HW2 5508   4.389   3.900   6.413
 1537SOL     OW 5509   3.127   5.579   2.611
 1537SOL    HW1 5510   3.091   5.610   2.522
 1537SOL    HW2 5511   3.157   5.484   2.604
 1538SOL     OW 5512   2.764   0.832   0.672
 1538SOL    HW1 5513   2.774   0.932   0.664
 1538SOL    HW2 5514   2.810   0.788   0.595
 1539SOL     OW 5515   7.002   3.179   1.095
 1539SOL    HW1 5516   0.012   3.122   1.172
 1539SOL    HW2 5517   6.948   3.256   1.129
 1540SOL     OW 5518   3.389   6.377   3.531
 1540SOL    HW1 5519   3.350   6.462   3.568
 1540SOL    HW2 5520   3.320   6.331   3.476
 1541SOL     OW 5521   4.522   2.241   5.661
 1541SOL    HW1 5522   4.523   2.331   5.704
 1541SOL    HW2 5523   4.469   2.178   5.717
 1542SOL     OW 5524   6.676   5.201   3.035
 1542SOL    HW1 5525   6.635   5.156   2.956
 1542SOL    HW2 5526   6.764   5.159   3.055
 1543SOL     OW 5527   3.259   5.519   0.937
 1543SOL    HW1 5528   3.167   5.497   0.969
 1543SOL    HW2 5529   3.285   5.454   0.865
 1544SOL     OW 5530   4.015   3.284   3.996
 1544SOL    HW1 5531   3.976   3.208   3.944
 1544SOL    HW2 5532   4.100   3.254   4.040
 1545SOL     OW 5533   6.230   5.067   1.273
 1545SOL    HW1 5534   6.174   5.058   1.355
 1545SOL    HW2 5535   6.256   5.162   1.259
 1546SOL     OW 5536   6.216   6.333   5.423
 1546SOL    HW1 5537   6.162   6.252   5.444
 1546SOL    HW2 5538   6.169   6.386   5.351
 1547SOL     OW 5539   1.349   3.277   6.264
 1547SOL    HW1 5540   1.412   3.248   6.337
 1547SOL    HW2 5541   1.343   3.205   6.195
 1548SOL     OW 5542   6.510   2.149   0.488
 1548SOL    HW1 5543   6.570   2.192   0.421
 1548SOL    HW2 5544   6.448   2.085   0.442
 1549SOL     OW 5545   4.879   1.155   4.761
 1549SOL    HW1 5546   4.899   1.216   4.684
 1549SOL    HW2 5547   4.803   1.095   4.737
 1550SOL     OW 5548   3.084   3.537   4.434
 1550SOL    HW1 5549   3.046   3.524   4.525
 1550SOL    HW2 5550   3.098   3.635   4.418
 1551SOL     OW 5551   6.977   5.335   5.970
 1551SOL    HW1 5552   6.984   5.425   6.014
 1551SOL    HW2 5553   6.992   5.263   6.038
 1552SOL     OW 5554   2.025   4.150   1.556
 1552SOL    HW1 5555   2.103   4.093   1.582
 1552SOL    HW2 5556   2.054   4.245   1.550
 1553SOL     OW 5557   1.864   1.822   5.500
 1553SOL    HW1 5558   1.864   1.910   5.453
 1553SOL    HW2 5559   1.926   1.759   5.453
 1554SOL     OW 5560   4.415   1.874   3.198
 1554SOL    HW1 5561   4.364   1.812   3.139
 1554SOL    HW2 5562   4.425   1.833   3.289
 1555SOL     OW 5563   5.966   5.399   5.708
 1555SOL    HW1 5564   6.065   5.405   5.691
 1555SOL    HW2 5565   5.943   5.305   5.735
 1556SOL     OW 5566   1.753   1.035   5.805
 1556SOL    HW1 5567   1.674   1.080   5.846
 1556SOL    HW2 5568   1.837   1.077   5.839
 1557SOL     OW 5569   1.050   1.911   5.480
 1557SOL    HW1 5570   1.012   1.856   5.554
 1557SOL    HW2 5571   0.984   1.916   5.405
 1558SOL     OW 5572   6.878   6.530   4.586
 1558SOL    HW1 5573   6.936   6.533   4.505
 1558SOL    HW2 5574   6.877   6.621   4.629
 1559SOL     OW 5575   1.400   1.207   5.909
 1559SOL    HW1 5576   1.408   1.189   5.811
 1559SOL    HW2 5577   1.348   1.291   5.924
 1560SOL     OW 5578   0.101   0.512   0.205
 1560SOL    HW1 5579   0.161   0.522   0.285
 1560SOL    HW2 5580   0.157   0.496   0.124
 1561SOL     OW 5581   5.957   6.061   1.567
 1561SOL    HW1 5582   6.008   6.028   1.487
 1561SOL    HW2 5583   5.859   6.060   1.546
 1562SOL     OW 5584   5.350   0.400   4.202
 1562SOL    HW1 5585   5.407   0.370   4.279
 1562SOL    HW2 5586   5.359   0.335   4.127
 1563SOL     OW 5587   3.009   6.823   5.944
 1563SOL    HW1 5588   3.094   6.820   5.998
 1563SOL    HW2 5589   2.938   6.772   5.992
 1564SOL     OW 5590   1.903   2.208   3.158
 1564SOL    HW1 5591   1.925   2.244   3.068
 1564SOL    HW2 5592   1.975   2.145   3.187
 1565SOL     OW 5593   6.326   4.774   1.034
 1565SOL    HW1 5594   6.318   4.812   0.942
 1565SOL    HW2 5595   6.381   4.836   1.091
 1566SOL     OW 5596   6.181   4.766   2.036
 1566SOL    HW1 5597   6.161   4.851   1.987
 1566SOL    HW2 5598   6.213   4.697   1.971
 1567SOL     OW 5599   6.706   5.841   5.359
 1567SOL    HW1 5600   6.608   5.844   5.378
 1567SOL    HW2 5601   6.757   5.838   5.445
 1568SOL     OW 5602   0.279   6.759   0.757
 1568SOL    HW1 5603   0.198   6.803   0.717
 1568SOL    HW2 5604   0.284   6.781   0.854
 1569SOL     OW 5605   3.136   6.495   5.471
 1569SOL    HW1 5606   3.103   6.522   5.561
 1569SOL    HW2 5607   3.173   6.402   5.476
 1570SOL     OW 5608   2.995   2.135   1.799
 1570SOL    HW1 5609   2.958   2.203   1.863
 1570SOL    HW2 5610   2.947   2.142   1.711
 1571SOL     OW 5611   0.138   3.289   0.881
 1571SOL    HW1 5612   0.217   3.337   0.920
 1571SOL    HW2 5613   0.088   3.242   0.955
 1572SOL     OW 5614   0.504   5.552   3.276
 1572SOL    HW1 5615   0.420   5.510   3.310
 1572SOL    HW2 5616   0.489   5.649   3.261
 1573SOL     OW 5617   4.724   6.769   0.356
 1573SOL    HW1 5618   4.745   6.709   0.279
 1573SOL    HW2 5619   4.706   6.861   0.323
 1574SOL     OW 5620   5.538   3.613   2.126
 1574SOL    HW1 5621   5.489   3.562   2.056
 1574SOL    HW2 5622   5.473   3.649   2.194
 1575SOL     OW 5623   3.925   2.166   0.569
 1575SOL    HW1 5624   3.829   2.169   0.542
 1575SOL    HW2 5625   3.949   2.250   0.617
 1576SOL     OW 5626   6.412   4.827   2.934
 1576SOL    HW1 5627   6.350   4.896   2.895
 1576SOL    HW2 5628   6.507   4.858   2.923
 1577SOL     OW 5629   1.879   0.683   0.731
 1577SOL    HW1 5630   1.831   0.651   0.650
 1577SOL    HW2 5631   1.896   0.606   0.793
 1578SOL     OW 5632   5.953   5.955   4.462
 1578SOL    HW1 5633   5.904   5.880   4.417
 1578SOL    HW2 5634   5.986   6.019   4.392
 1579SOL     OW 5635   0.138   0.442   2.848
 1579SOL    HW1 5636   0.136   0.433   2.748
 1579SOL    HW2 5637   0.059   0.495   2.878
 1580SOL     OW 5638   2.922   4.028   5.642
 1580SOL    HW1 5639   2.865   4.057   5.719
 1580SOL    HW2 5640   3.011   3.998   5.676
 1581SOL     OW 5641   6.190   2.998   4.439
 1581SOL    HW1 5642   6.112   3.035   4.389
 1581SOL    HW2 5643   6.157   2.949   4.520
 1582SOL     OW 5644   5.842   6.399   4.184
 1582SOL    HW1 5645   5.870   6.315   4.231
 1582SOL    HW2 5646   5.840   6.475   4.249
 1583SOL     OW 5647   1.951   2.899   1.669
 1583SOL    HW1 5648   2.031   2.842   1.651
 1583SOL    HW2 5649   1.872   2.863   1.619
 1584SOL     OW 5650   2.377   6.799   6.430
 1584SOL    HW1 5651   2.456   6.840   6.476
 1584SOL    HW2 5652   2.307   6.777   6.498
 1585SOL     OW 5653   5.875   0.710   6.009
 1585SOL    HW1 5654   5.943   0.666   6.067
 1585SOL    HW2 5655   5.784   0.693   6.047
 1586SOL     OW 5656   3.797   3.126   3.070
 1586SOL    HW1 5657   3.858   3.120   2.991
 1586SOL    HW2 5658   3.842   3.086   3.150
 1587SOL     OW 5659   1.955   6.858   6.238
 1587SOL    HW1 5660   1.909   6.770   6.229
 1587SOL    HW2 5661   2.054   6.846   6.226
 1588SOL     OW 5662   6.190   3.768   0.588
 1588SOL    HW1 5663   6.153   3.789   0.498
 1588SOL    HW2 5664   6.284   3.803   0.595
 1589SOL     OW 5665   4.967   4.911   3.073
 1589SOL    HW1 5666   5.013   4.828   3.104
 1589SOL    HW2 5667   4.879   4.920   3.120
 1590SOL     OW 5668   2.250   6.327   4.422
 1590SOL    HW1 5669   2.229   6.354   4.328
 1590SOL    HW2 5670   2.192   6.249   4.447
 1591SOL     OW 5671   2.430   3.388   0.144
 1591SOL    HW1 5672   2.471   3.319   0.205
 1591SOL    HW2 5673   2.344   3.353   0.108
 1592SOL     OW 5674   3.790   3.555   4.065
 1592SOL    HW1 5675   3.830   3.480   4.012
 1592SOL    HW2 5676   3.700   3.528   4.099
 1593SOL     OW 5677   1.459   4.377   4.082
 1593SOL    HW1 5678   1.526   4.438   4.124
 1593SOL    HW2 5679   1.507   4.305   4.031
 1594SOL     OW 5680   0.677   5.310   2.956
 1594SOL    HW1 5681   0.585   5.341   2.979
 1594SOL    HW2 5682   0.745   5.371   2.998
 1595SOL     OW 5683   0.133   3.292   4.799
 1595SOL    HW1 5684   0.227   3.263   4.819
 1595SOL    HW2 5685   0.101   3.354   4.871
 1596SOL     OW 5686   2.770   5.077   6.660
 1596SOL    HW1 5687   2.797   5.024   6.580
 1596SOL    HW2 5688   2.827   5.051   6.738
 1597SOL     OW 5689   2.613   0.311   0.701
 1597SOL    HW1 5690   2.694   0.309   0.642
 1597SOL    HW2 5691   2.532   0.331   0.646
 1598SOL     OW 5692   6.899   5.500   1.535
 1598SOL    HW1 5693   6.909   5.598   1.554
 1598SOL    HW2 5694   6.973   5.469   1.476
 1599SOL     OW 5695   2.920   5.251   0.538
 1599SOL    HW1 5696   3.002   5.297   0.571
 1599SOL    HW2 5697   2.896   5.286   0.448
 1600SOL     OW 5698   3.506   1.661   5.055
 1600SOL    HW1 5699   3.413   1.675   5.088
 1600SOL    HW2 5700   3.570   1.664   5.132
 1601SOL     OW 5701   1.979   5.248   5.081
 1601SOL    HW1 5702   1.957   5.344   5.065
 1601SOL    HW2 5703   2.004   5.205   4.994
 1602SOL     OW 5704   0.654   3.535   2.332
 1602SOL    HW1 5705   0.656   3.533   2.432
 1602SOL    HW2 5706   0.561   3.549   2.301
 1603SOL     OW 5707   5.888   6.863   0.368
 1603SOL    HW1 5708   5.961   6.902   0.424
 1603SOL    HW2 5709   5.923   6.783   0.319
 1604SOL     OW 5710   0.823   5.446   4.478
 1604SOL    HW1 5711   0.887   5.458   4.402
 1604SOL    HW2 5712   0.840   5.515   4.548
 1605SOL     OW 5713   4.925   5.111   2.614
 1605SOL    HW1 5714   4.881   5.180   2.671
 1605SOL    HW2 5715   4.927   5.024   2.664
 1606SOL     OW 5716   5.767   5.761   4.312
 1606SOL    HW1 5717   5.774   5.750   4.213
 1606SOL    HW2 5718   5.744   5.674   4.354
 1607SOL     OW 5719   4.628   3.275   1.570
 1607SOL    HW1 5720   4.678   3.277   1.483
 1607SOL    HW2 5721   4.633   3.183   1.609
 1608SOL     OW 5722   2.975   0.376   0.725
 1608SOL    HW1 5723   2.910   0.350   0.654
 1608SOL    HW2 5724   2.981   0.304   0.794
 1609SOL     OW 5725   5.742   1.463   5.096
 1609SOL    HW1 5726   5.774   1.372   5.072
 1609SOL    HW2 5727   5.645   1.459   5.120
 1610SOL     OW 5728   4.740   6.521   3.017
 1610SOL    HW1 5729   4.723   6.614   2.984
 1610SOL    HW2 5730   4.705   6.455   2.951
 1611SOL     OW 5731   4.331   3.653   1.422
 1611SOL    HW1 5732   4.253   3.593   1.439
 1611SOL    HW2 5733   4.404   3.601   1.379
 1612SOL     OW 5734   2.965   0.702   5.114
 1612SOL    HW1 5735   2.881   0.680   5.064
 1612SOL    HW2 5736   3.043   0.657   5.070
 1613SOL     OW 5737   1.862   0.560   1.629
 1613SOL    HW1 5738   1.829   0.557   1.534
 1613SOL    HW2 5739   1.869   0.655   1.658
 1614SOL     OW 5740   6.931   2.576   5.180
 1614SOL    HW1 5741   6.946   2.535   5.090
 1614SOL    HW2 5742   6.976   2.520   5.249
 1615SOL     OW 5743   6.473   5.343   5.695
 1615SOL    HW1 5744   6.535   5.310   5.765
 1615SOL    HW2 5745   6.526   5.380   5.618
 1616SOL     OW 5746   2.432   2.015   6.097
 1616SOL    HW1 5747   2.495   2.090   6.076
 1616SOL    HW2 5748   2.484   1.935   6.128
 1617SOL     OW 5749   3.279   0.843   3.531
 1617SOL    HW1 5750   3.257   0.750   3.502
 1617SOL    HW2 5751   3.209   0.906   3.496
 1618SOL     OW 5752   5.322   2.841   1.876
 1618SOL    HW1 5753   5.290   2.930   1.908
 1618SOL    HW2 5754   5.245   2.792   1.833
 1619SOL     OW 5755   1.481   2.594   4.751
 1619SOL    HW1 5756   1.385   2.605   4.725
 1619SOL    HW2 5757   1.534   2.671   4.716
 1620SOL     OW 5758   3.546   6.292   1.614
 1620SOL    HW1 5759   3.532   6.274   1.712
 1620SOL    HW2 5760   3.586   6.211   1.571
 1621SOL     OW 5761   2.016   2.517   1.610
 1621SOL    HW1 5762   2.026   2.448   1.539
 1621SOL    HW2 5763   2.080   2.592   1.592
 1622SOL     OW 5764   2.207   2.371   5.304
 1622SOL    HW1 5765   2.285   2.314   5.331
 1622SOL    HW2 5766   2.122   2.331   5.338
 1623SOL     OW 5767   2.058   1.995   4.819
 1623SOL    HW1 5768   2.109   2.074   4.785
 1623SOL    HW2 5769   2.051   1.999   4.919
 1624SOL     OW 5770   2.218   0.715   0.628
 1624SOL    HW1 5771   2.317   0.700   0.629
 1624SOL    HW2 5772   2.195   0.777   0.553
 1625SOL     OW 5773   1.002   6.784   1.434
 1625SOL    HW1 5774   1.102   6.781   1.425
 1625SOL    HW2 5775   0.961   6.771   1.344
 1626SOL     OW 5776   2.603   3.119   6.266
 1626SOL    HW1 5777   2.533   3.059   6.228
 1626SOL    HW2 5778   2.684   3.065   6.292
 1627SOL     OW 5779   4.781   4.080   3.498
 1627SOL    HW1 5780   4.734   4.145   3.438
 1627SOL    HW2 5781   4.795   4.120   3.588
 1628SOL     OW 5782   3.350   3.291   0.236
 1628SOL    HW1 5783   3.415   3.281   0.311
 1628SOL    HW2 5784   3.308   3.382   0.240
 1629SOL     OW 5785   2.825   2.198   2.586
 1629SOL    HW1 5786   2.785   2.224   2.674
 1629SOL    HW2 5787   2.922   2.224   2.585
 1630SOL     OW 5788   5.470   5.119   4.009
 1630SOL    HW1 5789   5.391   5.180   4.009
 1630SOL    HW2 5790   5.547   5.164   4.053
 1631SOL     OW 5791   1.146   0.082   6.037
 1631SOL    HW1 5792   1.106   0.173   6.024
 1631SOL    HW2 5793   1.242   0.092   6.065
 1632SOL     OW 5794   4.328   6.748   6.722
 1632SOL    HW1 5795   4.349   6.836   6.764
 1632SOL    HW2 5796   4.412   6.696   6.708
 1633SOL     OW 5797   6.314   3.630   2.982
 1633SOL    HW1 5798   6.394   3.571   2.997
 1633SOL    HW2 5799   6.232   3.573   2.975
 1634SOL     OW 5800   3.941   1.128   0.958
 1634SOL    HW1 5801   3.860   1.112   0.902
 1634SOL    HW2 5802   3.945   1.225   0.983
 1635SOL     OW 5803   1.216   4.502   3.403
 1635SOL    HW1 5804   1.298   4.476   3.453
 1635SOL    HW2 5805   1.137   4.453   3.440
 1636SOL     OW 5806   2.997   6.449   0.237
 1636SOL    HW1 5807   3.035   6.504   0.311
 1636SOL    HW2 5808   2.905   6.482   0.215
 1637SOL     OW 5809   1.186   3.041   2.556
 1637SOL    HW1 5810   1.268   3.098   2.564
 1637SOL    HW2 5811   1.185   2.974   2.630
 1638SOL     OW 5812   1.592   2.491   6.098
 1638SOL    HW1 5813   1.604   2.545   6.182
 1638SOL    HW2 5814   1.547   2.405   6.120
 1639SOL     OW 5815   4.329   4.931   2.893
 1639SOL    HW1 5816   4.262   5.006   2.894
 1639SOL    HW2 5817   4.288   4.850   2.937
 1640SOL     OW 5818   6.076   6.719   0.944
 1640SOL    HW1 5819   5.990   6.672   0.962
 1640SOL    HW2 5820   6.152   6.659   0.965
 1641SOL     OW 5821   6.573   2.880   4.757
 1641SOL    HW1 5822   6.601   2.824   4.679
 1641SOL    HW2 5823   6.585   2.976   4.735
 1642SOL     OW 5824   0.813   2.392   1.934
 1642SOL    HW1 5825   0.891   2.336   1.962
 1642SOL    HW2 5826   0.840   2.488   1.930
 1643SOL     OW 5827   3.767   0.318   5.831
 1643SOL    HW1 5828   3.862   0.347   5.816
 1643SOL    HW2 5829   3.705   0.379   5.782
 1644SOL     OW 5830   4.146   1.279   1.144
 1644SOL    HW1 5831   4.114   1.291   1.049
 1644SOL    HW2 5832   4.147   1.182   1.166
 1645SOL     OW 5833   2.324   6.002   6.456
 1645SOL    HW1 5834   2.353   6.095   6.430
 1645SOL    HW2 5835   2.257   5.969   6.390
 1646SOL     OW 5836   2.565   3.727   0.453
 1646SOL    HW1 5837   2.640   3.712   0.517
 1646SOL    HW2 5838   2.602   3.753   0.364
 1647SOL     OW 5839   5.382   3.398   2.682
 1647SOL    HW1 5840   5.347   3.388   2.775
 1647SOL    HW2 5841   5.387   3.495   2.659
 1648SOL     OW 5842   3.375   0.649   2.879
 1648SOL    HW1 5843   3.379   0.687   2.971
 1648SOL    HW2 5844   3.352   0.552   2.884
 1649SOL     OW 5845   2.561   0.127   3.828
 1649SOL    HW1 5846   2.522   0.169   3.746
 1649SOL    HW2 5847   2.528   0.175   3.909
 1650SOL     OW 5848   3.181   0.050   4.375
 1650SOL    HW1 5849   3.254   0.081   4.314
 1650SOL    HW2 5850   3.097   0.034   4.322
 1651SOL     OW 5851   1.237   6.530   2.235
 1651SOL    HW1 5852   1.203   6.436   2.239
 1651SOL    HW2 5853   1.269   6.558   2.325
 1652SOL     OW 5854   3.565   3.292   1.794
 1652SOL    HW1 5855   3.523   3.363   1.850
 1652SOL    HW2 5856   3.494   3.232   1.758
 1653SOL     OW 5857   0.986   4.844   1.232
 1653SOL    HW1 5858   1.074   4.870   1.193
 1653SOL    HW2 5859   0.984   4.868   1.329
 1654SOL     OW 5860   0.630   2.063   3.847
 1654SOL    HW1 5861   0.598   2.150   3.810
 1654SOL    HW2 5862   0.576   1.988   3.809
 1655SOL     OW 5863   4.229   4.088   5.455
 1655SOL    HW1 5864   4.243   3.997   5.417
 1655SOL    HW2 5865   4.174   4.142   5.392
 1656SOL     OW 5866   0.253   3.659   2.519
 1656SOL    HW1 5867   0.189   3.649   2.594
 1656SOL    HW2 5868   0.243   3.750   2.479
 1657SOL     OW 5869   1.206   0.920   5.255
 1657SOL    HW1 5870   1.215   1.017   5.232
 1657SOL    HW2 5871   1.136   0.878   5.198
 1658SOL     OW 5872   5.813   0.028   2.575
 1658SOL    HW1 5873   5.840   0.051   2.668
 1658SOL    HW2 5874   5.819   0.109   2.517
 1659SOL     OW 5875   5.107   2.129   6.755
 1659SOL    HW1 5876   5.068   2.055   6.700
 1659SOL    HW2 5877   5.063   2.215   6.731
 1660SOL     OW 5878   2.288   6.137   3.577
 1660SOL    HW1 5879   2.359   6.207   3.575
 1660SOL    HW2 5880   2.326   6.052   3.614
 1661SOL     OW 5881   2.653   0.903   3.416
 1661SOL    HW1 5882   2.640   0.809   3.384
 1661SOL    HW2 5883   2.644   0.905   3.516
 1662SOL     OW 5884   6.616   0.724   3.318
 1662SOL    HW1 5885   6.645   0.654   3.253
 1662SOL    HW2 5886   6.659   0.706   3.407
 1663SOL     OW 5887   1.783   0.362   3.660
 1663SOL    HW1 5888   1.726   0.412   3.726
 1663SOL    HW2 5889   1.815   0.277   3.701
 1664SOL     OW 5890   1.897   5.750   4.395
 1664SOL    HW1 5891   1.974   5.686   4.396
 1664SOL    HW2 5892   1.856   5.753   4.486
 1665SOL     OW 5893   6.719   1.077   3.371
 1665SOL    HW1 5894   6.787   1.064   3.299
 1665SOL    HW2 5895   6.754   1.042   3.457
 1666SOL     OW 5896   5.469   2.272   6.116
 1666SOL    HW1 5897   5.447   2.369   6.124
 1666SOL    HW2 5898   5.472   2.230   6.206
 1667SOL     OW 5899   6.898   0.588   0.949
 1667SOL    HW1 5900   6.921   0.594   0.852
 1667SOL    HW2 5901   6.802   0.562   0.959
 1668SOL     OW 5902   1.529   0.421   4.553
 1668SOL    HW1 5903   1.514   0.474   4.637
 1668SOL    HW2 5904   1.522   0.481   4.474
 1669SOL     OW 5905   5.181   5.957   5.612
 1669SOL    HW1 5906   5.215   6.043   5.574
 1669SOL    HW2 5907   5.258   5.899   5.638
 1670SOL     OW 5908   6.825   3.274   6.326
 1670SOL    HW1 5909   6.825   3.278   6.425
 1670SOL    HW2 5910   6.919   3.280   6.292
 1671SOL     OW 5911   5.665   5.101   0.206
 1671SOL    HW1 5912   5.751   5.109   0.257
 1671SOL    HW2 5913   5.590   5.087   0.270
 1672SOL     OW 5914   1.761   4.766   2.817
 1672SOL    HW1 5915   1.700   4.689   2.794
 1672SOL    HW2 5916   1.766   4.828   2.739
 1673SOL     OW 5917   6.471   3.216   3.451
 1673SOL    HW1 5918   6.405   3.230   3.525
 1673SOL    HW2 5919   6.548   3.279   3.463
 1674SOL     OW 5920   2.105   5.557   0.251
 1674SOL    HW1 5921   2.045   5.637   0.251
 1674SOL    HW2 5922   2.166   5.561   0.330
 1675SOL     OW 5923   5.157   1.802   6.920
 1675SOL    HW1 5924   5.196   1.814   7.011
 1675SOL    HW2 5925   5.057   1.807   6.926
 1676SOL     OW 5926   2.812   2.073   3.484
 1676SOL    HW1 5927   2.882   2.013   3.522
 1676SOL    HW2 5928   2.856   2.138   3.421
 1677SOL     OW 5929   5.495   0.373   5.735
 1677SOL    HW1 5930   5.564   0.444   5.750
 1677SOL    HW2 5931   5.416   0.390   5.793
 1678SOL     OW 5932   4.777   6.499   1.882
 1678SOL    HW1 5933   4.869   6.511   1.920
 1678SOL    HW2 5934   4.776   6.530   1.787
 1679SOL     OW 5935   5.904   4.337   0.542
 1679SOL    HW1 5936   5.929   4.291   0.627
 1679SOL    HW2 5937   5.804   4.345   0.537
 1680SOL     OW 5938   0.861   2.219   5.662
 1680SOL    HW1 5939   0.928   2.250   5.595
 1680SOL    HW2 5940   0.860   2.282   5.739
 1681SOL     OW 5941   4.396   5.559   0.216
 1681SOL    HW1 5942   4.398   5.462   0.237
 1681SOL    HW2 5943   4.441   5.610   0.289
 1682SOL     OW 5944   6.891   2.875   5.635
 1682SOL    HW1 5945   6.969   2.857   5.695
 1682SOL    HW2 5946   6.916   2.852   5.541
 1683SOL     OW 5947   5.599   5.407   5.780
 1683SOL    HW1 5948   5.697   5.415   5.765
 1683SOL    HW2 5949   5.568   5.316   5.752
 1684SOL     OW 5950   0.293   6.600   4.310
 1684SOL    HW1 5951   0.268   6.694   4.333
 1684SOL    HW2 5952   0.321   6.594   4.215
 1685SOL     OW 5953   0.930   1.937   0.579
 1685SOL    HW1 5954   0.895   1.991   0.656
 1685SOL    HW2 5955   0.858   1.927   0.510
 1686SOL     OW 5956   1.916   6.737   6.547
 1686SOL    HW1 5957   1.929   6.658   6.607
 1686SOL    HW2 5958   1.887   6.706   6.457
 1687SOL     OW 5959   3.302   6.610   2.129
 1687SOL    HW1 5960   3.291   6.701   2.166
 1687SOL    HW2 5961   3.221   6.585   2.075
 1688SOL     OW 5962   0.368   1.460   3.690
 1688SOL    HW1 5963   0.349   1.362   3.686
 1688SOL    HW2 5964   0.361   1.491   3.785
 1689SOL     OW 5965   3.624   1.449   1.513
 1689SOL    HW1 5966   3.635   1.393   1.431
 1689SOL    HW2 5967   3.529   1.444   1.545
 1690SOL     OW 5968   1.024   2.168   0.409
 1690SOL    HW1 5969   1.077   2.175   0.493
 1690SOL    HW2 5970   0.934   2.211   0.422
 1691SOL     OW 5971   4.630   4.399   3.516
 1691SOL    HW1 5972   4.624   4.343   3.434
 1691SOL    HW2 5973   4.686   4.353   3.585
 1692SOL     OW 5974   0.929   0.029   3.677
 1692SOL    HW1 5975   0.903   0.082   3.597
 1692SOL    HW2 5976   1.027   0.041   3.694
 1693SOL     OW 5977   3.085   2.151   3.773
 1693SOL    HW1 5978   3.177   2.158   3.735
 1693SOL    HW2 5979   3.050   2.059   3.758
 1694SOL     OW 5980   6.103   5.913   4.863
 1694SOL    HW1 5981   6.116   5.999   4.815
 1694SOL    HW2 5982   6.143   5.838   4.809
 1695SOL     OW 5983   3.978   1.503   6.541
 1695SOL    HW1 5984   4.073   1.486   6.518
 1695SOL    HW2 5985   3.953   1.597   6.516
 1696SOL     OW 5986   3.813   5.790   1.469
 1696SOL    HW1 5987   3.877   5.795   1.546
 1696SOL    HW2 5988   3.766   5.701   1.471
 1697SOL     OW 5989   1.287   1.797   2.056
 1697SOL    HW1 5990   1.274   1.762   1.963
 1697SOL    HW2 5991   1.281   1.721   2.121
 1698SOL     OW 5992   4.644   1.781   0.356
 1698SOL    HW1 5993   4.626   1.683   0.372
 1698SOL    HW2 5994   4.583   1.835   0.414
 1699SOL     OW 5995   2.543   4.835   0.979
 1699SOL    HW1 5996   2.594   4.749   0.980
 1699SOL    HW2 5997   2.606   4.911   0.993
 1700SOL     OW 5998   6.114   2.447   4.563
 1700SOL    HW1 5999   6.023   2.463   4.525
 1700SOL    HW2 6000   6.183   2.491   4.506
 1701SOL     OW 6001   6.006   2.937   5.143
 1701SOL    HW1 6002   5.922   2.959   5.094
 1701SOL    HW2 6003   6.080   2.997   5.112
 1702SOL     OW 6004   4.662   2.528   1.331
 1702SOL    HW1 6005   4.760   2.521   1.344
 1702SOL    HW2 6006   4.641   2.533   1.233
 1703SOL     OW 6007   2.013   3.452   0.785
 1703SOL    HW1 6008   2.023   3.369   0.731
 1703SOL    HW2 6009   1.924   3.493   0.768
 1704SOL     OW 6010   7.000   1.948   2.252
 1704SOL    HW1 6011   6.971   1.879   2.185
 1704SOL    HW2 6012   6.931   1.958   2.322
 1705SOL     OW 6013   3.960   3.078   2.837
 1705SOL    HW1 6014   4.026   3.078   2.763
 1705SOL    HW2 6015   3.882   3.020   2.813
 1706SOL     OW 6016   2.048   0.843   6.075
 1706SOL    HW1 6017   2.037   0.793   5.990
 1706SOL    HW2 6018   2.137   0.820   6.116
 1707SOL     OW 6019   5.402   1.595   2.565
 1707SOL    HW1 6020   5.344   1.622   2.642
 1707SOL    HW2 6021   5.364   1.630   2.480
 1708SOL     OW 6022   0.521   4.323   1.351
 1708SOL    HW1 6023   0.478   4.402   1.307
 1708SOL    HW2 6024   0.616   4.317   1.322
 1709SOL     OW 6025   3.380   5.401   3.920
 1709SOL    HW1 6026   3.453   5.457   3.882
 1709SOL    HW2 6027   3.387   5.308   3.884
 1710SOL     OW 6028   6.725   4.810   4.674
 1710SOL    HW1 6029   6.757   4.760   4.593
 1710SOL    HW2 6030   6.803   4.832   4.732
 1711SOL     OW 6031   1.536   4.654   5.616
 1711SOL    HW1 6032   1.608   4.598   5.657
 1711SOL    HW2 6033   1.513   4.618   5.525
 1712SOL     OW 6034   1.938   4.743   1.934
 1712SOL    HW1 6035   1.995   4.702   2.005
 1712SOL    HW2 6036   1.872   4.675   1.901
 1713SOL     OW 6037   2.352   3.144   0.707
 1713SOL    HW1 6038   2.417   3.157   0.632
 1713SOL    HW2 6039   2.267   3.107   0.671
 1714SOL     OW 6040   4.575   1.160   1.968
 1714SOL    HW1 6041   4.631   1.079   1.954
 1714SOL    HW2 6042   4.478   1.136   1.957
 1715SOL     OW 6043   0.903   3.216   3.761
 1715SOL    HW1 6044   0.962   3.182   3.688
 1715SOL    HW2 6045   0.854   3.297   3.730
 1716SOL     OW 6046   0.274   0.227   6.687
 1716SOL    HW1 6047   0.289   0.295   6.615
 1716SOL    HW2 6048   0.362   0.195   6.722
 1717SOL     OW 6049   2.823   0.420   6.376
 1717SOL    HW1 6050   2.797   0.424   6.473
 1717SOL    HW2 6051   2.914   0.461   6.364
 1718SOL     OW 6052   1.869   3.842   5.648
 1718SOL    HW1 6053   1.911   3.930   5.627
 1718SOL    HW2 6054   1.940   3.773   5.660
 1719SOL     OW 6055   2.175   3.476   1.001
 1719SOL    HW1 6056   2.124   3.482   0.915
 1719SOL    HW2 6057   2.238   3.398   0.996
 1720SOL     OW 6058   6.930   2.308   2.174
 1720SOL    HW1 6059   6.949   2.405   2.186
 1720SOL    HW2 6060   7.007   2.254   2.206
 1721SOL     OW 6061   0.787   6.463   4.484
 1721SOL    HW1 6062   0.857   6.462   4.555
 1721SOL    HW2 6063   0.705   6.415   4.516
 1722SOL     OW 6064   6.033   0.148   1.815
 1722SOL    HW1 6065   6.122   0.190   1.799
 1722SOL    HW2 6066   6.028   0.116   1.910
 1723SOL     OW 6067   5.585   1.318   3.045
 1723SOL    HW1 6068   5.584   1.289   2.950
 1723SOL    HW2 6069   5.507   1.279   3.093
 1724SOL     OW 6070   5.218   0.461   0.161
 1724SOL    HW1 6071   5.269   0.429   0.081
 1724SOL    HW2 6072   5.220   0.392   0.233
 1725SOL     OW 6073   3.880   5.564   2.081
 1725SOL    HW1 6074   3.889   5.653   2.035
 1725SOL    HW2 6075   3.967   5.515   2.077
 1726SOL     OW 6076   6.950   4.105   4.884
 1726SOL    HW1 6077   6.922   4.011   4.903
 1726SOL    HW2 6078   0.028   4.116   4.905
 1727SOL     OW 6079   2.734   3.527   5.545
 1727SOL    HW1 6080   2.636   3.507   5.539
 1727SOL    HW2 6081   2.747   3.621   5.576
 1728SOL     OW 6082   4.620   5.733   3.581
 1728SOL    HW1 6083   4.644   5.685   3.666
 1728SOL    HW2 6084   4.533   5.699   3.546
 1729SOL     OW 6085   0.656   3.292   2.659
 1729SOL    HW1 6086   0.736   3.239   2.632
 1729SOL    HW2 6087   0.574   3.250   2.619
 1730SOL     OW 6088   5.129   2.044   4.752
 1730SOL    HW1 6089   5.201   1.977   4.732
 1730SOL    HW2 6090   5.067   2.006   4.821
 1731SOL     OW 6091   0.838   6.769   0.161
 1731SOL    HW1 6092   0.913   6.833   0.143
 1731SOL    HW2 6093   0.800   6.736   0.075
 1732SOL     OW 6094   0.794   4.167   6.834
 1732SOL    HW1 6095   0.887   4.171   6.796
 1732SOL    HW2 6096   0.800   4.153   6.933
 1733SOL     OW 6097   1.340   4.638   6.802
 1733SOL    HW1 6098   1.267   4.634   6.734
 1733SOL    HW2 6099   1.420   4.589   6.769
 1734SOL     OW 6100   5.171   3.904   0.926
 1734SOL    HW1 6101   5.128   3.911   0.836
 1734SOL    HW2 6102   5.132   3.973   0.987
 1735SOL     OW 6103   4.951   5.688   0.103
 1735SOL    HW1 6104   5.051   5.685   0.096
 1735SOL    HW2 6105   4.912   5.710   0.013
 1736SOL     OW 6106   3.315   2.948   0.510
 1736SOL    HW1 6107   3.355   2.858   0.526
 1736SOL    HW2 6108   3.251   2.942   0.433
 1737SOL     OW 6109   1.052   5.710   3.023
 1737SOL    HW1 6110   1.037   5.705   3.122
 1737SOL    HW2 6111   1.087   5.800   2.999
 1738SOL     OW 6112   0.734   1.288   2.071
 1738SOL    HW1 6113   0.815   1.295   2.129
 1738SOL    HW2 6114   0.674   1.215   2.105
 1739SOL     OW 6115   4.209   1.771   6.289
 1739SOL    HW1 6116   4.307   1.768   6.266
 1739SOL    HW2 6117   4.165   1.687   6.255
 1740SOL     OW 6118   0.646   2.189   6.083
 1740SOL    HW1 6119   0.715   2.227   6.144
 1740SOL    HW2 6120   0.677   2.100   6.048
 1741SOL     OW 6121   1.254   0.993   2.422
 1741SOL    HW1 6122   1.214   0.917   2.472
 1741SOL    HW2 6123   1.182   1.053   2.389
 1742SOL     OW 6124   5.789   5.962   3.948
 1742SOL    HW1 6125   5.756   6.019   4.023
 1742SOL    HW2 6126   5.798   5.868   3.980
 1743SOL     OW 6127   4.402   1.186   0.733
 1743SOL    HW1 6128   4.495   1.196   0.768
 1743SOL    HW2 6129   4.372   1.091   0.744
 1744SOL     OW 6130   3.693   6.056   1.457
 1744SOL    HW1 6131   3.775   6.107   1.434
 1744SOL    HW2 6132   3.711   5.958   1.451
 1745SOL     OW 6133   6.924   2.806   5.031
 1745SOL    HW1 6134   6.827   2.801   5.006
 1745SOL    HW2 6135   6.942   2.743   5.106
 1746SOL     OW 6136   2.571   0.948   6.108
 1746SOL    HW1 6137   2.607   1.010   6.178
 1746SOL    HW2 6138   2.641   0.930   6.039
 1747SOL     OW 6139   4.660   6.714   5.555
 1747SOL    HW1 6140   4.621   6.637   5.605
 1747SOL    HW2 6141   4.632   6.799   5.598
 1748SOL     OW 6142   5.379   1.049   1.660
 1748SOL    HW1 6143   5.401   0.964   1.709
 1748SOL    HW2 6144   5.341   1.116   1.724
 1749SOL     OW 6145   4.678   0.301   6.413
 1749SOL    HW1 6146   4.731   0.380   6.445
 1749SOL    HW2 6147   4.712   0.271   6.324
 1750SOL     OW 6148   3.788   0.534   3.722
 1750SOL    HW1 6149   3.791   0.620   3.672
 1750SOL    HW2 6150   3.867   0.527   3.783
 1751SOL     OW 6151   1.764   5.837   4.189
 1751SOL    HW1 6152   1.813   5.785   4.259
 1751SOL    HW2 6153   1.670   5.804   4.182
 1752SOL     OW 6154   0.153   2.183   6.632
 1752SOL    HW1 6155   0.074   2.218   6.582
 1752SOL    HW2 6156   0.237   2.206   6.582
 1753SOL     OW 6157   2.084   6.337   2.748
 1753SOL    HW1 6158   2.130   6.275   2.811
 1753SOL    HW2 6159   1.987   6.344   2.774
 1754SOL     OW 6160   3.217   2.984   2.874
 1754SOL    HW1 6161   3.154   3.042   2.927
 1754SOL    HW2 6162   3.200   2.998   2.776
 1755SOL     OW 6163   6.473   4.249   0.284
 1755SOL    HW1 6164   6.529   4.206   0.354
 1755SOL    HW2 6165   6.497   4.213   0.194
 1756SOL     OW 6166   6.439   4.873   5.022
 1756SOL    HW1 6167   6.439   4.826   5.111
 1756SOL    HW2 6168   6.357   4.847   4.971
 1757SOL     OW 6169   4.106   0.294   5.777
 1757SOL    HW1 6170   4.099   0.276   5.679
 1757SOL    HW2 6171   4.051   0.375   5.800
 1758SOL     OW 6172   2.893   1.612   3.012
 1758SOL    HW1 6173   2.869   1.517   2.989
 1758SOL    HW2 6174   2.992   1.622   3.015
 1759SOL     OW 6175   6.958   6.008   6.255
 1759SOL    HW1 6176   6.874   5.978   6.300
 1759SOL    HW2 6177   0.011   5.941   6.273
 1760SOL     OW 6178   4.568   6.075   2.481
 1760SOL    HW1 6179   4.525   6.131   2.410
 1760SOL    HW2 6180   4.657   6.114   2.505
 1761SOL     OW 6181   5.378   3.412   1.331
 1761SOL    HW1 6182   5.447   3.476   1.366
 1761SOL    HW2 6183   5.414   3.364   1.251
 1762SOL     OW 6184   5.523   3.247   0.354
 1762SOL    HW1 6185   5.515   3.280   0.448
 1762SOL    HW2 6186   5.534   3.326   0.293
 1763SOL     OW 6187   2.201   2.898   4.301
 1763SOL    HW1 6188   2.183   2.982   4.250
 1763SOL    HW2 6189   2.240   2.921   4.390
 1764SOL     OW 6190   6.872   3.660   3.239
 1764SOL    HW1 6191   6.785   3.698   3.273
 1764SOL    HW2 6192   6.874   3.561   3.256
 1765SOL     OW 6193   1.949   3.416   5.836
 1765SOL    HW1 6194   1.919   3.323   5.813
 1765SOL    HW2 6195   1.870   3.470   5.864
 1766SOL     OW 6196   6.166   3.771   5.555
 1766SOL    HW1 6197   6.178   3.748   5.652
 1766SOL    HW2 6198   6.144   3.868   5.546
 1767SOL     OW 6199   6.562   4.743   1.387
 1767SOL    HW1 6200   6.545   4.781   1.296
 1767SOL    HW2 6201   6.475   4.728   1.434
 1768SOL     OW 6202   5.967   6.706   3.080
 1768SOL    HW1 6203   5.977   6.763   3.161
 1768SOL    HW2 6204   5.870   6.698   3.057
 1769SOL     OW 6205   4.859   1.114   3.500
 1769SOL    HW1 6206   4.772   1.154   3.529
 1769SOL    HW2 6207   4.869   1.023   3.540
 1770SOL     OW 6208   3.568   5.903   5.241
 1770SOL    HW1 6209   3.543   6.000   5.238
 1770SOL    HW2 6210   3.614   5.878   5.156
 1771SOL     OW 6211   4.446   6.229   6.755
 1771SOL    HW1 6212   4.435   6.319   6.797
 1771SOL    HW2 6213   4.384   6.164   6.799
 1772SOL     OW 6214   2.429   6.330   2.773
 1772SOL    HW1 6215   2.381   6.243   2.784
 1772SOL    HW2 6216   2.444   6.372   2.862
 1773SOL     OW 6217   1.248   0.263   0.503
 1773SOL    HW1 6218   1.256   0.273   0.603
 1773SOL    HW2 6219   1.248   0.353   0.461
 1774SOL     OW 6220   2.851   5.158   2.368
 1774SOL    HW1 6221   2.881   5.094   2.297
 1774SOL    HW2 6222   2.930   5.210   2.402
 1775SOL     OW 6223   1.056   4.812   0.478
 1775SOL    HW1 6224   1.059   4.713   0.465
 1775SOL    HW2 6225   1.137   4.841   0.529
 1776SOL     OW 6226   2.844   6.025   4.977
 1776SOL    HW1 6227   2.865   5.932   5.009
 1776SOL    HW2 6228   2.851   6.027   4.877
 1777SOL     OW 6229   3.029   6.171   0.294
 1777SOL    HW1 6230   3.052   6.162   0.391
 1777SOL    HW2 6231   3.020   6.268   0.271
 1778SOL     OW 6232   6.752   3.034   5.986
 1778SOL    HW1 6233   6.747   2.935   5.972
 1778SOL    HW2 6234   6.665   3.068   6.022
 1779SOL     OW 6235   3.741   0.007   5.803
 1779SOL    HW1 6236   3.821   6.995   5.751
 1779SOL    HW2 6237   3.747   0.106   5.817
 1780SOL     OW 6238   3.345   2.987   6.878
 1780SOL    HW1 6239   3.358   3.074   6.926
 1780SOL    HW2 6240   3.273   2.996   6.809
 1781SOL     OW 6241   2.682   5.784   3.343
 1781SOL    HW1 6242   2.608   5.767   3.409
 1781SOL    HW2 6243   2.724   5.697   3.318
 1782SOL     OW 6244   3.042   1.751   4.497
 1782SOL    HW1 6245   3.023   1.708   4.585
 1782SOL    HW2 6246   3.005   1.695   4.424
 1783SOL     OW 6247   2.133   6.039   0.282
 1783SOL    HW1 6248   2.077   5.990   0.348
 1783SOL    HW2 6249   2.172   6.121   0.325
 1784SOL     OW 6250   1.911   0.068   6.089
 1784SOL    HW1 6251   1.951   7.019   6.150
 1784SOL    HW2 6252   1.871   0.022   6.010
 1785SOL     OW 6253   6.877   5.430   2.312
 1785SOL    HW1 6254   6.818   5.351   2.321
 1785SOL    HW2 6255   6.871   5.466   2.219
 1786SOL     OW 6256   3.933   2.617   1.629
 1786SOL    HW1 6257   3.846   2.601   1.675
 1786SOL    HW2 6258   4.007   2.577   1.683
 1787SOL     OW 6259   3.233   0.923   5.632
 1787SOL    HW1 6260   3.271   0.987   5.699
 1787SOL    HW2 6261   3.149   0.882   5.668
 1788SOL     OW 6262   1.576   4.883   5.314
 1788SOL    HW1 6263   1.623   4.952   5.259
 1788SOL    HW2 6264   1.601   4.792   5.282
 1789SOL     OW 6265   5.754   6.455   6.851
 1789SOL    HW1 6266   5.797   6.374   6.812
 1789SOL    HW2 6267   5.796   6.477   6.939
 1790SOL     OW 6268   2.586   7.016   2.464
 1790SOL    HW1 6269   2.545   0.071   2.517
 1790SOL    HW2 6270   2.519   6.942   2.453
 1791SOL     OW 6271   0.454   6.694   2.950
 1791SOL    HW1 6272   0.414   6.657   3.034
 1791SOL    HW2 6273   0.540   6.740   2.972
 1792SOL     OW 6274   0.703   3.242   4.452
 1792SOL    HW1 6275   0.793   3.215   4.417
 1792SOL    HW2 6276   0.636   3.236   4.379
 1793SOL     OW 6277   0.089   0.594   3.720
 1793SOL    HW1 6278   0.084   0.692   3.735
 1793SOL    HW2 6279   0.056   0.572   3.629
 1794SOL     OW 6280   4.823   6.220   6.598
 1794SOL    HW1 6281   4.880   6.182   6.526
 1794SOL    HW2 6282   4.850   6.182   6.686
 1795SOL     OW 6283   1.134   3.761   6.813
 1795SOL    HW1 6284   1.125   3.819   6.894
 1795SOL    HW2 6285   1.217   3.787   6.764
 1796SOL     OW 6286   3.825   0.112   6.112
 1796SOL    HW1 6287   3.765   0.192   6.113
 1796SOL    HW2 6288   3.849   0.088   6.206
 1797SOL     OW 6289   0.156   1.677   1.901
 1797SOL    HW1 6290   0.071   1.625   1.896
 1797SOL    HW2 6291   0.216   1.636   1.969
 1798SOL     OW 6292   5.811   1.583   2.760
 1798SOL    HW1 6293   5.739   1.652   2.749
 1798SOL    HW2 6294   5.846   1.586   2.853
 1799SOL     OW 6295   2.462   0.724   0.149
 1799SOL    HW1 6296   2.377   0.748   0.196
 1799SOL    HW2 6297   2.500   0.805   0.106
 1800SOL     OW 6298   3.211   5.051   2.344
 1800SOL    HW1 6299   3.132   5.044   2.284
 1800SOL    HW2 6300   3.237   5.148   2.353
 1801SOL     OW 6301   5.573   6.844   0.671
 1801SOL    HW1 6302   5.609   6.881   0.585
 1801SOL    HW2 6303   5.646   6.838   0.738
 1802SOL     OW 6304   5.990   4.719   4.291
 1802SOL    HW1 6305   5.991   4.817   4.272
 1802SOL    HW2 6306   6.030   4.670   4.214
 1803SOL     OW 6307   6.101   4.882   0.770
 1803SOL    HW1 6308   6.010   4.920   0.783
 1803SOL    HW2 6309   6.103   4.827   0.687
 1804SOL     OW 6310   3.112   3.330   6.092
 1804SOL    HW1 6311   3.026   3.279   6.092
 1804SOL    HW2 6312   3.188   3.266   6.097
 1805SOL     OW 6313   6.132   2.772   6.961
 1805SOL    HW1 6314   6.053   2.794   6.904
 1805SOL    HW2 6315   6.216   2.800   6.913
 1806SOL     OW 6316   6.372   6.976   0.511
 1806SOL    HW1 6317   6.451   6.952   0.569
 1806SOL    HW2 6318   6.404   0.008   0.432
 1807SOL     OW 6319   6.740   2.049   5.742
 1807SOL    HW1 6320   6.815   1.996   5.783
 1807SOL    HW2 6321   6.655   1.996   5.748
 1808SOL     OW 6322   2.505   4.690   4.658
 1808SOL    HW1 6323   2.422   4.701   4.604
 1808SOL    HW2 6324   2.481   4.683   4.755
 1809SOL     OW 6325   3.853   0.103   6.386
 1809SOL    HW1 6326   3.943   0.061   6.395
 1809SOL    HW2 6327   3.823   0.137   6.476
 1810SOL     OW 6328   2.923   6.350   2.562
 1810SOL    HW1 6329   2.966   6.355   2.472
 1810SOL    HW2 6330   2.824   6.345   2.551
 1811SOL     OW 6331   5.807   5.785   3.408
 1811SOL    HW1 6332   5.894   5.832   3.423
 1811SOL    HW2 6333   5.737   5.852   3.382
 1812SOL     OW 6334   4.310   4.916   5.488
 1812SOL    HW1 6335   4.331   5.010   5.463
 1812SOL    HW2 6336   4.387   4.877   5.538
 1813SOL     OW 6337   6.804   5.882   5.632
 1813SOL    HW1 6338   6.779   5.889   5.729
 1813SOL    HW2 6339   6.861   5.961   5.607
 1814SOL     OW 6340   4.724   6.456   2.550
 1814SOL    HW1 6341   4.656   6.440   2.478
 1814SOL    HW2 6342   4.802   6.396   2.535
 1815SOL     OW 6343   0.270   1.346   2.686
 1815SOL    HW1 6344   0.242   1.442   2.693
 1815SOL    HW2 6345   0.201   1.288   2.730
 1816SOL     OW 6346   1.185   5.081   0.684
 1816SOL    HW1 6347   1.263   5.089   0.621
 1816SOL    HW2 6348   1.105   5.124   0.643
 1817SOL     OW 6349   1.579   5.327   2.038
 1817SOL    HW1 6350   1.646   5.387   2.083
 1817SOL    HW2 6351   1.603   5.231   2.055
 1818SOL     OW 6352   1.013   1.757   3.646
 1818SOL    HW1 6353   0.941   1.825   3.657
 1818SOL    HW2 6354   0.987   1.674   3.695
 1819SOL     OW 6355   0.757   4.047   2.841
 1819SOL    HW1 6356   0.721   3.977   2.780
 1819SOL    HW2 6357   0.851   4.025   2.866
 1820SOL     OW 6358   5.704   6.562   2.789
 1820SOL    HW1 6359   5.742   6.469   2.794
 1820SOL    HW2 6360   5.715   6.597   2.696
 1821SOL     OW 6361   1.867   1.880   3.379
 1821SOL    HW1 6362   1.767   1.886   3.383
 1821SOL    HW2 6363   1.905   1.893   3.470
 1822SOL     OW 6364   2.857   3.661   2.531
 1822SOL    HW1 6365   2.875   3.666   2.433
 1822SOL    HW2 6366   2.778   3.720   2.553
 1823SOL     OW 6367   4.281   0.219   2.584
 1823SOL    HW1 6368   4.286   0.255   2.491
 1823SOL    HW2 6369   4.345   0.142   2.593
 1824SOL     OW 6370   5.545   1.953   1.518
 1824SOL    HW1 6371   5.474   1.992   1.458
 1824SOL    HW2 6372   5.606   1.895   1.464
 1825SOL     OW 6373   0.371   0.264   1.797
 1825SOL    HW1 6374   0.374   0.352   1.750
 1825SOL    HW2 6375   0.426   0.269   1.880
 1826SOL     OW 6376   2.930   5.855   6.073
 1826SOL    HW1 6377   3.001   5.853   6.143
 1826SOL    HW2 6378   2.874   5.772   6.080
 1827SOL     OW 6379   5.773   6.905   0.859
 1827SOL    HW1 6380   5.871   6.915   0.842
 1827SOL    HW2 6381   5.737   6.988   0.900
 1828SOL     OW 6382   2.173   2.958   0.355
 1828SOL    HW1 6383   2.253   2.905   0.326
 1828SOL    HW2 6384   2.179   2.974   0.454
 1829SOL     OW 6385   5.745   5.762   2.637
 1829SOL    HW1 6386   5.774   5.667   2.631
 1829SOL    HW2 6387   5.650   5.767   2.669
 1830SOL     OW 6388   4.932   6.814   4.390
 1830SOL    HW1 6389   4.919   6.907   4.355
 1830SOL    HW2 6390   5.029   6.791   4.385
 1831SOL     OW 6391   5.306   0.709   3.172
 1831SOL    HW1 6392   5.356   0.658   3.243
 1831SOL    HW2 6393   5.371   0.762   3.117
 1832SOL     OW 6394   5.169   2.638   6.784
 1832SOL    HW1 6395   5.216   2.555   6.816
 1832SOL    HW2 6396   5.218   2.718   6.818
 1833SOL     OW 6397   5.661   1.730   5.706
 1833SOL    HW1 6398   5.725   1.667   5.661
 1833SOL    HW2 6399   5.680   1.823   5.675
 1834SOL     OW 6400   2.537   4.056   0.218
 1834SOL    HW1 6401   2.440   4.048   0.195
 1834SOL    HW2 6402   2.588   4.085   0.137
 1835SOL     OW 6403   1.956   4.567   6.799
 1835SOL    HW1 6404   2.007   4.614   6.871
 1835SOL    HW2 6405   1.858   4.576   6.817
 1836SOL     OW 6406   1.010   6.813   0.891
 1836SOL    HW1 6407   0.993   6.842   0.796
 1836SOL    HW2 6408   0.923   6.789   0.934
 1837SOL     OW 6409   0.453   2.502   4.680
 1837SOL    HW1 6410   0.461   2.571   4.752
 1837SOL    HW2 6411   0.466   2.411   4.720
 1838SOL     OW 6412   0.782   2.748   5.197
 1838SOL    HW1 6413   0.720   2.782   5.126
 1838SOL    HW2 6414   0.874   2.740   5.160
 1839SOL     OW 6415   1.108   1.752   6.665
 1839SOL    HW1 6416   1.114   1.723   6.570
 1839SOL    HW2 6417   1.172   1.828   6.681
 1840SOL     OW 6418   0.946   5.123   1.624
 1840SOL    HW1 6419   1.025   5.182   1.605
 1840SOL    HW2 6420   0.949   5.093   1.719
 1841SOL     OW 6421   1.106   3.237   3.959
 1841SOL    HW1 6422   1.142   3.146   3.979
 1841SOL    HW2 6423   1.027   3.230   3.899
 1842SOL     OW 6424   0.999   6.214   6.262
 1842SOL    HW1 6425   1.049   6.184   6.343
 1842SOL    HW2 6426   1.041   6.174   6.180
 1843SOL     OW 6427   4.586   2.120   5.067
 1843SOL    HW1 6428   4.525   2.197   5.085
 1843SOL    HW2 6429   4.673   2.154   5.030
 1844SOL     OW 6430   5.633   4.702   3.521
 1844SOL    HW1 6431   5.639   4.661   3.430
 1844SOL    HW2 6432   5.542   4.686   3.559
 1845SOL     OW 6433   4.869   6.378   0.670
 1845SOL    HW1 6434   4.815   6.410   0.747
 1845SOL    HW2 6435   4.914   6.457   0.626
 1846SOL     OW 6436   3.994   1.348   5.727
 1846SOL    HW1 6437   4.038   1.402   5.799
 1846SOL    HW2 6438   3.916   1.298   5.765
 1847SOL     OW 6439   1.434   6.498   6.172
 1847SOL    HW1 6440   1.406   6.486   6.076
 1847SOL    HW2 6441   1.468   6.591   6.184
 1848SOL     OW 6442   2.352   0.710   3.983
 1848SOL    HW1 6443   2.384   0.802   4.006
 1848SOL    HW2 6444   2.366   0.695   3.885
 1849SOL     OW 6445   2.646   0.644   6.599
 1849SOL    HW1 6446   2.564   0.616   6.549
 1849SOL    HW2 6447   2.620   0.694   6.681
 1850SOL     OW 6448   5.722   1.833   2.162
 1850SOL    HW1 6449   5.786   1.763   2.194
 1850SOL    HW2 6450   5.768   1.923   2.165
 1851SOL     OW 6451   6.479   4.162   2.906
 1851SOL    HW1 6452   6.496   4.254   2.939
 1851SOL    HW2 6453   6.440   4.107   2.979
 1852SOL     OW 6454   5.169   1.329   5.742
 1852SOL    HW1 6455   5.148   1.328   5.645
 1852SOL    HW2 6456   5.149   1.239   5.781
 1853SOL     OW 6457   0.982   4.913   0.770
 1853SOL    HW1 6458   0.942   4.840   0.714
 1853SOL    HW2 6459   1.056   4.957   0.719
 1854SOL     OW 6460   2.465   5.153   3.827
 1854SOL    HW1 6461   2.451   5.170   3.924
 1854SOL    HW2 6462   2.420   5.225   3.774
 1855SOL     OW 6463   6.255   4.579   1.839
 1855SOL    HW1 6464   6.187   4.513   1.872
 1855SOL    HW2 6465   6.283   4.555   1.747
 1856SOL     OW 6466   5.282   2.926   7.003
 1856SOL    HW1 6467   5.299   2.843   0.036
 1856SOL    HW2 6468   5.339   3.000   0.019
 1857SOL     OW 6469   5.007   1.385   3.127
 1857SOL    HW1 6470   4.976   1.432   3.045
 1857SOL    HW2 6471   5.076   1.441   3.174
 1858SOL     OW 6472   5.439   4.284   2.897
 1858SOL    HW1 6473   5.532   4.248   2.891
 1858SOL    HW2 6474   5.388   4.257   2.815
 1859SOL     OW 6475   5.998   1.529   3.089
 1859SOL    HW1 6476   5.955   1.442   3.114
 1859SOL    HW2 6477   6.025   1.526   2.992
 1860SOL     OW 6478   4.142   2.120   4.699
 1860SOL    HW1 6479   4.105   2.134   4.791
 1860SOL    HW2 6480   4.241   2.132   4.700
 1861SOL     OW 6481   5.001   5.647   2.437
 1861SOL    HW1 6482   5.013   5.685   2.345
 1861SOL    HW2 6483   5.073   5.681   2.497
 1862SOL     OW 6484   2.621   1.279   0.601
 1862SOL    HW1 6485   2.672   1.332   0.533
 1862SOL    HW2 6486   2.539   1.241   0.559
 1863SOL     OW 6487   2.249   1.919   1.167
 1863SOL    HW1 6488   2.303   1.895   1.248
 1863SOL    HW2 6489   2.207   1.837   1.130
 1864SOL     OW 6490   0.541   6.295   2.947
 1864SOL    HW1 6491   0.559   6.315   2.851
 1864SOL    HW2 6492   0.449   6.324   2.971
 1865SOL     OW 6493   4.841   2.794   6.329
 1865SOL    HW1 6494   4.823   2.867   6.263
 1865SOL    HW2 6495   4.802   2.820   6.417
 1866SOL     OW 6496   5.495   5.607   1.636
 1866SOL    HW1 6497   5.507   5.510   1.612
 1866SOL    HW2 6498   5.517   5.664   1.557
 1867SOL     OW 6499   1.066   4.432   6.427
 1867SOL    HW1 6500   0.978   4.393   6.454
 1867SOL    HW2 6501   1.137   4.362   6.433
 1868SOL     OW 6502   6.788   4.040   5.758
 1868SOL    HW1 6503   6.886   4.040   5.739
 1868SOL    HW2 6504   6.751   3.949   5.743
 1869SOL     OW 6505   6.066   1.578   4.509
 1869SOL    HW1 6506   6.164   1.571   4.491
 1869SOL    HW2 6507   6.028   1.486   4.520
 1870SOL     OW 6508   2.206   4.130   4.801
 1870SOL    HW1 6509   2.220   4.084   4.713
 1870SOL    HW2 6510   2.248   4.075   4.873
 1871SOL     OW 6511   1.545   0.564   0.823
 1871SOL    HW1 6512   1.593   0.570   0.735
 1871SOL    HW2 6513   1.612   0.550   0.896
 1872SOL     OW 6514   1.540   5.207   6.426
 1872SOL    HW1 6515   1.539   5.226   6.524
 1872SOL    HW2 6516   1.449   5.223   6.388
 1873SOL     OW 6517   5.013   6.902   0.014
 1873SOL    HW1 6518   4.923   6.861   0.027
 1873SOL    HW2 6519   5.006   7.001   0.011
 1874SOL     OW 6520   0.642   3.865   2.585
 1874SOL    HW1 6521   0.557   3.856   2.533
 1874SOL    HW2 6522   0.668   3.776   2.623
 1875SOL     OW 6523   0.623   6.686   2.057
 1875SOL    HW1 6524   0.622   6.613   1.990
 1875SOL    HW2 6525   0.533   6.729   2.062
 1876SOL     OW 6526   1.812   6.429   3.665
 1876SOL    HW1 6527   1.775   6.479   3.743
 1876SOL    HW2 6528   1.907   6.403   3.684
 1877SOL     OW 6529   0.127   6.831   4.126
 1877SOL    HW1 6530   0.171   6.827   4.036
 1877SOL    HW2 6531   0.197   6.845   4.196
 1878SOL     OW 6532   6.143   2.835   6.311
 1878SOL    HW1 6533   6.063   2.837   6.250
 1878SOL    HW2 6534   6.206   2.763   6.280
 1879SOL     OW 6535   1.867   5.175   5.982
 1879SOL    HW1 6536   1.801   5.138   6.047
 1879SOL    HW2 6537   1.853   5.274   5.973
 1880SOL     OW 6538   6.403   0.078   4.645
 1880SOL    HW1 6539   6.364   0.170   4.634
 1880SOL    HW2 6540   6.497   0.086   4.678
 1881SOL     OW 6541   6.902   2.107   0.028
 1881SOL    HW1 6542   6.972   2.120   6.977
 1881SOL    HW2 6543   6.885   2.194   0.074
 1882SOL     OW 6544   1.390   6.503   0.451
 1882SOL    HW1 6545   1.482   6.502   0.491
 1882SOL    HW2 6546   1.322   6.487   0.522
 1883SOL     OW 6547   0.135   2.092   3.715
 1883SOL    HW1 6548   0.067   2.119   3.645
 1883SOL    HW2 6549   0.141   1.993   3.719
 1884SOL     OW 6550   6.284   2.294   1.067
 1884SOL    HW1 6551   6.200   2.262   1.111
 1884SOL    HW2 6552   6.289   2.256   0.974
 1885SOL     OW 6553   2.874   1.530   4.379
 1885SOL    HW1 6554   2.915   1.465   4.443
 1885SOL    HW2 6555   2.774   1.523   4.385
 1886SOL     OW 6556   0.561   6.256   3.375
 1886SOL    HW1 6557   0.613   6.171   3.373
 1886SOL    HW2 6558   0.491   6.254   3.305
 1887SOL     OW 6559   2.651   5.851   6.544
 1887SOL    HW1 6560   2.600   5.846   6.458
 1887SOL    HW2 6561   2.737   5.800   6.534
 1888SOL     OW 6562   2.141   0.233   2.996
 1888SOL    HW1 6563   2.199   0.166   2.949
 1888SOL    HW2 6564   2.046   0.221   2.967
 1889SOL     OW 6565   0.280   3.434   2.895
 1889SOL    HW1 6566   0.338   3.510   2.864
 1889SOL    HW2 6567   0.232   3.460   2.979
 1890SOL     OW 6568   1.606   5.877   4.919
 1890SOL    HW1 6569   1.520   5.850   4.874
 1890SOL    HW2 6570   1.668   5.799   4.922
 1891SOL     OW 6571   3.925   3.033   3.830
 1891SOL    HW1 6572   3.953   2.974   3.754
 1891SOL    HW2 6573   3.849   2.990   3.879
 1892SOL     OW 6574   0.363   0.614   2.454
 1892SOL    HW1 6575   0.400   0.695   2.500
 1892SOL    HW2 6576   0.293   0.571   2.513
 1893SOL     OW 6577   3.820   3.040   4.379
 1893SOL    HW1 6578   3.774   3.127   4.392
 1893SOL    HW2 6579   3.806   2.982   4.459
 1894SOL     OW 6580   2.875   3.551   4.094
 1894SOL    HW1 6581   2.895   3.455   4.113
 1894SOL    HW2 6582   2.780   3.571   4.119
 1895SOL     OW 6583   1.186   5.818   1.208
 1895SOL    HW1 6584   1.218   5.732   1.247
 1895SOL    HW2 6585   1.192   5.891   1.277
 1896SOL     OW 6586   5.975   2.562   1.311
 1896SOL    HW1 6587   6.033   2.547   1.231
 1896SOL    HW2 6588   6.032   2.568   1.393
 1897SOL     OW 6589   1.444   4.359   3.498
 1897SOL    HW1 6590   1.502   4.390   3.573
 1897SOL    HW2 6591   1.390   4.280   3.528
 1898SOL     OW 6592   1.539   5.876   2.524
 1898SOL    HW1 6593   1.563   5.959   2.572
 1898SOL    HW2 6594   1.599   5.801   2.553
 1899SOL     OW 6595   0.005   1.169   2.259
 1899SOL    HW1 6596   0.061   1.123   2.191
 1899SOL    HW2 6597   0.042   1.152   2.350
 1900SOL     OW 6598   2.743   6.353   6.485
 1900SOL    HW1 6599   2.810   6.315   6.549
 1900SOL    HW2 6600   2.730   6.290   6.409
 1901SOL     OW 6601   3.042   3.211   2.570
 1901SOL    HW1 6602   2.967   3.259   2.615
 1901SOL    HW2 6603   3.101   3.277   2.524
 1902SOL     OW 6604   1.265   6.494   5.150
 1902SOL    HW1 6605   1.345   6.539   5.190
 1902SOL    HW2 6606   1.278   6.395   5.153
 1903SOL     OW 6607   1.332   1.690   3.855
 1903SOL    HW1 6608   1.389   1.771   3.872
 1903SOL    HW2 6609   1.256   1.716   3.795
 1904SOL     OW 6610   5.816   5.777   1.300
 1904SOL    HW1 6611   5.874   5.856   1.321
 1904SOL    HW2 6612   5.851   5.697   1.348
 1905SOL     OW 6613   0.723   2.426   3.880
 1905SOL    HW1 6614   0.768   2.397   3.796
 1905SOL    HW2 6615   0.789   2.425   3.956
 1906SOL     OW 6616   0.248   6.445   3.791
 1906SOL    HW1 6617   0.180   6.429   3.720
 1906SOL    HW2 6618   0.279   6.357   3.827
 1907SOL     OW 6619   5.935   3.079   0.579
 1907SOL    HW1 6620   5.966   2.995   0.622
 1907SOL    HW2 6621   5.857   3.117   0.630
 1908SOL     OW 6622   3.583   0.848   1.503
 1908SOL    HW1 6623   3.682   0.839   1.509
 1908SOL    HW2 6624   3.559   0.945   1.492
 1909SOL     OW 6625   6.257   5.307   5.177
 1909SOL    HW1 6626   6.161   5.335   5.167
 1909SOL    HW2 6627   6.301   5.308   5.087
 1910SOL     OW 6628   0.649   6.175   5.540
 1910SOL    HW1 6629   0.626   6.126   5.625
 1910SOL    HW2 6630   0.569   6.223   5.507
 1911SOL     OW 6631   5.689   6.136   4.164
 1911SOL    HW1 6632   5.655   6.230   4.160
 1911SOL    HW2 6633   5.741   6.123   4.248
 1912SOL     OW 6634   3.760   4.842   2.351
 1912SOL    HW1 6635   3.776   4.882   2.441
 1912SOL    HW2 6636   3.687   4.773   2.358
 1913SOL     OW 6637   3.152   4.155   6.342
 1913SOL    HW1 6638   3.080   4.157   6.273
 1913SOL    HW2 6639   3.196   4.245   6.347
 1914SOL     OW 6640   3.862   4.399   0.443
 1914SOL    HW1 6641   3.905   4.315   0.477
 1914SOL    HW2 6642   3.881   4.409   0.346
 1915SOL     OW 6643   3.668   2.984   6.985
 1915SOL    HW1 6644   3.660   2.893   6.944
 1915SOL    HW2 6645   3.589   3.002   0.025
 1916SOL     OW 6646   3.868   1.235   2.787
 1916SOL    HW1 6647   3.874   1.299   2.710
 1916SOL    HW2 6648   3.889   1.143   2.755
 1917SOL     OW 6649   2.459   3.743   1.388
 1917SOL    HW1 6650   2.384   3.678   1.374
 1917SOL    HW2 6651   2.479   3.749   1.486
 1918SOL     OW 6652   5.643   2.118   4.108
 1918SOL    HW1 6653   5.582   2.130   4.029
 1918SOL    HW2 6654   5.632   2.194   4.171
 1919SOL     OW 6655   6.217   2.045   6.367
 1919SOL    HW1 6656   6.316   2.046   6.352
 1919SOL    HW2 6657   6.173   2.107   6.303
 1920SOL     OW 6658   4.465   3.818   0.434
 1920SOL    HW1 6659   4.526   3.831   0.356
 1920SOL    HW2 6660   4.488   3.733   0.480
 1921SOL     OW 6661   2.667   2.446   6.797
 1921SOL    HW1 6662   2.684   2.351   6.767
 1921SOL    HW2 6663   2.746   2.502   6.773
 1922SOL     OW 6664   3.065   3.251   4.633
 1922SOL    HW1 6665   3.151   3.299   4.652
 1922SOL    HW2 6666   2.998   3.275   4.702
 1923SOL     OW 6667   3.355   0.955   4.069
 1923SOL    HW1 6668   3.426   1.019   4.040
 1923SOL    HW2 6669   3.320   0.906   3.990
 1924SOL     OW 6670   5.351   0.916   0.497
 1924SOL    HW1 6671   5.268   0.866   0.521
 1924SOL    HW2 6672   5.373   0.980   0.571
 1925SOL     OW 6673   0.951   4.305   1.046
 1925SOL    HW1 6674   0.955   4.217   1.093
 1925SOL    HW2 6675   0.995   4.298   0.956
 1926SOL     OW 6676   3.225   0.051   1.833
 1926SOL    HW1 6677   3.151   0.037   1.768
 1926SOL    HW2 6678   3.297   0.106   1.791
 1927SOL     OW 6679   2.486   5.527   0.790
 1927SOL    HW1 6680   2.387   5.531   0.775
 1927SOL    HW2 6681   2.504   5.510   0.887
 1928SOL     OW 6682   0.036   4.227   2.934
 1928SOL    HW1 6683   0.121   4.256   2.976
 1928SOL    HW2 6684   6.979   4.277   2.975
 1929SOL     OW 6685   3.716   0.431   3.227
 1929SOL    HW1 6686   3.619   0.441   3.209
 1929SOL    HW2 6687   3.745   0.338   3.204
 1930SOL     OW 6688   3.721   3.491   0.132
 1930SOL    HW1 6689   3.677   3.411   0.171
 1930SOL    HW2 6690   3.658   3.568   0.134
 1931SOL     OW 6691   6.434   3.593   3.663
 1931SOL    HW1 6692   6.501   3.522   3.640
 1931SOL    HW2 6693   6.460   3.637   3.748
 1932SOL     OW 6694   5.045   0.515   1.905
 1932SOL    HW1 6695   5.014   0.493   1.998
 1932SOL    HW2 6696   4.986   0.468   1.839
 1933SOL     OW 6697   1.688   1.504   1.144
 1933SOL    HW1 6698   1.699   1.436   1.217
 1933SOL    HW2 6699   1.770   1.560   1.139
 1934SOL     OW 6700   6.816   0.976   0.019
 1934SOL    HW1 6701   6.854   1.068   0.006
 1934SOL    HW2 6702   6.799   0.935   6.949
 1935SOL     OW 6703   5.850   4.855   3.982
 1935SOL    HW1 6704   5.807   4.929   4.033
 1935SOL    HW2 6705   5.937   4.887   3.944
 1936SOL     OW 6706   5.083   3.010   6.499
 1936SOL    HW1 6707   5.025   3.088   6.477
 1936SOL    HW2 6708   5.138   2.985   6.419
 1937SOL     OW 6709   0.408   4.656   6.756
 1937SOL    HW1 6710   0.459   4.675   6.840
 1937SOL    HW2 6711   0.444   4.573   6.713
 1938SOL     OW 6712   6.677   2.150   6.896
 1938SOL    HW1 6713   6.600   2.155   6.960
 1938SOL    HW2 6714   6.758   2.117   6.943
 1939SOL     OW 6715   0.216   0.151   4.265
 1939SOL    HW1 6716   0.147   0.201   4.317
 1939SOL    HW2 6717   0.306   0.192   4.279
 1940SOL     OW 6718   1.157   5.317   1.631
 1940SOL    HW1 6719   1.192   5.332   1.723
 1940SOL    HW2 6720   1.229   5.331   1.564
 1941SOL     OW 6721   6.088   0.827   4.472
 1941SOL    HW1 6722   6.032   0.744   4.467
 1941SOL    HW2 6723   6.140   0.828   4.557
 1942SOL     OW 6724   0.691   5.371   1.825
 1942SOL    HW1 6725   0.626   5.338   1.893
 1942SOL    HW2 6726   0.782   5.377   1.865
 1943SOL     OW 6727   0.950   3.423   4.124
 1943SOL    HW1 6728   0.964   3.434   4.222
 1943SOL    HW2 6729   1.006   3.347   4.091
 1944SOL     OW 6730   0.358   3.127   3.938
 1944SOL    HW1 6731   0.295   3.051   3.918
 1944SOL    HW2 6732   0.388   3.121   4.033
 1945SOL     OW 6733   5.354   1.617   2.311
 1945SOL    HW1 6734   5.275   1.557   2.326
 1945SOL    HW2 6735   5.381   1.613   2.215
 1946SOL     OW 6736   5.855   5.513   0.247
 1946SOL    HW1 6737   5.855   5.587   0.314
 1946SOL    HW2 6738   5.903   5.433   0.284
 1947SOL     OW 6739   5.974   5.842   2.866
 1947SOL    HW1 6740   6.071   5.866   2.876
 1947SOL    HW2 6741   5.925   5.867   2.949
 1948SOL     OW 6742   5.350   3.602   3.486
 1948SOL    HW1 6743   5.313   3.688   3.452
 1948SOL    HW2 6744   5.277   3.547   3.526
 1949SOL     OW 6745   3.387   4.030   6.074
 1949SOL    HW1 6746   3.478   4.053   6.108
 1949SOL    HW2 6747   3.335   4.114   6.057
 1950SOL     OW 6748   4.049   3.420   3.552
 1950SOL    HW1 6749   4.008   3.496   3.602
 1950SOL    HW2 6750   4.064   3.447   3.457
 1951SOL     OW 6751   6.644   5.560   6.185
 1951SOL    HW1 6752   6.724   5.540   6.241
 1951SOL    HW2 6753   6.596   5.639   6.223
 1952SOL     OW 6754   5.914   3.903   0.082
 1952SOL    HW1 6755   5.954   3.994   0.088
 1952SOL    HW2 6756   5.866   3.881   0.167
 1953SOL     OW 6757   0.470   0.698   0.070
 1953SOL    HW1 6758   0.399   0.634   0.040
 1953SOL    HW2 6759   0.440   0.743   0.154
 1954SOL     OW 6760   3.734   6.619   2.291
 1954SOL    HW1 6761   3.727   6.560   2.371
 1954SOL    HW2 6762   3.810   6.683   2.303
 1955SOL     OW 6763   6.402   3.253   4.227
 1955SOL    HW1 6764   6.420   3.157   4.250
 1955SOL    HW2 6765   6.477   3.288   4.171
 1956SOL     OW 6766   4.804   1.418   1.441
 1956SOL    HW1 6767   4.718   1.371   1.420
 1956SOL    HW2 6768   4.795   1.515   1.422
 1957SOL     OW 6769   6.679   3.026   4.466
 1957SOL    HW1 6770   6.589   3.000   4.431
 1957SOL    HW2 6771   6.670   3.057   4.560
 1958SOL     OW 6772   4.618   2.200   6.954
 1958SOL    HW1 6773   4.547   2.182   6.885
 1958SOL    HW2 6774   4.606   2.292   6.991
 1959SOL     OW 6775   1.523   1.521   6.171
 1959SOL    HW1 6776   1.445   1.508   6.109
 1959SOL    HW2 6777   1.549   1.433   6.211
 1960SOL     OW 6778   4.892   4.567   2.411
 1960SOL    HW1 6779   4.810   4.579   2.467
 1960SOL    HW2 6780   4.865   4.539   2.319
 1961SOL     OW 6781   0.508   3.951   4.650
 1961SOL    HW1 6782   0.475   3.878   4.710
 1961SOL    HW2 6783   0.607   3.945   4.640
 1962SOL     OW 6784   0.368   0.021   2.134
 1962SOL    HW1 6785   0.324   0.100   2.091
 1962SOL    HW2 6786   0.358   6.961   2.074
 1963SOL     OW 6787   0.985   2.158   6.907
 1963SOL    HW1 6788   0.968   2.095   6.983
 1963SOL    HW2 6789   1.056   2.223   6.933
 1964SOL     OW 6790   5.522   3.498   0.510
 1964SOL    HW1 6791   5.619   3.518   0.520
 1964SOL    HW2 6792   5.469   3.557   0.572
 1965SOL     OW 6793   5.807   4.746   4.923
 1965SOL    HW1 6794   5.724   4.769   4.874
 1965SOL    HW2 6795   5.853   4.670   4.878
 1966SOL     OW 6796   1.131   5.570   6.390
 1966SOL    HW1 6797   1.063   5.558   6.462
 1966SOL    HW2 6798   1.100   5.640   6.326
 1967SOL     OW 6799   6.470   2.559   4.821
 1967SOL    HW1 6800   6.421   2.533   4.904
 1967SOL    HW2 6801   6.413   2.620   4.766
 1968SOL     OW 6802   2.638   1.271   6.102
 1968SOL    HW1 6803   2.671   1.236   6.190
 1968SOL    HW2 6804   2.538   1.280   6.105
 1969SOL     OW 6805   0.425   6.114   1.695
 1969SOL    HW1 6806   0.461   6.108   1.602
 1969SOL    HW2 6807   0.474   6.051   1.754
 1970SOL     OW 6808   5.334   4.309   3.183
 1970SOL    HW1 6809   5.383   4.252   3.249
 1970SOL    HW2 6810   5.377   4.300   3.093
 1971SOL     OW 6811   1.664   5.364   4.441
 1971SOL    HW1 6812   1.632   5.272   4.423
 1971SOL    HW2 6813   1.687   5.373   4.538
 1972SOL     OW 6814   5.205   2.239   2.976
 1972SOL    HW1 6815   5.143   2.318   2.977
 1972SOL    HW2 6816   5.195   2.189   2.891
 1973SOL     OW 6817   3.993   2.439   0.596
 1973SOL    HW1 6818   4.037   2.501   0.531
 1973SOL    HW2 6819   3.992   2.481   0.686
 1974SOL     OW 6820   2.320   6.607   4.480
 1974SOL    HW1 6821   2.344   6.647   4.569
 1974SOL    HW2 6822   2.274   6.519   4.495
 1975SOL     OW 6823   2.211   2.776   1.973
 1975SOL    HW1 6824   2.286   2.804   1.912
 1975SOL    HW2 6825   2.151   2.853   1.991
 1976SOL     OW 6826   1.385   1.118   4.854
 1976SOL    HW1 6827   1.451   1.182   4.895
 1976SOL    HW2 6828   1.421   1.025   4.859
 1977SOL     OW 6829   0.851   3.817   6.716
 1977SOL    HW1 6830   0.857   3.896   6.654
 1977SOL    HW2 6831   0.941   3.802   6.757
 1978SOL     OW 6832   2.740   0.350   2.295
 1978SOL    HW1 6833   2.778   0.366   2.386
 1978SOL    HW2 6834   2.797   0.396   2.226
 1979SOL     OW 6835   5.351   3.697   6.494
 1979SOL    HW1 6836   5.305   3.627   6.548
 1979SOL    HW2 6837   5.297   3.781   6.495
 1980SOL     OW 6838   4.154   0.639   1.304
 1980SOL    HW1 6839   4.151   0.541   1.285
 1980SOL    HW2 6840   4.078   0.685   1.258
 1981SOL     OW 6841   4.476   2.376   1.878
 1981SOL    HW1 6842   4.478   2.280   1.850
 1981SOL    HW2 6843   4.526   2.387   1.964
 1982SOL     OW 6844   2.065   2.807   6.729
 1982SOL    HW1 6845   2.114   2.734   6.777
 1982SOL    HW2 6846   1.967   2.798   6.747
 1983SOL     OW 6847   0.297   2.098   1.689
 1983SOL    HW1 6848   0.340   2.097   1.598
 1983SOL    HW2 6849   0.263   2.006   1.710
 1984SOL     OW 6850   4.489   3.552   5.701
 1984SOL    HW1 6851   4.394   3.572   5.723
 1984SOL    HW2 6852   4.533   3.635   5.666
 1985SOL     OW 6853   5.697   4.997   4.644
 1985SOL    HW1 6854   5.717   4.900   4.635
 1985SOL    HW2 6855   5.635   5.011   4.721
 1986SOL     OW 6856   3.080   3.174   3.033
 1986SOL    HW1 6857   3.009   3.208   2.970
 1986SOL    HW2 6858   3.090   3.237   3.110
 1987SOL     OW 6859   1.892   1.869   1.916
 1987SOL    HW1 6860   1.962   1.934   1.886
 1987SOL    HW2 6861   1.911   1.779   1.878
 1988SOL     OW 6862   0.978   1.954   3.219
 1988SOL    HW1 6863   0.916   1.959   3.141
 1988SOL    HW2 6864   1.070   1.932   3.188
 1989SOL     OW 6865   3.071   5.563   4.274
 1989SOL    HW1 6866   3.009   5.485   4.263
 1989SOL    HW2 6867   3.163   5.537   4.244
 1990SOL     OW 6868   4.425   6.915   0.688
 1990SOL    HW1 6869   4.342   6.876   0.729
 1990SOL    HW2 6870   4.421   7.015   0.695
 1991SOL     OW 6871   2.968   6.185   1.829
 1991SOL    HW1 6872   2.954   6.284   1.816
 1991SOL    HW2 6873   3.035   6.152   1.763
 1992SOL     OW 6874   1.191   6.947   3.408
 1992SOL    HW1 6875   1.275   7.000   3.393
 1992SOL    HW2 6876   1.116   7.009   3.431
 1993SOL     OW 6877   1.900   1.191   2.175
 1993SOL    HW1 6878   1.867   1.235   2.092
 1993SOL    HW2 6879   1.894   1.254   2.252
 1994SOL     OW 6880   2.865   3.085   1.705
 1994SOL    HW1 6881   2.796   3.078   1.633
 1994SOL    HW2 6882   2.822   3.115   1.790
 1995SOL     OW 6883   6.052   0.937   4.219
 1995SOL    HW1 6884   6.078   0.906   4.310
 1995SOL    HW2 6885   5.957   0.913   4.201
 1996SOL     OW 6886   5.006   0.413   1.300
 1996SOL    HW1 6887   5.043   0.477   1.367
 1996SOL    HW2 6888   5.068   0.335   1.291
 1997SOL     OW 6889   3.406   1.439   2.965
 1997SOL    HW1 6890   3.423   1.343   2.986
 1997SOL    HW2 6891   3.484   1.494   2.997
 1998SOL     OW 6892   2.479   3.372   1.130
 1998SOL    HW1 6893   2.408   3.335   1.069
 1998SOL    HW2 6894   2.437   3.407   1.213
 1999SOL     OW 6895   1.001   6.999   5.757
 1999SOL    HW1 6896   1.019   7.013   5.855
 1999SOL    HW2 6897   0.944   6.917   5.746
 2000SOL     OW 6898   4.225   4.490   6.543
 2000SOL    HW1 6899   4.219   4.403   6.495
 2000SOL    HW2 6900   4.274   4.478   6.629
 2001SOL     OW 6901   1.549   2.143   0.736
 2001SOL    HW1 6902   1.500   2.176   0.655
 2001SOL    HW2 6903   1.620   2.209   0.760
 2002SOL     OW 6904   6.475   5.100   0.195
 2002SOL    HW1 6905   6.407   5.169   0.170
 2002SOL    HW2 6906   6.564   5.142   0.204
 2003SOL     OW 6907   6.247   5.402   1.239
 2003SOL    HW1 6908   6.148   5.411   1.250
 2003SOL    HW2 6909   6.293   5.422   1.326
 2004SOL     OW 6910   3.989   0.453   2.902
 2004SOL    HW1 6911   4.041   0.511   2.964
 2004SOL    HW2 6912   3.893   0.480   2.903
 2005SOL     OW 6913   1.503   6.244   0.533
 2005SOL    HW1 6914   1.589   6.210   0.570
 2005SOL    HW2 6915   1.519   6.281   0.441
 2006SOL     OW 6916   6.199   6.823   1.844
 2006SOL    HW1 6917   6.154   6.771   1.771
 2006SOL    HW2 6918   6.238   6.759   1.910
 2007SOL     OW 6919   5.632   5.159   5.685
 2007SOL    HW1 6920   5.620   5.135   5.588
 2007SOL    HW2 6921   5.684   5.086   5.730
 2008SOL     OW 6922   1.927   3.216   2.761
 2008SOL    HW1 6923   1.965   3.243   2.673
 2008SOL    HW2 6924   2.001   3.194   2.824
 2009SOL     OW 6925   5.943   0.103   3.159
 2009SOL    HW1 6926   5.925   0.040   3.084
 2009SOL    HW2 6927   5.885   0.185   3.149
 2010SOL     OW 6928   0.322   1.386   1.626
 2010SOL    HW1 6929   0.264   1.467   1.627
 2010SOL    HW2 6930   0.360   1.372   1.535
 2011SOL     OW 6931   0.757   0.112   4.812
 2011SOL    HW1 6932   0.764   0.043   4.884
 2011SOL    HW2 6933   0.699   0.078   4.739
 2012SOL     OW 6934   0.191   2.426   0.379
 2012SOL    HW1 6935   0.265   2.453   0.317
 2012SOL    HW2 6936   0.130   2.361   0.332
 2013SOL     OW 6937   0.697   2.914   2.275
 2013SOL    HW1 6938   0.725   2.820   2.254
 2013SOL    HW2 6939   0.599   2.925   2.261
 2014SOL     OW 6940   3.916   1.805   3.796
 2014SOL    HW1 6941   4.007   1.846   3.801
 2014SOL    HW2 6942   3.920   1.725   3.735
 2015SOL     OW 6943   3.996   6.222   1.443
 2015SOL    HW1 6944   4.013   6.175   1.530
 2015SOL    HW2 6945   4.084   6.246   1.401
 2016SOL     OW 6946   1.505   0.865   5.045
 2016SOL    HW1 6947   1.558   0.784   5.068
 2016SOL    HW2 6948   1.428   0.874   5.108
 2017SOL     OW 6949   2.249   6.915   4.654
 2017SOL    HW1 6950   2.301   6.838   4.692
 2017SOL    HW2 6951   2.153   6.889   4.647
 2018SOL     OW 6952   0.438   0.579   4.615
 2018SOL    HW1 6953   0.382   0.496   4.613
 2018SOL    HW2 6954   0.528   0.560   4.576
 2019SOL     OW 6955   0.158   5.069   6.911
 2019SOL    HW1 6956   0.198   4.985   6.947
 2019SOL    HW2 6957   0.089   5.103   6.974
 2020SOL     OW 6958   1.566   6.701   1.361
 2020SOL    HW1 6959   1.542   6.796   1.382
 2020SOL    HW2 6960   1.604   6.657   1.442
 2021SOL     OW 6961   6.917   5.680   3.871
 2021SOL    HW1 6962   6.879   5.638   3.789
 2021SOL    HW2 6963   6.847   5.735   3.917
 2022SOL     OW 6964   2.170   3.159   4.212
 2022SOL    HW1 6965   2.116   3.213   4.147
 2022SOL    HW2 6966   2.188   3.213   4.294
 2023SOL     OW 6967   0.708   5.448   0.100
 2023SOL    HW1 6968   0.755   5.476   0.184
 2023SOL    HW2 6969   0.679   5.530   0.049
 2024SOL     OW 6970   6.495   6.178   3.619
 2024SOL    HW1 6971   6.535   6.159   3.530
 2024SOL    HW2 6972   6.534   6.263   3.656
 2025SOL     OW 6973   1.870   0.161   4.132
 2025SOL    HW1 6974   1.903   0.079   4.179
 2025SOL    HW2 6975   1.820   0.218   4.197
 2026SOL     OW 6976   1.686   0.024   5.460
 2026SOL    HW1 6977   1.596   0.065   5.470
 2026SOL    HW2 6978   1.697   7.007   5.367
 2027SOL     OW 6979   6.162   6.624   2.904
 2027SOL    HW1 6980   6.084   6.641   2.964
 2027SOL    HW2 6981   6.228   6.564   2.951
 2028SOL     OW 6982   2.206   5.959   4.693
 2028SOL    HW1 6983   2.292   5.944   4.644
 2028SOL    HW2 6984   2.226   5.996   4.784
 2029SOL     OW 6985   6.491   1.927   6.557
 2029SOL    HW1 6986   6.581   1.896   6.526
 2029SOL    HW2 6987   6.447   1.854   6.610
 2030SOL     OW 6988   1.761   6.426   2.656
 2030SOL    HW1 6989   1.715   6.350   2.703
 2030SOL    HW2 6990   1.834   6.390   2.598
 2031SOL     OW 6991   0.049   6.915   5.597
 2031SOL    HW1 6992   0.145   6.889   5.609
 2031SOL    HW2 6993   0.031   6.931   5.500
 2032SOL     OW 6994   2.593   2.818   6.424
 2032SOL    HW1 6995   2.514   2.877   6.410
 2032SOL    HW2 6996   2.675   2.861   6.386
 2033SOL     OW 6997   2.409   0.376   1.354
 2033SOL    HW1 6998   2.378   0.421   1.270
 2033SOL    HW2 6999   2.392   0.435   1.432
 2034SOL     OW 7000   0.513   4.024   5.050
 2034SOL    HW1 7001   0.554   4.064   5.132
 2034SOL    HW2 7002   0.514   4.091   4.976
 2035SOL     OW 7003   5.455   5.889   2.955
 2035SOL    HW1 7004   5.504   5.868   3.039
 2035SOL    HW2 7005   5.486   5.828   2.882
 2036SOL     OW 7006   0.017   3.415   5.998
 2036SOL    HW1 7007   0.085   3.448   5.932
 2036SOL    HW2 7008   6.998   3.328   5.967
 2037SOL     OW 7009   1.185   2.364   6.988
 2037SOL    HW1 7010   1.155   2.381   0.063
 2037SOL    HW2 7011   1.230   2.446   6.952
 2038SOL     OW 7012   1.670   0.806   5.685
 2038SOL    HW1 7013   1.571   0.795   5.687
 2038SOL    HW2 7014   1.694   0.901   5.707
 2039SOL     OW 7015   5.257   6.029   4.259
 2039SOL    HW1 7016   5.353   6.025   4.288
 2039SOL    HW2 7017   5.248   6.085   4.177
 2040SOL     OW 7018   2.878   1.211   0.926
 2040SOL    HW1 7019   2.908   1.148   0.997
 2040SOL    HW2 7020   2.869   1.303   0.964
 2041SOL     OW 7021   3.491   6.768   0.267
 2041SOL    HW1 7022   3.423   6.835   0.239
 2041SOL    HW2 7023   3.515   6.710   0.188
 2042SOL     OW 7024   0.276   0.260   5.205
 2042SOL    HW1 7025   0.330   0.337   5.237
 2042SOL    HW2 7026   0.244   0.206   5.284
 2043SOL     OW 7027   0.763   3.738   0.353
 2043SOL    HW1 7028   0.726   3.828   0.375
 2043SOL    HW2 7029   0.729   3.709   0.264
 2044SOL     OW 7030   3.854   0.928   2.106
 2044SOL    HW1 7031   3.899   0.997   2.163
 2044SOL    HW2 7032   3.922   0.883   2.049
 2045SOL     OW 7033   2.081   5.715   3.181
 2045SOL    HW1 7034   2.162   5.708   3.122
 2045SOL    HW2 7035   2.024   5.634   3.170
 2046SOL     OW 7036   0.899   2.720   5.912
 2046SOL    HW1 7037   0.884   2.752   6.005
 2046SOL    HW2 7038   0.840   2.771   5.849
 2047SOL     OW 7039   0.010   7.000   1.962
 2047SOL    HW1 7040   0.019   6.915   1.910
 2047SOL    HW2 7041   6.933   0.002   1.977
 2048SOL     OW 7042   1.736   0.821   3.469
 2048SOL    HW1 7043   1.732   0.722   3.477
 2048SOL    HW2 7044   1.647   0.856   3.441
 2049SOL     OW 7045   4.609   1.932   5.271
 2049SOL    HW1 7046   4.696   1.980   5.280
 2049SOL    HW2 7047   4.557   1.970   5.195
 2050SOL     OW 7048   0.362   1.010   2.413
 2050SOL    HW1 7049   0.312   0.984   2.330
 2050SOL    HW2 7050   0.405   0.929   2.453
 2051SOL     OW 7051   2.814   7.008   6.818
 2051SOL    HW1 7052   2.750   6.952   6.765
 2051SOL    HW2 7053   2.890   0.016   6.760
 2052SOL     OW 7054   6.757   4.418   0.937
 2052SOL    HW1 7055   6.767   4.413   1.036
 2052SOL    HW2 7056   6.695   4.493   0.914
 2053SOL     OW 7057   4.726   5.112   1.704
 2053SOL    HW1 7058   4.739   5.211   1.709
 2053SOL    HW2 7059   4.660   5.084   1.774
 2054SOL     OW 7060   3.129   4.000   3.489
 2054SOL    HW1 7061   3.194   4.075   3.484
 2054SOL    HW2 7062   3.061   4.018   3.560
 2055SOL     OW 7063   3.608   2.480   5.614
 2055SOL    HW1 7064   3.541   2.435   5.673
 2055SOL    HW2 7065   3.609   2.578   5.634
 2056SOL     OW 7066   2.761   5.367   2.172
 2056SOL    HW1 7067   2.774   5.287   2.230
 2056SOL    HW2 7068   2.847   5.418   2.166
 2057SOL     OW 7069   6.091   3.100   3.849
 2057SOL    HW1 7070   6.120   3.005   3.846
 2057SOL    HW2 7071   5.994   3.105   3.873
 2058SOL     OW 7072   5.009   0.149   3.981
 2058SOL    HW1 7073   4.927   0.093   3.974
 2058SOL    HW2 7074   5.011   0.213   3.904
 2059SOL     OW 7075   2.343   1.223   5.904
 2059SOL    HW1 7076   2.353   1.315   5.868
 2059SOL    HW2 7077   2.376   1.220   5.998
 2060SOL     OW 7078   0.968   2.679   6.806
 2060SOL    HW1 7079   1.038   2.676   6.878
 2060SOL    HW2 7080   0.938   2.585   6.785
 2061SOL     OW 7081   1.929   2.450   4.285
 2061SOL    HW1 7082   1.871   2.418   4.211
 2061SOL    HW2 7083   2.023   2.421   4.270
 2062SOL     OW 7084   5.125   5.492   3.589
 2062SOL    HW1 7085   5.112   5.428   3.665
 2062SOL    HW2 7086   5.039   5.540   3.571
 2063SOL     OW 7087   0.893   1.874   4.481
 2063SOL    HW1 7088   0.880   1.926   4.396
 2063SOL    HW2 7089   0.952   1.925   4.543
 2064SOL     OW 7090   0.682   3.844   4.877
 2064SOL    HW1 7091   0.614   3.907   4.916
 2064SOL    HW2 7092   0.711   3.779   4.948
 2065SOL     OW 7093   3.723   3.658   6.043
 2065SOL    HW1 7094   3.715   3.632   5.947
 2065SOL    HW2 7095   3.633   3.653   6.086
 2066SOL     OW 7096   2.265   2.619   4.357
 2066SOL    HW1 7097   2.269   2.617   4.457
 2066SOL    HW2 7098   2.255   2.713   4.326
 2067SOL     OW 7099   6.447   4.946   2.232
 2067SOL    HW1 7100   6.399   5.007   2.169
 2067SOL    HW2 7101   6.526   4.904   2.185
 2068SOL     OW 7102   3.279   6.678   4.174
 2068SOL    HW1 7103   3.245   6.720   4.259
 2068SOL    HW2 7104   3.375   6.701   4.162
 2069SOL     OW 7105   6.209   1.648   3.223
 2069SOL    HW1 7106   6.231   1.564   3.272
 2069SOL    HW2 7107   6.139   1.630   3.154
 2070SOL     OW 7108   0.181   5.105   1.941
 2070SOL    HW1 7109   0.119   5.031   1.969
 2070SOL    HW2 7110   0.169   5.123   1.843
 2071SOL     OW 7111   6.526   2.349   3.947
 2071SOL    HW1 7112   6.445   2.291   3.958
 2071SOL    HW2 7113   6.505   2.426   3.887
 2072SOL     OW 7114   5.054   2.807   5.160
 2072SOL    HW1 7115   4.976   2.779   5.217
 2072SOL    HW2 7116   5.073   2.904   5.175
 2073SOL     OW 7117   3.424   5.194   7.015
 2073SOL    HW1 7118   3.371   5.242   6.945
 2073SOL    HW2 7119   3.429   5.251   0.078
 2074SOL     OW 7120   3.890   4.794   5.267
 2074SOL    HW1 7121   3.798   4.828   5.249
 2074SOL    HW2 7122   3.938   4.857   5.329
 2075SOL     OW 7123   5.261   1.348   0.856
 2075SOL    HW1 7124   5.263   1.433   0.909
 2075SOL    HW2 7125   5.207   1.279   0.905
 2076SOL     OW 7126   6.982   0.024   3.753
 2076SOL    HW1 7127   0.001   0.117   3.752
 2076SOL    HW2 7128   0.020   6.985   3.811
 2077SOL     OW 7129   0.728   4.334   0.886
 2077SOL    HW1 7130   0.706   4.431   0.899
 2077SOL    HW2 7131   0.797   4.306   0.954
 2078SOL     OW 7132   0.875   2.570   0.206
 2078SOL    HW1 7133   0.824   2.523   0.133
 2078SOL    HW2 7134   0.821   2.569   0.290
 2079SOL     OW 7135   5.710   1.850   3.427
 2079SOL    HW1 7136   5.741   1.779   3.365
 2079SOL    HW2 7137   5.645   1.811   3.493
 2080SOL     OW 7138   1.844   2.855   5.621
 2080SOL    HW1 7139   1.813   2.895   5.534
 2080SOL    HW2 7140   1.939   2.828   5.613
 2081SOL     OW 7141   0.468   6.055   2.724
 2081SOL    HW1 7142   0.566   6.076   2.725
 2081SOL    HW2 7143   0.454   5.967   2.679
 2082SOL     OW 7144   6.566   6.630   3.477
 2082SOL    HW1 7145   6.607   6.659   3.564
 2082SOL    HW2 7146   6.639   6.607   3.412
 2083SOL     OW 7147   0.909   5.443   3.045
 2083SOL    HW1 7148   0.971   5.519   3.064
 2083SOL    HW2 7149   0.895   5.390   3.129
 2084SOL     OW 7150   6.166   2.259   1.393
 2084SOL    HW1 7151   6.139   2.348   1.355
 2084SOL    HW2 7152   6.088   2.197   1.388
 2085SOL     OW 7153   6.440   5.887   0.218
 2085SOL    HW1 7154   6.382   5.806   0.223
 2085SOL    HW2 7155   6.531   5.861   0.186
 2086SOL     OW 7156   5.902   0.028   5.611
 2086SOL    HW1 7157   5.938   6.956   5.631
 2086SOL    HW2 7158   5.812   0.020   5.568
 2087SOL     OW 7159   5.517   1.210   6.528
 2087SOL    HW1 7160   5.459   1.271   6.473
 2087SOL    HW2 7161   5.607   1.202   6.484
 2088SOL     OW 7162   0.408   3.315   5.694
 2088SOL    HW1 7163   0.348   3.265   5.757
 2088SOL    HW2 7164   0.499   3.323   5.735
 2089SOL     OW 7165   2.912   5.296   4.623
 2089SOL    HW1 7166   2.985   5.290   4.555
 2089SOL    HW2 7167   2.830   5.336   4.580
 2090SOL     OW 7168   5.264   2.091   6.407
 2090SOL    HW1 7169   5.230   2.115   6.498
 2090SOL    HW2 7170   5.349   2.141   6.390
 2091SOL     OW 7171   5.552   6.431   0.878
 2091SOL    HW1 7172   5.610   6.498   0.925
 2091SOL    HW2 7173   5.487   6.480   0.820
 2092SOL     OW 7174   3.457   2.864   3.002
 2092SOL    HW1 7175   3.516   2.864   2.921
 2092SOL    HW2 7176   3.368   2.903   2.978
 2093SOL     OW 7177   4.805   7.011   0.674
 2093SOL    HW1 7178   4.853   0.076   0.698
 2093SOL    HW2 7179   4.723   7.002   0.731
 2094SOL     OW 7180   4.904   3.146   0.911
 2094SOL    HW1 7181   4.844   3.076   0.872
 2094SOL    HW2 7182   4.981   3.101   0.957
 2095SOL     OW 7183   4.860   5.512   3.300
 2095SOL    HW1 7184   4.896   5.545   3.212
 2095SOL    HW2 7185   4.801   5.434   3.284
 2096SOL     OW 7186   3.642   6.722   3.044
 2096SOL    HW1 7187   3.690   6.744   3.129
 2096SOL    HW2 7188   3.628   6.623   3.038
 2097SOL     OW 7189   2.203   5.961   5.270
 2097SOL    HW1 7190   2.283   6.015   5.296
 2097SOL    HW2 7191   2.152   5.934   5.352
 2098SOL     OW 7192   1.623   6.817   3.779
 2098SOL    HW1 7193   1.721   6.837   3.789
 2098SOL    HW2 7194   1.592   6.766   3.860
 2099SOL     OW 7195   4.858   1.675   6.876
 2099SOL    HW1 7196   4.846   1.775   6.873
 2099SOL    HW2 7197   4.781   1.634   6.924
 2100SOL     OW 7198   4.380   0.156   0.749
 2100SOL    HW1 7199   4.379   0.256   0.754
 2100SOL    HW2 7200   4.398   0.118   0.840
 2101SOL     OW 7201   1.619   0.298   2.598
 2101SOL    HW1 7202   1.558   0.260   2.529
 2101SOL    HW2 7203   1.714   0.292   2.567
 2102SOL     OW 7204   3.536   3.001   2.445
 2102SOL    HW1 7205   3.635   2.989   2.447
 2102SOL    HW2 7206   3.508   3.064   2.517
 2103SOL     OW 7207   1.793   0.066   1.314
 2103SOL    HW1 7208   1.745   0.014   1.243
 2103SOL    HW2 7209   1.885   0.088   1.282
 2104SOL     OW 7210   1.189   4.207   2.794
 2104SOL    HW1 7211   1.195   4.267   2.874
 2104SOL    HW2 7212   1.120   4.242   2.731
 2105SOL     OW 7213   5.328   6.466   5.515
 2105SOL    HW1 7214   5.243   6.450   5.566
 2105SOL    HW2 7215   5.370   6.551   5.547
 2106SOL     OW 7216   3.437   2.643   1.288
 2106SOL    HW1 7217   3.464   2.606   1.199
 2106SOL    HW2 7218   3.496   2.606   1.359
 2107SOL     OW 7219   6.039   4.303   5.034
 2107SOL    HW1 7220   6.103   4.341   5.100
 2107SOL    HW2 7221   6.068   4.211   5.008
 2108SOL     OW 7222   4.517   6.736   5.281
 2108SOL    HW1 7223   4.589   6.706   5.343
 2108SOL    HW2 7224   4.558   6.769   5.195
 2109SOL     OW 7225   2.864   5.749   2.225
 2109SOL    HW1 7226   2.808   5.744   2.142
 2109SOL    HW2 7227   2.804   5.752   2.305
 2110SOL     OW 7228   3.856   5.778   6.773
 2110SOL    HW1 7229   3.860   5.693   6.719
 2110SOL    HW2 7230   3.889   5.854   6.717
 2111SOL     OW 7231   0.442   2.642   0.406
 2111SOL    HW1 7232   0.419   2.727   0.359
 2111SOL    HW2 7233   0.427   2.564   0.345
 2112SOL     OW 7234   0.856   0.415   6.630
 2112SOL    HW1 7235   0.925   0.354   6.591
 2112SOL    HW2 7236   0.767   0.397   6.588
 2113SOL     OW 7237   6.936   1.596   4.618
 2113SOL    HW1 7238   6.943   1.588   4.518
 2113SOL    HW2 7239   0.003   1.631   4.655
 2114SOL     OW 7240   3.080   1.211   5.391
 2114SOL    HW1 7241   3.061   1.147   5.466
 2114SOL    HW2 7242   2.997   1.263   5.370
 2115SOL     OW 7243   6.460   6.960   3.875
 2115SOL    HW1 7244   6.375   6.912   3.898
 2115SOL    HW2 7245   6.470   6.966   3.776
 2116SOL     OW 7246   1.940   0.777   5.619
 2116SOL    HW1 7247   2.005   0.770   5.695
 2116SOL    HW2 7248   1.848   0.757   5.651
 2117SOL     OW 7249   5.776   3.403   1.367
 2117SOL    HW1 7250   5.809   3.369   1.278
 2117SOL    HW2 7251   5.705   3.472   1.352
 2118SOL     OW 7252   0.005   3.276   2.845
 2118SOL    HW1 7253   0.090   3.326   2.856
 2118SOL    HW2 7254   6.958   3.331   2.794
 2119SOL     OW 7255   2.248   2.253   0.130
 2119SOL    HW1 7256   2.185   2.176   0.124
 2119SOL    HW2 7257   2.283   2.261   0.223
 2120SOL     OW 7258   5.726   1.736   0.623
 2120SOL    HW1 7259   5.736   1.792   0.540
 2120SOL    HW2 7260   5.677   1.652   0.600
 2121SOL     OW 7261   3.064   5.914   1.251
 2121SOL    HW1 7262   3.100   6.007   1.264
 2121SOL    HW2 7263   3.127   5.848   1.289
 2122SOL     OW 7264   0.339   0.693   5.322
 2122SOL    HW1 7265   0.386   0.611   5.288
 2122SOL    HW2 7266   0.343   0.765   5.252
 2123SOL     OW 7267   1.162   4.778   3.371
 2123SOL    HW1 7268   1.159   4.679   3.377
 2123SOL    HW2 7269   1.072   4.813   3.346
 2124SOL     OW 7270   4.787   3.032   6.177
 2124SOL    HW1 7271   4.854   3.034   6.103
 2124SOL    HW2 7272   4.695   3.050   6.140
 2125SOL     OW 7273   2.247   5.711   6.154
 2125SOL    HW1 7274   2.228   5.625   6.201
 2125SOL    HW2 7275   2.189   5.717   6.072
 2126SOL     OW 7276   2.767   5.086   1.814
 2126SOL    HW1 7277   2.670   5.077   1.792
 2126SOL    HW2 7278   2.791   5.021   1.886
 2127SOL     OW 7279   1.341   3.719   3.745
 2127SOL    HW1 7280   1.303   3.755   3.830
 2127SOL    HW2 7281   1.403   3.643   3.765
 2128SOL     OW 7282   5.282   2.775   0.942
 2128SOL    HW1 7283   5.318   2.840   1.009
 2128SOL    HW2 7284   5.299   2.809   0.850
 2129SOL     OW 7285   6.200   4.251   3.714
 2129SOL    HW1 7286   6.228   4.306   3.793
 2129SOL    HW2 7287   6.263   4.174   3.704
 2130SOL     OW 7288   1.972   0.293   2.695
 2130SOL    HW1 7289   1.953   0.312   2.599
 2130SOL    HW2 7290   1.978   0.380   2.745
 2131SOL     OW 7291   5.737   0.445   6.881
 2131SOL    HW1 7292   5.644   0.447   6.843
 2131SOL    HW2 7293   5.743   0.373   6.950
 2132SOL     OW 7294   2.995   2.169   6.953
 2132SOL    HW1 7295   2.897   2.157   6.969
 2132SOL    HW2 7296   3.023   2.117   6.872
 2133SOL     OW 7297   4.239   2.699   1.626
 2133SOL    HW1 7298   4.223   2.640   1.547
 2133SOL    HW2 7299   4.316   2.665   1.679
 2134SOL     OW 7300   2.454   0.479   5.227
 2134SOL    HW1 7301   2.424   0.393   5.268
 2134SOL    HW2 7302   2.419   0.485   5.134
 2135SOL     OW 7303   0.331   6.230   4.167
 2135SOL    HW1 7304   0.353   6.148   4.219
 2135SOL    HW2 7305   0.299   6.302   4.229
 2136SOL     OW 7306   0.611   5.031   3.633
 2136SOL    HW1 7307   0.585   4.976   3.712
 2136SOL    HW2 7308   0.552   5.111   3.628
 2137SOL     OW 7309   0.097   0.249   4.545
 2137SOL    HW1 7310   0.041   0.309   4.486
 2137SOL    HW2 7311   0.053   0.242   4.635
 2138SOL     OW 7312   1.366   2.253   6.749
 2138SOL    HW1 7313   1.431   2.177   6.752
 2138SOL    HW2 7314   1.319   2.260   6.837
 2139SOL     OW 7315   3.423   5.905   4.309
 2139SOL    HW1 7316   3.324   5.904   4.313
 2139SOL    HW2 7317   3.453   5.925   4.216
 2140SOL     OW 7318   1.433   5.714   3.511
 2140SOL    HW1 7319   1.484   5.727   3.426
 2140SOL    HW2 7320   1.369   5.789   3.524
 2141SOL     OW 7321   6.595   0.783   6.785
 2141SOL    HW1 7322   6.684   0.811   6.749
 2141SOL    HW2 7323   6.544   0.734   6.713
 2142SOL     OW 7324   4.231   1.192   2.982
 2142SOL    HW1 7325   4.216   1.094   2.985
 2142SOL    HW2 7326   4.250   1.227   3.074
 2143SOL     OW 7327   3.820   5.663   0.476
 2143SOL    HW1 7328   3.747   5.618   0.425
 2143SOL    HW2 7329   3.909   5.635   0.440
 2144SOL     OW 7330   0.828   1.231   1.813
 2144SOL    HW1 7331   0.787   1.256   1.901
 2144SOL    HW2 7332   0.840   1.131   1.809
 2145SOL     OW 7333   2.458   6.005   3.848
 2145SOL    HW1 7334   2.388   5.958   3.901
 2145SOL    HW2 7335   2.465   5.964   3.757
 2146SOL     OW 7336   3.266   2.312   1.281
 2146SOL    HW1 7337   3.356   2.287   1.315
 2146SOL    HW2 7338   3.199   2.304   1.355
 2147SOL     OW 7339   6.724   0.075   4.578
 2147SOL    HW1 7340   6.755   0.071   4.673
 2147SOL    HW2 7341   6.730   0.169   4.545
 2148SOL     OW 7342   6.889   3.929   3.895
 2148SOL    HW1 7343   6.892   3.912   3.797
 2148SOL    HW2 7344   6.808   3.985   3.917
 2149SOL     OW 7345   2.637   1.357   2.388
 2149SOL    HW1 7346   2.687   1.394   2.466
 2149SOL    HW2 7347   2.544   1.392   2.388
 2150SOL     OW 7348   4.945   0.597   2.902
 2150SOL    HW1 7349   5.023   0.552   2.946
 2150SOL    HW2 7350   4.962   0.696   2.897
 2151SOL     OW 7351   4.369   4.306   5.713
 2151SOL    HW1 7352   4.396   4.230   5.653
 2151SOL    HW2 7353   4.307   4.273   5.783
 2152SOL     OW 7354   0.254   6.399   2.942
 2152SOL    HW1 7355   0.275   6.409   2.845
 2152SOL    HW2 7356   0.162   6.360   2.953
 2153SOL     OW 7357   4.514   1.549   3.861
 2153SOL    HW1 7358   4.538   1.588   3.772
 2153SOL    HW2 7359   4.598   1.537   3.915
 2154SOL     OW 7360   3.973   6.850   4.303
 2154SOL    HW1 7361   3.935   6.937   4.273
 2154SOL    HW2 7362   4.071   6.860   4.320
 2155SOL     OW 7363   5.987   3.424   0.666
 2155SOL    HW1 7364   6.049   3.393   0.594
 2155SOL    HW2 7365   5.910   3.473   0.625
 2156SOL     OW 7366   6.203   5.932   2.464
 2156SOL    HW1 7367   6.112   5.894   2.447
 2156SOL    HW2 7368   6.252   5.943   2.377
 2157SOL     OW 7369   5.483   1.462   3.552
 2157SOL    HW1 7370   5.389   1.469   3.586
 2157SOL    HW2 7371   5.530   1.549   3.568
 2158SOL     OW 7372   4.055   0.313   3.537
 2158SOL    HW1 7373   3.957   0.317   3.554
 2158SOL    HW2 7374   4.074   0.353   3.447
 2159SOL     OW 7375   2.625   1.475   5.246
 2159SOL    HW1 7376   2.529   1.449   5.251
 2159SOL    HW2 7377   2.636   1.550   5.181
 2160SOL     OW 7378   2.480   4.129   0.697
 2160SOL    HW1 7379   2.506   4.061   0.766
 2160SOL    HW2 7380   2.518   4.102   0.608
 2161SOL     OW 7381   4.607   2.621   3.203
 2161SOL    HW1 7382   4.541   2.562   3.157
 2161SOL    HW2 7383   4.586   2.623   3.301
 2162SOL     OW 7384   2.545   1.606   2.121
 2162SOL    HW1 7385   2.457   1.567   2.150
 2162SOL    HW2 7386   2.549   1.703   2.146
 2163SOL     OW 7387   3.612   2.157   1.086
 2163SOL    HW1 7388   3.627   2.058   1.091
 2163SOL    HW2 7389   3.621   2.187   0.991
 2164SOL     OW 7390   6.414   0.834   1.449
 2164SOL    HW1 7391   6.329   0.875   1.417
 2164SOL    HW2 7392   6.450   0.773   1.379
 2165SOL     OW 7393   2.150   0.762   2.141
 2165SOL    HW1 7394   2.149   0.748   2.042
 2165SOL    HW2 7395   2.155   0.674   2.187
 2166SOL     OW 7396   5.522   2.797   5.034
 2166SOL    HW1 7397   5.604   2.740   5.028
 2166SOL    HW2 7398   5.492   2.820   4.941
 2167SOL     OW 7399   3.240   1.577   1.385
 2167SOL    HW1 7400   3.311   1.647   1.380
 2167SOL    HW2 7401   3.262   1.512   1.457
 2168SOL     OW 7402   5.252   6.439   4.637
 2168SOL    HW1 7403   5.250   6.499   4.557
 2168SOL    HW2 7404   5.305   6.357   4.615
 2169SOL     OW 7405   5.399   1.716   5.687
 2169SOL    HW1 7406   5.499   1.713   5.690
 2169SOL    HW2 7407   5.362   1.674   5.770
 2170SOL     OW 7408   5.006   5.362   4.442
 2170SOL    HW1 7409   4.915   5.396   4.465
 2170SOL    HW2 7410   5.072   5.390   4.511
 2171SOL     OW 7411   0.228   3.734   0.026
 2171SOL    HW1 7412   0.175   3.691   6.973
 2171SOL    HW2 7413   0.246   3.668   0.099
 2172SOL     OW 7414   1.828   0.249   2.965
 2172SOL    HW1 7415   1.791   0.319   3.026
 2172SOL    HW2 7416   1.787   0.258   2.874
 2173SOL     OW 7417   4.422   2.107   4.749
 2173SOL    HW1 7418   4.502   2.068   4.704
 2173SOL    HW2 7419   4.388   2.043   4.818
 2174SOL     OW 7420   1.089   5.529   4.992
 2174SOL    HW1 7421   1.027   5.576   5.056
 2174SOL    HW2 7422   1.173   5.504   5.039
 2175SOL     OW 7423   1.265   6.730   6.675
 2175SOL    HW1 7424   1.231   6.824   6.671
 2175SOL    HW2 7425   1.332   6.716   6.602
 2176SOL     OW 7426   1.961   2.785   2.298
 2176SOL    HW1 7427   1.964   2.760   2.394
 2176SOL    HW2 7428   2.054   2.801   2.264
 2177SOL     OW 7429   0.903   1.620   1.563
 2177SOL    HW1 7430   0.870   1.712   1.584
 2177SOL    HW2 7431   0.826   1.557   1.562
 2178SOL     OW 7432   6.744   5.886   0.189
 2178SOL    HW1 7433   6.726   5.971   0.138
 2178SOL    HW2 7434   6.773   5.909   0.282
 2179SOL     OW 7435   2.181   3.889   4.051
 2179SOL    HW1 7436   2.241   3.817   4.087
 2179SOL    HW2 7437   2.103   3.847   4.004
 2180SOL     OW 7438   2.915   3.285   2.199
 2180SOL    HW1 7439   2.865   3.324   2.277
 2180SOL    HW2 7440   3.011   3.274   2.224
 2181SOL     OW 7441   3.607   6.877   0.849
 2181SOL    HW1 7442   3.664   6.926   0.915
 2181SOL    HW2 7443   3.580   6.789   0.888
 2182SOL     OW 7444   4.160   3.472   0.562
 2182SOL    HW1 7445   4.154   3.525   0.647
 2182SOL    HW2 7446   4.071   3.430   0.543
 2183SOL     OW 7447   4.495   2.990   1.105
 2183SOL    HW1 7448   4.405   2.954   1.081
 2183SOL    HW2 7449   4.528   2.944   1.188
 2184SOL     OW 7450   4.742   2.848   5.840
 2184SOL    HW1 7451   4.806   2.911   5.884
 2184SOL    HW2 7452   4.670   2.823   5.905
 2185SOL     OW 7453   6.324   6.341   2.275
 2185SOL    HW1 7454   6.239   6.376   2.316
 2185SOL    HW2 7455   6.388   6.417   2.263
 2186SOL     OW 7456   0.004   4.366   3.278
 2186SOL    HW1 7457   6.936   4.347   3.233
 2186SOL    HW2 7458   0.038   4.455   3.250
 2187SOL     OW 7459   6.513   0.899   0.145
 2187SOL    HW1 7460   6.527   0.866   0.051
 2187SOL    HW2 7461   6.572   0.848   0.207
 2188SOL     OW 7462   4.643   1.861   3.437
 2188SOL    HW1 7463   4.599   1.951   3.432
 2188SOL    HW2 7464   4.585   1.799   3.490
 2189SOL     OW 7465   3.695   6.302   0.001
 2189SOL    HW1 7466   3.721   6.244   6.943
 2189SOL    HW2 7467   3.641   6.248   0.066
 2190SOL     OW 7468   5.499   3.262   0.887
 2190SOL    HW1 7469   5.414   3.254   0.834
 2190SOL    HW2 7470   5.480   3.241   0.983
 2191SOL     OW 7471   3.418   0.866   6.866
 2191SOL    HW1 7472   3.341   0.844   6.806
 2191SOL    HW2 7473   3.461   0.781   6.897
 2192SOL     OW 7474   4.257   6.191   2.215
 2192SOL    HW1 7475   4.205   6.240   2.145
 2192SOL    HW2 7476   4.282   6.254   2.288
 2193SOL     OW 7477   6.896   6.140   4.934
 2193SOL    HW1 7478   6.871   6.219   4.990
 2193SOL    HW2 7479   6.933   6.068   4.994
 2194SOL     OW 7480   2.508   6.746   1.944
 2194SOL    HW1 7481   2.482   6.823   2.002
 2194SOL    HW2 7482   2.462   6.663   1.975
 2195SOL     OW 7483   0.151   4.777   2.347
 2195SOL    HW1 7484   0.236   4.738   2.311
 2195SOL    HW2 7485   0.166   4.808   2.441
 2196SOL     OW 7486   4.337   3.902   0.146
 2196SOL    HW1 7487   4.260   3.838   0.150
 2196SOL    HW2 7488   4.382   3.904   0.235
 2197SOL     OW 7489   4.766   3.171   6.596
 2197SOL    HW1 7490   4.792   3.159   6.500
 2197SOL    HW2 7491   4.707   3.251   6.605
 2198SOL     OW 7492   0.455   4.391   6.920
 2198SOL    HW1 7493   0.356   4.408   6.920
 2198SOL    HW2 7494   0.486   4.372   6.826
 2199SOL     OW 7495   4.100   1.474   3.239
 2199SOL    HW1 7496   4.119   1.571   3.254
 2199SOL    HW2 7497   4.028   1.444   3.301
 2200SOL     OW 7498   3.845   0.067   4.438
 2200SOL    HW1 7499   3.851   0.072   4.538
 2200SOL    HW2 7500   3.803   0.151   4.403
 2201SOL     OW 7501   5.171   4.731   4.372
 2201SOL    HW1 7502   5.217   4.771   4.451
 2201SOL    HW2 7503   5.232   4.666   4.326
 2202SOL     OW 7504   4.547   6.042   4.026
 2202SOL    HW1 7505   4.494   6.005   3.950
 2202SOL    HW2 7506   4.611   5.973   4.059
 2203SOL     OW 7507   2.214   1.401   2.549
 2203SOL    HW1 7508   2.135   1.462   2.537
 2203SOL    HW2 7509   2.294   1.442   2.505
 2204SOL     OW 7510   3.659   2.439   1.143
 2204SOL    HW1 7511   3.652   2.340   1.131
 2204SOL    HW2 7512   3.734   2.459   1.207
 2205SOL     OW 7513   3.427   0.797   2.108
 2205SOL    HW1 7514   3.525   0.778   2.119
 2205SOL    HW2 7515   3.386   0.816   2.197
 2206SOL     OW 7516   1.418   4.207   0.250
 2206SOL    HW1 7517   1.378   4.291   0.286
 2206SOL    HW2 7518   1.396   4.199   0.153
 2207SOL     OW 7519   6.954   4.838   5.092
 2207SOL    HW1 7520   6.859   4.845   5.063
 2207SOL    HW2 7521   6.958   4.808   5.188
 2208SOL     OW 7522   6.671   5.289   2.134
 2208SOL    HW1 7523   6.694   5.380   2.100
 2208SOL    HW2 7524   6.751   5.230   2.125
 2209SOL     OW 7525   6.480   6.629   1.764
 2209SOL    HW1 7526   6.562   6.572   1.766
 2209SOL    HW2 7527   6.506   6.725   1.764
 2210SOL     OW 7528   2.407   4.835   3.975
 2210SOL    HW1 7529   2.396   4.929   4.008
 2210SOL    HW2 7530   2.412   4.834   3.875
 2211SOL     OW 7531   6.225   0.923   6.045
 2211SOL    HW1 7532   6.275   0.966   5.970
 2211SOL    HW2 7533   6.128   0.949   6.040
 2212SOL     OW 7534   2.654   6.879   6.041
 2212SOL    HW1 7535   2.627   6.856   5.948
 2212SOL    HW2 7536   2.664   6.978   6.050
 2213SOL     OW 7537   4.534   0.709   3.158
 2213SOL    HW1 7538   4.610   0.693   3.221
 2213SOL    HW2 7539   4.536   0.641   3.085
 2214SOL     OW 7540   3.735   0.340   4.488
 2214SOL    HW1 7541   3.812   0.354   4.551
 2214SOL    HW2 7542   3.654   0.313   4.540
 2215SOL     OW 7543   5.747   1.935   5.492
 2215SOL    HW1 7544   5.664   1.895   5.453
 2215SOL    HW2 7545   5.722   2.011   5.551
 2216SOL     OW 7546   2.901   1.664   2.228
 2216SOL    HW1 7547   2.818   1.614   2.207
 2216SOL    HW2 7548   2.980   1.604   2.216
 2217SOL     OW 7549   2.928   6.880   1.210
 2217SOL    HW1 7550   2.972   6.791   1.193
 2217SOL    HW2 7551   2.837   6.880   1.169
 2218SOL     OW 7552   6.850   0.957   2.421
 2218SOL    HW1 7553   6.894   1.021   2.359
 2218SOL    HW2 7554   6.917   0.917   2.483
 2219SOL     OW 7555   2.474   1.991   2.735
 2219SOL    HW1 7556   2.394   1.932   2.723
 2219SOL    HW2 7557   2.543   1.969   2.667
 2220SOL     OW 7558   1.605   6.720   3.023
 2220SOL    HW1 7559   1.598   6.819   3.035
 2220SOL    HW2 7560   1.702   6.695   3.017
 2221SOL     OW 7561   0.361   6.626   5.198
 2221SOL    HW1 7562   0.284   6.574   5.163
 2221SOL    HW2 7563   0.327   6.704   5.251
 2222SOL     OW 7564   6.001   5.053   4.293
 2222SOL    HW1 7565   6.010   5.123   4.223
 2222SOL    HW2 7566   6.088   5.044   4.342
 2223SOL     OW 7567   6.953   6.428   2.627
 2223SOL    HW1 7568   6.920   6.460   2.716
 2223SOL    HW2 7569   6.910   6.481   2.554
 2224SOL     OW 7570   1.097   5.695   0.992
 2224SOL    HW1 7571   1.136   5.748   1.068
 2224SOL    HW2 7572   1.090   5.754   0.911
 2225SOL     OW 7573   0.581   4.196   0.080
 2225SOL    HW1 7574   0.522   4.234   0.009
 2225SOL    HW2 7575   0.536   4.116   0.121
 2226SOL     OW 7576   3.724   3.736   2.932
 2226SOL    HW1 7577   3.629   3.769   2.934
 2226SOL    HW2 7578   3.786   3.813   2.921
 2227SOL     OW 7579   1.164   1.523   4.935
 2227SOL    HW1 7580   1.144   1.509   4.838
 2227SOL    HW2 7581   1.262   1.538   4.948
 2228SOL     OW 7582   2.131   4.392   4.565
 2228SOL    HW1 7583   2.053   4.332   4.548
 2228SOL    HW2 7584   2.215   4.350   4.530
 2229SOL     OW 7585   5.903   5.893   3.125
 2229SOL    HW1 7586   5.837   5.967   3.139
 2229SOL    HW2 7587   5.983   5.909   3.184
 2230SOL     OW 7588   2.041   5.567   2.885
 2230SOL    HW1 7589   2.038   5.527   2.976
 2230SOL    HW2 7590   2.048   5.494   2.817
 2231SOL     OW 7591   2.039   5.866   1.120
 2231SOL    HW1 7592   2.120   5.806   1.116
 2231SOL    HW2 7593   1.988   5.847   1.204
 2232SOL     OW 7594   5.844   1.867   3.810
 2232SOL    HW1 7595   5.815   1.869   3.906
 2232SOL    HW2 7596   5.810   1.784   3.766
 2233SOL     OW 7597   3.829   1.183   0.471
 2233SOL    HW1 7598   3.917   1.208   0.512
 2233SOL    HW2 7599   3.789   1.108   0.522
 2234SOL     OW 7600   4.715   2.221   1.087
 2234SOL    HW1 7601   4.708   2.155   1.163
 2234SOL    HW2 7602   4.680   2.179   1.003
 2235SOL     OW 7603   2.097   2.445   2.258
 2235SOL    HW1 7604   1.998   2.457   2.268
 2235SOL    HW2 7605   2.135   2.414   2.345
 2236SOL     OW 7606   0.579   3.944   5.411
 2236SOL    HW1 7607   0.664   3.906   5.446
 2236SOL    HW2 7608   0.544   4.012   5.476
 2237SOL     OW 7609   6.281   3.238   3.682
 2237SOL    HW1 7610   6.221   3.167   3.718
 2237SOL    HW2 7611   6.256   3.326   3.722
 2238SOL     OW 7612   5.396   5.866   6.521
 2238SOL    HW1 7613   5.306   5.874   6.564
 2238SOL    HW2 7614   5.458   5.934   6.560
 2239SOL     OW 7615   0.599   5.539   1.331
 2239SOL    HW1 7616   0.638   5.497   1.413
 2239SOL    HW2 7617   0.501   5.553   1.344
 2240SOL     OW 7618   6.359   3.785   1.433
 2240SOL    HW1 7619   6.358   3.884   1.448
 2240SOL    HW2 7620   6.316   3.739   1.511
 2241SOL     OW 7621   0.660   0.036   3.834
 2241SOL    HW1 7622   0.718   7.016   3.763
 2241SOL    HW2 7623   0.590   6.988   3.861
 2242SOL     OW 7624   2.369   1.700   3.028
 2242SOL    HW1 7625   2.345   1.646   2.947
 2242SOL    HW2 7626   2.423   1.779   3.001
 2243SOL     OW 7627   1.571   6.983   4.618
 2243SOL    HW1 7628   1.531   6.895   4.592
 2243SOL    HW2 7629   1.659   6.995   4.571
 2244SOL     OW 7630   3.675   0.588   5.407
 2244SOL    HW1 7631   3.610   0.513   5.421
 2244SOL    HW2 7632   3.648   0.666   5.463
 2245SOL     OW 7633   0.714   2.661   2.541
 2245SOL    HW1 7634   0.736   2.755   2.513
 2245SOL    HW2 7635   0.798   2.615   2.571
 2246SOL     OW 7636   0.983   4.267   5.255
 2246SOL    HW1 7637   0.951   4.350   5.210
 2246SOL    HW2 7638   1.051   4.222   5.197
 2247SOL     OW 7639   2.011   1.707   4.271
 2247SOL    HW1 7640   1.924   1.729   4.226
 2247SOL    HW2 7641   1.995   1.691   4.368
 2248SOL     OW 7642   5.400   3.901   5.927
 2248SOL    HW1 7643   5.353   3.966   5.986
 2248SOL    HW2 7644   5.422   3.818   5.978
 2249SOL     OW 7645   5.462   5.546   4.781
 2249SOL    HW1 7646   5.392   5.605   4.822
 2249SOL    HW2 7647   5.552   5.573   4.815
 2250SOL     OW 7648   4.409   4.512   1.773
 2250SOL    HW1 7649   4.420   4.426   1.822
 2250SOL    HW2 7650   4.352   4.497   1.692
 2251SOL     OW 7651   0.482   1.056   5.354
 2251SOL    HW1 7652   0.550   1.022   5.419
 2251SOL    HW2 7653   0.480   1.156   5.359
 2252SOL     OW 7654   3.501   1.005   6.497
 2252SOL    HW1 7655   3.489   1.000   6.397
 2252SOL    HW2 7656   3.432   0.949   6.541
 2253SOL     OW 7657   0.639   3.942   0.443
 2253SOL    HW1 7658   0.560   3.918   0.499
 2253SOL    HW2 7659   0.705   3.992   0.498
 2254SOL     OW 7660   1.263   4.249   6.392
 2254SOL    HW1 7661   1.301   4.189   6.462
 2254SOL    HW2 7662   1.325   4.251   6.313
 2255SOL     OW 7663   6.539   3.580   6.730
 2255SOL    HW1 7664   6.520   3.650   6.662
 2255SOL    HW2 7665   6.569   3.622   6.815
 2256SOL     OW 7666   3.031   5.363   2.362
 2256SOL    HW1 7667   3.030   5.457   2.397
 2256SOL    HW2 7668   3.073   5.362   2.271
 2257SOL     OW 7669   1.455   4.527   5.377
 2257SOL    HW1 7670   1.359   4.532   5.405
 2257SOL    HW2 7671   1.494   4.441   5.409
 2258SOL     OW 7672   1.901   6.403   5.985
 2258SOL    HW1 7673   1.979   6.340   5.990
 2258SOL    HW2 7674   1.892   6.437   5.891
 2259SOL     OW 7675   5.875   1.713   6.254
 2259SOL    HW1 7676   5.777   1.735   6.249
 2259SOL    HW2 7677   5.887   1.621   6.291
 2260SOL     OW 7678   4.017   3.254   0.809
 2260SOL    HW1 7679   3.995   3.205   0.724
 2260SOL    HW2 7680   4.002   3.194   0.887
 2261SOL     OW 7681   2.666   6.815   4.839
 2261SOL    HW1 7682   2.715   6.902   4.851
 2261SOL    HW2 7683   2.732   6.740   4.836
 2262SOL     OW 7684   2.681   1.850   3.321
 2262SOL    HW1 7685   2.715   1.929   3.372
 2262SOL    HW2 7686   2.739   1.835   3.241
 2263SOL     OW 7687   0.788   4.318   5.626
 2263SOL    HW1 7688   0.693   4.300   5.600
 2263SOL    HW2 7689   0.831   4.376   5.557
 2264SOL     OW 7690   3.523   3.554   3.816
 2264SOL    HW1 7691   3.599   3.498   3.784
 2264SOL    HW2 7692   3.520   3.640   3.765
 2265SOL     OW 7693   0.945   5.793   4.386
 2265SOL    HW1 7694   0.989   5.883   4.383
 2265SOL    HW2 7695   0.889   5.787   4.469
 2266SOL     OW 7696   6.794   0.662   5.340
 2266SOL    HW1 7697   6.848   0.711   5.271
 2266SOL    HW2 7698   6.742   0.728   5.394
 2267SOL     OW 7699   6.001   1.964   5.382
 2267SOL    HW1 7700   5.910   1.960   5.424
 2267SOL    HW2 7701   5.992   1.979   5.284
 2268SOL     OW 7702   0.488   6.296   0.429
 2268SOL    HW1 7703   0.441   6.262   0.511
 2268SOL    HW2 7704   0.581   6.321   0.453
 2269SOL     OW 7705   6.699   6.368   2.902
 2269SOL    HW1 7706   6.635   6.331   2.835
 2269SOL    HW2 7707   6.673   6.461   2.926
 2270SOL     OW 7708   3.221   3.043   3.455
 2270SOL    HW1 7709   3.212   2.992   3.369
 2270SOL    HW2 7710   3.317   3.049   3.480
 2271SOL     OW 7711   2.052   4.485   3.004
 2271SOL    HW1 7712   2.041   4.514   3.099
 2271SOL    HW2 7713   2.022   4.390   2.995
 2272SOL     OW 7714   5.050   0.773   5.640
 2272SOL    HW1 7715   5.147   0.770   5.664
 2272SOL    HW2 7716   4.995   0.788   5.723
 2273SOL     OW 7717   0.219   1.372   2.270
 2273SOL    HW1 7718   0.293   1.364   2.337
 2273SOL    HW2 7719   0.198   1.282   2.232
 2274SOL     OW 7720   0.247   4.611   3.335
 2274SOL    HW1 7721   0.252   4.705   3.368
 2274SOL    HW2 7722   0.160   4.597   3.286
 2275SOL     OW 7723   4.570   6.665   3.204
 2275SOL    HW1 7724   4.662   6.627   3.216
 2275SOL    HW2 7725   4.503   6.599   3.237
 2276SOL     OW 7726   3.395   6.225   2.595
 2276SOL    HW1 7727   3.300   6.219   2.625
 2276SOL    HW2 7728   3.427   6.320   2.602
 2277SOL     OW 7729   3.208   3.374   2.447
 2277SOL    HW1 7730   3.247   3.447   2.503
 2277SOL    HW2 7731   3.184   3.409   2.357
 2278SOL     OW 7732   4.032   4.946   1.259
 2278SOL    HW1 7733   4.122   4.905   1.241
 2278SOL    HW2 7734   4.041   5.045   1.263
 2279SOL     OW 7735   5.940   3.679   5.296
 2279SOL    HW1 7736   5.948   3.753   5.363
 2279SOL    HW2 7737   5.923   3.718   5.206
 2280SOL     OW 7738   5.873   0.428   5.705
 2280SOL    HW1 7739   5.902   0.509   5.755
 2280SOL    HW2 7740   5.790   0.449   5.653
 2281SOL     OW 7741   2.442   0.583   0.876
 2281SOL    HW1 7742   2.518   0.523   0.900
 2281SOL    HW2 7743   2.446   0.604   0.778
 2282SOL     OW 7744   3.753   6.920   2.561
 2282SOL    HW1 7745   3.672   6.943   2.506
 2282SOL    HW2 7746   3.831   6.906   2.500
 2283SOL     OW 7747   0.532   3.213   1.277
 2283SOL    HW1 7748   0.528   3.242   1.373
 2283SOL    HW2 7749   0.597   3.271   1.228
 2284SOL     OW 7750   2.287   3.239   0.959
 2284SOL    HW1 7751   2.317   3.210   0.868
 2284SOL    HW2 7752   2.273   3.158   1.016
 2285SOL     OW 7753   1.953   2.346   6.914
 2285SOL    HW1 7754   1.948   2.247   6.925
 2285SOL    HW2 7755   2.031   2.368   6.855
 2286SOL     OW 7756   6.289   6.316   3.746
 2286SOL    HW1 7757   6.225   6.268   3.805
 2286SOL    HW2 7758   6.348   6.250   3.699
 2287SOL     OW 7759   2.774   1.585   0.590
 2287SOL    HW1 7760   2.683   1.586   0.632
 2287SOL    HW2 7761   2.788   1.498   0.543
 2288SOL     OW 7762   2.469   5.886   4.568
 2288SOL    HW1 7763   2.478   5.786   4.574
 2288SOL    HW2 7764   2.547   5.929   4.612
 2289SOL     OW 7765   3.634   6.741   6.406
 2289SOL    HW1 7766   3.723   6.704   6.379
 2289SOL    HW2 7767   3.618   6.828   6.359
 2290SOL     OW 7768   2.700   3.456   5.282
 2290SOL    HW1 7769   2.734   3.464   5.376
 2290SOL    HW2 7770   2.712   3.543   5.235
 2291SOL     OW 7771   3.235   1.920   0.621
 2291SOL    HW1 7772   3.287   1.838   0.647
 2291SOL    HW2 7773   3.140   1.895   0.602
 2292SOL     OW 7774   5.434   2.412   2.894
 2292SOL    HW1 7775   5.350   2.357   2.896
 2292SOL    HW2 7776   5.429   2.477   2.819
 2293SOL     OW 7777   0.450   0.906   0.336
 2293SOL    HW1 7778   0.546   0.930   0.348
 2293SOL    HW2 7779   0.433   0.814   0.373
 2294SOL     OW 7780   6.432   2.824   5.403
 2294SOL    HW1 7781   6.433   2.754   5.332
 2294SOL    HW2 7782   6.498   2.800   5.475
 2295SOL     OW 7783   5.853   5.694   0.460
 2295SOL    HW1 7784   5.891   5.631   0.528
 2295SOL    HW2 7785   5.904   5.779   0.461
 2296SOL     OW 7786   3.912   5.519   4.032
 2296SOL    HW1 7787   3.907   5.608   4.077
 2296SOL    HW2 7788   3.930   5.532   3.934
 2297SOL     OW 7789   6.398   2.781   6.794
 2297SOL    HW1 7790   6.423   2.791   6.890
 2297SOL    HW2 7791   6.480   2.789   6.737
 2298SOL     OW 7792   2.599   3.989   5.351
 2298SOL    HW1 7793   2.536   3.978   5.274
 2298SOL    HW2 7794   2.585   4.079   5.393
 2299SOL     OW 7795   6.022   3.880   4.687
 2299SOL    HW1 7796   6.004   3.971   4.724
 2299SOL    HW2 7797   5.942   3.848   4.635
 2300SOL     OW 7798   4.280   0.250   3.194
 2300SOL    HW1 7799   4.321   0.310   3.125
 2300SOL    HW2 7800   4.191   0.218   3.160
 2301SOL     OW 7801   4.100   3.021   5.479
 2301SOL    HW1 7802   4.188   3.049   5.441
 2301SOL    HW2 7803   4.029   3.030   5.409
 2302SOL     OW 7804   0.085   3.285   5.289
 2302SOL    HW1 7805   0.051   3.222   5.219
 2302SOL    HW2 7806   0.145   3.235   5.352
 2303SOL     OW 7807   2.974   1.659   6.320
 2303SOL    HW1 7808   3.040   1.723   6.360
 2303SOL    HW2 7809   2.886   1.670   6.365
 2304SOL     OW 7810   4.527   6.609   2.753
 2304SOL    HW1 7811   4.597   6.633   2.686
 2304SOL    HW2 7812   4.539   6.664   2.836
 2305SOL     OW 7813   2.691   6.257   4.918
 2305SOL    HW1 7814   2.747   6.327   4.875
 2305SOL    HW2 7815   2.750   6.184   4.954
 2306SOL     OW 7816   1.178   4.511   5.198
 2306SOL    HW1 7817   1.195   4.453   5.278
 2306SOL    HW2 7818   1.081   4.536   5.195
 2307SOL     OW 7819   5.920   3.830   5.052
 2307SOL    HW1 7820   5.843   3.876   5.096
 2307SOL    HW2 7821   5.886   3.761   4.989
 2308SOL     OW 7822   1.062   6.251   2.191
 2308SOL    HW1 7823   0.995   6.320   2.163
 2308SOL    HW2 7824   1.109   6.217   2.111
 2309SOL     OW 7825   1.663   1.070   4.599
 2309SOL    HW1 7826   1.729   1.061   4.525
 2309SOL    HW2 7827   1.711   1.071   4.687
 2310SOL     OW 7828   5.364   6.192   0.293
 2310SOL    HW1 7829   5.451   6.164   0.332
 2310SOL    HW2 7830   5.375   6.206   0.194
 2311SOL     OW 7831   2.699   5.782   0.702
 2311SOL    HW1 7832   2.608   5.739   0.694
 2311SOL    HW2 7833   2.689   5.872   0.743
 2312SOL     OW 7834   2.557   4.515   2.541
 2312SOL    HW1 7835   2.492   4.449   2.504
 2312SOL    HW2 7836   2.599   4.566   2.466
 2313SOL     OW 7837   4.806   4.868   1.017
 2313SOL    HW1 7838   4.808   4.770   1.037
 2313SOL    HW2 7839   4.802   4.882   0.918
 2314SOL     OW 7840   2.524   4.549   2.861
 2314SOL    HW1 7841   2.448   4.484   2.865
 2314SOL    HW2 7842   2.547   4.568   2.766
 2315SOL     OW 7843   4.221   1.768   6.583
 2315SOL    HW1 7844   4.178   1.819   6.508
 2315SOL    HW2 7845   4.168   1.784   6.667
 2316SOL     OW 7846   5.188   3.763   1.282
 2316SOL    HW1 7847   5.123   3.704   1.235
 2316SOL    HW2 7848   5.203   3.729   1.375
 2317SOL     OW 7849   0.283   6.590   3.142
 2317SOL    HW1 7850   0.245   6.574   3.233
 2317SOL    HW2 7851   0.242   6.526   3.077
 2318SOL     OW 7852   6.924   1.575   3.419
 2318SOL    HW1 7853   6.979   1.579   3.503
 2318SOL    HW2 7854   6.890   1.482   3.407
 2319SOL     OW 7855   1.345   5.241   2.656
 2319SOL    HW1 7856   1.250   5.266   2.633
 2319SOL    HW2 7857   1.394   5.322   2.685
 2320SOL     OW 7858   6.613   4.812   3.688
 2320SOL    HW1 7859   6.551   4.855   3.622
 2320SOL    HW2 7860   6.669   4.743   3.641
 2321SOL     OW 7861   3.234   4.919   3.836
 2321SOL    HW1 7862   3.241   4.909   3.935
 2321SOL    HW2 7863   3.138   4.918   3.808
 2322SOL     OW 7864   2.512   1.388   4.599
 2322SOL    HW1 7865   2.547   1.370   4.691
 2322SOL    HW2 7866   2.432   1.446   4.605
 2323SOL     OW 7867   5.179   3.379   1.737
 2323SOL    HW1 7868   5.165   3.335   1.826
 2323SOL    HW2 7869   5.177   3.311   1.665
 2324SOL     OW 7870   6.918   5.275   4.256
 2324SOL    HW1 7871   6.977   5.230   4.324
 2324SOL    HW2 7872   6.863   5.345   4.301
 2325SOL     OW 7873   6.151   1.836   0.795
 2325SOL    HW1 7874   6.149   1.740   0.771
 2325SOL    HW2 7875   6.072   1.883   0.756
 2326SOL     OW 7876   0.659   5.263   0.638
 2326SOL    HW1 7877   0.697   5.327   0.705
 2326SOL    HW2 7878   0.661   5.170   0.675
 2327SOL     OW 7879   4.758   1.390   3.271
 2327SOL    HW1 7880   4.772   1.480   3.312
 2327SOL    HW2 7881   4.840   1.363   3.221
 2328SOL     OW 7882   6.278   4.819   4.034
 2328SOL    HW1 7883   6.367   4.813   3.990
 2328SOL    HW2 7884   6.211   4.854   3.969
 2329SOL     OW 7885   1.335   6.343   3.247
 2329SOL    HW1 7886   1.314   6.361   3.151
 2329SOL    HW2 7887   1.428   6.307   3.255
 2330SOL     OW 7888   1.093   4.545   0.473
 2330SOL    HW1 7889   1.151   4.540   0.554
 2330SOL    HW2 7890   1.086   4.454   0.432
 2331SOL     OW 7891   1.845   5.070   4.719
 2331SOL    HW1 7892   1.940   5.096   4.737
 2331SOL    HW2 7893   1.783   5.137   4.760
 2332SOL     OW 7894   6.591   3.246   6.197
 2332SOL    HW1 7895   6.681   3.257   6.240
 2332SOL    HW2 7896   6.563   3.333   6.155
 2333SOL     OW 7897   2.482   4.649   4.159
 2333SOL    HW1 7898   2.440   4.561   4.140
 2333SOL    HW2 7899   2.480   4.706   4.077
 2334SOL     OW 7900   2.801   6.953   5.461
 2334SOL    HW1 7901   2.874   6.925   5.524
 2334SOL    HW2 7902   2.745   0.004   5.504
 2335SOL     OW 7903   4.522   4.705   4.413
 2335SOL    HW1 7904   4.584   4.690   4.490
 2335SOL    HW2 7905   4.465   4.786   4.431
 2336SOL     OW 7906   4.711   1.353   5.768
 2336SOL    HW1 7907   4.734   1.358   5.670
 2336SOL    HW2 7908   4.616   1.381   5.781
 2337SOL     OW 7909   5.549   0.480   5.088
 2337SOL    HW1 7910   5.645   0.480   5.114
 2337SOL    HW2 7911   5.506   0.395   5.118
 2338SOL     OW 7912   1.407   6.950   6.878
 2338SOL    HW1 7913   1.346   6.956   6.799
 2338SOL    HW2 7914   1.369   7.002   6.954
 2339SOL     OW 7915   3.647   4.813   6.616
 2339SOL    HW1 7916   3.552   4.792   6.592
 2339SOL    HW2 7917   3.709   4.767   6.553
 2340SOL     OW 7918   4.327   5.085   3.964
 2340SOL    HW1 7919   4.376   5.040   3.889
 2340SOL    HW2 7920   4.249   5.029   3.992
 2341SOL     OW 7921   0.202   4.335   6.244
 2341SOL    HW1 7922   0.159   4.246   6.255
 2341SOL    HW2 7923   0.131   4.405   6.232
 2342SOL     OW 7924   6.094   1.260   5.810
 2342SOL    HW1 7925   6.125   1.354   5.822
 2342SOL    HW2 7926   6.030   1.236   5.883
 2343SOL     OW 7927   1.564   5.677   1.451
 2343SOL    HW1 7928   1.493   5.621   1.409
 2343SOL    HW2 7929   1.650   5.627   1.454
 2344SOL     OW 7930   2.226   0.874   2.641
 2344SOL    HW1 7931   2.264   0.936   2.573
 2344SOL    HW2 7932   2.152   0.820   2.600
 2345SOL     OW 7933   1.145   2.321   2.373
 2345SOL    HW1 7934   1.166   2.235   2.421
 2345SOL    HW2 7935   1.227   2.350   2.322
 2346SOL     OW 7936   4.992   3.270   4.707
 2346SOL    HW1 7937   5.008   3.341   4.638
 2346SOL    HW2 7938   4.940   3.310   4.783
 2347SOL     OW 7939   1.281   4.133   0.735
 2347SOL    HW1 7940   1.375   4.162   0.754
 2347SOL    HW2 7941   1.279   4.081   0.649
 2348SOL     OW 7942   2.626   0.274   1.201
 2348SOL    HW1 7943   2.701   0.247   1.260
 2348SOL    HW2 7944   2.550   0.309   1.257
 2349SOL     OW 7945   5.192   3.133   6.799
 2349SOL    HW1 7946   5.227   3.101   6.888
 2349SOL    HW2 7947   5.094   3.154   6.808
 2350SOL     OW 7948   1.828   6.133   5.625
 2350SOL    HW1 7949   1.866   6.060   5.681
 2350SOL    HW2 7950   1.796   6.096   5.538
 2351SOL     OW 7951   1.778   5.088   3.253
 2351SOL    HW1 7952   1.761   5.084   3.351
 2351SOL    HW2 7953   1.701   5.133   3.208
 2352SOL     OW 7954   6.020   5.805   6.543
 2352SOL    HW1 7955   6.017   5.773   6.448
 2352SOL    HW2 7956   6.089   5.876   6.552
 2353SOL     OW 7957   3.270   2.349   5.798
 2353SOL    HW1 7958   3.214   2.270   5.823
 2353SOL    HW2 7959   3.210   2.422   5.764
 2354SOL     OW 7960   3.467   1.466   2.475
 2354SOL    HW1 7961   3.381   1.495   2.517
 2354SOL    HW2 7962   3.447   1.416   2.391
 2355SOL     OW 7963   7.013   1.528   2.333
 2355SOL    HW1 7964   0.063   1.457   2.324
 2355SOL    HW2 7965   6.967   1.542   2.245
 2356SOL     OW 7966   3.902   5.224   4.495
 2356SOL    HW1 7967   3.913   5.131   4.529
 2356SOL    HW2 7968   3.929   5.228   4.399
 2357SOL     OW 7969   1.422   5.342   1.508
 2357SOL    HW1 7970   1.458   5.400   1.436
 2357SOL    HW2 7971   1.465   5.367   1.595
 2358SOL     OW 7972   2.078   0.352   5.271
 2358SOL    HW1 7973   2.134   0.270   5.281
 2358SOL    HW2 7974   2.130   0.432   5.298
 2359SOL     OW 7975   2.648   2.389   5.864
 2359SOL    HW1 7976   2.654   2.486   5.839
 2359SOL    HW2 7977   2.634   2.334   5.782
 2360SOL     OW 7978   3.307   4.966   0.980
 2360SOL    HW1 7979   3.210   4.974   1.003
 2360SOL    HW2 7980   3.320   4.981   0.882
 2361SOL     OW 7981   3.607   4.795   1.290
 2361SOL    HW1 7982   3.691   4.816   1.241
 2361SOL    HW2 7983   3.540   4.867   1.272
 2362SOL     OW 7984   2.876   4.809   4.530
 2362SOL    HW1 7985   2.850   4.793   4.625
 2362SOL    HW2 7986   2.816   4.757   4.469
 2363SOL     OW 7987   2.223   4.072   1.193
 2363SOL    HW1 7988   2.312   4.027   1.191
 2363SOL    HW2 7989   2.150   4.005   1.178
 2364SOL     OW 7990   4.945   0.921   2.334
 2364SOL    HW1 7991   4.904   0.936   2.424
 2364SOL    HW2 7992   4.944   1.007   2.283
 2365SOL     OW 7993   5.496   4.568   3.307
 2365SOL    HW1 7994   5.494   4.515   3.392
 2365SOL    HW2 7995   5.421   4.539   3.249
 2366SOL     OW 7996   3.314   4.852   5.047
 2366SOL    HW1 7997   3.366   4.805   5.119
 2366SOL    HW2 7998   3.226   4.806   5.034
 2367SOL     OW 7999   6.360   4.910   5.438
 2367SOL    HW1 8000   6.398   4.878   5.525
 2367SOL    HW2 8001   6.392   4.852   5.363
 2368SOL     OW 8002   5.104   0.109   5.115
 2368SOL    HW1 8003   5.120   0.063   5.027
 2368SOL    HW2 8004   5.054   0.194   5.099
 2369SOL     OW 8005   4.176   1.685   4.280
 2369SOL    HW1 8006   4.166   1.769   4.228
 2369SOL    HW2 8007   4.266   1.646   4.264
 2370SOL     OW 8008   3.963   2.331   1.464
 2370SOL    HW1 8009   4.031   2.390   1.508
 2370SOL    HW2 8010   3.885   2.317   1.526
 2371SOL     OW 8011   2.416   6.779   2.414
 2371SOL    HW1 8012   2.320   6.759   2.393
 2371SOL    HW2 8013   2.444   6.726   2.494
 2372SOL     OW 8014   6.497   6.570   5.482
 2372SOL    HW1 8015   6.450   6.521   5.555
 2372SOL    HW2 8016   6.429   6.604   5.416
 2373SOL     OW 8017   6.360   4.077   6.054
 2373SOL    HW1 8018   6.438   4.139   6.057
 2373SOL    HW2 8019   6.392   3.983   6.048
 2374SOL     OW 8020   6.889   6.043   2.386
 2374SOL    HW1 8021   6.929   6.025   2.296
 2374SOL    HW2 8022   6.957   6.085   2.445
 2375SOL     OW 8023   1.743   0.306   4.701
 2375SOL    HW1 8024   1.655   0.346   4.676
 2375SOL    HW2 8025   1.751   0.303   4.800
 2376SOL     OW 8026   5.533   3.275   4.014
 2376SOL    HW1 8027   5.513   3.266   3.916
 2376SOL    HW2 8028   5.605   3.344   4.027
 2377SOL     OW 8029   3.638   4.290   5.895
 2377SOL    HW1 8030   3.678   4.376   5.862
 2377SOL    HW2 8031   3.559   4.310   5.953
 2378SOL     OW 8032   1.239   1.214   0.850
 2378SOL    HW1 8033   1.182   1.154   0.907
 2378SOL    HW2 8034   1.211   1.309   0.862
 2379SOL     OW 8035   0.777   4.749   2.390
 2379SOL    HW1 8036   0.821   4.719   2.305
 2379SOL    HW2 8037   0.805   4.690   2.465
 2380SOL     OW 8038   4.390   5.311   6.555
 2380SOL    HW1 8039   4.428   5.289   6.645
 2380SOL    HW2 8040   4.343   5.399   6.559
 2381SOL     OW 8041   2.001   3.859   3.419
 2381SOL    HW1 8042   2.042   3.919   3.488
 2381SOL    HW2 8043   1.924   3.906   3.375
 2382SOL     OW 8044   6.331   6.129   2.597
 2382SOL    HW1 8045   6.273   6.063   2.550
 2382SOL    HW2 8046   6.405   6.159   2.536
 2383SOL     OW 8047   5.231   4.412   6.214
 2383SOL    HW1 8048   5.167   4.486   6.235
 2383SOL    HW2 8049   5.183   4.325   6.208
 2384SOL     OW 8050   0.748   2.203   3.248
 2384SOL    HW1 8051   0.714   2.219   3.156
 2384SOL    HW2 8052   0.848   2.192   3.246
 2385SOL     OW 8053   0.542   1.136   0.995
 2385SOL    HW1 8054   0.533   1.183   0.908
 2385SOL    HW2 8055   0.462   1.078   1.011
 2386SOL     OW 8056   6.811   5.132   5.649
 2386SOL    HW1 8057   6.773   5.114   5.740
 2386SOL    HW2 8058   6.745   5.187   5.596
 2387SOL     OW 8059   0.292   0.492   3.408
 2387SOL    HW1 8060   0.292   0.427   3.333
 2387SOL    HW2 8061   0.240   0.453   3.485
 2388SOL     OW 8062   1.505   3.720   4.478
 2388SOL    HW1 8063   1.592   3.716   4.429
 2388SOL    HW2 8064   1.508   3.793   4.546
 2389SOL     OW 8065   3.473   6.947   3.009
 2389SOL    HW1 8066   3.566   6.915   3.027
 2389SOL    HW2 8067   3.413   6.922   3.085
 2390SOL     OW 8068   5.120   2.961   5.724
 2390SOL    HW1 8069   5.167   2.909   5.795
 2390SOL    HW2 8070   5.088   2.899   5.652
 2391SOL     OW 8071   2.747   3.894   6.292
 2391SOL    HW1 8072   2.730   3.985   6.330
 2391SOL    HW2 8073   2.844   3.884   6.270
 2392SOL     OW 8074   4.165   5.098   5.839
 2392SOL    HW1 8075   4.171   5.023   5.772
 2392SOL    HW2 8076   4.217   5.073   5.921
 2393SOL     OW 8077   4.330   4.164   0.381
 2393SOL    HW1 8078   4.422   4.203   0.388
 2393SOL    HW2 8079   4.322   4.085   0.442
 2394SOL     OW 8080   0.008   2.731   3.247
 2394SOL    HW1 8081   0.087   2.695   3.297
 2394SOL    HW2 8082   6.974   2.654   3.211
 2395SOL     OW 8083   1.459   2.417   3.774
 2395SOL    HW1 8084   1.411   2.428   3.861
 2395SOL    HW2 8085   1.408   2.464   3.702
 2396SOL     OW 8086   0.410   0.447   6.239
 2396SOL    HW1 8087   0.360   0.393   6.306
 2396SOL    HW2 8088   0.380   0.542   6.244
 2397SOL     OW 8089   2.393   4.885   6.060
 2397SOL    HW1 8090   2.362   4.981   6.060
 2397SOL    HW2 8091   2.396   4.852   5.966
 2398SOL     OW 8092   3.970   6.205   4.761
 2398SOL    HW1 8093   3.951   6.280   4.697
 2398SOL    HW2 8094   3.889   6.190   4.819
 2399SOL     OW 8095   3.066   1.440   2.259
 2399SOL    HW1 8096   2.982   1.385   2.253
 2399SOL    HW2 8097   3.120   1.428   2.176
 2400SOL     OW 8098   1.108   2.404   0.243
 2400SOL    HW1 8099   1.081   2.330   0.306
 2400SOL    HW2 8100   1.040   2.477   0.248
 2401SOL     OW 8101   1.603   6.343   0.843
 2401SOL    HW1 8102   1.698   6.359   0.816
 2401SOL    HW2 8103   1.562   6.429   0.873
 2402SOL     OW 8104   0.926   3.545   2.332
 2402SOL    HW1 8105   0.932   3.626   2.390
 2402SOL    HW2 8106   0.836   3.542   2.288
 2403SOL     OW 8107   3.100   4.397   5.284
 2403SOL    HW1 8108   3.048   4.462   5.228
 2403SOL    HW2 8109   3.050   4.311   5.290
 2404SOL     OW 8110   6.275   2.127   2.004
 2404SOL    HW1 8111   6.318   2.053   1.954
 2404SOL    HW2 8112   6.176   2.116   2.002
 2405SOL     OW 8113   1.869   2.927   0.491
 2405SOL    HW1 8114   1.824   2.839   0.474
 2405SOL    HW2 8115   1.802   2.992   0.526
 2406SOL     OW 8116   4.466   5.622   4.722
 2406SOL    HW1 8117   4.439   5.585   4.811
 2406SOL    HW2 8118   4.540   5.689   4.735
 2407SOL     OW 8119   2.190   1.855   3.552
 2407SOL    HW1 8120   2.120   1.844   3.623
 2407SOL    HW2 8121   2.146   1.881   3.466
 2408SOL     OW 8122   4.604   0.205   5.433
 2408SOL    HW1 8123   4.646   0.189   5.344
 2408SOL    HW2 8124   4.578   0.301   5.440
 2409SOL     OW 8125   0.917   2.921   6.758
 2409SOL    HW1 8126   0.932   2.823   6.773
 2409SOL    HW2 8127   0.987   2.973   6.805
 2410SOL     OW 8128   0.017   3.665   4.410
 2410SOL    HW1 8129   0.084   3.594   4.386
 2410SOL    HW2 8130   0.015   3.734   4.338
 2411SOL     OW 8131   3.333   1.297   0.144
 2411SOL    HW1 8132   3.336   1.318   0.046
 2411SOL    HW2 8133   3.337   1.198   0.157
 2412SOL     OW 8134   3.050   2.467   6.541
 2412SOL    HW1 8135   3.141   2.509   6.540
 2412SOL    HW2 8136   2.995   2.508   6.614
 2413SOL     OW 8137   6.694   4.030   6.665
 2413SOL    HW1 8138   6.728   3.936   6.666
 2413SOL    HW2 8139   6.764   4.091   6.701
 2414SOL     OW 8140   6.591   1.532   4.739
 2414SOL    HW1 8141   6.587   1.597   4.814
 2414SOL    HW2 8142   6.619   1.579   4.655
 2415SOL     OW 8143   2.754   4.078   5.835
 2415SOL    HW1 8144   2.730   4.168   5.871
 2415SOL    HW2 8145   2.730   4.008   5.903
 2416SOL     OW 8146   6.772   3.633   4.104
 2416SOL    HW1 8147   6.724   3.667   4.185
 2416SOL    HW2 8148   6.867   3.665   4.106
 2417SOL     OW 8149   3.682   2.613   1.755
 2417SOL    HW1 8150   3.685   2.699   1.806
 2417SOL    HW2 8151   3.684   2.536   1.819
 2418SOL     OW 8152   6.106   3.623   6.492
 2418SOL    HW1 8153   6.085   3.637   6.589
 2418SOL    HW2 8154   6.025   3.587   6.445
 2419SOL     OW 8155   3.433   0.982   2.748
 2419SOL    HW1 8156   3.342   0.975   2.707
 2419SOL    HW2 8157   3.482   1.058   2.706
 2420SOL     OW 8158   1.006   3.466   1.694
 2420SOL    HW1 8159   1.057   3.394   1.741
 2420SOL    HW2 8160   1.022   3.460   1.596
 2421SOL     OW 8161   2.594   0.232   2.680
 2421SOL    HW1 8162   2.560   0.279   2.761
 2421SOL    HW2 8163   2.692   0.215   2.689
 2422SOL     OW 8164   3.886   6.746   0.283
 2422SOL    HW1 8165   3.882   6.832   0.231
 2422SOL    HW2 8166   3.793   6.714   0.302
 2423SOL     OW 8167   3.786   4.916   4.839
 2423SOL    HW1 8168   3.746   4.843   4.894
 2423SOL    HW2 8169   3.717   4.954   4.777
 2424SOL     OW 8170   5.443   0.152   6.348
 2424SOL    HW1 8171   5.349   0.170   6.380
 2424SOL    HW2 8172   5.458   0.053   6.344
 2425SOL     OW 8173   4.082   5.644   5.139
 2425SOL    HW1 8174   4.026   5.683   5.212
 2425SOL    HW2 8175   4.131   5.564   5.173
 2426SOL     OW 8176   2.890   2.465   5.270
 2426SOL    HW1 8177   2.938   2.540   5.317
 2426SOL    HW2 8178   2.957   2.402   5.231
 2427SOL     OW 8179   4.207   2.061   6.904
 2427SOL    HW1 8180   4.227   1.993   6.974
 2427SOL    HW2 8181   4.117   2.101   6.921
 2428SOL     OW 8182   1.801   1.953   2.441
 2428SOL    HW1 8183   1.882   1.899   2.415
 2428SOL    HW2 8184   1.798   1.962   2.541
 2429SOL     OW 8185   5.074   6.068   1.251
 2429SOL    HW1 8186   5.009   6.116   1.310
 2429SOL    HW2 8187   5.106   6.130   1.180
 2430SOL     OW 8188   6.883   0.215   6.920
 2430SOL    HW1 8189   6.796   0.213   6.870
 2430SOL    HW2 8190   6.872   0.270   7.003
 2431SOL     OW 8191   1.747   2.876   1.473
 2431SOL    HW1 8192   1.767   2.863   1.376
 2431SOL    HW2 8193   1.671   2.817   1.499
 2432SOL     OW 8194   3.205   6.069   2.112
 2432SOL    HW1 8195   3.108   6.096   2.110
 2432SOL    HW2 8196   3.217   5.983   2.063
 2433SOL     OW 8197   0.041   4.621   4.233
 2433SOL    HW1 8198   0.053   4.720   4.241
 2433SOL    HW2 8199   0.091   4.575   4.307
 2434SOL     OW 8200   4.013   1.913   2.709
 2434SOL    HW1 8201   4.105   1.899   2.671
 2434SOL    HW2 8202   3.945   1.906   2.636
 2435SOL     OW 8203   5.773   6.986   6.701
 2435SOL    HW1 8204   5.680   7.016   6.681
 2435SOL    HW2 8205   5.815   0.030   6.766
 2436SOL     OW 8206   6.864   2.477   0.786
 2436SOL    HW1 8207   6.922   2.429   0.851
 2436SOL    HW2 8208   6.920   2.511   0.710
 2437SOL     OW 8209   1.169   4.297   1.511
 2437SOL    HW1 8210   1.141   4.392   1.522
 2437SOL    HW2 8211   1.256   4.293   1.463
 2438SOL     OW 8212   3.701   1.852   4.393
 2438SOL    HW1 8213   3.670   1.803   4.312
 2438SOL    HW2 8214   3.707   1.788   4.470
 2439SOL     OW 8215   0.045   5.872   0.198
 2439SOL    HW1 8216   0.001   5.949   0.153
 2439SOL    HW2 8217   0.081   5.809   0.128
 2440SOL     OW 8218   6.251   2.460   5.409
 2440SOL    HW1 8219   6.210   2.548   5.430
 2440SOL    HW2 8220   6.182   2.399   5.370
 2441SOL     OW 8221   6.283   0.616   0.149
 2441SOL    HW1 8222   6.282   0.715   0.136
 2441SOL    HW2 8223   6.206   0.576   0.100
 2442SOL     OW 8224   5.324   3.024   2.808
 2442SOL    HW1 8225   5.389   3.100   2.816
 2442SOL    HW2 8226   5.278   3.029   2.720
 2443SOL     OW 8227   0.076   2.714   1.548
 2443SOL    HW1 8228   0.022   2.633   1.569
 2443SOL    HW2 8229   0.165   2.686   1.512
 2444SOL     OW 8230   3.528   4.927   2.778
 2444SOL    HW1 8231   3.474   4.916   2.862
 2444SOL    HW2 8232   3.473   4.898   2.700
 2445SOL     OW 8233   0.674   1.915   0.791
 2445SOL    HW1 8234   0.630   1.926   0.702
 2445SOL    HW2 8235   0.712   1.823   0.799
 2446SOL     OW 8236   6.588   5.535   1.093
 2446SOL    HW1 8237   6.651   5.561   1.020
 2446SOL    HW2 8238   6.581   5.435   1.097
 2447SOL     OW 8239   1.640   6.388   0.331
 2447SOL    HW1 8240   1.625   6.472   0.280
 2447SOL    HW2 8241   1.690   6.323   0.274
 2448SOL     OW 8242   5.774   0.946   4.161
 2448SOL    HW1 8243   5.718   0.891   4.100
 2448SOL    HW2 8244   5.758   0.917   4.256
 2449SOL     OW 8245   2.291   4.265   1.396
 2449SOL    HW1 8246   2.381   4.279   1.354
 2449SOL    HW2 8247   2.231   4.218   1.331
 2450SOL     OW 8248   0.042   6.654   5.199
 2450SOL    HW1 8249   0.104   6.727   5.228
 2450SOL    HW2 8250   0.011   6.672   5.106
 2451SOL     OW 8251   1.405   7.015   0.155
 2451SOL    HW1 8252   1.481   6.954   0.134
 2451SOL    HW2 8253   1.413   0.026   0.250
 2452SOL     OW 8254   2.388   2.048   3.452
 2452SOL    HW1 8255   2.355   1.968   3.502
 2452SOL    HW2 8256   2.337   2.129   3.481
 2453SOL     OW 8257   1.584   1.871   6.521
 2453SOL    HW1 8258   1.668   1.924   6.530
 2453SOL    HW2 8259   1.554   1.872   6.426
 2454SOL     OW 8260   3.166   6.783   0.025
 2454SOL    HW1 8261   3.081   6.781   6.992
 2454SOL    HW2 8262   3.242   6.760   6.984
 2455SOL     OW 8263   4.564   2.456   0.041
 2455SOL    HW1 8264   4.628   2.472   0.115
 2455SOL    HW2 8265   4.473   2.438   0.079
 2456SOL     OW 8266   0.399   3.391   5.987
 2456SOL    HW1 8267   0.395   3.383   6.087
 2456SOL    HW2 8268   0.348   3.315   5.945
 2457SOL     OW 8269   5.092   1.192   6.160
 2457SOL    HW1 8270   5.106   1.108   6.108
 2457SOL    HW2 8271   5.001   1.193   6.199
 2458SOL     OW 8272   0.798   0.505   2.315
 2458SOL    HW1 8273   0.824   0.569   2.243
 2458SOL    HW2 8274   0.702   0.478   2.303
 2459SOL     OW 8275   1.727   6.493   1.516
 2459SOL    HW1 8276   1.775   6.481   1.429
 2459SOL    HW2 8277   1.684   6.406   1.542
 2460SOL     OW 8278   0.067   0.162   4.022
 2460SOL    HW1 8279   0.068   0.261   4.012
 2460SOL    HW2 8280   0.097   0.137   4.114
 2461SOL     OW 8281   2.816   1.262   3.363
 2461SOL    HW1 8282   2.748   1.221   3.302
 2461SOL    HW2 8283   2.769   1.310   3.437
 2462SOL     OW 8284   7.005   6.384   0.878
 2462SOL    HW1 8285   0.006   6.286   0.880
 2462SOL    HW2 8286   0.027   6.428   0.957
 2463SOL     OW 8287   0.242   6.854   1.041
 2463SOL    HW1 8288   0.215   6.938   0.994
 2463SOL    HW2 8289   0.282   6.876   1.129
 2464SOL     OW 8290   0.931   2.426   4.900
 2464SOL    HW1 8291   0.871   2.415   4.978
 2464SOL    HW2 8292   0.877   2.447   4.818
 2465SOL     OW 8293   6.718   1.504   6.934
 2465SOL    HW1 8294   6.743   1.572   7.003
 2465SOL    HW2 8295   6.674   1.550   6.857
 2466SOL     OW 8296   0.775   2.147   1.196
 2466SOL    HW1 8297   0.824   2.133   1.110
 2466SOL    HW2 8298   0.738   2.060   1.229
 2467SOL     OW 8299   5.091   2.350   5.455
 2467SOL    HW1 8300   5.059   2.299   5.535
 2467SOL    HW2 8301   5.012   2.379   5.400
 2468SOL     OW 8302   3.422   0.464   5.396
 2468SOL    HW1 8303   3.378   0.377   5.373
 2468SOL    HW2 8304   3.381   0.501   5.479
 2469SOL     OW 8305   2.838   1.925   6.064
 2469SOL    HW1 8306   2.924   1.913   6.112
 2469SOL    HW2 8307   2.763   1.888   6.119
 2470SOL     OW 8308   2.116   5.503   6.513
 2470SOL    HW1 8309   2.057   5.463   6.583
 2470SOL    HW2 8310   2.062   5.524   6.432
 2471SOL     OW 8311   3.233   5.714   3.097
 2471SOL    HW1 8312   3.199   5.713   3.003
 2471SOL    HW2 8313   3.205   5.629   3.142
 2472SOL     OW 8314   4.975   1.944   2.637
 2472SOL    HW1 8315   4.976   1.900   2.547
 2472SOL    HW2 8316   4.887   1.992   2.649
 2473SOL     OW 8317   0.525   4.227   4.565
 2473SOL    HW1 8318   0.622   4.248   4.557
 2473SOL    HW2 8319   0.513   4.128   4.573
 2474SOL     OW 8320   1.688   5.969   1.008
 2474SOL    HW1 8321   1.776   6.007   1.036
 2474SOL    HW2 8322   1.614   6.021   1.052
 2475SOL     OW 8323   5.785   2.379   0.983
 2475SOL    HW1 8324   5.732   2.320   0.922
 2475SOL    HW2 8325   5.861   2.420   0.933
 2476SOL     OW 8326   4.739   0.049   0.330
 2476SOL    HW1 8327   4.692   0.123   0.379
 2476SOL    HW2 8328   4.823   0.026   0.379
 2477SOL     OW 8329   4.000   0.868   3.284
 2477SOL    HW1 8330   3.983   0.793   3.219
 2477SOL    HW2 8331   4.070   0.839   3.350
 2478SOL     OW 8332   3.685   0.576   4.341
 2478SOL    HW1 8333   3.693   0.481   4.371
 2478SOL    HW2 8334   3.594   0.591   4.303
 2479SOL     OW 8335   5.250   4.015   1.377
 2479SOL    HW1 8336   5.216   3.929   1.338
 2479SOL    HW2 8337   5.173   4.069   1.409
 2480SOL     OW 8338   3.164   2.711   1.772
 2480SOL    HW1 8339   3.231   2.638   1.756
 2480SOL    HW2 8340   3.131   2.705   1.866
 2481SOL     OW 8341   2.960   0.217   1.852
 2481SOL    HW1 8342   2.995   0.147   1.789
 2481SOL    HW2 8343   2.960   0.181   1.945
 2482SOL     OW 8344   0.051   2.833   0.109
 2482SOL    HW1 8345   0.103   2.753   0.076
 2482SOL    HW2 8346   0.068   2.846   0.206
 2483SOL     OW 8347   2.829   2.140   1.241
 2483SOL    HW1 8348   2.765   2.191   1.297
 2483SOL    HW2 8349   2.792   2.049   1.221
 2484SOL     OW 8350   4.102   0.439   6.740
 2484SOL    HW1 8351   4.086   0.434   6.641
 2484SOL    HW2 8352   4.023   0.401   6.788
 2485SOL     OW 8353   0.405   1.771   6.279
 2485SOL    HW1 8354   0.356   1.685   6.277
 2485SOL    HW2 8355   0.496   1.759   6.239
 2486SOL     OW 8356   6.781   5.983   3.219
 2486SOL    HW1 8357   6.855   6.048   3.233
 2486SOL    HW2 8358   6.817   5.901   3.175
 2487SOL     OW 8359   4.955   6.138   0.347
 2487SOL    HW1 8360   4.885   6.098   0.287
 2487SOL    HW2 8361   4.930   6.232   0.369
 2488SOL     OW 8362   0.144   4.116   0.973
 2488SOL    HW1 8363   0.069   4.138   0.911
 2488SOL    HW2 8364   0.149   4.017   0.985
 2489SOL     OW 8365   6.227   5.057   4.445
 2489SOL    HW1 8366   6.261   5.141   4.404
 2489SOL    HW2 8367   6.271   4.978   4.401
 2490SOL     OW 8368   2.799   5.494   1.913
 2490SOL    HW1 8369   2.756   5.583   1.901
 2490SOL    HW2 8370   2.773   5.456   2.002
 2491SOL     OW 8371   3.941   4.606   1.724
 2491SOL    HW1 8372   3.919   4.520   1.679
 2491SOL    HW2 8373   3.993   4.664   1.661
 2492SOL     OW 8374   0.045   5.452   1.311
 2492SOL    HW1 8375   7.000   5.402   1.253
 2492SOL    HW2 8376   0.034   5.550   1.296
 2493SOL     OW 8377   5.819   6.262   0.331
 2493SOL    HW1 8378   5.759   6.263   0.251
 2493SOL    HW2 8379   5.763   6.255   0.414
 2494SOL     OW 8380   6.920   4.196   0.860
 2494SOL    HW1 8381   6.871   4.282   0.875
 2494SOL    HW2 8382   6.933   4.182   0.762
 2495SOL     OW 8383   0.074   3.311   2.016
 2495SOL    HW1 8384   7.007   3.362   2.010
 2495SOL    HW2 8385   0.106   3.289   1.924
 2496SOL     OW 8386   5.683   4.520   6.566
 2496SOL    HW1 8387   5.617   4.521   6.491
 2496SOL    HW2 8388   5.771   4.553   6.533
 2497SOL     OW 8389   0.457   6.874   2.729
 2497SOL    HW1 8390   0.508   6.832   2.654
 2497SOL    HW2 8391   0.420   6.802   2.788
 2498SOL     OW 8392   1.849   3.416   4.635
 2498SOL    HW1 8393   1.884   3.489   4.695
 2498SOL    HW2 8394   1.749   3.418   4.635
 2499SOL     OW 8395   5.960   3.803   2.308
 2499SOL    HW1 8396   6.025   3.738   2.269
 2499SOL    HW2 8397   5.873   3.757   2.326
 2500SOL     OW 8398   3.506   3.442   2.304
 2500SOL    HW1 8399   3.531   3.356   2.261
 2500SOL    HW2 8400   3.425   3.479   2.260
 2501SOL     OW 8401   5.908   5.773   5.630
 2501SOL    HW1 8402   5.982   5.838   5.644
 2501SOL    HW2 8403   5.931   5.685   5.672
 2502SOL     OW 8404   2.410   5.827   4.087
 2502SOL    HW1 8405   2.509   5.823   4.070
 2502SOL    HW2 8406   2.393   5.884   4.167
 2503SOL     OW 8407   2.355   0.026   5.090
 2503SOL    HW1 8408   2.415   6.965   5.084
 2503SOL    HW2 8409   2.348   0.069   5.000
 2504SOL     OW 8410   3.764   0.163   3.207
 2504SOL    HW1 8411   3.858   0.197   3.196
 2504SOL    HW2 8412   3.740   0.163   3.304
 2505SOL     OW 8413   6.163   4.413   3.916
 2505SOL    HW1 8414   6.074   4.456   3.933
 2505SOL    HW2 8415   6.231   4.456   3.975
 2506SOL     OW 8416   6.280   5.041   6.456
 2506SOL    HW1 8417   6.219   5.068   6.530
 2506SOL    HW2 8418   6.360   5.102   6.454
 2507SOL     OW 8419   6.344   3.154   2.972
 2507SOL    HW1 8420   6.334   3.058   2.947
 2507SOL    HW2 8421   6.299   3.211   2.904
 2508SOL     OW 8422   6.147   0.684   3.992
 2508SOL    HW1 8423   6.050   0.705   4.005
 2508SOL    HW2 8424   6.186   0.654   4.079
 2509SOL     OW 8425   6.887   2.979   6.271
 2509SOL    HW1 8426   6.815   2.915   6.245
 2509SOL    HW2 8427   6.856   3.073   6.256
 2510SOL     OW 8428   3.655   3.715   2.527
 2510SOL    HW1 8429   3.731   3.764   2.483
 2510SOL    HW2 8430   3.654   3.620   2.495
 2511SOL     OW 8431   1.626   0.696   4.464
 2511SOL    HW1 8432   1.695   0.722   4.397
 2511SOL    HW2 8433   1.650   0.734   4.554
 2512SOL     OW 8434   3.838   4.873   4.076
 2512SOL    HW1 8435   3.740   4.867   4.056
 2512SOL    HW2 8436   3.852   4.934   4.155
 2513SOL     OW 8437   1.991   5.704   6.692
 2513SOL    HW1 8438   2.074   5.660   6.656
 2513SOL    HW2 8439   1.912   5.676   6.636
 2514SOL     OW 8440   1.842   1.890   2.856
 2514SOL    HW1 8441   1.905   1.839   2.914
 2514SOL    HW2 8442   1.762   1.834   2.835
 2515SOL     OW 8443   0.346   1.921   1.134
 2515SOL    HW1 8444   0.353   1.873   1.221
 2515SOL    HW2 8445   0.268   1.984   1.136
 2516SOL     OW 8446   5.963   2.478   5.079
 2516SOL    HW1 8447   5.884   2.450   5.025
 2516SOL    HW2 8448   6.033   2.516   5.018
 2517SOL     OW 8449   0.713   1.392   3.845
 2517SOL    HW1 8450   0.656   1.310   3.849
 2517SOL    HW2 8451   0.699   1.438   3.757
 2518SOL     OW 8452   2.500   3.952   0.908
 2518SOL    HW1 8453   2.475   3.925   1.000
 2518SOL    HW2 8454   2.599   3.944   0.897
 2519SOL     OW 8455   0.935   1.374   1.086
 2519SOL    HW1 8456   0.893   1.288   1.056
 2519SOL    HW2 8457   1.033   1.360   1.098
 2520SOL     OW 8458   2.722   2.716   1.014
 2520SOL    HW1 8459   2.676   2.682   1.096
 2520SOL    HW2 8460   2.667   2.788   0.971
 2521SOL     OW 8461   4.904   0.704   4.904
 2521SOL    HW1 8462   4.963   0.711   4.985
 2521SOL    HW2 8463   4.836   0.777   4.906
 2522SOL     OW 8464   1.308   1.924   6.778
 2522SOL    HW1 8465   1.273   1.927   6.871
 2522SOL    HW2 8466   1.384   1.988   6.769
 2523SOL     OW 8467   1.017   5.799   6.196
 2523SOL    HW1 8468   0.933   5.745   6.204
 2523SOL    HW2 8469   1.055   5.787   6.104
 2524SOL     OW 8470   0.966   1.634   4.606
 2524SOL    HW1 8471   0.941   1.638   4.703
 2524SOL    HW2 8472   0.919   1.707   4.557
 2525SOL     OW 8473   5.923   2.855   6.151
 2525SOL    HW1 8474   5.893   2.948   6.171
 2525SOL    HW2 8475   5.950   2.849   6.055
 2526SOL     OW 8476   1.424   0.680   0.401
 2526SOL    HW1 8477   1.331   0.717   0.402
 2526SOL    HW2 8478   1.490   0.754   0.413
 2527SOL     OW 8479   3.640   5.063   6.747
 2527SOL    HW1 8480   3.667   5.048   6.842
 2527SOL    HW2 8481   3.633   4.975   6.700
 2528SOL     OW 8482   4.387   5.609   6.540
 2528SOL    HW1 8483   4.456   5.543   6.512
 2528SOL    HW2 8484   4.426   5.701   6.537
 2529SOL     OW 8485   0.370   6.348   5.615
 2529SOL    HW1 8486   0.444   6.373   5.677
 2529SOL    HW2 8487   0.319   6.430   5.589
 2530SOL     OW 8488   2.520   6.147   6.890
 2530SOL    HW1 8489   2.448   6.135   6.958
 2530SOL    HW2 8490   2.589   6.076   6.902
 2531SOL     OW 8491   0.268   4.965   6.265
 2531SOL    HW1 8492   0.345   4.936   6.323
 2531SOL    HW2 8493   0.218   4.884   6.234
 2532SOL     OW 8494   5.557   5.563   2.107
 2532SOL    HW1 8495   5.459   5.576   2.097
 2532SOL    HW2 8496   5.578   5.534   2.200
 2533SOL     OW 8497   4.606   1.027   3.750
 2533SOL    HW1 8498   4.593   0.984   3.661
 2533SOL    HW2 8499   4.629   1.123   3.738
 2534SOL     OW 8500   3.977   1.646   2.495
 2534SOL    HW1 8501   3.924   1.731   2.493
 2534SOL    HW2 8502   4.058   1.656   2.436
 2535SOL     OW 8503   3.804   2.914   6.116
 2535SOL    HW1 8504   3.731   2.891   6.180
 2535SOL    HW2 8505   3.783   2.877   6.025
 2536SOL     OW 8506   1.382   0.168   0.996
 2536SOL    HW1 8507   1.301   0.131   1.042
 2536SOL    HW2 8508   1.414   0.104   0.927
 2537SOL     OW 8509   3.975   7.018   5.592
 2537SOL    HW1 8510   3.920   6.948   5.546
 2537SOL    HW2 8511   4.067   7.018   5.554
 2538SOL     OW 8512   6.102   3.896   3.647
 2538SOL    HW1 8513   6.156   3.847   3.579
 2538SOL    HW2 8514   6.099   3.842   3.732
 2539SOL     OW 8515   4.869   2.433   5.043
 2539SOL    HW1 8516   4.799   2.495   5.006
 2539SOL    HW2 8517   4.856   2.342   5.005
 2540SOL     OW 8518   3.102   2.003   1.505
 2540SOL    HW1 8519   3.004   1.992   1.492
 2540SOL    HW2 8520   3.121   2.097   1.533
 2541SOL     OW 8521   3.213   6.868   3.835
 2541SOL    HW1 8522   3.230   6.779   3.880
 2541SOL    HW2 8523   3.159   6.926   3.896
 2542SOL     OW 8524   1.834   5.777   6.331
 2542SOL    HW1 8525   1.765   5.755   6.400
 2542SOL    HW2 8526   1.868   5.693   6.289
 2543SOL     OW 8527   0.093   0.858   3.759
 2543SOL    HW1 8528   0.091   0.953   3.791
 2543SOL    HW2 8529   0.131   0.855   3.667
 2544SOL     OW 8530   0.681   5.319   6.252
 2544SOL    HW1 8531   0.709   5.381   6.326
 2544SOL    HW2 8532   0.700   5.361   6.164
 2545SOL     OW 8533   2.444   5.916   3.577
 2545SOL    HW1 8534   2.452   5.969   3.493
 2545SOL    HW2 8535   2.428   5.820   3.554
 2546SOL     OW 8536   6.859   1.022   1.596
 2546SOL    HW1 8537   6.768   0.982   1.584
 2546SOL    HW2 8538   6.882   1.078   1.517
 2547SOL     OW 8539   0.497   3.170   5.343
 2547SOL    HW1 8540   0.514   3.096   5.408
 2547SOL    HW2 8541   0.555   3.157   5.262
 2548SOL     OW 8542   1.044   0.334   6.051
 2548SOL    HW1 8543   0.985   0.402   6.008
 2548SOL    HW2 8544   1.076   0.368   6.139
 2549SOL     OW 8545   5.764   3.051   2.272
 2549SOL    HW1 8546   5.777   3.111   2.351
 2549SOL    HW2 8547   5.719   2.967   2.302
 2550SOL     OW 8548   5.642   5.353   7.019
 2550SOL    HW1 8549   5.584   5.348   6.937
 2550SOL    HW2 8550   5.587   5.332   0.081
 2551SOL     OW 8551   0.954   5.189   0.237
 2551SOL    HW1 8552   1.048   5.205   0.207
 2551SOL    HW2 8553   0.892   5.252   0.189
 2552SOL     OW 8554   1.644   5.813   3.362
 2552SOL    HW1 8555   1.741   5.829   3.378
 2552SOL    HW2 8556   1.590   5.887   3.402
 2553SOL     OW 8557   3.999   3.629   6.765
 2553SOL    HW1 8558   3.975   3.536   6.792
 2553SOL    HW2 8559   4.029   3.629   6.670
 2554SOL     OW 8560   1.170   2.040   0.625
 2554SOL    HW1 8561   1.178   2.020   0.722
 2554SOL    HW2 8562   1.080   2.011   0.592
 2555SOL     OW 8563   0.241   0.384   6.462
 2555SOL    HW1 8564   0.180   0.317   6.420
 2555SOL    HW2 8565   0.191   0.470   6.474
 2556SOL     OW 8566   4.168   4.701   0.329
 2556SOL    HW1 8567   4.096   4.728   0.265
 2556SOL    HW2 8568   4.253   4.750   0.306
 2557SOL     OW 8569   1.579   4.622   6.645
 2557SOL    HW1 8570   1.609   4.603   6.738
 2557SOL    HW2 8571   1.535   4.712   6.642
 2558SOL     OW 8572   4.254   0.502   5.161
 2558SOL    HW1 8573   4.277   0.426   5.222
 2558SOL    HW2 8574   4.171   0.547   5.194
 2559SOL     OW 8575   0.634   4.840   5.168
 2559SOL    HW1 8576   0.717   4.836   5.224
 2559SOL    HW2 8577   0.591   4.930   5.180
 2560SOL     OW 8578   6.014   0.788   6.876
 2560SOL    HW1 8579   5.958   0.862   6.915
 2560SOL    HW2 8580   6.103   0.824   6.851
 2561SOL     OW 8581   3.157   5.757   3.835
 2561SOL    HW1 8582   3.123   5.851   3.838
 2561SOL    HW2 8583   3.098   5.698   3.891
 2562SOL     OW 8584   2.323   3.833   0.064
 2562SOL    HW1 8585   2.361   3.753   0.017
 2562SOL    HW2 8586   2.356   3.835   0.158
 2563SOL     OW 8587   1.559   0.715   1.716
 2563SOL    HW1 8588   1.641   0.769   1.737
 2563SOL    HW2 8589   1.575   0.620   1.741
 2564SOL     OW 8590   1.762   6.514   2.297
 2564SOL    HW1 8591   1.846   6.469   2.326
 2564SOL    HW2 8592   1.751   6.599   2.348
 2565SOL     OW 8593   0.259   1.001   1.812
 2565SOL    HW1 8594   0.300   0.954   1.890
 2565SOL    HW2 8595   0.330   1.052   1.762
 2566SOL     OW 8596   1.921   0.017   5.147
 2566SOL    HW1 8597   1.921   0.005   5.048
 2566SOL    HW2 8598   1.927   6.947   5.192
 2567SOL     OW 8599   0.956   1.046   0.742
 2567SOL    HW1 8600   1.019   0.994   0.801
 2567SOL    HW2 8601   0.954   1.141   0.773
 2568SOL     OW 8602   5.085   3.741   0.031
 2568SOL    HW1 8603   5.110   3.750   0.128
 2568SOL    HW2 8604   5.165   3.711   6.998
 2569SOL     OW 8605   2.489   0.571   2.508
 2569SOL    HW1 8606   2.546   0.580   2.589
 2569SOL    HW2 8607   2.538   0.609   2.429
 2570SOL     OW 8608   5.247   2.301   5.984
 2570SOL    HW1 8609   5.204   2.216   5.955
 2570SOL    HW2 8610   5.330   2.280   6.035
 2571SOL     OW 8611   0.822   4.061   4.686
 2571SOL    HW1 8612   0.769   4.131   4.734
 2571SOL    HW2 8613   0.826   3.978   4.742
 2572SOL     OW 8614   1.597   4.689   3.436
 2572SOL    HW1 8615   1.559   4.669   3.345
 2572SOL    HW2 8616   1.592   4.606   3.492
 2573SOL     OW 8617   1.404   0.053   0.420
 2573SOL    HW1 8618   1.498   0.080   0.440
 2573SOL    HW2 8619   1.340   0.120   0.458
 2574SOL     OW 8620   6.509   3.502   0.447
 2574SOL    HW1 8621   6.580   3.567   0.418
 2574SOL    HW2 8622   6.548   3.410   0.449
 2575SOL     OW 8623   0.544   6.317   6.282
 2575SOL    HW1 8624   0.616   6.254   6.312
 2575SOL    HW2 8625   0.585   6.393   6.231
 2576SOL     OW 8626   4.274   6.520   5.085
 2576SOL    HW1 8627   4.239   6.505   4.992
 2576SOL    HW2 8628   4.371   6.543   5.080
 2577SOL     OW 8629   1.317   3.741   2.616
 2577SOL    HW1 8630   1.304   3.753   2.715
 2577SOL    HW2 8631   1.413   3.723   2.597
 2578SOL     OW 8632   4.220   1.846   2.326
 2578SOL    HW1 8633   4.242   1.810   2.417
 2578SOL    HW2 8634   4.305   1.860   2.275
 2579SOL     OW 8635   0.433   6.552   2.717
 2579SOL    HW1 8636   0.448   6.611   2.637
 2579SOL    HW2 8637   0.463   6.600   2.799
 2580SOL     OW 8638   2.421   1.474   5.811
 2580SOL    HW1 8639   2.459   1.535   5.880
 2580SOL    HW2 8640   2.346   1.520   5.763
 2581SOL     OW 8641   3.150   0.319   5.770
 2581SOL    HW1 8642   3.078   0.289   5.833
 2581SOL    HW2 8643   3.173   0.414   5.788
 2582SOL     OW 8644   6.775   3.549   1.180
 2582SOL    HW1 8645   6.714   3.610   1.130
 2582SOL    HW2 8646   6.869   3.586   1.177
 2583SOL     OW 8647   5.616   0.493   1.234
 2583SOL    HW1 8648   5.528   0.512   1.190
 2583SOL    HW2 8649   5.688   0.491   1.165
 2584SOL     OW 8650   3.625   4.055   6.226
 2584SOL    HW1 8651   3.578   4.103   6.300
 2584SOL    HW2 8652   3.659   3.967   6.260
 2585SOL     OW 8653   2.753   5.133   0.141
 2585SOL    HW1 8654   2.738   5.220   0.095
 2585SOL    HW2 8655   2.751   5.147   0.240
 2586SOL     OW 8656   2.705   0.927   4.123
 2586SOL    HW1 8657   2.691   0.871   4.042
 2586SOL    HW2 8658   2.778   0.888   4.179
 2587SOL     OW 8659   5.887   0.720   4.916
 2587SOL    HW1 8660   5.986   0.732   4.925
 2587SOL    HW2 8661   5.855   0.656   4.986
 2588SOL     OW 8662   4.744   0.544   0.015
 2588SOL    HW1 8663   4.695   0.565   6.949
 2588SOL    HW2 8664   4.727   0.617   0.082
 2589SOL     OW 8665   1.850   6.104   0.462
 2589SOL    HW1 8666   1.842   6.203   0.475
 2589SOL    HW2 8667   1.803   6.076   0.379
 2590SOL     OW 8668   2.819   5.374   0.322
 2590SOL    HW1 8669   2.729   5.399   0.357
 2590SOL    HW2 8670   2.834   5.420   0.234
 2591SOL     OW 8671   5.124   6.068   2.633
 2591SOL    HW1 8672   5.083   6.077   2.724
 2591SOL    HW2 8673   5.133   6.159   2.592
 2592SOL     OW 8674   3.056   3.405   1.060
 2592SOL    HW1 8675   3.146   3.370   1.035
 2592SOL    HW2 8676   3.020   3.354   1.138
 2593SOL     OW 8677   3.554   4.716   0.025
 2593SOL    HW1 8678   3.545   4.813   0.048
 2593SOL    HW2 8679   3.472   4.667   0.056
 2594SOL     OW 8680   2.108   3.407   3.565
 2594SOL    HW1 8681   2.032   3.400   3.631
 2594SOL    HW2 8682   2.165   3.326   3.573
 2595SOL     OW 8683   1.959   1.271   2.950
 2595SOL    HW1 8684   2.016   1.264   2.868
 2595SOL    HW2 8685   2.012   1.308   3.025
 2596SOL     OW 8686   7.018   1.973   0.474
 2596SOL    HW1 8687   6.998   2.062   0.515
 2596SOL    HW2 8688   0.082   1.934   0.514
 2597SOL     OW 8689   6.708   6.526   0.482
 2597SOL    HW1 8690   6.686   6.444   0.429
 2597SOL    HW2 8691   6.758   6.498   0.564
 2598SOL     OW 8692   4.685   2.696   2.189
 2598SOL    HW1 8693   4.686   2.681   2.090
 2598SOL    HW2 8694   4.727   2.784   2.209
 2599SOL     OW 8695   2.542   5.931   2.805
 2599SOL    HW1 8696   2.564   5.836   2.831
 2599SOL    HW2 8697   2.625   5.986   2.811
 2600SOL     OW 8698   5.757   4.060   4.569
 2600SOL    HW1 8699   5.835   4.106   4.614
 2600SOL    HW2 8700   5.779   3.963   4.557
 2601SOL     OW 8701   6.978   1.218   4.403
 2601SOL    HW1 8702   6.967   1.149   4.331
 2601SOL    HW2 8703   0.042   1.198   4.456
 2602SOL     OW 8704   1.122   4.712   2.636
 2602SOL    HW1 8705   1.199   4.713   2.701
 2602SOL    HW2 8706   1.039   4.743   2.682
 2603SOL     OW 8707   2.281   5.676   2.343
 2603SOL    HW1 8708   2.215   5.638   2.408
 2603SOL    HW2 8709   2.232   5.713   2.264
 2604SOL     OW 8710   4.804   2.946   3.551
 2604SOL    HW1 8711   4.838   2.853   3.563
 2604SOL    HW2 8712   4.749   2.950   3.467
 2605SOL     OW 8713   1.578   3.040   1.071
 2605SOL    HW1 8714   1.528   3.082   0.996
 2605SOL    HW2 8715   1.542   3.073   1.158
 2606SOL     OW 8716   4.929   3.729   0.875
 2606SOL    HW1 8717   5.014   3.779   0.888
 2606SOL    HW2 8718   4.857   3.770   0.933
 2607SOL     OW 8719   2.470   3.116   1.695
 2607SOL    HW1 8720   2.522   3.077   1.619
 2607SOL    HW2 8721   2.394   3.170   1.659
 2608SOL     OW 8722   2.893   5.377   4.872
 2608SOL    HW1 8723   2.902   5.340   4.780
 2608SOL    HW2 8724   2.982   5.411   4.903
 2609SOL     OW 8725   0.573   1.800   1.481
 2609SOL    HW1 8726   0.607   1.757   1.397
 2609SOL    HW2 8727   0.649   1.809   1.546
 2610SOL     OW 8728   1.343   4.307   4.672
 2610SOL    HW1 8729   1.255   4.303   4.625
 2610SOL    HW2 8730   1.328   4.328   4.769
 2611SOL     OW 8731   5.690   0.500   5.464
 2611SOL    HW1 8732   5.650   0.592   5.460
 2611SOL    HW2 8733   5.625   0.434   5.428
 2612SOL     OW 8734   0.054   6.505   0.539
 2612SOL    HW1 8735   0.116   6.511   0.617
 2612SOL    HW2 8736   0.016   6.595   0.519
 2613SOL     OW 8737   1.561   6.709   0.385
 2613SOL    HW1 8738   1.467   6.686   0.411
 2613SOL    HW2 8739   1.611   6.742   0.465
 2614SOL     OW 8740   5.693   2.253   0.614
 2614SOL    HW1 8741   5.633   2.256   0.694
 2614SOL    HW2 8742   5.648   2.201   0.541
 2615SOL     OW 8743   0.760   3.448   6.959
 2615SOL    HW1 8744   0.716   3.477   0.025
 2615SOL    HW2 8745   0.751   3.349   6.950
 2616SOL     OW 8746   1.078   0.660   4.342
 2616SOL    HW1 8747   1.176   0.678   4.330
 2616SOL    HW2 8748   1.039   0.730   4.402
 2617SOL     OW 8749   5.282   0.186   1.143
 2617SOL    HW1 8750   5.335   0.202   1.226
 2617SOL    HW2 8751   5.284   0.089   1.119
 2618SOL     OW 8752   1.207   0.290   6.937
 2618SOL    HW1 8753   1.232   0.252   0.007
 2618SOL    HW2 8754   1.231   0.387   6.934
 2619SOL     OW 8755   4.944   1.271   2.751
 2619SOL    HW1 8756   4.951   1.363   2.791
 2619SOL    HW2 8757   4.980   1.273   2.657
 2620SOL     OW 8758   5.859   2.530   2.375
 2620SOL    HW1 8759   5.928   2.600   2.352
 2620SOL    HW2 8760   5.772   2.554   2.332
 2621SOL     OW 8761   2.606   6.461   1.256
 2621SOL    HW1 8762   2.523   6.440   1.205
 2621SOL    HW2 8763   2.587   6.533   1.322
 2622SOL     OW 8764   2.624   3.616   6.768
 2622SOL    HW1 8765   2.664   3.540   6.818
 2622SOL    HW2 8766   2.692   3.688   6.756
 2623SOL     OW 8767   6.813   1.160   3.796
 2623SOL    HW1 8768   6.831   1.255   3.821
 2623SOL    HW2 8769   6.719   1.135   3.823
 2624SOL     OW 8770   1.185   1.689   5.690
 2624SOL    HW1 8771   1.168   1.779   5.730
 2624SOL    HW2 8772   1.105   1.660   5.637
 2625SOL     OW 8773   2.535   5.387   5.611
 2625SOL    HW1 8774   2.621   5.349   5.645
 2625SOL    HW2 8775   2.482   5.314   5.566
 2626SOL     OW 8776   0.068   6.753   0.228
 2626SOL    HW1 8777   0.090   6.822   0.159
 2626SOL    HW2 8778   0.103   6.664   0.198
 2627SOL     OW 8779   2.374   0.399   5.817
 2627SOL    HW1 8780   2.280   0.367   5.828
 2627SOL    HW2 8781   2.374   0.499   5.807
 2628SOL     OW 8782   0.308   5.348   1.332
 2628SOL    HW1 8783   0.335   5.266   1.280
 2628SOL    HW2 8784   0.209   5.360   1.326
 2629SOL     OW 8785   3.133   4.000   3.160
 2629SOL    HW1 8786   3.142   3.977   3.063
 2629SOL    HW2 8787   3.058   3.948   3.200
 2630SOL     OW 8788   3.181   0.615   4.921
 2630SOL    HW1 8789   3.139   0.619   4.831
 2630SOL    HW2 8790   3.184   0.519   4.952
 2631SOL     OW 8791   4.725   6.011   0.254
 2631SOL    HW1 8792   4.680   6.043   0.337
 2631SOL    HW2 8793   4.741   5.912   0.262
 2632SOL     OW 8794   5.400   5.257   1.843
 2632SOL    HW1 8795   5.338   5.241   1.919
 2632SOL    HW2 8796   5.477   5.314   1.874
 2633SOL     OW 8797   6.943   3.201   5.872
 2633SOL    HW1 8798   6.865   3.147   5.904
 2633SOL    HW2 8799   6.913   3.262   5.799
 2634SOL     OW 8800   1.754   1.951   6.186
 2634SOL    HW1 8801   1.656   1.941   6.206
 2634SOL    HW2 8802   1.771   2.044   6.153
 2635SOL     OW 8803   3.743   5.191   3.001
 2635SOL    HW1 8804   3.757   5.187   2.902
 2635SOL    HW2 8805   3.648   5.169   3.022
 2636SOL     OW 8806   3.394   6.484   6.107
 2636SOL    HW1 8807   3.468   6.456   6.167
 2636SOL    HW2 8808   3.362   6.404   6.055
 2637SOL     OW 8809   0.335   1.711   3.133
 2637SOL    HW1 8810   0.269   1.783   3.156
 2637SOL    HW2 8811   0.428   1.747   3.142
 2638SOL     OW 8812   0.765   6.007   4.850
 2638SOL    HW1 8813   0.727   6.096   4.824
 2638SOL    HW2 8814   0.806   5.964   4.770
 2639SOL     OW 8815   5.057   5.288   4.805
 2639SOL    HW1 8816   4.975   5.246   4.764
 2639SOL    HW2 8817   5.034   5.379   4.839
 2640SOL     OW 8818   1.951   0.901   3.197
 2640SOL    HW1 8819   1.869   0.956   3.209
 2640SOL    HW2 8820   1.989   0.917   3.106
 2641SOL     OW 8821   5.411   2.485   6.874
 2641SOL    HW1 8822   5.446   2.564   6.924
 2641SOL    HW2 8823   5.348   2.434   6.933
 2642SOL     OW 8824   0.266   0.265   2.316
 2642SOL    HW1 8825   0.186   0.299   2.266
 2642SOL    HW2 8826   0.348   0.309   2.282
 2643SOL     OW 8827   1.760   4.824   4.096
 2643SOL    HW1 8828   1.772   4.828   3.997
 2643SOL    HW2 8829   1.740   4.915   4.131
 2644SOL     OW 8830   5.713   5.254   3.838
 2644SOL    HW1 8831   5.641   5.225   3.774
 2644SOL    HW2 8832   5.693   5.345   3.872
 2645SOL     OW 8833   4.669   5.763   2.388
 2645SOL    HW1 8834   4.575   5.778   2.357
 2645SOL    HW2 8835   4.667   5.714   2.475
 2646SOL     OW 8836   1.355   2.215   6.411
 2646SOL    HW1 8837   1.323   2.132   6.458
 2646SOL    HW2 8838   1.379   2.192   6.317
 2647SOL     OW 8839   3.964   7.011   2.914
 2647SOL    HW1 8840   3.917   6.927   2.942
 2647SOL    HW2 8841   4.044   6.988   2.859
 2648SOL     OW 8842   1.711   0.647   5.414
 2648SOL    HW1 8843   1.637   0.590   5.449
 2648SOL    HW2 8844   1.713   0.733   5.464
 2649SOL     OW 8845   6.362   2.121   3.909
 2649SOL    HW1 8846   6.386   2.136   3.813
 2649SOL    HW2 8847   6.299   2.044   3.916
 2650SOL     OW 8848   1.958   6.936   4.242
 2650SOL    HW1 8849   1.891   6.864   4.225
 2650SOL    HW2 8850   2.038   6.897   4.288
 2651SOL     OW 8851   3.579   1.451   3.324
 2651SOL    HW1 8852   3.616   1.499   3.404
 2651SOL    HW2 8853   3.482   1.430   3.340
 2652SOL     OW 8854   4.909   3.715   5.472
 2652SOL    HW1 8855   4.892   3.803   5.517
 2652SOL    HW2 8856   5.004   3.687   5.488
 2653SOL     OW 8857   1.946   6.101   0.038
 2653SOL    HW1 8858   2.021   6.116   0.102
 2653SOL    HW2 8859   1.960   6.158   6.976
 2654SOL     OW 8860   0.092   0.716   0.772
 2654SOL    HW1 8861   0.119   0.663   0.853
 2654SOL    HW2 8862   0.172   0.734   0.716
 2655SOL     OW 8863   5.178   6.924   2.745
 2655SOL    HW1 8864   5.256   6.976   2.779
 2655SOL    HW2 8865   5.186   6.829   2.774
 2656SOL     OW 8866   4.793   6.643   4.223
 2656SOL    HW1 8867   4.849   6.688   4.293
 2656SOL    HW2 8868   4.703   6.685   4.220
 2657SOL     OW 8869   1.583   3.287   6.758
 2657SOL    HW1 8870   1.640   3.315   6.681
 2657SOL    HW2 8871   1.521   3.363   6.782
 2658SOL     OW 8872   3.353   4.260   0.038
 2658SOL    HW1 8873   3.418   4.209   0.094
 2658SOL    HW2 8874   3.273   4.203   0.020
 2659SOL     OW 8875   0.014   2.405   5.372
 2659SOL    HW1 8876   0.080   2.375   5.441
 2659SOL    HW2 8877   6.997   2.325   5.324
 2660SOL     OW 8878   1.075   1.525   0.793
 2660SOL    HW1 8879   1.145   1.519   0.864
 2660SOL    HW2 8880   1.106   1.588   0.721
 2661SOL     OW 8881   1.863   0.847   1.008
 2661SOL    HW1 8882   1.794   0.778   0.985
 2661SOL    HW2 8883   1.889   0.838   1.104
 2662SOL     OW 8884   2.974   1.621   1.637
 2662SOL    HW1 8885   3.016   1.697   1.688
 2662SOL    HW2 8886   3.013   1.616   1.546
 2663SOL     OW 8887   4.000   0.985   0.664
 2663SOL    HW1 8888   4.033   1.072   0.702
 2663SOL    HW2 8889   3.949   1.003   0.579
 2664SOL     OW 8890   4.904   3.043   5.907
 2664SOL    HW1 8891   4.840   3.104   5.861
 2664SOL    HW2 8892   4.979   3.021   5.846
 2665SOL     OW 8893   1.056   3.278   4.551
 2665SOL    HW1 8894   1.057   3.217   4.472
 2665SOL    HW2 8895   1.027   3.369   4.522
 2666SOL     OW 8896   1.752   4.049   1.915
 2666SOL    HW1 8897   1.775   4.098   1.999
 2666SOL    HW2 8898   1.686   3.976   1.936
 2667SOL     OW 8899   5.990   2.817   4.879
 2667SOL    HW1 8900   5.900   2.774   4.866
 2667SOL    HW2 8901   6.002   2.840   4.975
 2668SOL     OW 8902   5.720   0.793   4.383
 2668SOL    HW1 8903   5.806   0.744   4.395
 2668SOL    HW2 8904   5.664   0.781   4.465
 2669SOL     OW 8905   2.547   1.010   1.775
 2669SOL    HW1 8906   2.642   0.992   1.750
 2669SOL    HW2 8907   2.543   1.088   1.837
 2670SOL     OW 8908   0.865   0.578   0.799
 2670SOL    HW1 8909   0.932   0.650   0.819
 2670SOL    HW2 8910   0.893   0.493   0.845
 2671SOL     OW 8911   5.493   4.154   6.016
 2671SOL    HW1 8912   5.432   4.122   6.089
 2671SOL    HW2 8913   5.530   4.075   5.967
 2672SOL     OW 8914   2.084   1.890   2.429
 2672SOL    HW1 8915   2.106   1.987   2.437
 2672SOL    HW2 8916   2.075   1.865   2.333
 2673SOL     OW 8917   3.306   7.014   2.793
 2673SOL    HW1 8918   3.314   0.093   2.779
 2673SOL    HW2 8919   3.347   6.989   2.881
 2674SOL     OW 8920   6.156   5.882   3.250
 2674SOL    HW1 8921   6.220   5.955   3.275
 2674SOL    HW2 8922   6.172   5.855   3.156
 2675SOL     OW 8923   4.748   0.997   4.355
 2675SOL    HW1 8924   4.782   1.083   4.316
 2675SOL    HW2 8925   4.726   0.933   4.281
 2676SOL     OW 8926   3.977   3.209   4.836
 2676SOL    HW1 8927   4.059   3.257   4.809
 2676SOL    HW2 8928   3.896   3.263   4.812
 2677SOL     OW 8929   1.642   5.502   0.710
 2677SOL    HW1 8930   1.604   5.514   0.618
 2677SOL    HW2 8931   1.569   5.513   0.777
 2678SOL     OW 8932   3.648   1.871   2.098
 2678SOL    HW1 8933   3.580   1.880   2.025
 2678SOL    HW2 8934   3.662   1.960   2.141
 2679SOL     OW 8935   2.110   3.628   2.393
 2679SOL    HW1 8936   2.103   3.531   2.370
 2679SOL    HW2 8937   2.104   3.682   2.309
 2680SOL     OW 8938   5.600   2.526   6.526
 2680SOL    HW1 8939   5.661   2.514   6.447
 2680SOL    HW2 8940   5.643   2.486   6.607
 2681SOL     OW 8941   2.314   2.713   3.274
 2681SOL    HW1 8942   2.349   2.751   3.360
 2681SOL    HW2 8943   2.370   2.634   3.248
 2682SOL     OW 8944   3.713   4.094   2.360
 2682SOL    HW1 8945   3.638   4.139   2.311
 2682SOL    HW2 8946   3.676   4.043   2.438
 2683SOL     OW 8947   1.693   3.572   1.382
 2683SOL    HW1 8948   1.672   3.652   1.326
 2683SOL    HW2 8949   1.643   3.492   1.347
 2684SOL     OW 8950   5.388   0.597   3.995
 2684SOL    HW1 8951   5.337   0.524   4.041
 2684SOL    HW2 8952   5.332   0.679   3.991
 2685SOL     OW 8953   1.397   6.803   5.743
 2685SOL    HW1 8954   1.439   6.755   5.666
 2685SOL    HW2 8955   1.364   6.892   5.713
 2686SOL     OW 8956   1.800   1.681   6.281
 2686SOL    HW1 8957   1.796   1.603   6.219
 2686SOL    HW2 8958   1.777   1.765   6.231
 2687SOL     OW 8959   4.165   2.426   1.661
 2687SOL    HW1 8960   4.253   2.381   1.676
 2687SOL    HW2 8961   4.098   2.393   1.727
 2688SOL     OW 8962   3.924   2.623   6.763
 2688SOL    HW1 8963   3.999   2.690   6.767
 2688SOL    HW2 8964   3.960   2.534   6.736
 2689SOL     OW 8965   6.733   3.475   2.469
 2689SOL    HW1 8966   6.752   3.467   2.567
 2689SOL    HW2 8967   6.644   3.517   2.456
 2690SOL     OW 8968   5.314   1.138   4.965
 2690SOL    HW1 8969   5.366   1.195   4.901
 2690SOL    HW2 8970   5.376   1.074   5.010
 2691SOL     OW 8971   6.942   3.336   4.470
 2691SOL    HW1 8972   6.859   3.322   4.415
 2691SOL    HW2 8973   7.007   3.392   4.419
 2692SOL     OW 8974   1.895   5.194   1.723
 2692SOL    HW1 8975   1.869   5.109   1.769
 2692SOL    HW2 8976   1.852   5.198   1.633
 2693SOL     OW 8977   0.528   5.143   2.774
 2693SOL    HW1 8978   0.458   5.196   2.725
 2693SOL    HW2 8979   0.600   5.204   2.807
 2694SOL     OW 8980   2.319   0.520   2.224
 2694SOL    HW1 8981   2.290   0.465   2.146
 2694SOL    HW2 8982   2.356   0.607   2.192
 2695SOL     OW 8983   6.736   5.688   3.392
 2695SOL    HW1 8984   6.795   5.724   3.320
 2695SOL    HW2 8985   6.640   5.693   3.364
 2696SOL     OW 8986   3.765   4.398   6.304
 2696SOL    HW1 8987   3.690   4.396   6.237
 2696SOL    HW2 8988   3.729   4.429   6.393
 2697SOL     OW 8989   4.088   2.508   0.044
 2697SOL    HW1 8990   4.149   2.465   6.997
 2697SOL    HW2 8991   3.993   2.487   0.019
 2698SOL     OW 8992   1.723   5.748   6.838
 2698SOL    HW1 8993   1.821   5.738   6.852
 2698SOL    HW2 8994   1.705   5.767   6.741
 2699SOL     OW 8995   2.617   6.775   2.224
 2699SOL    HW1 8996   2.527   6.761   2.264
 2699SOL    HW2 8997   2.634   6.873   2.213
 2700SOL     OW 8998   4.606   1.958   1.548
 2700SOL    HW1 8999   4.521   2.010   1.540
 2700SOL    HW2 9000   4.612   1.920   1.641
 2701SOL     OW 9001   5.096   3.400   5.193
 2701SOL    HW1 9002   5.184   3.362   5.168
 2701SOL    HW2 9003   5.097   3.500   5.180
 2702SOL     OW 9004   2.066   1.413   4.483
 2702SOL    HW1 9005   1.985   1.467   4.507
 2702SOL    HW2 9006   2.148   1.468   4.499
 2703SOL     OW 9007   2.116   6.238   1.930
 2703SOL    HW1 9008   2.033   6.186   1.913
 2703SOL    HW2 9009   2.137   6.238   2.028
 2704SOL     OW 9010   4.282   1.035   3.509
 2704SOL    HW1 9011   4.220   0.958   3.490
 2704SOL    HW2 9012   4.376   1.005   3.499
 2705SOL     OW 9013   1.231   6.838   5.395
 2705SOL    HW1 9014   1.315   6.801   5.356
 2705SOL    HW2 9015   1.182   6.766   5.444
 2706SOL     OW 9016   6.837   4.593   4.083
 2706SOL    HW1 9017   6.799   4.684   4.097
 2706SOL    HW2 9018   6.926   4.586   4.129
 2707SOL     OW 9019   4.638   1.509   2.932
 2707SOL    HW1 9020   4.615   1.484   3.026
 2707SOL    HW2 9021   4.554   1.534   2.882
 2708SOL     OW 9022   5.071   3.524   5.848
 2708SOL    HW1 9023   5.021   3.488   5.769
 2708SOL    HW2 9024   5.123   3.450   5.891
 2709SOL     OW 9025   5.362   1.168   5.920
 2709SOL    HW1 9026   5.372   1.263   5.891
 2709SOL    HW2 9027   5.282   1.128   5.874
 2710SOL     OW 9028   1.096   2.571   4.323
 2710SOL    HW1 9029   1.140   2.660   4.337
 2710SOL    HW2 9030   1.147   2.519   4.254
 2711SOL     OW 9031   4.647   1.056   1.576
 2711SOL    HW1 9032   4.548   1.048   1.578
 2711SOL    HW2 9033   4.688   0.969   1.603
 2712SOL     OW 9034   4.972   6.327   1.682
 2712SOL    HW1 9035   5.050   6.381   1.650
 2712SOL    HW2 9036   4.943   6.264   1.610
 2713SOL     OW 9037   3.676   5.145   5.698
 2713SOL    HW1 9038   3.700   5.151   5.795
 2713SOL    HW2 9039   3.577   5.150   5.688
 2714SOL     OW 9040   3.026   4.154   6.089
 2714SOL    HW1 9041   3.014   4.070   6.036
 2714SOL    HW2 9042   2.938   4.182   6.127
 2715SOL     OW 9043   4.501   6.303   0.254
 2715SOL    HW1 9044   4.561   6.254   0.317
 2715SOL    HW2 9045   4.551   6.324   0.170
 2716SOL     OW 9046   4.152   1.334   2.504
 2716SOL    HW1 9047   4.054   1.320   2.518
 2716SOL    HW2 9048   4.167   1.413   2.444
 2717SOL     OW 9049   1.043   2.012   2.602
 2717SOL    HW1 9050   1.046   2.065   2.686
 2717SOL    HW2 9051   1.121   2.036   2.544
 2718SOL     OW 9052   6.594   1.613   6.040
 2718SOL    HW1 9053   6.561   1.697   6.084
 2718SOL    HW2 9054   6.687   1.594   6.070
 2719SOL     OW 9055   0.910   4.874   3.276
 2719SOL    HW1 9056   0.847   4.817   3.223
 2719SOL    HW2 9057   0.870   4.895   3.365
 2720SOL     OW 9058   1.943   4.963   6.282
 2720SOL    HW1 9059   1.916   4.900   6.354
 2720SOL    HW2 9060   1.865   5.019   6.255
 2721SOL     OW 9061   2.218   6.484   3.520
 2721SOL    HW1 9062   2.192   6.520   3.430
 2721SOL    HW2 9063   2.291   6.417   3.509
 2722SOL     OW 9064   3.427   4.123   6.457
 2722SOL    HW1 9065   3.371   4.048   6.422
 2722SOL    HW2 9066   3.368   4.198   6.484
 2723SOL     OW 9067   4.127   5.619   6.940
 2723SOL    HW1 9068   4.133   5.626   6.840
 2723SOL    HW2 9069   4.032   5.612   6.967
 2724SOL     OW 9070   6.726   5.590   0.855
 2724SOL    HW1 9071   6.678   5.557   0.774
 2724SOL    HW2 9072   6.802   5.648   0.828
 2725SOL     OW 9073   6.224   4.864   3.265
 2725SOL    HW1 9074   6.205   4.931   3.193
 2725SOL    HW2 9075   6.193   4.773   3.236
 2726SOL     OW 9076   6.229   2.296   2.991
 2726SOL    HW1 9077   6.223   2.392   3.019
 2726SOL    HW2 9078   6.273   2.290   2.902
 2727SOL     OW 9079   1.533   5.117   3.873
 2727SOL    HW1 9080   1.499   5.055   3.802
 2727SOL    HW2 9081   1.588   5.189   3.831
 2728SOL     OW 9082   5.224   5.309   5.880
 2728SOL    HW1 9083   5.200   5.275   5.971
 2728SOL    HW2 9084   5.146   5.300   5.819
 2729SOL     OW 9085   0.003   7.005   6.999
 2729SOL    HW1 9086   0.095   7.009   0.020
 2729SOL    HW2 9087   6.984   0.078   6.997
 2730SOL     OW 9088   1.455   5.583   3.009
 2730SOL    HW1 9089   1.534   5.632   3.045
 2730SOL    HW2 9090   1.428   5.622   2.921
 2731SOL     OW 9091   3.841   3.934   5.029
 2731SOL    HW1 9092   3.786   4.017   5.020
 2731SOL    HW2 9093   3.835   3.881   4.945
 2732SOL     OW 9094   4.770   0.767   1.645
 2732SOL    HW1 9095   4.684   0.724   1.615
 2732SOL    HW2 9096   4.840   0.697   1.656
 2733SOL     OW 9097   0.946   0.505   0.547
 2733SOL    HW1 9098   0.896   0.512   0.633
 2733SOL    HW2 9099   0.898   0.556   0.476
 2734SOL     OW 9100   3.295   0.321   2.009
 2734SOL    HW1 9101   3.395   0.318   2.016
 2734SOL    HW2 9102   3.263   0.250   1.947
 2735SOL     OW 9103   1.301   2.573   2.850
 2735SOL    HW1 9104   1.347   2.661   2.840
 2735SOL    HW2 9105   1.298   2.548   2.947
 2736SOL     OW 9106   5.669   4.720   2.865
 2736SOL    HW1 9107   5.688   4.694   2.959
 2736SOL    HW2 9108   5.593   4.785   2.863
 2737SOL     OW 9109   2.988   0.502   5.998
 2737SOL    HW1 9110   3.026   0.548   5.918
 2737SOL    HW2 9111   2.980   0.404   5.979
 2738SOL     OW 9112   5.199   6.184   1.026
 2738SOL    HW1 9113   5.114   6.202   0.976
 2738SOL    HW2 9114   5.225   6.089   1.012
 2739SOL     OW 9115   0.775   5.058   1.867
 2739SOL    HW1 9116   0.770   4.963   1.896
 2739SOL    HW2 9117   0.733   5.067   1.776
 2740SOL     OW 9118   6.748   5.366   4.677
 2740SOL    HW1 9119   6.777   5.458   4.702
 2740SOL    HW2 9120   6.789   5.299   4.739
 2741SOL     OW 9121   0.900   6.977   6.585
 2741SOL    HW1 9122   0.941   6.943   6.501
 2741SOL    HW2 9123   0.969   0.004   6.640
 2742SOL     OW 9124   2.915   4.944   2.543
 2742SOL    HW1 9125   2.893   4.871   2.478
 2742SOL    HW2 9126   2.886   5.032   2.505
 2743SOL     OW 9127   5.807   1.973   2.693
 2743SOL    HW1 9128   5.879   1.903   2.702
 2743SOL    HW2 9129   5.719   1.928   2.677
 2744SOL     OW 9130   3.112   4.018   2.514
 2744SOL    HW1 9131   3.127   3.958   2.436
 2744SOL    HW2 9132   3.039   4.083   2.493
 2745SOL     OW 9133   0.567   6.114   0.171
 2745SOL    HW1 9134   0.509   6.071   0.240
 2745SOL    HW2 9135   0.510   6.143   0.093
 2746SOL     OW 9136   1.330   0.806   4.670
 2746SOL    HW1 9137   1.243   0.771   4.705
 2746SOL    HW2 9138   1.405   0.747   4.703
 2747SOL     OW 9139   4.615   4.803   0.414
 2747SOL    HW1 9140   4.698   4.842   0.374
 2747SOL    HW2 9141   4.585   4.724   0.360
 2748SOL     OW 9142   4.029   0.519   0.747
 2748SOL    HW1 9143   4.038   0.449   0.677
 2748SOL    HW2 9144   4.006   0.607   0.705
 2749SOL     OW 9145   3.568   1.202   0.341
 2749SOL    HW1 9146   3.596   1.111   0.310
 2749SOL    HW2 9147   3.644   1.245   0.390
 2750SOL     OW 9148   2.441   6.034   2.574
 2750SOL    HW1 9149   2.452   5.998   2.667
 2750SOL    HW2 9150   2.529   6.030   2.526
 2751SOL     OW 9151   6.490   4.922   1.199
 2751SOL    HW1 9152   6.425   4.973   1.255
 2751SOL    HW2 9153   6.527   4.983   1.128
 2752SOL     OW 9154   4.253   5.224   6.227
 2752SOL    HW1 9155   4.319   5.186   6.163
 2752SOL    HW2 9156   4.253   5.170   6.312
 2753SOL     OW 9157   5.327   4.865   5.701
 2753SOL    HW1 9158   5.308   4.917   5.618
 2753SOL    HW2 9159   5.353   4.928   5.774
 2754SOL     OW 9160   1.499   0.626   4.780
 2754SOL    HW1 9161   1.566   0.654   4.849
 2754SOL    HW2 9162   1.416   0.594   4.825
 2755SOL     OW 9163   2.929   0.192   2.140
 2755SOL    HW1 9164   2.994   0.261   2.171
 2755SOL    HW2 9165   2.903   0.133   2.216
 2756SOL     OW 9166   4.579   5.775   6.850
 2756SOL    HW1 9167   4.520   5.702   6.884
 2756SOL    HW2 9168   4.540   5.864   6.872
 2757SOL     OW 9169   0.733   4.720   0.670
 2757SOL    HW1 9170   0.699   4.649   0.732
 2757SOL    HW2 9171   0.740   4.683   0.577
 2758SOL     OW 9172   4.256   0.484   5.552
 2758SOL    HW1 9173   4.167   0.451   5.522
 2758SOL    HW2 9174   4.247   0.526   5.642
 2759SOL     OW 9175   4.783   5.266   3.966
 2759SOL    HW1 9176   4.816   5.226   4.051
 2759SOL    HW2 9177   4.700   5.219   3.937
 2760SOL     OW 9178   1.164   6.122   3.338
 2760SOL    HW1 9179   1.241   6.177   3.305
 2760SOL    HW2 9180   1.100   6.181   3.388
 2761SOL     OW 9181   2.167   5.068   4.561
 2761SOL    HW1 9182   2.195   5.163   4.574
 2761SOL    HW2 9183   2.071   5.065   4.533
 2762SOL     OW 9184   1.594   1.284   5.588
 2762SOL    HW1 9185   1.658   1.322   5.654
 2762SOL    HW2 9186   1.637   1.278   5.498
 2763SOL     OW 9187   5.528   0.624   2.254
 2763SOL    HW1 9188   5.511   0.651   2.159
 2763SOL    HW2 9189   5.617   0.659   2.283
 2764SOL     OW 9190   6.392   0.891   2.045
 2764SOL    HW1 9191   6.469   0.942   2.006
 2764SOL    HW2 9192   6.374   0.925   2.137
 2765SOL     OW 9193   5.429   2.023   2.771
 2765SOL    HW1 9194   5.347   2.081   2.776
 2765SOL    HW2 9195   5.484   2.036   2.853
 2766SOL     OW 9196   5.418   6.819   2.279
 2766SOL    HW1 9197   5.463   6.850   2.363
 2766SOL    HW2 9198   5.355   6.745   2.300
 2767SOL     OW 9199   6.612   4.249   5.721
 2767SOL    HW1 9200   6.660   4.166   5.751
 2767SOL    HW2 9201   6.540   4.225   5.656
 2768SOL     OW 9202   5.765   1.129   6.433
 2768SOL    HW1 9203   5.740   1.044   6.479
 2768SOL    HW2 9204   5.864   1.132   6.420
 2769SOL     OW 9205   0.802   4.011   0.874
 2769SOL    HW1 9206   0.721   3.979   0.924
 2769SOL    HW2 9207   0.774   4.077   0.805
 2770SOL     OW 9208   4.856   5.940   2.333
 2770SOL    HW1 9209   4.947   5.905   2.355
 2770SOL    HW2 9210   4.787   5.875   2.366
 2771SOL     OW 9211   4.546   0.446   0.985
 2771SOL    HW1 9212   4.510   0.537   1.006
 2771SOL    HW2 9213   4.643   0.442   1.011
 2772SOL     OW 9214   3.657   1.577   6.713
 2772SOL    HW1 9215   3.603   1.617   6.639
 2772SOL    HW2 9216   3.612   1.594   6.801
 2773SOL     OW 9217   2.837   4.198   1.316
 2773SOL    HW1 9218   2.785   4.206   1.402
 2773SOL    HW2 9219   2.909   4.131   1.327
 2774SOL     OW 9220   5.122   3.283   2.019
 2774SOL    HW1 9221   5.085   3.340   2.092
 2774SOL    HW2 9222   5.047   3.249   1.962
 2775SOL     OW 9223   0.175   0.419   2.568
 2775SOL    HW1 9224   0.229   0.353   2.516
 2775SOL    HW2 9225   0.084   0.428   2.526
 2776SOL     OW 9226   2.736   6.464   0.183
 2776SOL    HW1 9227   2.690   6.383   0.146
 2776SOL    HW2 9228   2.682   6.545   0.162
 2777SOL     OW 9229   1.550   2.300   4.447
 2777SOL    HW1 9230   1.623   2.368   4.441
 2777SOL    HW2 9231   1.554   2.255   4.536
 2778SOL     OW 9232   2.713   2.322   5.106
 2778SOL    HW1 9233   2.778   2.371   5.163
 2778SOL    HW2 9234   2.658   2.388   5.053
 2779SOL     OW 9235   6.328   1.249   1.229
 2779SOL    HW1 9236   6.402   1.257   1.162
 2779SOL    HW2 9237   6.292   1.340   1.249
 2780SOL     OW 9238   3.493   6.187   0.212
 2780SOL    HW1 9239   3.426   6.164   0.283
 2780SOL    HW2 9240   3.495   6.115   0.143
 2781SOL     OW 9241   5.105   3.792   6.230
 2781SOL    HW1 9242   5.013   3.765   6.202
 2781SOL    HW2 9243   5.103   3.819   6.326
 2782SOL     OW 9244   3.766   1.185   5.791
 2782SOL    HW1 9245   3.709   1.170   5.710
 2782SOL    HW2 9246   3.717   1.246   5.854
 2783SOL     OW 9247   0.412   3.825   5.670
 2783SOL    HW1 9248   0.511   3.814   5.676
 2783SOL    HW2 9249   0.382   3.806   5.577
 2784SOL     OW 9250   2.639   2.233   1.428
 2784SOL    HW1 9251   2.679   2.284   1.504
 2784SOL    HW2 9252   2.559   2.282   1.393
 2785SOL     OW 9253   6.334   1.996   2.415
 2785SOL    HW1 9254   6.396   2.038   2.348
 2785SOL    HW2 9255   6.255   1.957   2.367
 2786SOL     OW 9256   3.788   0.460   0.422
 2786SOL    HW1 9257   3.759   0.365   0.421
 2786SOL    HW2 9258   3.792   0.495   0.328
 2787SOL     OW 9259   2.080   3.719   6.040
 2787SOL    HW1 9260   2.020   3.796   6.017
 2787SOL    HW2 9261   2.109   3.672   5.957
 2788SOL     OW 9262   0.568   3.507   0.184
 2788SOL    HW1 9263   0.610   3.467   0.265
 2788SOL    HW2 9264   0.528   3.596   0.208
 2789SOL     OW 9265   0.729   2.763   3.987
 2789SOL    HW1 9266   0.714   2.838   3.923
 2789SOL    HW2 9267   0.640   2.725   4.015
 2790SOL     OW 9268   3.639   6.199   3.973
 2790SOL    HW1 9269   3.726   6.158   3.946
 2790SOL    HW2 9270   3.581   6.211   3.892
 2791SOL     OW 9271   1.644   3.710   2.575
 2791SOL    HW1 9272   1.697   3.794   2.572
 2791SOL    HW2 9273   1.610   3.688   2.484
 2792SOL     OW 9274   0.640   2.235   5.250
 2792SOL    HW1 9275   0.735   2.208   5.262
 2792SOL    HW2 9276   0.580   2.161   5.283
 2793SOL     OW 9277   4.674   0.858   4.138
 2793SOL    HW1 9278   4.757   0.803   4.123
 2793SOL    HW2 9279   4.600   0.822   4.083
 2794SOL     OW 9280   0.651   1.540   1.810
 2794SOL    HW1 9281   0.714   1.611   1.839
 2794SOL    HW2 9282   0.657   1.462   1.873
 2795SOL     OW 9283   0.897   3.735   1.367
 2795SOL    HW1 9284   0.984   3.776   1.394
 2795SOL    HW2 9285   0.844   3.711   1.448
 2796SOL     OW 9286   4.659   4.659   2.513
 2796SOL    HW1 9287   4.621   4.614   2.594
 2796SOL    HW2 9288   4.626   4.753   2.508
 2797SOL     OW 9289   4.455   4.334   5.314
 2797SOL    HW1 9290   4.374   4.354   5.258
 2797SOL    HW2 9291   4.446   4.242   5.354
 2798SOL     OW 9292   1.668   4.078   3.433
 2798SOL    HW1 9293   1.729   4.140   3.482
 2798SOL    HW2 9294   1.573   4.098   3.459
 2799SOL     OW 9295   6.855   6.075   5.991
 2799SOL    HW1 9296   6.894   6.042   6.077
 2799SOL    HW2 9297   6.807   6.000   5.946
 2800SOL     OW 9298   2.577   0.929   6.509
 2800SOL    HW1 9299   2.541   0.879   6.587
 2800SOL    HW2 9300   2.616   0.864   6.443
 2801SOL     OW 9301   3.939   5.142   2.003
 2801SOL    HW1 9302   3.872   5.209   2.034
 2801SOL    HW2 9303   3.948   5.070   2.073
 2802SOL     OW 9304   6.736   0.569   6.147
 2802SOL    HW1 9305   6.676   0.509   6.200
 2802SOL    HW2 9306   6.701   0.578   6.054
 2803SOL     OW 9307   3.057   6.148   5.218
 2803SOL    HW1 9308   2.958   6.155   5.212
 2803SOL    HW2 9309   3.099   6.235   5.192
 2804SOL     OW 9310   0.428   4.762   2.284
 2804SOL    HW1 9311   0.394   4.816   2.207
 2804SOL    HW2 9312   0.454   4.671   2.253
 2805SOL     OW 9313   6.231   4.230   6.803
 2805SOL    HW1 9314   6.307   4.176   6.764
 2805SOL    HW2 9315   6.145   4.203   6.760
 2806SOL     OW 9316   6.636   5.730   2.361
 2806SOL    HW1 9317   6.650   5.748   2.263
 2806SOL    HW2 9318   6.719   5.753   2.411
 2807SOL     OW 9319   4.083   4.969   3.966
 2807SOL    HW1 9320   3.991   4.947   3.998
 2807SOL    HW2 9321   4.077   5.021   3.880
 2808SOL     OW 9322   4.498   6.079   4.627
 2808SOL    HW1 9323   4.509   6.176   4.606
 2808SOL    HW2 9324   4.513   6.064   4.725
 2809SOL     OW 9325   5.771   2.582   0.064
 2809SOL    HW1 9326   5.738   2.598   0.157
 2809SOL    HW2 9327   5.871   2.591   0.062
 2810SOL     OW 9328   1.647   0.998   6.497
 2810SOL    HW1 9329   1.622   0.925   6.560
 2810SOL    HW2 9330   1.566   1.032   6.450
 2811SOL     OW 9331   0.336   0.643   3.903
 2811SOL    HW1 9332   0.270   0.576   3.870
 2811SOL    HW2 9333   0.317   0.662   4.000
 2812SOL     OW 9334   5.034   4.666   2.714
 2812SOL    HW1 9335   5.040   4.587   2.776
 2812SOL    HW2 9336   5.084   4.646   2.630
 2813SOL     OW 9337   6.339   1.559   6.116
 2813SOL    HW1 9338   6.331   1.569   6.215
 2813SOL    HW2 9339   6.433   1.579   6.088
 2814SOL     OW 9340   5.516   4.330   4.990
 2814SOL    HW1 9341   5.451   4.395   5.028
 2814SOL    HW2 9342   5.468   4.263   4.934
 2815SOL     OW 9343   0.639   1.233   4.713
 2815SOL    HW1 9344   0.640   1.323   4.669
 2815SOL    HW2 9345   0.630   1.162   4.643
 2816SOL     OW 9346   4.966   6.635   3.097
 2816SOL    HW1 9347   4.875   6.597   3.081
 2816SOL    HW2 9348   4.976   6.656   3.195
 2817SOL     OW 9349   1.477   1.643   1.276
 2817SOL    HW1 9350   1.547   1.611   1.213
 2817SOL    HW2 9351   1.399   1.580   1.276
 2818SOL     OW 9352   1.459   2.803   0.043
 2818SOL    HW1 9353   1.514   2.752   6.996
 2818SOL    HW2 9354   1.369   2.760   0.052
 2819SOL     OW 9355   6.620   2.700   1.388
 2819SOL    HW1 9356   6.708   2.735   1.354
 2819SOL    HW2 9357   6.580   2.768   1.450
 2820SOL     OW 9358   5.041   2.432   3.925
 2820SOL    HW1 9359   5.038   2.364   3.852
 2820SOL    HW2 9360   5.082   2.393   4.007
 2821SOL     OW 9361   1.552   3.254   3.233
 2821SOL    HW1 9362   1.507   3.165   3.242
 2821SOL    HW2 9363   1.641   3.243   3.189
 2822SOL     OW 9364   3.009   1.730   0.627
 2822SOL    HW1 9365   3.080   1.690   0.685
 2822SOL    HW2 9366   2.924   1.680   0.639
 2823SOL     OW 9367   1.574   0.005   4.133
 2823SOL    HW1 9368   1.627   0.046   4.059
 2823SOL    HW2 9369   1.635   6.978   4.197
 2824SOL     OW 9370   3.204   1.909   5.372
 2824SOL    HW1 9371   3.205   1.874   5.466
 2824SOL    HW2 9372   3.121   1.963   5.358
 2825SOL     OW 9373   6.218   6.238   0.655
 2825SOL    HW1 9374   6.235   6.140   0.648
 2825SOL    HW2 9375   6.172   6.271   0.572
 2826SOL     OW 9376   4.931   3.620   4.141
 2826SOL    HW1 9377   5.014   3.565   4.140
 2826SOL    HW2 9378   4.869   3.589   4.069
 2827SOL     OW 9379   7.014   0.246   6.376
 2827SOL    HW1 9380   0.024   0.178   6.309
 2827SOL    HW2 9381   6.970   0.323   6.330
 2828SOL     OW 9382   3.737   1.989   6.469
 2828SOL    HW1 9383   3.724   2.085   6.494
 2828SOL    HW2 9384   3.715   1.976   6.372
 2829SOL     OW 9385   2.840   0.425   6.672
 2829SOL    HW1 9386   2.839   0.384   6.763
 2829SOL    HW2 9387   2.788   0.510   6.673
 2830SOL     OW 9388   3.167   3.724   6.761
 2830SOL    HW1 9389   3.094   3.738   6.827
 2830SOL    HW2 9390   3.130   3.730   6.669
 2831SOL     OW 9391   6.547   6.580   4.028
 2831SOL    HW1 9392   6.615   6.643   3.991
 2831SOL    HW2 9393   6.464   6.630   4.052
 2832SOL     OW 9394   0.277   0.837   2.052
 2832SOL    HW1 9395   0.216   0.785   2.112
 2832SOL    HW2 9396   0.371   0.804   2.063
 2833SOL     OW 9397   6.504   3.310   2.131
 2833SOL    HW1 9398   6.416   3.357   2.139
 2833SOL    HW2 9399   6.523   3.260   2.216
 2834SOL     OW 9400   4.259   0.825   5.381
 2834SOL    HW1 9401   4.177   0.768   5.370
 2834SOL    HW2 9402   4.241   0.895   5.450
 2835SOL     OW 9403   6.285   6.719   3.643
 2835SOL    HW1 9404   6.320   6.627   3.626
 2835SOL    HW2 9405   6.302   6.776   3.563
 2836SOL     OW 9406   6.361   0.570   0.886
 2836SOL    HW1 9407   6.288   0.612   0.940
 2836SOL    HW2 9408   6.320   0.512   0.815
 2837SOL     OW 9409   5.860   3.173   3.301
 2837SOL    HW1 9410   5.807   3.107   3.247
 2837SOL    HW2 9411   5.951   3.183   3.260
 2838SOL     OW 9412   1.713   4.509   4.434
 2838SOL    HW1 9413   1.690   4.559   4.517
 2838SOL    HW2 9414   1.637   4.449   4.409
 2839SOL     OW 9415   4.671   3.100   0.535
 2839SOL    HW1 9416   4.709   3.145   0.455
 2839SOL    HW2 9417   4.666   3.165   0.611
 2840SOL     OW 9418   6.640   2.749   5.037
 2840SOL    HW1 9419   6.578   2.673   5.054
 2840SOL    HW2 9420   6.595   2.818   4.981
 2841SOL     OW 9421   0.368   6.110   0.647
 2841SOL    HW1 9422   0.330   6.028   0.602
 2841SOL    HW2 9423   0.340   6.111   0.743
 2842SOL     OW 9424   5.819   3.610   3.223
 2842SOL    HW1 9425   5.887   3.670   3.264
 2842SOL    HW2 9426   5.756   3.664   3.168
 2843SOL     OW 9427   3.957   1.097   3.938
 2843SOL    HW1 9428   3.945   1.157   3.859
 2843SOL    HW2 9429   3.904   1.013   3.924
 2844SOL     OW 9430   1.341   4.165   5.379
 2844SOL    HW1 9431   1.333   4.088   5.443
 2844SOL    HW2 9432   1.304   4.247   5.421
 2845SOL     OW 9433   0.012   3.709   5.845
 2845SOL    HW1 9434   0.077   3.633   5.836
 2845SOL    HW2 9435   6.976   3.715   5.762
 2846SOL     OW 9436   5.630   1.101   5.818
 2846SOL    HW1 9437   5.633   1.028   5.751
 2846SOL    HW2 9438   5.537   1.112   5.852
 2847SOL     OW 9439   4.249   4.987   4.331
 2847SOL    HW1 9440   4.337   5.017   4.295
 2847SOL    HW2 9441   4.219   4.906   4.280
 2848SOL     OW 9442   2.000   6.807   5.323
 2848SOL    HW1 9443   1.993   6.880   5.391
 2848SOL    HW2 9444   2.096   6.789   5.302
 2849SOL     OW 9445   2.127   3.078   1.771
 2849SOL    HW1 9446   2.103   3.098   1.866
 2849SOL    HW2 9447   2.053   3.024   1.729
 2850SOL     OW 9448   4.224   1.412   0.749
 2850SOL    HW1 9449   4.259   1.318   0.747
 2850SOL    HW2 9450   4.142   1.415   0.805
 2851SOL     OW 9451   2.789   5.604   5.806
 2851SOL    HW1 9452   2.781   5.646   5.896
 2851SOL    HW2 9453   2.762   5.670   5.736
 2852SOL     OW 9454   0.890   2.419   6.774
 2852SOL    HW1 9455   0.806   2.411   6.720
 2852SOL    HW2 9456   0.897   2.342   6.838
 2853SOL     OW 9457   3.589   2.600   1.498
 2853SOL    HW1 9458   3.673   2.586   1.445
 2853SOL    HW2 9459   3.612   2.599   1.596
 2854SOL     OW 9460   0.400   0.702   3.527
 2854SOL    HW1 9461   0.442   0.671   3.612
 2854SOL    HW2 9462   0.353   0.626   3.483
 2855SOL     OW 9463   3.353   1.494   4.439
 2855SOL    HW1 9464   3.423   1.430   4.471
 2855SOL    HW2 9465   3.283   1.505   4.510
 2856SOL     OW 9466   2.558   1.389   5.562
 2856SOL    HW1 9467   2.510   1.396   5.650
 2856SOL    HW2 9468   2.507   1.438   5.492
 2857SOL     OW 9469   3.180   3.397   3.705
 2857SOL    HW1 9470   3.230   3.353   3.631
 2857SOL    HW2 9471   3.097   3.344   3.725
 2858SOL     OW 9472   5.436   2.762   3.199
 2858SOL    HW1 9473   5.476   2.680   3.159
 2858SOL    HW2 9474   5.415   2.829   3.127
 2859SOL     OW 9475   5.670   5.836   0.032
 2859SOL    HW1 9476   5.679   5.839   0.132
 2859SOL    HW2 9477   5.703   5.748   7.018
 2860SOL     OW 9478   4.080   2.301   0.847
 2860SOL    HW1 9479   4.089   2.323   0.944
 2860SOL    HW2 9480   4.158   2.340   0.797
 2861SOL     OW 9481   4.118   4.877   6.124
 2861SOL    HW1 9482   4.204   4.927   6.118
 2861SOL    HW2 9483   4.048   4.936   6.165
 2862SOL     OW 9484   6.508   0.104   3.617
 2862SOL    HW1 9485   6.426   0.159   3.634
 2862SOL    HW2 9486   6.588   0.163   3.622
 2863SOL     OW 9487   6.470   0.372   6.563
 2863SOL    HW1 9488   6.459   0.467   6.534
 2863SOL    HW2 9489   6.388   0.343   6.613
 2864SOL     OW 9490   3.690   2.044   0.791
 2864SOL    HW1 9491   3.722   2.133   0.821
 2864SOL    HW2 9492   3.677   2.045   0.692
 2865SOL     OW 9493   4.663   5.194   4.923
 2865SOL    HW1 9494   4.651   5.101   4.958
 2865SOL    HW2 9495   4.707   5.190   4.833
 2866SOL     OW 9496   0.672   6.797   6.272
 2866SOL    HW1 9497   0.585   6.832   6.307
 2866SOL    HW2 9498   0.748   6.840   6.320
 2867SOL     OW 9499   6.943   4.393   3.879
 2867SOL    HW1 9500   6.881   4.434   3.946
 2867SOL    HW2 9501   6.993   4.465   3.832
 2868SOL     OW 9502   1.855   4.690   4.843
 2868SOL    HW1 9503   1.848   4.719   4.748
 2868SOL    HW2 9504   1.811   4.601   4.854
 2869SOL     OW 9505   6.192   1.530   2.185
 2869SOL    HW1 9506   6.267   1.463   2.192
 2869SOL    HW2 9507   6.158   1.553   2.276
 2870SOL     OW 9508   4.132   2.097   2.366
 2870SOL    HW1 9509   4.155   2.002   2.345
 2870SOL    HW2 9510   4.139   2.153   2.283
 2871SOL     OW 9511   1.326   1.480   5.972
 2871SOL    HW1 9512   1.316   1.511   5.877
 2871SOL    HW2 9513   1.249   1.512   6.026
 2872SOL     OW 9514   2.016   0.607   3.820
 2872SOL    HW1 9515   2.033   0.702   3.793
 2872SOL    HW2 9516   2.023   0.548   3.740
 2873SOL     OW 9517   6.511   5.633   1.780
 2873SOL    HW1 9518   6.454   5.551   1.780
 2873SOL    HW2 9519   6.453   5.714   1.784
 2874SOL     OW 9520   5.522   2.243   2.085
 2874SOL    HW1 9521   5.619   2.253   2.065
 2874SOL    HW2 9522   5.470   2.310   2.032
 2875SOL     OW 9523   3.039   4.949   0.953
 2875SOL    HW1 9524   2.987   4.918   1.032
 2875SOL    HW2 9525   3.014   4.894   0.873
 2876SOL     OW 9526   6.157   2.382   2.013
 2876SOL    HW1 9527   6.154   2.408   2.109
 2876SOL    HW2 9528   6.235   2.321   1.997
 2877SOL     OW 9529   1.894   3.444   5.376
 2877SOL    HW1 9530   1.808   3.405   5.408
 2877SOL    HW2 9531   1.965   3.431   5.446
 2878SOL     OW 9532   3.954   5.006   0.445
 2878SOL    HW1 9533   3.938   4.980   0.541
 2878SOL    HW2 9534   3.877   4.976   0.389
 2879SOL     OW 9535   4.817   4.196   6.587
 2879SOL    HW1 9536   4.788   4.256   6.662
 2879SOL    HW2 9537   4.767   4.220   6.504
 2880SOL     OW 9538   1.852   6.603   3.004
 2880SOL    HW1 9539   1.851   6.549   3.088
 2880SOL    HW2 9540   1.839   6.542   2.925
 2881SOL     OW 9541   0.087   0.375   6.855
 2881SOL    HW1 9542   0.139   0.300   6.815
 2881SOL    HW2 9543   0.003   0.340   6.896
 2882SOL     OW 9544   6.862   3.382   3.306
 2882SOL    HW1 9545   6.902   3.329   3.231
 2882SOL    HW2 9546   6.802   3.323   3.360
 2883SOL     OW 9547   4.146   5.733   2.080
 2883SOL    HW1 9548   4.146   5.714   2.178
 2883SOL    HW2 9549   4.226   5.788   2.057
 2884SOL     OW 9550   2.003   5.460   3.188
 2884SOL    HW1 9551   2.038   5.370   3.215
 2884SOL    HW2 9552   1.916   5.449   3.140
 2885SOL     OW 9553   0.799   2.279   4.312
 2885SOL    HW1 9554   0.842   2.325   4.390
 2885SOL    HW2 9555   0.700   2.292   4.317
 2886SOL     OW 9556   2.812   2.928   6.308
 2886SOL    HW1 9557   2.837   2.973   6.222
 2886SOL    HW2 9558   2.894   2.910   6.362
 2887SOL     OW 9559   2.699   1.578   4.993
 2887SOL    HW1 9560   2.795   1.561   5.016
 2887SOL    HW2 9561   2.686   1.674   4.970
 2888SOL     OW 9562   6.948   5.218   6.995
 2888SOL    HW1 9563   6.995   5.231   6.908
 2888SOL    HW2 9564   6.863   5.167   6.979
 2889SOL     OW 9565   1.305   0.555   0.696
 2889SOL    HW1 9566   1.264   0.641   0.727
 2889SOL    HW2 9567   1.387   0.536   0.750
 2890SOL     OW 9568   2.974   0.637   0.734
 2890SOL    HW1 9569   2.879   0.666   0.746
 2890SOL    HW2 9570   2.979   0.537   0.736
 2891SOL     OW 9571   3.027   4.907   4.988
 2891SOL    HW1 9572   2.976   4.943   4.909
 2891SOL    HW2 9573   2.978   4.829   5.026
 2892SOL     OW 9574   4.106   4.271   5.291
 2892SOL    HW1 9575   4.150   4.344   5.239
 2892SOL    HW2 9576   4.069   4.202   5.229
 2893SOL     OW 9577   3.335   0.702   5.929
 2893SOL    HW1 9578   3.323   0.783   5.986
 2893SOL    HW2 9579   3.432   0.683   5.917
 2894SOL     OW 9580   4.403   2.954   1.481
 2894SOL    HW1 9581   4.393   3.026   1.549
 2894SOL    HW2 9582   4.392   2.865   1.525
 2895SOL     OW 9583   3.688   3.236   0.250
 2895SOL    HW1 9584   3.633   3.191   0.179
 2895SOL    HW2 9585   3.641   3.228   0.338
 2896SOL     OW 9586   1.536   4.706   0.077
 2896SOL    HW1 9587   1.501   4.739   7.009
 2896SOL    HW2 9588   1.491   4.620   0.101
 2897SOL     OW 9589   1.252   6.705   3.858
 2897SOL    HW1 9590   1.245   6.692   3.760
 2897SOL    HW2 9591   1.174   6.662   3.904
 2898SOL     OW 9592   2.062   5.329   2.762
 2898SOL    HW1 9593   2.154   5.295   2.780
 2898SOL    HW2 9594   1.999   5.251   2.753
 2899SOL     OW 9595   5.740   0.867   0.730
 2899SOL    HW1 9596   5.752   0.938   0.799
 2899SOL    HW2 9597   5.801   0.790   0.750
 2900SOL     OW 9598   3.192   5.318   6.325
 2900SOL    HW1 9599   3.236   5.408   6.330
 2900SOL    HW2 9600   3.140   5.302   6.409
 2901SOL     OW 9601   2.544   6.740   1.262
 2901SOL    HW1 9602   2.503   6.680   1.194
 2901SOL    HW2 9603   2.472   6.788   1.313
 2902SOL     OW 9604   4.843   5.216   0.663
 2902SOL    HW1 9605   4.780   5.236   0.588
 2902SOL    HW2 9606   4.794   5.222   0.750
 2903SOL     OW 9607   2.850   2.668   1.709
 2903SOL    HW1 9608   2.935   2.704   1.671
 2903SOL    HW2 9609   2.871   2.591   1.770
 2904SOL     OW 9610   2.509   2.611   4.501
 2904SOL    HW1 9611   2.589   2.552   4.491
 2904SOL    HW2 9612   2.502   2.672   4.423
 2905SOL     OW 9613   1.198   1.639   2.241
 2905SOL    HW1 9614   1.160   1.686   2.321
 2905SOL    HW2 9615   1.205   1.541   2.260
 2906SOL     OW 9616   5.307   5.343   2.378
 2906SOL    HW1 9617   5.220   5.295   2.389
 2906SOL    HW2 9618   5.382   5.281   2.403
 2907SOL     OW 9619   5.982   0.568   4.711
 2907SOL    HW1 9620   5.935   0.610   4.788
 2907SOL    HW2 9621   5.930   0.489   4.680
 2908SOL     OW 9622   3.348   5.793   5.011
 2908SOL    HW1 9623   3.358   5.708   5.062
 2908SOL    HW2 9624   3.429   5.806   4.953
 2909SOL     OW 9625   2.141   6.272   5.971
 2909SOL    HW1 9626   2.195   6.250   6.053
 2909SOL    HW2 9627   2.190   6.240   5.890
 2910SOL     OW 9628   4.641   6.096   5.555
 2910SOL    HW1 9629   4.548   6.133   5.552
 2910SOL    HW2 9630   4.683   6.104   5.464
 2911SOL     OW 9631   2.532   4.550   3.552
 2911SOL    HW1 9632   2.584   4.632   3.528
 2911SOL    HW2 9633   2.434   4.569   3.543
 2912SOL     OW 9634   2.743   5.124   1.339
 2912SOL    HW1 9635   2.675   5.060   1.375
 2912SOL    HW2 9636   2.817   5.135   1.406
 2913SOL     OW 9637   0.929   3.076   2.253
 2913SOL    HW1 9638   0.975   3.034   2.175
 2913SOL    HW2 9639   0.834   3.044   2.256
 2914SOL     OW 9640   5.390   4.602   5.721
 2914SOL    HW1 9641   5.377   4.569   5.815
 2914SOL    HW2 9642   5.371   4.700   5.718
 2915SOL     OW 9643   4.434   1.702   3.528
 2915SOL    HW1 9644   4.387   1.768   3.587
 2915SOL    HW2 9645   4.394   1.611   3.540
 2916SOL     OW 9646   4.706   6.866   4.705
 2916SOL    HW1 9647   4.784   6.915   4.667
 2916SOL    HW2 9648   4.738   6.782   4.749
 2917SOL     OW 9649   3.887   0.531   2.468
 2917SOL    HW1 9650   3.798   0.525   2.513
 2917SOL    HW2 9651   3.958   0.498   2.530
 2918SOL     OW 9652   1.225   2.642   4.607
 2918SOL    HW1 9653   1.147   2.692   4.568
 2918SOL    HW2 9654   1.193   2.583   4.681
 2919SOL     OW 9655   6.430   5.726   0.620
 2919SOL    HW1 9656   6.371   5.706   0.542
 2919SOL    HW2 9657   6.517   5.678   0.609
 2920SOL     OW 9658   4.308   1.775   2.576
 2920SOL    HW1 9659   4.338   1.684   2.606
 2920SOL    HW2 9660   4.331   1.842   2.647
 2921SOL     OW 9661   6.946   1.259   1.051
 2921SOL    HW1 9662   6.895   1.173   1.055
 2921SOL    HW2 9663   0.001   1.250   0.984
 2922SOL     OW 9664   4.018   6.823   5.013
 2922SOL    HW1 9665   4.103   6.771   5.022
 2922SOL    HW2 9666   4.037   6.911   4.969
 2923SOL     OW 9667   6.916   4.658   6.792
 2923SOL    HW1 9668   6.916   4.562   6.762
 2923SOL    HW2 9669   6.999   4.703   6.759
 2924SOL     OW 9670   6.638   6.808   5.873
 2924SOL    HW1 9671   6.550   6.852   5.856
 2924SOL    HW2 9672   6.684   6.790   5.787
 2925SOL     OW 9673   5.695   3.672   0.811
 2925SOL    HW1 9674   5.654   3.607   0.875
 2925SOL    HW2 9675   5.755   3.734   0.861
 2926SOL     OW 9676   0.325   1.175   3.741
 2926SOL    HW1 9677   0.266   1.124   3.803
 2926SOL    HW2 9678   0.420   1.145   3.752
 2927SOL     OW 9679   0.377   3.203   2.766
 2927SOL    HW1 9680   0.338   3.294   2.776
 2927SOL    HW2 9681   0.438   3.185   2.843
 2928SOL     OW 9682   5.661   5.833   0.309
 2928SOL    HW1 9683   5.730   5.792   0.368
 2928SOL    HW2 9684   5.613   5.905   0.359
 2929SOL     OW 9685   0.932   0.157   5.581
 2929SOL    HW1 9686   0.962   0.096   5.654
 2929SOL    HW2 9687   1.012   0.200   5.538
 2930SOL     OW 9688   2.944   6.967   4.259
 2930SOL    HW1 9689   2.863   6.998   4.309
 2930SOL    HW2 9690   2.937   6.869   4.242
 2931SOL     OW 9691   3.972   5.069   6.529
 2931SOL    HW1 9692   4.066   5.101   6.530
 2931SOL    HW2 9693   3.948   5.033   6.620
 2932SOL     OW 9694   1.754   4.522   1.898
 2932SOL    HW1 9695   1.727   4.431   1.868
 2932SOL    HW2 9696   1.738   4.531   1.996
 2933SOL     OW 9697   5.163   2.245   3.519
 2933SOL    HW1 9698   5.222   2.167   3.535
 2933SOL    HW2 9699   5.212   2.315   3.467
 2934SOL     OW 9700   2.198   1.146   0.642
 2934SOL    HW1 9701   2.110   1.191   0.626
 2934SOL    HW2 9702   2.220   1.150   0.739
 2935SOL     OW 9703   6.969   1.585   1.001
 2935SOL    HW1 9704   6.901   1.658   0.997
 2935SOL    HW2 9705   6.957   1.533   1.085
 2936SOL     OW 9706   3.205   5.344   0.255
 2936SOL    HW1 9707   3.298   5.343   0.216
 2936SOL    HW2 9708   3.182   5.437   0.283
 2937SOL     OW 9709   2.729   4.437   6.991
 2937SOL    HW1 9710   2.818   4.481   7.002
 2937SOL    HW2 9711   2.656   4.504   7.007
 2938SOL     OW 9712   5.006   4.578   5.806
 2938SOL    HW1 9713   4.998   4.667   5.761
 2938SOL    HW2 9714   4.954   4.510   5.755
 2939SOL     OW 9715   0.397   6.603   6.017
 2939SOL    HW1 9716   0.437   6.559   5.936
 2939SOL    HW2 9717   0.309   6.644   5.993
 2940SOL     OW 9718   3.752   0.153   5.499
 2940SOL    HW1 9719   3.844   0.121   5.522
 2940SOL    HW2 9720   3.745   0.251   5.517
 2941SOL     OW 9721   3.621   1.802   4.824
 2941SOL    HW1 9722   3.595   1.736   4.895
 2941SOL    HW2 9723   3.659   1.754   4.745
 2942SOL     OW 9724   3.920   6.390   4.571
 2942SOL    HW1 9725   3.952   6.370   4.479
 2942SOL    HW2 9726   3.832   6.437   4.567
 2943SOL     OW 9727   5.716   4.629   3.140
 2943SOL    HW1 9728   5.790   4.669   3.193
 2943SOL    HW2 9729   5.638   4.610   3.199
 2944SOL     OW 9730   4.666   6.068   0.002
 2944SOL    HW1 9731   4.705   6.042   0.090
 2944SOL    HW2 9732   4.574   6.031   7.013
 2945SOL     OW 9733   3.294   4.159   4.264
 2945SOL    HW1 9734   3.257   4.251   4.281
 2945SOL    HW2 9735   3.237   4.112   4.197
 2946SOL     OW 9736   0.747   6.107   6.177
 2946SOL    HW1 9737   0.834   6.123   6.223
 2946SOL    HW2 9738   0.732   6.176   6.107
 2947SOL     OW 9739   0.046   5.466   0.110
 2947SOL    HW1 9740   6.988   5.529   0.116
 2947SOL    HW2 9741   0.019   5.387   0.054
 2948SOL     OW 9742   5.790   3.726   5.662
 2948SOL    HW1 9743   5.851   3.653   5.695
 2948SOL    HW2 9744   5.701   3.717   5.706
 2949SOL     OW 9745   0.624   6.199   0.687
 2949SOL    HW1 9746   0.636   6.296   0.709
 2949SOL    HW2 9747   0.527   6.178   0.680
 2950SOL     OW 9748   5.067   3.440   4.506
 2950SOL    HW1 9749   5.151   3.408   4.464
 2950SOL    HW2 9750   5.088   3.508   4.576
 2951SOL     OW 9751   5.847   0.456   0.789
 2951SOL    HW1 9752   5.875   0.362   0.770
 2951SOL    HW2 9753   5.814   0.498   0.705
 2952SOL     OW 9754   0.757   3.622   1.626
 2952SOL    HW1 9755   0.833   3.556   1.622
 2952SOL    HW2 9756   0.772   3.685   1.702
 2953SOL     OW 9757   6.069   1.882   2.317
 2953SOL    HW1 9758   5.983   1.851   2.359
 2953SOL    HW2 9759   6.072   1.852   2.222
 2954SOL     OW 9760   5.120   5.996   1.556
 2954SOL    HW1 9761   5.085   6.034   1.470
 2954SOL    HW2 9762   5.090   5.900   1.564
 2955SOL     OW 9763   6.167   2.543   1.050
 2955SOL    HW1 9764   6.220   2.459   1.043
 2955SOL    HW2 9765   6.229   2.622   1.058
 2956SOL     OW 9766   6.341   6.048   3.329
 2956SOL    HW1 9767   6.308   6.140   3.352
 2956SOL    HW2 9768   6.439   6.042   3.352
 2957SOL     OW 9769   1.636   4.536   1.376
 2957SOL    HW1 9770   1.542   4.543   1.411
 2957SOL    HW2 9771   1.700   4.535   1.453
 2958SOL     OW 9772   2.752   5.478   6.296
 2958SOL    HW1 9773   2.724   5.434   6.382
 2958SOL    HW2 9774   2.820   5.421   6.250
 2959SOL     OW 9775   3.655   5.618   0.043
 2959SOL    HW1 9776   3.688   5.712   0.058
 2959SOL    HW2 9777   3.733   5.558   0.027
 2960SOL     OW 9778   3.009   1.775   6.853
 2960SOL    HW1 9779   3.077   1.742   6.919
 2960SOL    HW2 9780   3.042   1.861   6.813
 2961SOL     OW 9781   5.926   1.558   4.206
 2961SOL    HW1 9782   6.003   1.536   4.266
 2961SOL    HW2 9783   5.840   1.546   4.255
 2962SOL     OW 9784   4.231   0.500   3.050
 2962SOL    HW1 9785   4.261   0.588   3.014
 2962SOL    HW2 9786   4.245   0.429   2.981
 2963SOL     OW 9787   1.948   3.588   4.835
 2963SOL    HW1 9788   2.030   3.645   4.828
 2963SOL    HW2 9789   1.877   3.637   4.885
 2964SOL     OW 9790   2.782   6.075   0.448
 2964SOL    HW1 9791   2.756   6.029   0.533
 2964SOL    HW2 9792   2.880   6.066   0.433
 2965SOL     OW 9793   0.636   2.601   6.103
 2965SOL    HW1 9794   0.561   2.614   6.168
 2965SOL    HW2 9795   0.698   2.531   6.138
 2966SOL     OW 9796   5.091   4.879   3.506
 2966SOL    HW1 9797   5.115   4.949   3.439
 2966SOL    HW2 9798   5.025   4.815   3.465
 2967SOL     OW 9799   5.475   2.456   3.989
 2967SOL    HW1 9800   5.560   2.419   3.949
 2967SOL    HW2 9801   5.452   2.404   4.071
 2968SOL     OW 9802   6.499   3.657   3.331
 2968SOL    HW1 9803   6.580   3.647   3.388
 2968SOL    HW2 9804   6.508   3.600   3.250
 2969SOL     OW 9805   3.699   1.654   4.562
 2969SOL    HW1 9806   3.619   1.594   4.563
 2969SOL    HW2 9807   3.778   1.605   4.597
 2970SOL     OW 9808   1.151   4.142   6.015
 2970SOL    HW1 9809   1.198   4.195   6.085
 2970SOL    HW2 9810   1.062   4.184   5.996
 2971SOL     OW 9811   5.350   3.687   2.664
 2971SOL    HW1 9812   5.319   3.731   2.748
 2971SOL    HW2 9813   5.274   3.683   2.598
 2972SOL     OW 9814   1.068   4.544   4.908
 2972SOL    HW1 9815   1.016   4.554   4.823
 2972SOL    HW2 9816   1.117   4.457   4.908
 2973SOL     OW 9817   5.826   0.153   4.087
 2973SOL    HW1 9818   5.817   0.144   3.988
 2973SOL    HW2 9819   5.760   0.219   4.121
 2974SOL     OW 9820   6.761   4.471   1.894
 2974SOL    HW1 9821   6.827   4.397   1.906
 2974SOL    HW2 9822   6.807   4.552   1.859
 2975SOL     OW 9823   6.711   1.298   4.017
 2975SOL    HW1 9824   6.626   1.304   3.964
 2975SOL    HW2 9825   6.728   1.203   4.043
 2976SOL     OW 9826   2.323   5.951   1.528
 2976SOL    HW1 9827   2.384   6.024   1.498
 2976SOL    HW2 9828   2.237   5.990   1.561
 2977SOL     OW 9829   3.203   6.622   3.920
 2977SOL    HW1 9830   3.239   6.627   4.013
 2977SOL    HW2 9831   3.106   6.599   3.923
 2978SOL     OW 9832   2.975   0.031   6.380
 2978SOL    HW1 9833   2.894   0.081   6.349
 2978SOL    HW2 9834   2.967   6.954   6.355
 2979SOL     OW 9835   3.135   1.220   2.973
 2979SOL    HW1 9836   3.084   1.288   3.026
 2979SOL    HW2 9837   3.197   1.267   2.910
 2980SOL     OW 9838   6.019   6.797   3.639
 2980SOL    HW1 9839   5.981   6.830   3.725
 2980SOL    HW2 9840   6.112   6.765   3.653
 2981SOL     OW 9841   2.169   1.451   6.256
 2981SOL    HW1 9842   2.206   1.543   6.245
 2981SOL    HW2 9843   2.120   1.425   6.173
 2982SOL     OW 9844   4.926   5.816   1.901
 2982SOL    HW1 9845   4.830   5.827   1.875
 2982SOL    HW2 9846   4.938   5.848   1.995
 2983SOL     OW 9847   6.800   0.885   3.098
 2983SOL    HW1 9848   6.853   0.897   3.015
 2983SOL    HW2 9849   6.751   0.798   3.095
 2984SOL     OW 9850   5.997   4.848   1.739
 2984SOL    HW1 9851   5.951   4.835   1.651
 2984SOL    HW2 9852   5.935   4.824   1.813
 2985SOL     OW 9853   6.811   2.565   3.191
 2985SOL    HW1 9854   6.751   2.592   3.267
 2985SOL    HW2 9855   6.793   2.470   3.166
 2986SOL     OW 9856   2.209   3.505   5.095
 2986SOL    HW1 9857   2.235   3.559   5.015
 2986SOL    HW2 9858   2.141   3.555   5.148
 2987SOL     OW 9859   5.325   1.660   4.928
 2987SOL    HW1 9860   5.281   1.701   5.008
 2987SOL    HW2 9861   5.358   1.733   4.868
 2988SOL     OW 9862   0.721   0.016   2.243
 2988SOL    HW1 9863   0.633   0.008   2.196
 2988SOL    HW2 9864   0.795   0.008   2.177
 2989SOL     OW 9865   6.435   5.277   0.806
 2989SOL    HW1 9866   6.493   5.311   0.732
 2989SOL    HW2 9867   6.475   5.195   0.845
 2990SOL     OW 9868   2.892   1.304   1.603
 2990SOL    HW1 9869   2.940   1.391   1.615
 2990SOL    HW2 9870   2.864   1.295   1.507
 2991SOL     OW 9871   6.588   4.688   0.244
 2991SOL    HW1 9872   6.656   4.753   0.277
 2991SOL    HW2 9873   6.565   4.707   0.149
 2992SOL     OW 9874   4.230   4.360   6.777
 2992SOL    HW1 9875   4.229   4.425   6.854
 2992SOL    HW2 9876   4.238   4.267   6.812
 2993SOL     OW 9877   1.630   4.345   0.053
 2993SOL    HW1 9878   1.653   4.377   0.145
 2993SOL    HW2 9879   1.612   4.247   0.055
 2994SOL     OW 9880   4.278   6.097   0.121
 2994SOL    HW1 9881   4.328   6.069   0.203
 2994SOL    HW2 9882   4.261   6.196   0.125
 2995SOL     OW 9883   2.448   0.312   5.517
 2995SOL    HW1 9884   2.428   0.222   5.477
 2995SOL    HW2 9885   2.413   0.315   5.610
 2996SOL     OW 9886   4.411   6.332   5.841
 2996SOL    HW1 9887   4.419   6.241   5.881
 2996SOL    HW2 9888   4.317   6.365   5.852
 2997SOL     OW 9889   4.332   5.902   0.317
 2997SOL    HW1 9890   4.397   5.840   0.360
 2997SOL    HW2 9891   4.255   5.851   0.281
 2998SOL     OW 9892   6.713   4.791   5.366
 2998SOL    HW1 9893   6.761   4.715   5.323
 2998SOL    HW2 9894   6.692   4.769   5.461
 2999SOL     OW 9895   2.280   1.312   1.954
 2999SOL    HW1 9896   2.200   1.258   1.927
 2999SOL    HW2 9897   2.357   1.250   1.973
 3000SOL     OW 9898   1.235   1.713   4.534
 3000SOL    HW1 9899   1.256   1.735   4.629
 3000SOL    HW2 9900   1.147   1.664   4.531
 3001SOL     OW 9901   4.937   6.590   5.789
 3001SOL    HW1 9902   4.917   6.659   5.718
 3001SOL    HW2 9903   4.868   6.518   5.785
 3002SOL     OW 9904   3.030   0.625   5.500
 3002SOL    HW1 9905   3.003   0.543   5.448
 3002SOL    HW2 9906   3.093   0.680   5.445
 3003SOL     OW 9907   1.769   6.827   5.648
 3003SOL    HW1 9908   1.744   6.894   5.578
 3003SOL    HW2 9909   1.767   6.735   5.608
 3004SOL     OW 9910   6.719   2.769   5.973
 3004SOL    HW1 9911   6.750   2.680   5.938
 3004SOL    HW2 9912   6.713   2.765   6.073
 3005SOL     OW 9913   4.657   2.491   0.807
 3005SOL    HW1 9914   4.750   2.460   0.791
 3005SOL    HW2 9915   4.593   2.415   0.790
 3006SOL     OW 9916   4.424   6.714   1.720
 3006SOL    HW1 9917   4.393   6.661   1.798
 3006SOL    HW2 9918   4.490   6.661   1.667
 3007SOL     OW 9919   5.667   5.370   1.913
 3007SOL    HW1 9920   5.699   5.287   1.959
 3007SOL    HW2 9921   5.654   5.443   1.980
 3008SOL     OW 9922   4.636   5.431   5.625
 3008SOL    HW1 9923   4.666   5.455   5.533
 3008SOL    HW2 9924   4.649   5.510   5.685
 3009SOL     OW 9925   1.256   0.552   2.459
 3009SOL    HW1 9926   1.192   0.485   2.422
 3009SOL    HW2 9927   1.208   0.639   2.473
 3010SOL     OW 9928   2.808   6.871   2.874
 3010SOL    HW1 9929   2.839   6.776   2.884
 3010SOL    HW2 9930   2.887   6.932   2.874
 3011SOL     OW 9931   5.648   0.355   0.326
 3011SOL    HW1 9932   5.676   0.420   0.397
 3011SOL    HW2 9933   5.710   0.277   0.325
 3012SOL     OW 9934   0.016   4.944   1.484
 3012SOL    HW1 9935   6.982   5.003   1.424
 3012SOL    HW2 9936   6.974   4.890   1.541
 3013SOL     OW 9937   5.963   4.037   2.146
 3013SOL    HW1 9938   5.977   3.947   2.186
 3013SOL    HW2 9939   5.954   4.105   2.219
 3014SOL     OW 9940   5.300   6.943   5.817
 3014SOL    HW1 9941   5.295   6.986   5.907
 3014SOL    HW2 9942   5.391   6.903   5.804
 3015SOL     OW 9943   2.788   1.091   0.312
 3015SOL    HW1 9944   2.873   1.039   0.297
 3015SOL    HW2 9945   2.770   1.149   0.232
 3016SOL     OW 9946   3.734   6.327   3.397
 3016SOL    HW1 9947   3.728   6.235   3.360
 3016SOL    HW2 9948   3.653   6.379   3.372
 3017SOL     OW 9949   0.365   5.601   1.465
 3017SOL    HW1 9950   0.277   5.622   1.421
 3017SOL    HW2 9951   0.360   5.512   1.509
 3018SOL     OW 9952   4.117   6.762   6.054
 3018SOL    HW1 9953   4.018   6.769   6.044
 3018SOL    HW2 9954   4.161   6.778   5.965
 3019SOL     OW 9955   5.026   0.159   1.881
 3019SOL    HW1 9956   5.067   0.218   1.811
 3019SOL    HW2 9957   5.078   0.074   1.888
 3020SOL     OW 9958   1.808   0.758   2.058
 3020SOL    HW1 9959   1.851   0.817   2.126
 3020SOL    HW2 9960   1.711   0.745   2.082
 3021SOL     OW 9961   4.166   0.550   6.353
 3021SOL    HW1 9962   4.209   0.637   6.374
 3021SOL    HW2 9963   4.236   0.480   6.337
 3022SOL     OW 9964   6.713   0.446   2.860
 3022SOL    HW1 9965   6.698   0.492   2.773
 3022SOL    HW2 9966   6.654   0.365   2.866
 3023SOL     OW 9967   6.316   0.181   1.528
 3023SOL    HW1 9968   6.276   0.257   1.578
 3023SOL    HW2 9969   6.293   0.189   1.431
 3024SOL     OW 9970   2.827   0.180   6.227
 3024SOL    HW1 9971   2.745   0.159   6.173
 3024SOL    HW2 9972   2.813   0.266   6.277
 3025SOL     OW 9973   1.733   2.589   1.508
 3025SOL    HW1 9974   1.803   2.650   1.472
 3025SOL    HW2 9975   1.756   2.494   1.484
 3026SOL     OW 9976   2.373   5.634   0.352
 3026SOL    HW1 9977   2.425   5.708   0.309
 3026SOL    HW2 9978   2.432   5.554   0.364
 3027SOL     OW 9979   1.411   1.977   3.459
 3027SOL    HW1 9980   1.462   2.040   3.401
 3027SOL    HW2 9981   1.368   2.028   3.534
 3028SOL     OW 9982   0.945   0.493   4.784
 3028SOL    HW1 9983   1.015   0.563   4.800
 3028SOL    HW2 9984   0.964   0.447   4.697
 3029SOL     OW 9985   6.027   5.094   5.712
 3029SOL    HW1 9986   6.107   5.144   5.744
 3029SOL    HW2 9987   6.025   5.094   5.612
 3030SOL     OW 9988   1.223   0.736   5.464
 3030SOL    HW1 9989   1.216   0.811   5.398
 3030SOL    HW2 9990   1.208   0.649   5.417
 3031SOL     OW 9991   0.360   5.513   6.213
 3031SOL    HW1 9992   0.334   5.467   6.298
 3031SOL    HW2 9993   0.442   5.470   6.175
 3032SOL     OW 9994   4.163   6.398   5.892
 3032SOL    HW1 9995   4.139   6.494   5.878
 3032SOL    HW2 9996   4.148   6.373   5.987
 3033SOL     OW 9997   5.642   4.710   5.607
 3033SOL    HW1 9998   5.548   4.744   5.602
 3033SOL    HW2 9999   5.647   4.638   5.676
 3034SOL     OW10000   2.538   6.738   4.361
 3034SOL    HW110001   2.554   6.713   4.266
 3034SOL    HW210002   2.464   6.681   4.398
 3035SOL     OW10003   6.356   0.025   6.850
 3035SOL    HW110004   6.296   0.091   6.804
 3035SOL    HW210005   6.340   0.029   6.949
 3036SOL     OW10006   1.315   4.992   5.372
 3036SOL    HW110007   1.392   4.937   5.339
 3036SOL    HW210008   1.262   4.938   5.438
 3037SOL     OW10009   5.612   6.896   5.815
 3037SOL    HW110010   5.639   6.906   5.719
 3037SOL    HW210011   5.587   6.985   5.852
 3038SOL     OW10012   6.050   6.341   5.920
 3038SOL    HW110013   6.040   6.412   5.989
 3038SOL    HW210014   5.970   6.340   5.861
 3039SOL     OW10015   0.723   4.990   0.580
 3039SOL    HW110016   0.724   4.897   0.616
 3039SOL    HW210017   0.669   4.992   0.496
 3040SOL     OW10018   3.088   1.311   6.903
 3040SOL    HW110019   3.158   1.270   6.845
 3040SOL    HW210020   3.007   1.332   6.849
 3041SOL     OW10021   1.891   2.250   6.374
 3041SOL    HW110022   1.828   2.325   6.394
 3041SOL    HW210023   1.877   2.219   6.280
 3042SOL     OW10024   6.253   6.862   1.355
 3042SOL    HW110025   6.189   6.844   1.429
 3042SOL    HW210026   6.210   6.837   1.268
 3043SOL     OW10027   6.727   5.277   6.584
 3043SOL    HW110028   6.744   5.192   6.535
 3043SOL    HW210029   6.720   5.258   6.682
 3044SOL     OW10030   2.492   3.265   6.500
 3044SOL    HW110031   2.516   3.223   6.412
 3044SOL    HW210032   2.513   3.363   6.497
 3045SOL     OW10033   4.777   2.324   3.681
 3045SOL    HW110034   4.845   2.299   3.750
 3045SOL    HW210035   4.759   2.246   3.622
 3046SOL     OW10036   1.874   2.145   5.819
 3046SOL    HW110037   1.834   2.223   5.771
 3046SOL    HW210038   1.817   2.064   5.805
 3047SOL     OW10039   0.283   5.075   1.288
 3047SOL    HW110040   0.232   5.006   1.338
 3047SOL    HW210041   0.377   5.079   1.323
 3048SOL     OW10042   3.063   2.964   1.849
 3048SOL    HW110043   3.081   2.880   1.799
 3048SOL    HW210044   2.990   3.015   1.804
 3049SOL     OW10045   0.759   0.535   1.434
 3049SOL    HW110046   0.737   0.632   1.425
 3049SOL    HW210047   0.851   0.525   1.472
 3050SOL     OW10048   1.862   0.567   4.069
 3050SOL    HW110049   1.879   0.592   3.974
 3050SOL    HW210050   1.799   0.489   4.072
 3051SOL     OW10051   3.034   4.534   6.293
 3051SOL    HW110052   3.028   4.500   6.199
 3051SOL    HW210053   2.943   4.560   6.325
 3052SOL     OW10054   4.906   0.047   2.511
 3052SOL    HW110055   4.926   0.027   2.606
 3052SOL    HW210056   4.815   0.012   2.488
 3053SOL     OW10057   3.990   6.991   1.820
 3053SOL    HW110058   4.078   6.947   1.805
 3053SOL    HW210059   4.003   0.060   1.865
 3054SOL     OW10060   2.163   4.360   5.163
 3054SOL    HW110061   2.203   4.286   5.218
 3054SOL    HW210062   2.114   4.321   5.085
 3055SOL     OW10063   6.172   6.913   2.783
 3055SOL    HW110064   6.090   6.888   2.836
 3055SOL    HW210065   6.209   6.831   2.739
 3056SOL     OW10066   5.480   0.701   1.996
 3056SOL    HW110067   5.541   0.635   1.953
 3056SOL    HW210068   5.408   0.727   1.931
 3057SOL     OW10069   6.345   5.622   2.446
 3057SOL    HW110070   6.346   5.660   2.539
 3057SOL    HW210071   6.436   5.634   2.405
 3058SOL     OW10072   5.991   5.606   1.451
 3058SOL    HW110073   6.059   5.634   1.384
 3058SOL    HW210074   6.029   5.534   1.510
 3059SOL     OW10075   1.975   2.767   5.924
 3059SOL    HW110076   2.058   2.813   5.892
 3059SOL    HW210077   1.945   2.700   5.855
 3060SOL     OW10078   0.619   6.383   0.139
 3060SOL    HW110079   0.598   6.294   0.181
 3060SOL    HW210080   0.582   6.385   0.046
 3061SOL     OW10081   0.544   0.694   5.907
 3061SOL    HW110082   0.464   0.652   5.951
 3061SOL    HW210083   0.594   0.625   5.855
 3062SOL     OW10084   2.949   5.316   6.189
 3062SOL    HW110085   3.044   5.334   6.213
 3062SOL    HW210086   2.945   5.251   6.114
 3063SOL     OW10087   2.641   6.060   0.741
 3063SOL    HW110088   2.566   6.103   0.692
 3063SOL    HW210089   2.648   6.099   0.832
 3064SOL     OW10090   0.049   4.971   3.305
 3064SOL    HW110091   0.141   4.934   3.311
 3064SOL    HW210092   7.003   4.896   3.296
 3065SOL     OW10093   3.255   1.169   1.081
 3065SOL    HW110094   3.246   1.085   1.133
 3065SOL    HW210095   3.343   1.212   1.101
 3066SOL     OW10096   5.299   5.403   0.140
 3066SOL    HW110097   5.303   5.321   0.084
 3066SOL    HW210098   5.302   5.377   0.237
 3067SOL     OW10099   4.270   7.019   2.959
 3067SOL    HW110100   4.194   6.972   3.005
 3067SOL    HW210101   4.348   6.957   2.951
 3068SOL     OW10102   6.320   4.650   6.992
 3068SOL    HW110103   6.254   4.660   0.047
 3068SOL    HW210104   6.340   4.553   6.978
 3069SOL     OW10105   0.888   4.818   4.026
 3069SOL    HW110106   0.944   4.899   4.042
 3069SOL    HW210107   0.865   4.810   3.929
 3070SOL     OW10108   4.162   1.900   4.115
 3070SOL    HW110109   4.107   1.983   4.104
 3070SOL    HW210110   4.240   1.903   4.053
 3071SOL     OW10111   5.575   0.401   3.872
 3071SOL    HW110112   5.516   0.481   3.870
 3071SOL    HW210113   5.525   0.323   3.910
 3072SOL     OW10114   0.076   0.566   1.757
 3072SOL    HW110115   0.072   0.555   1.857
 3072SOL    HW210116   0.067   0.662   1.734
 3073SOL     OW10117   1.737   2.373   5.073
 3073SOL    HW110118   1.801   2.297   5.075
 3073SOL    HW210119   1.761   2.439   5.145
 3074SOL     OW10120   5.153   3.688   5.625
 3074SOL    HW110121   5.141   3.633   5.707
 3074SOL    HW210122   5.250   3.695   5.603
 3075SOL     OW10123   0.035   5.478   0.772
 3075SOL    HW110124   7.006   5.564   0.791
 3075SOL    HW210125   0.032   5.419   0.853
 3076SOL     OW10126   0.333   0.949   5.156
 3076SOL    HW110127   0.393   0.976   5.231
 3076SOL    HW210128   0.381   0.960   5.069
 3077SOL     OW10129   5.146   4.348   3.469
 3077SOL    HW110130   5.209   4.422   3.444
 3077SOL    HW210131   5.137   4.284   3.392
 3078SOL     OW10132   1.835   2.429   0.308
 3078SOL    HW110133   1.819   2.509   0.366
 3078SOL    HW210134   1.770   2.428   0.233
 3079SOL     OW10135   5.494   2.888   6.283
 3079SOL    HW110136   5.546   2.955   6.336
 3079SOL    HW210137   5.531   2.884   6.190
 3080SOL     OW10138   6.418   6.615   1.429
 3080SOL    HW110139   6.393   6.632   1.525
 3080SOL    HW210140   6.339   6.578   1.380
 3081SOL     OW10141   1.184   4.484   5.956
 3081SOL    HW110142   1.121   4.428   5.902
 3081SOL    HW210143   1.143   4.505   6.045
 3082SOL     OW10144   3.051   0.098   2.458
 3082SOL    HW110145   3.120   0.034   2.425
 3082SOL    HW210146   2.966   0.084   2.407
 3083SOL     OW10147   3.545   0.502   2.233
 3083SOL    HW110148   3.528   0.481   2.136
 3083SOL    HW210149   3.573   0.597   2.241
 3084SOL     OW10150   4.291   6.495   4.107
 3084SOL    HW110151   4.334   6.460   4.191
 3084SOL    HW210152   4.220   6.433   4.077
 3085SOL     OW10153   1.368   4.986   2.056
 3085SOL    HW110154   1.363   5.039   1.971
 3085SOL    HW210155   1.309   5.029   2.125
 3086SOL     OW10156   6.466   1.502   4.228
 3086SOL    HW110157   6.416   1.434   4.175
 3086SOL    HW210158   6.434   1.500   4.323
 3087SOL     OW10159   6.016   3.915   1.587
 3087SOL    HW110160   5.956   3.964   1.524
 3087SOL    HW210161   6.012   3.959   1.677
 3088SOL     OW10162   3.044   3.836   6.555
 3088SOL    HW110163   2.991   3.919   6.538
 3088SOL    HW210164   3.110   3.823   6.481
 3089SOL     OW10165   3.559   1.767   1.738
 3089SOL    HW110166   3.462   1.781   1.715
 3089SOL    HW210167   3.602   1.855   1.756
 3090SOL     OW10168   6.647   1.869   0.853
 3090SOL    HW110169   6.661   1.961   0.815
 3090SOL    HW210170   6.559   1.833   0.823
 3091SOL     OW10171   2.047   6.515   0.438
 3091SOL    HW110172   2.106   6.572   0.495
 3091SOL    HW210173   2.045   6.551   0.345
 3092SOL     OW10174   3.598   5.585   0.308
 3092SOL    HW110175   3.528   5.652   0.332
 3092SOL    HW210176   3.630   5.602   0.215
 3093SOL     OW10177   4.785   6.948   3.150
 3093SOL    HW110178   4.865   7.006   3.130
 3093SOL    HW210179   4.703   6.991   3.115
 3094SOL     OW10180   3.060   5.682   5.236
 3094SOL    HW110181   3.111   5.768   5.239
 3094SOL    HW210182   3.117   5.612   5.194
 3095SOL     OW10183   1.728   5.077   5.219
 3095SOL    HW110184   1.691   5.169   5.234
 3095SOL    HW210185   1.827   5.078   5.232
 3096SOL     OW10186   0.355   1.180   5.654
 3096SOL    HW110187   0.393   1.095   5.692
 3096SOL    HW210188   0.283   1.158   5.588
 3097SOL     OW10189   1.849   1.461   0.147
 3097SOL    HW110190   1.830   1.399   0.224
 3097SOL    HW210191   1.884   1.408   0.070
 3098SOL     OW10192   4.149   2.739   0.722
 3098SOL    HW110193   4.204   2.657   0.733
 3098SOL    HW210194   4.143   2.762   0.625
 3099SOL     OW10195   1.550   5.948   5.480
 3099SOL    HW110196   1.617   5.958   5.407
 3099SOL    HW210197   1.463   5.917   5.443
 3100SOL     OW10198   6.387   6.598   6.148
 3100SOL    HW110199   6.321   6.598   6.223
 3100SOL    HW210200   6.420   6.691   6.133
 3101SOL     OW10201   3.671   0.031   1.068
 3101SOL    HW110202   3.673   0.124   1.032
 3101SOL    HW210203   3.626   0.031   1.157
 3102SOL     OW10204   0.739   6.009   0.507
 3102SOL    HW110205   0.700   6.077   0.568
 3102SOL    HW210206   0.689   5.923   0.515
 3103SOL     OW10207   4.220   4.241   1.654
 3103SOL    HW110208   4.312   4.235   1.693
 3103SOL    HW210209   4.159   4.178   1.703
 3104SOL     OW10210   5.862   5.572   3.805
 3104SOL    HW110211   5.893   5.487   3.764
 3104SOL    HW210212   5.798   5.617   3.742
 3105SOL     OW10213   6.218   5.728   3.669
 3105SOL    HW110214   6.151   5.670   3.716
 3105SOL    HW210215   6.172   5.781   3.597
 3106SOL     OW10216   6.320   2.858   4.891
 3106SOL    HW110217   6.287   2.782   4.835
 3106SOL    HW210218   6.397   2.902   4.846
 3107SOL     OW10219   2.655   6.960   4.049
 3107SOL    HW110220   2.687   7.017   3.973
 3107SOL    HW210221   2.698   6.992   4.134
 3108SOL     OW10222   2.360   0.704   2.802
 3108SOL    HW110223   2.454   0.695   2.768
 3108SOL    HW210224   2.306   0.756   2.737
 3109SOL     OW10225   4.659   5.956   3.454
 3109SOL    HW110226   4.698   5.948   3.362
 3109SOL    HW210227   4.645   5.864   3.492
 3110SOL     OW10228   1.079   2.928   1.520
 3110SOL    HW110229   1.068   2.892   1.613
 3110SOL    HW210230   1.105   3.024   1.524
 3111SOL     OW10231   0.240   4.912   2.591
 3111SOL    HW110232   0.321   4.854   2.602
 3111SOL    HW210233   0.203   4.935   2.680
 3112SOL     OW10234   2.628   3.913   6.013
 3112SOL    HW110235   2.550   3.884   6.069
 3112SOL    HW210236   2.692   3.837   6.004
 3113SOL     OW10237   4.116   6.717   4.052
 3113SOL    HW110238   4.176   6.638   4.043
 3113SOL    HW210239   4.127   6.757   4.143
 3114SOL     OW10240   5.310   5.598   0.562
 3114SOL    HW110241   5.293   5.521   0.500
 3114SOL    HW210242   5.243   5.670   0.545
 3115SOL     OW10243   2.790   3.281   1.935
 3115SOL    HW110244   2.690   3.281   1.940
 3115SOL    HW210245   2.828   3.285   2.027
 3116SOL     OW10246   0.374   1.128   6.928
 3116SOL    HW110247   0.293   1.087   6.887
 3116SOL    HW210248   0.450   1.062   6.925
 3117SOL     OW10249   3.739   4.142   5.697
 3117SOL    HW110250   3.714   4.053   5.658
 3117SOL    HW210251   3.695   4.154   5.786
 3118SOL     OW10252   6.334   5.293   0.072
 3118SOL    HW110253   6.350   5.252   7.001
 3118SOL    HW210254   6.269   5.369   0.063
 3119SOL     OW10255   2.264   4.297   6.966
 3119SOL    HW110256   2.181   4.281   6.913
 3119SOL    HW210257   2.243   4.352   0.027
 3120SOL     OW10258   2.676   5.387   6.544
 3120SOL    HW110259   2.595   5.441   6.523
 3120SOL    HW210260   2.648   5.298   6.581
 3121SOL     OW10261   0.390   6.003   3.418
 3121SOL    HW110262   0.435   6.092   3.421
 3121SOL    HW210263   0.403   5.955   3.505
 3122SOL     OW10264   3.505   5.611   1.055
 3122SOL    HW110265   3.429   5.567   1.006
 3122SOL    HW210266   3.588   5.606   1.000
 3123SOL     OW10267   3.846   6.611   4.355
 3123SOL    HW110268   3.855   6.598   4.454
 3123SOL    HW210269   3.886   6.699   4.329
 3124SOL     OW10270   3.576   6.989   6.249
 3124SOL    HW110271   3.567   0.062   6.212
 3124SOL    HW210272   3.604   6.927   6.176
 3125SOL     OW10273   0.247   2.683   5.729
 3125SOL    HW110274   0.184   2.635   5.791
 3125SOL    HW210275   0.329   2.627   5.716
 3126SOL     OW10276   3.769   6.150   6.447
 3126SOL    HW110277   3.768   6.234   6.502
 3126SOL    HW210278   3.693   6.092   6.474
 3127SOL     OW10279   1.172   1.538   4.007
 3127SOL    HW110280   1.243   1.594   3.964
 3127SOL    HW210281   1.141   1.582   4.091
 3128SOL     OW10282   1.841   0.566   1.339
 3128SOL    HW110283   1.753   0.520   1.327
 3128SOL    HW210284   1.914   0.498   1.349
 3129SOL     OW10285   1.047   3.028   3.287
 3129SOL    HW110286   1.078   3.104   3.230
 3129SOL    HW210287   1.010   2.956   3.228
 3130SOL     OW10288   2.641   5.389   3.258
 3130SOL    HW110289   2.618   5.386   3.161
 3130SOL    HW210290   2.564   5.353   3.312
 3131SOL     OW10291   1.004   2.856   4.609
 3131SOL    HW110292   0.930   2.808   4.655
 3131SOL    HW210293   0.991   2.955   4.620
 3132SOL     OW10294   5.221   4.584   5.513
 3132SOL    HW110295   5.295   4.558   5.576
 3132SOL    HW210296   5.172   4.663   5.551
 3133SOL     OW10297   2.257   1.815   3.272
 3133SOL    HW110298   2.290   1.798   3.179
 3133SOL    HW210299   2.244   1.914   3.285
 3134SOL     OW10300   5.554   2.986   1.444
 3134SOL    HW110301   5.646   3.021   1.459
 3134SOL    HW210302   5.490   3.063   1.438
 3135SOL     OW10303   2.082   2.044   3.300
 3135SOL    HW110304   2.001   1.990   3.325
 3135SOL    HW210305   2.109   2.101   3.378
 3136SOL     OW10306   6.124   7.019   4.967
 3136SOL    HW110307   6.144   6.948   4.900
 3136SOL    HW210308   6.196   0.070   4.963
 3137SOL     OW10309   0.480   1.753   4.274
 3137SOL    HW110310   0.444   1.672   4.227
 3137SOL    HW210311   0.411   1.825   4.274
 3138SOL     OW10312   5.735   2.230   4.430
 3138SOL    HW110313   5.671   2.271   4.364
 3138SOL    HW210314   5.684   2.170   4.492
 3139SOL     OW10315   4.670   5.522   5.368
 3139SOL    HW110316   4.721   5.608   5.363
 3139SOL    HW210317   4.687   5.468   5.286
 3140SOL     OW10318   5.625   6.180   6.068
 3140SOL    HW110319   5.627   6.254   6.002
 3140SOL    HW210320   5.618   6.218   6.161
 3141SOL     OW10321   1.022   5.774   2.161
 3141SOL    HW110322   0.958   5.828   2.106
 3141SOL    HW210323   1.113   5.779   2.121
 3142SOL     OW10324   3.819   6.986   0.181
 3142SOL    HW110325   3.731   0.015   0.172
 3142SOL    HW210326   3.878   7.011   0.104
 3143SOL     OW10327   0.362   1.723   0.927
 3143SOL    HW110328   0.434   1.719   0.858
 3143SOL    HW210329   0.380   1.797   0.990
 3144SOL     OW10330   2.010   2.859   0.023
 3144SOL    HW110331   1.988   2.761   0.024
 3144SOL    HW210332   2.087   2.875   6.981
 3145SOL     OW10333   3.090   5.182   3.355
 3145SOL    HW110334   3.138   5.112   3.407
 3145SOL    HW210335   3.027   5.231   3.415
 3146SOL     OW10336   2.458   6.909   3.736
 3146SOL    HW110337   2.500   6.981   3.792
 3146SOL    HW210338   2.477   6.820   3.776
 3147SOL     OW10339   3.672   4.503   0.829
 3147SOL    HW110340   3.707   4.416   0.865
 3147SOL    HW210341   3.573   4.507   0.844
 3148SOL     OW10342   3.120   6.179   4.773
 3148SOL    HW110343   3.122   6.092   4.822
 3148SOL    HW210344   3.213   6.216   4.766
 3149SOL     OW10345   2.299   6.474   5.836
 3149SOL    HW110346   2.216   6.442   5.881
 3149SOL    HW210347   2.379   6.445   5.890
 3150SOL     OW10348   6.857   6.805   4.311
 3150SOL    HW110349   6.937   6.810   4.371
 3150SOL    HW210350   6.862   6.877   4.242
 3151SOL     OW10351   3.950   6.870   1.529
 3151SOL    HW110352   3.908   6.928   1.599
 3151SOL    HW210353   3.890   6.793   1.508
 3152SOL     OW10354   1.411   4.536   6.249
 3152SOL    HW110355   1.509   4.535   6.268
 3152SOL    HW210356   1.360   4.529   6.334
 3153SOL     OW10357   6.716   4.579   3.054
 3153SOL    HW110358   6.695   4.643   3.128
 3153SOL    HW210359   6.777   4.622   2.988
 3154SOL     OW10360   5.820   2.384   6.277
 3154SOL    HW110361   5.760   2.426   6.208
 3154SOL    HW210362   5.872   2.455   6.324
 3155SOL     OW10363   4.550   6.086   0.453
 3155SOL    HW110364   4.520   5.991   0.443
 3155SOL    HW210365   4.550   6.111   0.550
 3156SOL     OW10366   3.786   3.259   3.457
 3156SOL    HW110367   3.841   3.220   3.383
 3156SOL    HW210368   3.847   3.291   3.530
 3157SOL     OW10369   2.141   2.536   4.878
 3157SOL    HW110370   2.057   2.482   4.869
 3157SOL    HW210371   2.197   2.524   4.797
 3158SOL     OW10372   4.597   6.664   1.385
 3158SOL    HW110373   4.538   6.744   1.387
 3158SOL    HW210374   4.685   6.689   1.345
 3159SOL     OW10375   5.058   4.699   0.298
 3159SOL    HW110376   5.060   4.761   0.220
 3159SOL    HW210377   5.151   4.675   0.325
 3160SOL     OW10378   6.016   4.627   0.559
 3160SOL    HW110379   5.981   4.596   0.648
 3160SOL    HW210380   6.104   4.583   0.542
 3161SOL     OW10381   1.189   1.434   3.677
 3161SOL    HW110382   1.160   1.486   3.758
 3161SOL    HW210383   1.207   1.339   3.703
 3162SOL     OW10384   7.014   0.024   5.829
 3162SOL    HW110385   0.025   6.997   5.745
 3162SOL    HW210386   7.012   6.978   5.904
 3163SOL     OW10387   1.937   4.500   5.241
 3163SOL    HW110388   2.020   4.445   5.232
 3163SOL    HW210389   1.958   4.585   5.290
 3164SOL     OW10390   6.278   5.217   5.831
 3164SOL    HW110391   6.285   5.296   5.893
 3164SOL    HW210392   6.313   5.242   5.741
 3165SOL     OW10393   0.631   2.778   1.912
 3165SOL    HW110394   0.533   2.768   1.895
 3165SOL    HW210395   0.657   2.874   1.899
 3166SOL     OW10396   4.400   2.928   6.187
 3166SOL    HW110397   4.308   2.888   6.185
 3166SOL    HW210398   4.434   2.929   6.281
 3167SOL     OW10399   0.271   4.639   1.909
 3167SOL    HW110400   0.246   4.674   1.819
 3167SOL    HW210401   0.189   4.619   1.962
 3168SOL     OW10402   6.209   2.754   0.815
 3168SOL    HW110403   6.256   2.758   0.903
 3168SOL    HW210404   6.270   2.787   0.743
 3169SOL     OW10405   2.312   1.918   5.649
 3169SOL    HW110406   2.270   1.947   5.735
 3169SOL    HW210407   2.362   1.995   5.609
 3170SOL     OW10408   3.807   6.867   5.441
 3170SOL    HW110409   3.709   6.848   5.442
 3170SOL    HW210410   3.857   6.788   5.478
 3171SOL     OW10411   5.765   6.148   3.088
 3171SOL    HW110412   5.737   6.236   3.125
 3171SOL    HW210413   5.711   6.127   3.007
 3172SOL     OW10414   6.155   6.694   5.669
 3172SOL    HW110415   6.151   6.757   5.747
 3172SOL    HW210416   6.068   6.644   5.663
 3173SOL     OW10417   2.049   1.029   1.822
 3173SOL    HW110418   2.073   1.033   1.725
 3173SOL    HW210419   2.132   1.016   1.876
 3174SOL     OW10420   2.253   3.250   6.772
 3174SOL    HW110421   2.166   3.235   6.725
 3174SOL    HW210422   2.236   3.277   6.866
 3175SOL     OW10423   0.290   6.207   0.268
 3175SOL    HW110424   0.375   6.223   0.319
 3175SOL    HW210425   0.226   6.156   0.325
 3176SOL     OW10426   0.993   5.434   0.037
 3176SOL    HW110427   1.051   5.506   7.019
 3176SOL    HW210428   0.964   5.458   0.130
 3177SOL     OW10429   0.577   6.645   4.339
 3177SOL    HW110430   0.486   6.606   4.331
 3177SOL    HW210431   0.623   6.606   4.419
 3178SOL     OW10432   3.345   3.259   6.994
 3178SOL    HW110433   3.293   3.340   6.968
 3178SOL    HW210434   3.354   3.254   0.074
 3179SOL     OW10435   1.478   2.389   4.079
 3179SOL    HW110436   1.452   2.293   4.075
 3179SOL    HW210437   1.575   2.396   4.100
 3180SOL     OW10438   6.516   1.453   6.494
 3180SOL    HW110439   6.446   1.521   6.473
 3180SOL    HW210440   6.479   1.362   6.478
 3181SOL     OW10441   1.046   1.804   2.799
 3181SOL    HW110442   1.140   1.770   2.794
 3181SOL    HW210443   1.036   1.882   2.737
 3182SOL     OW10444   1.705   4.476   5.922
 3182SOL    HW110445   1.723   4.532   5.841
 3182SOL    HW210446   1.779   4.488   5.988
 3183SOL     OW10447   4.274   3.382   1.162
 3183SOL    HW110448   4.287   3.330   1.078
 3183SOL    HW210449   4.363   3.401   1.203
 3184SOL     OW10450   0.728   1.972   3.413
 3184SOL    HW110451   0.737   2.039   3.340
 3184SOL    HW210452   0.790   1.995   3.488
 3185SOL     OW10453   0.566   6.449   6.884
 3185SOL    HW110454   0.584   6.371   6.824
 3185SOL    HW210455   0.491   6.503   6.847
 3186SOL     OW10456   3.191   0.281   1.567
 3186SOL    HW110457   3.174   0.312   1.474
 3186SOL    HW210458   3.212   0.360   1.625
 3187SOL     OW10459   2.926   4.302   0.255
 3187SOL    HW110460   2.864   4.359   0.309
 3187SOL    HW210461   2.969   4.358   0.184
 3188SOL     OW10462   3.796   6.927   3.157
 3188SOL    HW110463   3.774   0.005   3.165
 3188SOL    HW210464   3.763   6.878   3.238
 3189SOL     OW10465   6.043   6.465   2.261
 3189SOL    HW110466   5.997   6.448   2.174
 3189SOL    HW210467   5.987   6.427   2.336
 3190SOL     OW10468   1.117   6.919   1.776
 3190SOL    HW110469   1.036   6.972   1.751
 3190SOL    HW210470   1.144   6.942   1.869
 3191SOL     OW10471   3.920   1.377   0.291
 3191SOL    HW110472   3.899   1.473   0.307
 3191SOL    HW210473   3.880   1.321   0.364
 3192SOL     OW10474   5.641   2.384   4.228
 3192SOL    HW110475   5.634   2.459   4.295
 3192SOL    HW210476   5.725   2.396   4.175
 3193SOL     OW10477   5.270   4.341   1.243
 3193SOL    HW110478   5.347   4.376   1.297
 3193SOL    HW210479   5.190   4.333   1.302
 3194SOL     OW10480   2.472   5.694   4.970
 3194SOL    HW110481   2.394   5.710   5.030
 3194SOL    HW210482   2.470   5.600   4.936
 3195SOL     OW10483   0.052   4.566   3.735
 3195SOL    HW110484   0.086   4.507   3.662
 3195SOL    HW210485   0.092   4.656   3.726
 3196SOL     OW10486   0.190   6.375   6.251
 3196SOL    HW110487   0.133   6.317   6.192
 3196SOL    HW210488   0.270   6.405   6.200
 3197SOL     OW10489   0.906   4.536   5.132
 3197SOL    HW110490   0.950   4.562   5.046
 3197SOL    HW210491   0.808   4.525   5.117
 3198SOL     OW10492   5.899   0.191   0.689
 3198SOL    HW110493   5.898   0.190   0.589
 3198SOL    HW210494   5.941   0.106   0.723
 3199SOL     OW10495   3.012   1.374   3.165
 3199SOL    HW110496   3.021   1.474   3.172
 3199SOL    HW210497   2.924   1.346   3.204
 3200SOL     OW10498   6.405   1.950   0.349
 3200SOL    HW110499   6.331   1.883   0.360
 3200SOL    HW210500   6.476   1.911   0.290
 3201SOL     OW10501   4.219   4.711   3.023
 3201SOL    HW110502   4.133   4.735   2.979
 3201SOL    HW210503   4.200   4.674   3.114
 3202SOL     OW10504   1.444   5.132   1.760
 3202SOL    HW110505   1.417   5.190   1.683
 3202SOL    HW210506   1.519   5.175   1.810
 3203SOL     OW10507   4.569   0.216   0.536
 3203SOL    HW110508   4.605   0.291   0.590
 3203SOL    HW210509   4.497   0.169   0.588
 3204SOL     OW10510   6.128   6.304   1.875
 3204SOL    HW110511   6.142   6.213   1.836
 3204SOL    HW210512   6.033   6.332   1.862
 3205SOL     OW10513   0.975   3.813   4.517
 3205SOL    HW110514   0.899   3.770   4.468
 3205SOL    HW210515   0.981   3.775   4.609
 3206SOL     OW10516   1.626   6.714   0.048
 3206SOL    HW110517   1.711   6.665   0.066
 3206SOL    HW210518   1.647   6.802   0.004
 3207SOL     OW10519   1.600   1.738   2.871
 3207SOL    HW110520   1.580   1.730   2.773
 3207SOL    HW210521   1.599   1.647   2.913
 3208SOL     OW10522   6.343   6.641   5.271
 3208SOL    HW110523   6.246   6.663   5.261
 3208SOL    HW210524   6.398   6.723   5.254
 3209SOL     OW10525   0.885   6.767   3.619
 3209SOL    HW110526   0.902   6.865   3.631
 3209SOL    HW210527   0.972   6.717   3.623
 3210SOL     OW10528   0.787   5.606   2.240
 3210SOL    HW110529   0.884   5.629   2.238
 3210SOL    HW210530   0.745   5.634   2.154
 3211SOL     OW10531   0.211   4.435   3.549
 3211SOL    HW110532   0.252   4.477   3.468
 3211SOL    HW210533   0.236   4.338   3.553
 3212SOL     OW10534   4.638   2.560   4.954
 3212SOL    HW110535   4.571   2.514   4.896
 3212SOL    HW210536   4.593   2.596   5.036
 3213SOL     OW10537   5.513   6.892   1.436
 3213SOL    HW110538   5.581   6.889   1.362
 3213SOL    HW210539   5.560   6.886   1.524
 3214SOL     OW10540   4.473   4.048   6.982
 3214SOL    HW110541   4.422   4.010   0.040
 3214SOL    HW210542   4.473   3.983   6.907
 3215SOL     OW10543   6.301   1.462   6.795
 3215SOL    HW110544   6.202   1.456   6.788
 3215SOL    HW210545   6.327   1.463   6.892
 3216SOL     OW10546   5.034   6.373   4.910
 3216SOL    HW110547   5.079   6.313   4.977
 3216SOL    HW210548   4.996   6.318   4.837
 3217SOL     OW10549   6.760   4.324   6.640
 3217SOL    HW110550   6.694   4.289   6.706
 3217SOL    HW210551   6.711   4.368   6.565
 3218SOL     OW10552   4.196   2.139   1.736
 3218SOL    HW110553   4.144   2.207   1.788
 3218SOL    HW210554   4.135   2.065   1.707
 3219SOL     OW10555   0.389   1.350   2.961
 3219SOL    HW110556   0.462   1.418   2.961
 3219SOL    HW210557   0.363   1.329   2.867
 3220SOL     OW10558   6.363   3.077   6.469
 3220SOL    HW110559   6.348   3.105   6.564
 3220SOL    HW210560   6.284   3.024   6.438
 3221SOL     OW10561   3.603   0.600   1.752
 3221SOL    HW110562   3.647   0.680   1.711
 3221SOL    HW210563   3.506   0.598   1.726
 3222SOL     OW10564   6.599   4.144   2.543
 3222SOL    HW110565   6.533   4.217   2.562
 3222SOL    HW210566   6.552   4.057   2.536
 3223SOL     OW10567   1.906   4.179   4.637
 3223SOL    HW110568   1.918   4.248   4.709
 3223SOL    HW210569   1.882   4.091   4.679
 3224SOL     OW10570   3.224   6.221   1.075
 3224SOL    HW110571   3.133   6.201   1.112
 3224SOL    HW210572   3.291   6.218   1.149
 3225SOL     OW10573   1.614   2.868   0.761
 3225SOL    HW110574   1.534   2.927   0.773
 3225SOL    HW210575   1.615   2.833   0.668
 3226SOL     OW10576   6.454   1.025   3.824
 3226SOL    HW110577   6.425   0.966   3.899
 3226SOL    HW210578   6.444   0.977   3.738
 3227SOL     OW10579   2.395   1.566   5.401
 3227SOL    HW110580   2.399   1.648   5.344
 3227SOL    HW210581   2.388   1.593   5.497
 3228SOL     OW10582   4.904   3.351   4.961
 3228SOL    HW110583   4.965   3.319   5.033
 3228SOL    HW210584   4.868   3.441   4.985
 3229SOL     OW10585   4.857   1.652   5.029
 3229SOL    HW110586   4.791   1.593   4.981
 3229SOL    HW210587   4.823   1.671   5.121
 3230SOL     OW10588   1.233   0.105   3.694
 3230SOL    HW110589   1.210   0.195   3.731
 3230SOL    HW210590   1.332   0.090   3.701
 3231SOL     OW10591   4.471   4.584   0.690
 3231SOL    HW110592   4.528   4.546   0.764
 3231SOL    HW210593   4.527   4.645   0.634
 3232SOL     OW10594   0.974   3.911   3.180
 3232SOL    HW110595   0.987   3.875   3.272
 3232SOL    HW210596   0.956   4.009   3.185
 3233SOL     OW10597   2.221   4.223   0.953
 3233SOL    HW110598   2.161   4.188   0.881
 3233SOL    HW210599   2.220   4.160   1.030
 3234SOL     OW10600   0.105   1.800   4.755
 3234SOL    HW110601   0.012   1.835   4.768
 3234SOL    HW210602   0.150   1.851   4.682
 3235SOL     OW10603   5.916   0.706   2.564
 3235SOL    HW110604   5.841   0.736   2.505
 3235SOL    HW210605   5.993   0.770   2.555
 3236SOL     OW10606   0.416   2.042   1.436
 3236SOL    HW110607   0.456   1.950   1.431
 3236SOL    HW210608   0.437   2.091   1.351
 3237SOL     OW10609   2.899   6.183   4.614
 3237SOL    HW110610   2.902   6.268   4.562
 3237SOL    HW210611   2.966   6.187   4.688
 3238SOL     OW10612   6.716   6.646   6.851
 3238SOL    HW110613   6.789   6.637   6.784
 3238SOL    HW210614   6.753   6.684   6.936
 3239SOL     OW10615   1.774   6.161   6.001
 3239SOL    HW110616   1.681   6.161   5.965
 3239SOL    HW210617   1.811   6.254   5.997
 3240SOL     OW10618   1.217   2.141   4.884
 3240SOL    HW110619   1.249   2.170   4.974
 3240SOL    HW210620   1.125   2.103   4.892
 3241SOL     OW10621   3.771   6.662   5.070
 3241SOL    HW110622   3.730   6.650   4.979
 3241SOL    HW210623   3.841   6.734   5.065
 3242SOL     OW10624   3.288   0.468   0.996
 3242SOL    HW110625   3.300   0.393   0.931
 3242SOL    HW210626   3.262   0.551   0.946
 3243SOL     OW10627   4.216   5.449   1.699
 3243SOL    HW110628   4.130   5.401   1.683
 3243SOL    HW210629   4.263   5.409   1.777
 3244SOL     OW10630   0.987   0.064   5.027
 3244SOL    HW110631   1.068   0.019   5.063
 3244SOL    HW210632   1.012   0.151   4.986
 3245SOL     OW10633   3.331   1.657   5.832
 3245SOL    HW110634   3.298   1.745   5.866
 3245SOL    HW210635   3.430   1.660   5.820
 3246SOL     OW10636   5.309   6.430   2.813
 3246SOL    HW110637   5.211   6.442   2.796
 3246SOL    HW210638   5.349   6.517   2.841
 3247SOL     OW10639   5.925   3.147   5.743
 3247SOL    HW110640   5.987   3.225   5.733
 3247SOL    HW210641   5.979   3.063   5.745
 3248SOL     OW10642   5.003   4.143   3.303
 3248SOL    HW110643   4.927   4.136   3.368
 3248SOL    HW210644   5.001   4.233   3.259
 3249SOL     OW10645   3.206   5.275   5.579
 3249SOL    HW110646   3.273   5.208   5.610
 3249SOL    HW210647   3.141   5.232   5.517
 3250SOL     OW10648   4.172   4.485   1.289
 3250SOL    HW110649   4.188   4.559   1.225
 3250SOL    HW210650   4.206   4.399   1.250
 3251SOL     OW10651   3.080   1.276   3.560
 3251SOL    HW110652   3.040   1.368   3.566
 3251SOL    HW210653   3.120   1.262   3.470
 3252SOL     OW10654   3.291   2.118   2.909
 3252SOL    HW110655   3.210   2.172   2.932
 3252SOL    HW210656   3.304   2.115   2.810
 3253SOL     OW10657   5.130   4.300   1.721
 3253SOL    HW110658   5.220   4.297   1.764
 3253SOL    HW210659   5.087   4.210   1.728
 3254SOL     OW10660   6.546   4.690   2.489
 3254SOL    HW110661   6.542   4.605   2.436
 3254SOL    HW210662   6.453   4.719   2.513
 3255SOL     OW10663   3.580   5.058   0.613
 3255SOL    HW110664   3.509   4.995   0.642
 3255SOL    HW210665   3.577   5.140   0.670
 3256SOL     OW10666   6.410   0.269   5.240
 3256SOL    HW110667   6.414   0.197   5.309
 3256SOL    HW210668   6.420   0.358   5.284
 3257SOL     OW10669   2.363   1.093   1.395
 3257SOL    HW110670   2.356   1.016   1.331
 3257SOL    HW210671   2.451   1.089   1.443
 3258SOL     OW10672   5.030   6.614   1.941
 3258SOL    HW110673   5.105   6.552   1.960
 3258SOL    HW210674   5.018   6.677   2.018
 3259SOL     OW10675   5.525   5.826   3.210
 3259SOL    HW110676   5.569   5.906   3.253
 3259SOL    HW210677   5.515   5.754   3.278
 3260SOL     OW10678   2.674   1.575   1.161
 3260SOL    HW110679   2.668   1.598   1.063
 3260SOL    HW210680   2.649   1.479   1.173
 3261SOL     OW10681   4.970   6.707   3.733
 3261SOL    HW110682   4.941   6.731   3.826
 3261SOL    HW210683   4.893   6.717   3.670
 3262SOL     OW10684   4.778   2.076   3.589
 3262SOL    HW110685   4.753   2.016   3.513
 3262SOL    HW210686   4.844   2.030   3.648
 3263SOL     OW10687   3.144   4.844   3.227
 3263SOL    HW110688   3.157   4.880   3.320
 3263SOL    HW210689   3.075   4.772   3.228
 3264SOL     OW10690   5.526   4.543   6.340
 3264SOL    HW110691   5.463   4.484   6.391
 3264SOL    HW210692   5.510   4.533   6.242
 3265SOL     OW10693   5.295   6.753   5.630
 3265SOL    HW110694   5.224   6.775   5.563
 3265SOL    HW210695   5.274   6.797   5.717
 3266SOL     OW10696   1.207   2.797   6.932
 3266SOL    HW110697   1.155   2.814   7.016
 3266SOL    HW210698   1.217   2.882   6.880
 3267SOL     OW10699   5.291   3.921   1.956
 3267SOL    HW110700   5.299   3.970   2.043
 3267SOL    HW210701   5.230   3.843   1.966
 3268SOL     OW10702   1.597   5.301   0.478
 3268SOL    HW110703   1.652   5.333   0.555
 3268SOL    HW210704   1.627   5.345   0.394
 3269SOL     OW10705   4.415   3.497   0.915
 3269SOL    HW110706   4.514   3.486   0.907
 3269SOL    HW210707   4.371   3.409   0.896
 3270SOL     OW10708   6.929   5.951   3.689
 3270SOL    HW110709   7.011   5.904   3.657
 3270SOL    HW210710   6.859   5.949   3.618
 3271SOL     OW10711   4.802   6.873   1.264
 3271SOL    HW110712   4.887   6.857   1.313
 3271SOL    HW210713   4.805   6.964   1.222
 3272SOL     OW10714   4.737   5.770   6.354
 3272SOL    HW110715   4.725   5.818   6.267
 3272SOL    HW210716   4.699   5.826   6.428
 3273SOL     OW10717   0.160   0.187   2.969
 3273SOL    HW110718   0.149   0.283   2.942
 3273SOL    HW210719   0.212   0.139   2.899
 3274SOL     OW10720   3.094   1.067   0.475
 3274SOL    HW110721   3.010   1.048   0.524
 3274SOL    HW210722   3.094   1.162   0.443
 3275SOL     OW10723   4.214   0.168   6.785
 3275SOL    HW110724   4.233   0.159   6.882
 3275SOL    HW210725   4.204   0.265   6.762
 3276SOL     OW10726   1.573   5.899   1.249
 3276SOL    HW110727   1.605   5.872   1.158
 3276SOL    HW210728   1.559   5.817   1.305
 3277SOL     OW10729   0.320   6.150   6.982
 3277SOL    HW110730   0.273   6.156   0.051
 3277SOL    HW210731   0.271   6.206   6.915
 3278SOL     OW10732   1.063   6.928   0.179
 3278SOL    HW110733   1.073   7.009   0.236
 3278SOL    HW210734   1.104   6.849   0.225
 3279SOL     OW10735   2.360   6.769   1.486
 3279SOL    HW110736   2.326   6.861   1.464
 3279SOL    HW210737   2.338   6.748   1.581
 3280SOL     OW10738   2.802   5.938   3.642
 3280SOL    HW110739   2.706   5.923   3.617
 3280SOL    HW210740   2.839   5.854   3.682
 3281SOL     OW10741   1.190   6.108   1.046
 3281SOL    HW110742   1.219   6.041   1.113
 3281SOL    HW210743   1.264   6.123   0.980
 3282SOL     OW10744   2.007   5.007   2.890
 3282SOL    HW110745   1.939   5.074   2.861
 3282SOL    HW210746   1.968   4.915   2.882
 3283SOL     OW10747   1.613   0.491   3.805
 3283SOL    HW110748   1.580   0.401   3.835
 3283SOL    HW210749   1.535   0.548   3.780
 3284SOL     OW10750   1.627   5.926   5.752
 3284SOL    HW110751   1.586   5.897   5.665
 3284SOL    HW210752   1.562   5.982   5.802
 3285SOL     OW10753   0.554   2.514   4.437
 3285SOL    HW110754   0.504   2.498   4.522
 3285SOL    HW210755   0.595   2.605   4.439
 3286SOL     OW10756   4.831   4.610   6.223
 3286SOL    HW110757   4.895   4.562   6.283
 3286SOL    HW210758   4.753   4.643   6.277
 3287SOL     OW10759   0.379   2.804   1.792
 3287SOL    HW110760   0.321   2.744   1.847
 3287SOL    HW210761   0.367   2.898   1.821
 3288SOL     OW10762   0.903   0.201   0.621
 3288SOL    HW110763   0.971   0.270   0.647
 3288SOL    HW210764   0.947   0.111   0.620
 3289SOL     OW10765   1.499   0.239   3.896
 3289SOL    HW110766   1.412   0.287   3.902
 3289SOL    HW210767   1.500   0.182   3.813
 3290SOL     OW10768   0.176   4.839   3.765
 3290SOL    HW110769   0.122   4.916   3.799
 3290SOL    HW210770   0.258   4.828   3.821
 3291SOL     OW10771   1.155   2.039   1.715
 3291SOL    HW110772   1.078   2.086   1.672
 3291SOL    HW210773   1.203   2.102   1.776
 3292SOL     OW10774   0.683   6.041   4.470
 3292SOL    HW110775   0.699   5.959   4.525
 3292SOL    HW210776   0.768   6.068   4.425
 3293SOL     OW10777   5.602   0.564   3.030
 3293SOL    HW110778   5.646   0.637   3.082
 3293SOL    HW210779   5.585   0.595   2.936
 3294SOL     OW10780   6.532   0.232   0.865
 3294SOL    HW110781   6.443   0.277   0.868
 3294SOL    HW210782   6.548   0.184   0.951
 3295SOL     OW10783   2.764   2.989   5.810
 3295SOL    HW110784   2.711   3.061   5.856
 3295SOL    HW210785   2.707   2.908   5.799
 3296SOL     OW10786   1.182   6.610   1.850
 3296SOL    HW110787   1.245   6.683   1.825
 3296SOL    HW210788   1.189   6.592   1.948
 3297SOL     OW10789   3.300   1.159   5.785
 3297SOL    HW110790   3.370   1.231   5.780
 3297SOL    HW210791   3.211   1.198   5.762
 3298SOL     OW10792   0.530   4.949   2.975
 3298SOL    HW110793   0.521   5.014   2.900
 3298SOL    HW210794   0.535   4.856   2.939
 3299SOL     OW10795   1.433   1.418   4.354
 3299SOL    HW110796   1.335   1.430   4.335
 3299SOL    HW210797   1.445   1.395   4.450
 3300SOL     OW10798   0.021   6.711   4.909
 3300SOL    HW110799   6.944   6.731   4.887
 3300SOL    HW210800   0.076   6.793   4.895
 3301SOL     OW10801   6.197   4.279   2.353
 3301SOL    HW110802   6.208   4.366   2.403
 3301SOL    HW210803   6.204   4.203   2.418
 3302SOL     OW10804   1.300   5.894   5.420
 3302SOL    HW110805   1.259   5.834   5.489
 3302SOL    HW210806   1.227   5.930   5.361
 3303SOL     OW10807   3.268   3.423   4.843
 3303SOL    HW110808   3.301   3.384   4.757
 3303SOL    HW210809   3.255   3.521   4.833
 3304SOL     OW10810   1.676   0.922   3.944
 3304SOL    HW110811   1.661   0.877   4.032
 3304SOL    HW210812   1.765   0.967   3.944
 3305SOL     OW10813   0.719   2.620   0.457
 3305SOL    HW110814   0.768   2.607   0.543
 3305SOL    HW210815   0.652   2.693   0.468
 3306SOL     OW10816   1.913   1.652   1.117
 3306SOL    HW110817   1.966   1.575   1.082
 3306SOL    HW210818   1.954   1.686   1.201
 3307SOL     OW10819   0.574   0.156   6.680
 3307SOL    HW110820   0.613   0.098   6.752
 3307SOL    HW210821   0.547   0.099   6.603
 3308SOL     OW10822   5.340   6.007   0.687
 3308SOL    HW110823   5.283   6.071   0.636
 3308SOL    HW210824   5.283   5.946   0.742
 3309SOL     OW10825   1.386   4.385   1.786
 3309SOL    HW110826   1.471   4.347   1.822
 3309SOL    HW210827   1.406   4.464   1.728
 3310SOL     OW10828   1.987   6.020   2.041
 3310SOL    HW110829   1.895   6.001   2.076
 3310SOL    HW210830   2.039   6.069   2.110
 3311SOL     OW10831   4.081   5.302   0.687
 3311SOL    HW110832   4.049   5.237   0.756
 3311SOL    HW210833   4.102   5.389   0.730
 3312SOL     OW10834   1.691   2.426   6.402
 3312SOL    HW110835   1.669   2.522   6.389
 3312SOL    HW210836   1.626   2.385   6.466
 3313SOL     OW10837   5.554   6.373   5.101
 3313SOL    HW110838   5.633   6.354   5.159
 3313SOL    HW210839   5.470   6.357   5.153
 3314SOL     OW10840   0.628   4.175   6.301
 3314SOL    HW110841   0.644   4.177   6.202
 3314SOL    HW210842   0.554   4.238   6.324
 3315SOL     OW10843   5.899   3.173   2.981
 3315SOL    HW110844   5.935   3.147   2.891
 3315SOL    HW210845   5.874   3.270   2.980
 3316SOL     OW10846   3.689   0.255   6.581
 3316SOL    HW110847   3.663   0.159   6.577
 3316SOL    HW210848   3.607   0.312   6.588
 3317SOL     OW10849   4.695   2.673   1.002
 3317SOL    HW110850   4.681   2.611   0.925
 3317SOL    HW210851   4.792   2.679   1.024
 3318SOL     OW10852   2.270   5.037   6.477
 3318SOL    HW110853   2.359   5.027   6.520
 3318SOL    HW210854   2.261   4.971   6.402
 3319SOL     OW10855   0.671   6.132   6.484
 3319SOL    HW110856   0.735   6.148   6.558
 3319SOL    HW210857   0.578   6.154   6.515
 3320SOL     OW10858   1.244   0.910   1.269
 3320SOL    HW110859   1.314   0.934   1.336
 3320SOL    HW210860   1.173   0.856   1.312
 3321SOL     OW10861   3.586   3.506   4.294
 3321SOL    HW110862   3.596   3.603   4.315
 3321SOL    HW210863   3.522   3.494   4.218
 3322SOL     OW10864   5.038   3.466   2.789
 3322SOL    HW110865   5.035   3.477   2.690
 3322SOL    HW210866   5.030   3.556   2.833
 3323SOL     OW10867   1.515   4.624   0.609
 3323SOL    HW110868   1.471   4.714   0.607
 3323SOL    HW210869   1.521   4.593   0.704
 3324SOL     OW10870   6.501   3.383   1.596
 3324SOL    HW110871   6.409   3.405   1.566
 3324SOL    HW210872   6.532   3.299   1.551
 3325SOL     OW10873   1.116   4.911   4.854
 3325SOL    HW110874   1.032   4.860   4.839
 3325SOL    HW210875   1.175   4.859   4.917
 3326SOL     OW10876   4.919   0.035   2.228
 3326SOL    HW110877   4.918   0.014   2.326
 3326SOL    HW210878   4.919   0.134   2.214
 3327SOL     OW10879   4.708   6.315   1.215
 3327SOL    HW110880   4.770   6.376   1.264
 3327SOL    HW210881   4.614   6.332   1.244
 3328SOL     OW10882   5.944   6.381   3.830
 3328SOL    HW110883   5.979   6.303   3.778
 3328SOL    HW210884   6.009   6.404   3.903
 3329SOL     OW10885   5.565   0.398   6.245
 3329SOL    HW110886   5.529   0.308   6.270
 3329SOL    HW210887   5.626   0.431   6.317
 3330SOL     OW10888   5.773   0.349   2.824
 3330SOL    HW110889   5.733   0.439   2.840
 3330SOL    HW210890   5.700   0.282   2.809
 3331SOL     OW10891   1.069   3.326   2.337
 3331SOL    HW110892   1.009   3.405   2.329
 3331SOL    HW210893   1.014   3.242   2.331
 3332SOL     OW10894   4.043   4.949   0.801
 3332SOL    HW110895   4.109   4.875   0.792
 3332SOL    HW210896   3.956   4.921   0.759
 3333SOL     OW10897   2.392   4.382   0.728
 3333SOL    HW110898   2.374   4.289   0.695
 3333SOL    HW210899   2.355   4.392   0.821
 3334SOL     OW10900   1.957   2.764   2.565
 3334SOL    HW110901   1.913   2.833   2.622
 3334SOL    HW210902   2.056   2.774   2.571
 3335SOL     OW10903   4.611   4.329   6.098
 3335SOL    HW110904   4.546   4.255   6.117
 3335SOL    HW210905   4.581   4.412   6.146
 3336SOL     OW10906   3.579   5.622   5.944
 3336SOL    HW110907   3.553   5.610   6.039
 3336SOL    HW210908   3.532   5.555   5.887
 3337SOL     OW10909   3.031   3.762   4.132
 3337SOL    HW110910   2.992   3.672   4.117
 3337SOL    HW210911   3.123   3.753   4.172
 3338SOL     OW10912   3.410   3.090   1.691
 3338SOL    HW110913   3.320   3.125   1.666
 3338SOL    HW210914   3.449   3.041   1.612
 3339SOL     OW10915   1.073   6.760   6.145
 3339SOL    HW110916   1.106   6.732   6.055
 3339SOL    HW210917   0.988   6.812   6.135
 3340SOL     OW10918   4.912   1.079   6.613
 3340SOL    HW110919   4.909   1.041   6.520
 3340SOL    HW210920   4.830   1.134   6.629
 3341SOL     OW10921   1.388   4.346   1.371
 3341SOL    HW110922   1.389   4.330   1.272
 3341SOL    HW210923   1.394   4.445   1.388
 3342SOL     OW10924   5.733   0.263   2.042
 3342SOL    HW110925   5.640   0.293   2.020
 3342SOL    HW210926   5.737   0.163   2.042
 3343SOL     OW10927   3.321   4.708   1.041
 3343SOL    HW110928   3.261   4.686   1.118
 3343SOL    HW210929   3.295   4.797   1.003
 3344SOL     OW10930   1.352   3.460   1.537
 3344SOL    HW110931   1.354   3.549   1.582
 3344SOL    HW210932   1.378   3.472   1.441
 3345SOL     OW10933   5.055   5.208   1.135
 3345SOL    HW110934   5.060   5.109   1.146
 3345SOL    HW210935   5.061   5.231   1.038
 3346SOL     OW10936   1.258   1.131   6.677
 3346SOL    HW110937   1.231   1.171   6.764
 3346SOL    HW210938   1.188   1.066   6.648
 3347SOL     OW10939   0.720   3.329   5.378
 3347SOL    HW110940   0.765   3.285   5.456
 3347SOL    HW210941   0.631   3.287   5.363
 3348SOL     OW10942   3.417   3.811   5.910
 3348SOL    HW110943   3.425   3.730   5.968
 3348SOL    HW210944   3.419   3.894   5.966
 3349SOL     OW10945   1.910   5.442   1.865
 3349SOL    HW110946   1.888   5.356   1.819
 3349SOL    HW210947   1.995   5.479   1.827
 3350SOL     OW10948   2.920   5.809   4.398
 3350SOL    HW110949   2.881   5.764   4.479
 3350SOL    HW210950   2.994   5.752   4.361
 3351SOL     OW10951   5.762   6.620   1.596
 3351SOL    HW110952   5.688   6.574   1.644
 3351SOL    HW210953   5.769   6.584   1.503
 3352SOL     OW10954   5.877   1.000   6.976
 3352SOL    HW110955   5.896   1.069   0.026
 3352SOL    HW210956   5.826   1.041   6.900
 3353SOL     OW10957   4.000   0.479   6.125
 3353SOL    HW110958   3.902   0.494   6.141
 3353SOL    HW210959   4.053   0.524   6.197
 3354SOL     OW10960   2.618   2.230   0.198
 3354SOL    HW110961   2.572   2.169   0.263
 3354SOL    HW210962   2.717   2.222   0.211
 3355SOL     OW10963   1.080   1.819   4.988
 3355SOL    HW110964   1.109   1.906   5.027
 3355SOL    HW210965   1.120   1.744   5.041
 3356SOL     OW10966   3.124   0.598   5.778
 3356SOL    HW110967   3.193   0.657   5.819
 3356SOL    HW210968   3.095   0.636   5.690
 3357SOL     OW10969   3.542   4.058   4.364
 3357SOL    HW110970   3.549   4.093   4.458
 3357SOL    HW210971   3.467   4.105   4.317
 3358SOL     OW10972   0.141   1.887   1.754
 3358SOL    HW110973   0.135   1.811   1.820
 3358SOL    HW210974   0.062   1.947   1.765
 3359SOL     OW10975   1.308   7.004   3.999
 3359SOL    HW110976   1.391   7.002   4.055
 3359SOL    HW210977   1.289   6.912   3.965
 3360SOL     OW10978   1.105   5.432   4.749
 3360SOL    HW110979   1.197   5.394   4.747
 3360SOL    HW210980   1.087   5.472   4.839
 3361SOL     OW10981   0.308   6.898   4.306
 3361SOL    HW110982   0.399   6.938   4.288
 3361SOL    HW210983   0.248   6.968   4.345
 3362SOL     OW10984   2.938   0.933   5.247
 3362SOL    HW110985   3.010   0.942   5.317
 3362SOL    HW210986   2.954   0.850   5.193
 3363SOL     OW10987   4.842   3.794   0.417
 3363SOL    HW110988   4.778   3.805   0.493
 3363SOL    HW210989   4.918   3.858   0.428
 3364SOL     OW10990   1.841   3.019   1.161
 3364SOL    HW110991   1.755   2.992   1.116
 3364SOL    HW210992   1.890   3.083   1.103
 3365SOL     OW10993   0.742   2.658   2.999
 3365SOL    HW110994   0.672   2.700   2.941
 3365SOL    HW210995   0.795   2.593   2.945
 3366SOL     OW10996   5.775   3.773   3.821
 3366SOL    HW110997   5.682   3.739   3.808
 3366SOL    HW210998   5.823   3.712   3.884
 3367SOL     OW10999   3.131   4.027   4.057
 3367SOL    HW111000   3.094   4.010   3.966
 3367SOL    HW211001   3.108   3.951   4.117
 3368SOL     OW11002   1.921   1.010   3.533
 3368SOL    HW111003   1.859   0.933   3.536
 3368SOL    HW211004   2.016   0.977   3.530
 3369SOL     OW11005   5.570   2.957   0.394
 3369SOL    HW111006   5.479   2.922   0.373
 3369SOL    HW211007   5.570   3.057   0.390
 3370SOL     OW11008   0.455   5.818   3.238
 3370SOL    HW111009   0.396   5.811   3.158
 3370SOL    HW211010   0.423   5.892   3.296
 3371SOL     OW11011   2.548   3.061   1.209
 3371SOL    HW111012   2.585   2.971   1.235
 3371SOL    HW211013   2.624   3.121   1.184
 3372SOL     OW11014   4.933   3.173   3.057
 3372SOL    HW111015   4.904   3.196   2.964
 3372SOL    HW211016   4.927   3.254   3.115
 3373SOL     OW11017   0.349   4.893   0.728
 3373SOL    HW111018   0.427   4.956   0.730
 3373SOL    HW211019   0.322   4.871   0.822
 3374SOL     OW11020   1.259   5.723   3.907
 3374SOL    HW111021   1.283   5.626   3.898
 3374SOL    HW211022   1.171   5.730   3.954
 3375SOL     OW11023   6.871   6.721   5.611
 3375SOL    HW111024   6.915   6.631   5.612
 3375SOL    HW211025   6.940   6.792   5.621
 3376SOL     OW11026   3.659   3.842   4.608
 3376SOL    HW111027   3.631   3.868   4.701
 3376SOL    HW211028   3.740   3.895   4.582
 3377SOL     OW11029   0.271   5.531   4.002
 3377SOL    HW111030   0.353   5.484   4.034
 3377SOL    HW211031   0.195   5.465   3.995
 3378SOL     OW11032   1.109   5.788   0.434
 3378SOL    HW111033   1.038   5.757   0.497
 3378SOL    HW211034   1.101   5.739   0.348
 3379SOL     OW11035   6.326   4.671   3.712
 3379SOL    HW111036   6.264   4.611   3.661
 3379SOL    HW211037   6.413   4.623   3.727
 3380SOL     OW11038   1.693   4.648   2.149
 3380SOL    HW111039   1.749   4.691   2.221
 3380SOL    HW211040   1.627   4.586   2.191
 3381SOL     OW11041   3.085   4.187   0.010
 3381SOL    HW111042   3.080   4.286   7.017
 3381SOL    HW211043   3.075   4.142   6.941
 3382SOL     OW11044   0.488   3.783   6.394
 3382SOL    HW111045   0.401   3.823   6.423
 3382SOL    HW211046   0.563   3.825   6.445
 3383SOL     OW11047   3.394   6.053   0.440
 3383SOL    HW111048   3.382   6.149   0.466
 3383SOL    HW211049   3.385   5.995   0.520
 3384SOL     OW11050   3.516   2.324   5.832
 3384SOL    HW111051   3.418   2.329   5.812
 3384SOL    HW211052   3.541   2.400   5.891
 3385SOL     OW11053   5.830   2.650   4.655
 3385SOL    HW111054   5.926   2.678   4.666
 3385SOL    HW211055   5.826   2.569   4.597
 3386SOL     OW11056   0.409   4.789   5.417
 3386SOL    HW111057   0.354   4.848   5.358
 3386SOL    HW211058   0.390   4.809   5.513
 3387SOL     OW11059   5.620   0.618   2.725
 3387SOL    HW111060   5.589   0.526   2.703
 3387SOL    HW211061   5.564   0.685   2.675
 3388SOL     OW11062   1.024   3.928   0.670
 3388SOL    HW111063   1.111   3.921   0.622
 3388SOL    HW211064   0.964   3.853   0.642
 3389SOL     OW11065   6.165   5.354   6.154
 3389SOL    HW111066   6.194   5.258   6.147
 3389SOL    HW211067   6.120   5.381   6.069
 3390SOL     OW11068   2.861   4.825   1.121
 3390SOL    HW111069   2.862   4.734   1.080
 3390SOL    HW211070   2.802   4.824   1.202
 3391SOL     OW11071   5.304   3.988   5.572
 3391SOL    HW111072   5.228   4.049   5.594
 3391SOL    HW211073   5.390   4.036   5.585
 3392SOL     OW11074   4.858   6.173   5.696
 3392SOL    HW111075   4.917   6.104   5.738
 3392SOL    HW211076   4.786   6.127   5.643
 3393SOL     OW11077   3.578   0.402   0.781
 3393SOL    HW111078   3.582   0.501   0.795
 3393SOL    HW211079   3.511   0.381   0.709
 3394SOL     OW11080   2.675   5.724   1.370
 3394SOL    HW111081   2.754   5.667   1.390
 3394SOL    HW211082   2.692   5.818   1.400
 3395SOL     OW11083   1.796   6.004   3.200
 3395SOL    HW111084   1.847   6.005   3.115
 3395SOL    HW211085   1.699   5.988   3.181
 3396SOL     OW11086   3.933   0.679   4.001
 3396SOL    HW111087   3.992   0.724   4.069
 3396SOL    HW211088   3.840   0.673   4.037
 3397SOL     OW11089   2.664   6.235   1.462
 3397SOL    HW111090   2.581   6.204   1.415
 3397SOL    HW211091   2.695   6.321   1.421
 3398SOL     OW11092   6.865   0.358   0.129
 3398SOL    HW111093   6.819   0.281   0.174
 3398SOL    HW211094   6.953   0.375   0.175
 3399SOL     OW11095   6.496   6.192   1.895
 3399SOL    HW111096   6.417   6.196   1.957
 3399SOL    HW211097   6.482   6.255   1.819
 3400SOL     OW11098   3.629   3.044   5.613
 3400SOL    HW111099   3.532   3.067   5.611
 3400SOL    HW211100   3.675   3.097   5.684
 3401SOL     OW11101   6.646   3.784   4.296
 3401SOL    HW111102   6.635   3.756   4.391
 3401SOL    HW211103   6.686   3.876   4.293
 3402SOL     OW11104   6.097   3.570   0.158
 3402SOL    HW111105   6.032   3.508   0.202
 3402SOL    HW211106   6.190   3.535   0.170
 3403SOL     OW11107   5.629   6.685   3.667
 3403SOL    HW111108   5.641   6.778   3.633
 3403SOL    HW211109   5.659   6.680   3.762
 3404SOL     OW11110   5.551   5.052   3.186
 3404SOL    HW111111   5.574   5.057   3.283
 3404SOL    HW211112   5.633   5.034   3.132
 3405SOL     OW11113   4.235   6.881   1.126
 3405SOL    HW111114   4.146   6.900   1.167
 3405SOL    HW211115   4.264   6.959   1.071
 3406SOL     OW11116   4.306   5.085   0.781
 3406SOL    HW111117   4.368   5.027   0.834
 3406SOL    HW211118   4.218   5.038   0.770
 3407SOL     OW11119   1.846   1.530   0.813
 3407SOL    HW111120   1.760   1.521   0.763
 3407SOL    HW211121   1.897   1.609   0.780
 3408SOL     OW11122   3.615   0.164   3.881
 3408SOL    HW111123   3.574   0.074   3.872
 3408SOL    HW211124   3.571   0.227   3.816
 3409SOL     OW11125   4.440   2.103   6.755
 3409SOL    HW111126   4.480   2.015   6.730
 3409SOL    HW211127   4.347   2.090   6.790
 3410SOL     OW11128   6.570   1.075   2.767
 3410SOL    HW111129   6.625   1.062   2.849
 3410SOL    HW211130   6.612   1.026   2.691
 3411SOL     OW11131   5.391   3.175   6.592
 3411SOL    HW111132   5.322   3.153   6.661
 3411SOL    HW211133   5.351   3.232   6.521
 3412SOL     OW11134   5.045   3.182   3.732
 3412SOL    HW111135   4.978   3.150   3.799
 3412SOL    HW211136   4.998   3.236   3.662
 3413SOL     OW11137   1.142   2.498   0.906
 3413SOL    HW111138   1.236   2.525   0.888
 3413SOL    HW211139   1.096   2.571   0.957
 3414SOL     OW11140   3.937   2.973   2.167
 3414SOL    HW111141   4.034   2.993   2.155
 3414SOL    HW211142   3.890   2.981   2.079
 3415SOL     OW11143   2.494   0.362   6.687
 3415SOL    HW111144   2.506   0.299   6.764
 3415SOL    HW211145   2.579   0.365   6.634
 3416SOL     OW11146   5.437   6.436   6.140
 3416SOL    HW111147   5.425   6.475   6.049
 3416SOL    HW211148   5.372   6.479   6.204
 3417SOL     OW11149   6.108   1.051   2.360
 3417SOL    HW111150   6.120   1.021   2.265
 3417SOL    HW211151   6.010   1.065   2.378
 3418SOL     OW11152   4.477   4.974   1.401
 3418SOL    HW111153   4.397   4.944   1.452
 3418SOL    HW211154   4.560   4.947   1.450
 3419SOL     OW11155   3.011   4.775   5.274
 3419SOL    HW111156   2.976   4.687   5.241
 3419SOL    HW211157   3.001   4.844   5.203
 3420SOL     OW11158   4.852   1.188   1.749
 3420SOL    HW111159   4.776   1.151   1.695
 3420SOL    HW211160   4.834   1.284   1.770
 3421SOL     OW11161   0.431   1.497   4.178
 3421SOL    HW111162   0.530   1.485   4.171
 3421SOL    HW211163   0.389   1.411   4.208
 3422SOL     OW11164   3.137   5.045   1.354
 3422SOL    HW111165   3.078   5.109   1.304
 3422SOL    HW211166   3.165   5.086   1.440
 3423SOL     OW11167   1.862   4.496   6.161
 3423SOL    HW111168   1.950   4.477   6.204
 3423SOL    HW211169   1.815   4.568   6.212
 3424SOL     OW11170   5.543   6.229   2.274
 3424SOL    HW111171   5.452   6.190   2.258
 3424SOL    HW211172   5.577   6.199   2.363
 3425SOL     OW11173   5.390   2.676   6.446
 3425SOL    HW111174   5.426   2.755   6.396
 3425SOL    HW211175   5.466   2.619   6.476
 3426SOL     OW11176   6.481   5.762   6.243
 3426SOL    HW111177   6.523   5.842   6.202
 3426SOL    HW211178   6.397   5.789   6.290
 3427SOL     OW11179   1.619   1.544   6.879
 3427SOL    HW111180   1.585   1.604   6.806
 3427SOL    HW211181   1.699   1.585   6.922
 3428SOL     OW11182   4.448   0.825   3.926
 3428SOL    HW111183   4.512   0.859   3.857
 3428SOL    HW211184   4.385   0.898   3.953
 3429SOL     OW11185   5.064   5.516   0.321
 3429SOL    HW111186   5.088   5.610   0.347
 3429SOL    HW211187   5.080   5.455   0.399
 3430SOL     OW11188   2.694   4.136   0.004
 3430SOL    HW111189   2.739   4.221   0.029
 3430SOL    HW211190   2.727   4.106   6.933
 3431SOL     OW11191   1.524   4.332   2.063
 3431SOL    HW111192   1.500   4.237   2.044
 3431SOL    HW211193   1.471   4.366   2.141
 3432SOL     OW11194   0.508   5.260   6.453
 3432SOL    HW111195   0.436   5.329   6.459
 3432SOL    HW211196   0.564   5.278   6.371
 3433SOL     OW11197   0.623   1.485   0.071
 3433SOL    HW111198   0.666   1.525   7.010
 3433SOL    HW211199   0.686   1.418   0.112
 3434SOL     OW11200   4.176   2.237   2.129
 3434SOL    HW111201   4.205   2.155   2.080
 3434SOL    HW211202   4.076   2.245   2.125
 3435SOL     OW11203   3.220   2.803   1.174
 3435SOL    HW111204   3.292   2.762   1.230
 3435SOL    HW211205   3.160   2.731   1.138
 3436SOL     OW11206   4.340   5.740   5.473
 3436SOL    HW111207   4.323   5.743   5.374
 3436SOL    HW211208   4.329   5.646   5.505
 3437SOL     OW11209   2.267   6.210   0.724
 3437SOL    HW111210   2.270   6.110   0.726
 3437SOL    HW211211   2.321   6.246   0.800
 3438SOL     OW11212   2.605   4.411   0.511
 3438SOL    HW111213   2.631   4.316   0.498
 3438SOL    HW211214   2.554   4.421   0.597
 3439SOL     OW11215   3.134   6.097   0.848
 3439SOL    HW111216   3.187   6.012   0.848
 3439SOL    HW211217   3.174   6.161   0.914
 3440SOL     OW11218   4.099   4.271   5.801
 3440SOL    HW111219   4.103   4.370   5.815
 3440SOL    HW211220   4.065   4.228   5.885
 3441SOL     OW11221   0.257   5.176   5.410
 3441SOL    HW111222   0.288   5.104   5.347
 3441SOL    HW211223   0.224   5.134   5.494
 3442SOL     OW11224   1.375   2.124   0.465
 3442SOL    HW111225   1.394   2.051   0.400
 3442SOL    HW211226   1.294   2.101   0.518
 3443SOL     OW11227   6.950   6.032   2.096
 3443SOL    HW111228   7.013   5.998   2.027
 3443SOL    HW211229   6.857   6.037   2.058
 3444SOL     OW11230   1.121   3.858   6.064
 3444SOL    HW111231   1.035   3.821   6.100
 3444SOL    HW211232   1.122   3.957   6.074
 3445SOL     OW11233   6.020   5.293   4.914
 3445SOL    HW111234   6.046   5.274   4.820
 3445SOL    HW211235   6.063   5.377   4.945
 3446SOL     OW11236   5.085   1.600   0.465
 3446SOL    HW111237   5.181   1.617   0.490
 3446SOL    HW211238   5.028   1.606   0.547
 3447SOL     OW11239   5.139   1.764   6.021
 3447SOL    HW111240   5.199   1.706   5.966
 3447SOL    HW211241   5.184   1.785   6.108
 3448SOL     OW11242   0.888   5.608   4.712
 3448SOL    HW111243   0.977   5.563   4.701
 3448SOL    HW211244   0.838   5.566   4.787
 3449SOL     OW11245   1.413   4.028   4.794
 3449SOL    HW111246   1.374   4.098   4.734
 3449SOL    HW211247   1.462   4.072   4.870
 3450SOL     OW11248   2.108   6.968   2.951
 3450SOL    HW111249   2.052   6.906   3.006
 3450SOL    HW211250   2.187   6.919   2.915
 3451SOL     OW11251   2.239   1.955   0.701
 3451SOL    HW111252   2.212   1.862   0.724
 3451SOL    HW211253   2.253   2.008   0.784
 3452SOL     OW11254   4.374   0.878   5.146
 3452SOL    HW111255   4.432   0.959   5.149
 3452SOL    HW211256   4.327   0.867   5.234
 3453SOL     OW11257   4.209   6.368   5.294
 3453SOL    HW111258   4.307   6.364   5.316
 3453SOL    HW211259   4.195   6.430   5.217
 3454SOL     OW11260   1.352   3.356   3.964
 3454SOL    HW111261   1.378   3.414   4.041
 3454SOL    HW211262   1.261   3.318   3.980
 3455SOL     OW11263   1.408   3.812   6.371
 3455SOL    HW111264   1.482   3.782   6.430
 3455SOL    HW211265   1.375   3.735   6.317
 3456SOL     OW11266   4.260   5.439   2.451
 3456SOL    HW111267   4.169   5.437   2.409
 3456SOL    HW211268   4.328   5.405   2.386
 3457SOL     OW11269   3.706   3.851   0.137
 3457SOL    HW111270   3.786   3.829   0.194
 3457SOL    HW211271   3.641   3.775   0.141
 3458SOL     OW11272   3.854   1.774   1.085
 3458SOL    HW111273   3.889   1.803   1.174
 3458SOL    HW211274   3.871   1.846   1.018
 3459SOL     OW11275   6.676   0.568   3.105
 3459SOL    HW111276   6.639   0.478   3.128
 3459SOL    HW211277   6.707   0.568   3.010
 3460SOL     OW11278   4.988   1.360   5.164
 3460SOL    HW111279   4.900   1.374   5.119
 3460SOL    HW211280   5.019   1.446   5.204
 3461SOL     OW11281   4.323   4.787   3.646
 3461SOL    HW111282   4.378   4.838   3.712
 3461SOL    HW211283   4.372   4.705   3.617
 3462SOL     OW11284   1.449   4.430   6.505
 3462SOL    HW111285   1.360   4.430   6.551
 3462SOL    HW211286   1.508   4.500   6.547
 3463SOL     OW11287   6.399   4.393   6.933
 3463SOL    HW111288   6.494   4.360   6.937
 3463SOL    HW211289   6.342   4.325   6.887
 3464SOL     OW11290   6.729   4.822   4.208
 3464SOL    HW111291   6.725   4.922   4.212
 3464SOL    HW211292   6.653   4.784   4.261
 3465SOL     OW11293   0.871   2.652   1.883
 3465SOL    HW111294   0.883   2.646   1.784
 3465SOL    HW211295   0.779   2.685   1.904
 3466SOL     OW11296   5.775   3.798   3.541
 3466SOL    HW111297   5.805   3.817   3.635
 3466SOL    HW211298   5.714   3.718   3.541
 3467SOL     OW11299   2.049   1.399   6.031
 3467SOL    HW111300   2.050   1.300   6.039
 3467SOL    HW211301   1.956   1.431   6.015
 3468SOL     OW11302   5.326   5.022   1.734
 3468SOL    HW111303   5.326   5.122   1.741
 3468SOL    HW211304   5.346   4.983   1.824
 3469SOL     OW11305   5.801   3.871   0.362
 3469SOL    HW111306   5.711   3.833   0.341
 3469SOL    HW211307   5.807   3.964   0.325
 3470SOL     OW11308   6.612   6.071   0.022
 3470SOL    HW111309   6.613   6.072   6.941
 3470SOL    HW211310   6.521   6.096   0.055
 3471SOL     OW11311   4.250   6.761   4.604
 3471SOL    HW111312   4.156   6.727   4.611
 3471SOL    HW211313   4.252   6.860   4.619
 3472SOL     OW11314   3.621   1.016   4.486
 3472SOL    HW111315   3.544   1.064   4.446
 3472SOL    HW211316   3.590   0.931   4.528
 3473SOL     OW11317   4.622   0.038   4.220
 3473SOL    HW111318   4.543   0.013   4.165
 3473SOL    HW211319   4.617   7.011   4.308
 3474SOL     OW11320   4.945   4.703   0.599
 3474SOL    HW111321   4.963   4.758   0.517
 3474SOL    HW211322   5.029   4.657   0.627
 3475SOL     OW11323   1.772   5.694   5.340
 3475SOL    HW111324   1.765   5.700   5.440
 3475SOL    HW211325   1.681   5.692   5.300
 3476SOL     OW11326   3.347   1.939   3.485
 3476SOL    HW111327   3.398   1.928   3.400
 3476SOL    HW211328   3.327   1.849   3.524
 3477SOL     OW11329   4.514   5.624   2.992
 3477SOL    HW111330   4.580   5.582   2.930
 3477SOL    HW211331   4.551   5.625   3.085
 3478SOL     OW11332   3.708   4.527   0.136
 3478SOL    HW111333   3.651   4.447   0.156
 3478SOL    HW211334   3.649   4.604   0.110
 3479SOL     OW11335   1.737   0.340   0.356
 3479SOL    HW111336   1.722   0.357   0.259
 3479SOL    HW211337   1.835   0.327   0.374
 3480SOL     OW11338   1.157   5.984   4.246
 3480SOL    HW111339   1.085   6.029   4.300
 3480SOL    HW211340   1.243   5.990   4.296
 3481SOL     OW11341   2.438   4.578   0.263
 3481SOL    HW111342   2.469   4.672   0.280
 3481SOL    HW211343   2.517   4.522   0.236
 3482SOL     OW11344   0.151   2.149   2.183
 3482SOL    HW111345   0.207   2.137   2.102
 3482SOL    HW211346   0.100   2.065   2.202
 3483SOL     OW11347   4.080   1.509   1.357
 3483SOL    HW111348   4.000   1.494   1.415
 3483SOL    HW211349   4.105   1.423   1.313
 3484SOL     OW11350   3.406   4.092   3.612
 3484SOL    HW111351   3.384   4.123   3.704
 3484SOL    HW211352   3.454   4.164   3.562
 3485SOL     OW11353   5.886   2.480   4.443
 3485SOL    HW111354   5.850   2.387   4.427
 3485SOL    HW211355   5.864   2.537   4.364
 3486SOL     OW11356   6.215   1.364   2.862
 3486SOL    HW111357   6.314   1.350   2.863
 3486SOL    HW211358   6.176   1.322   2.780
 3487SOL     OW11359   1.822   6.782   1.020
 3487SOL    HW111360   1.781   6.691   1.024
 3487SOL    HW211361   1.751   6.851   1.029
 3488SOL     OW11362   6.239   3.572   5.371
 3488SOL    HW111363   6.207   3.631   5.444
 3488SOL    HW211364   6.182   3.585   5.290
 3489SOL     OW11365   3.015   5.380   6.812
 3489SOL    HW111366   2.963   5.450   6.762
 3489SOL    HW211367   2.975   5.367   6.902
 3490SOL     OW11368   5.314   3.392   0.045
 3490SOL    HW111369   5.218   3.410   0.026
 3490SOL    HW211370   5.340   3.437   0.131
 3491SOL     OW11371   5.910   2.559   5.320
 3491SOL    HW111372   5.932   2.539   5.225
 3491SOL    HW211373   5.988   2.605   5.363
 3492SOL     OW11374   0.256   4.718   6.443
 3492SOL    HW111375   0.208   4.633   6.424
 3492SOL    HW211376   0.349   4.714   6.407
 3493SOL     OW11377   6.689   4.811   0.971
 3493SOL    HW111378   6.782   4.835   0.997
 3493SOL    HW211379   6.658   4.733   1.026
 3494SOL     OW11380   3.655   0.313   1.057
 3494SOL    HW111381   3.751   0.335   1.041
 3494SOL    HW211382   3.604   0.324   0.971
 3495SOL     OW11383   6.081   4.412   6.253
 3495SOL    HW111384   6.100   4.346   6.181
 3495SOL    HW211385   6.093   4.368   6.342
 3496SOL     OW11386   0.524   5.820   1.556
 3496SOL    HW111387   0.482   5.744   1.508
 3496SOL    HW211388   0.523   5.901   1.498
 3497SOL     OW11389   2.911   0.424   5.356
 3497SOL    HW111390   2.901   0.403   5.258
 3497SOL    HW211391   2.969   0.354   5.398
 3498SOL     OW11392   0.703   1.844   0.449
 3498SOL    HW111393   0.706   1.763   0.508
 3498SOL    HW211394   0.696   1.815   0.353
 3499SOL     OW11395   6.310   4.018   3.078
 3499SOL    HW111396   6.349   3.984   3.164
 3499SOL    HW211397   6.238   3.955   3.047
 3500SOL     OW11398   6.571   2.721   1.127
 3500SOL    HW111399   6.584   2.636   1.075
 3500SOL    HW211400   6.586   2.703   1.224
 3501SOL     OW11401   0.094   5.310   3.280
 3501SOL    HW111402   0.028   5.289   3.352
 3501SOL    HW211403   0.046   5.339   3.198
 3502SOL     OW11404   0.718   6.269   1.285
 3502SOL    HW111405   0.816   6.248   1.290
 3502SOL    HW211406   0.693   6.290   1.191
 3503SOL     OW11407   3.096   0.488   3.650
 3503SOL    HW111408   3.143   0.564   3.606
 3503SOL    HW211409   3.036   0.443   3.584
 3504SOL     OW11410   2.058   3.062   2.480
 3504SOL    HW111411   1.981   3.024   2.532
 3504SOL    HW211412   2.059   3.161   2.489
 3505SOL     OW11413   4.351   6.588   4.397
 3505SOL    HW111414   4.334   6.658   4.467
 3505SOL    HW211415   4.273   6.526   4.392
 3506SOL     OW11416   6.672   3.942   2.877
 3506SOL    HW111417   6.607   4.018   2.880
 3506SOL    HW211418   6.752   3.968   2.822
 3507SOL     OW11419   6.879   0.423   5.237
 3507SOL    HW111420   6.820   0.502   5.256
 3507SOL    HW211421   6.963   0.454   5.194
 3508SOL     OW11422   0.185   4.521   6.857
 3508SOL    HW111423   0.269   4.569   6.833
 3508SOL    HW211424   0.184   4.501   6.955
 3509SOL     OW11425   4.504   6.926   6.458
 3509SOL    HW111426   4.594   6.907   6.497
 3509SOL    HW211427   4.454   6.987   6.519
 3510SOL     OW11428   1.889   1.076   2.684
 3510SOL    HW111429   1.977   1.122   2.683
 3510SOL    HW211430   1.827   1.119   2.618
 3511SOL     OW11431   0.931   0.812   4.156
 3511SOL    HW111432   0.969   0.812   4.064
 3511SOL    HW211433   0.983   0.749   4.214
 3512SOL     OW11434   3.387   3.504   1.906
 3512SOL    HW111435   3.291   3.476   1.909
 3512SOL    HW211436   3.398   3.581   1.843
 3513SOL     OW11437   6.552   4.603   1.102
 3513SOL    HW111438   6.524   4.530   1.164
 3513SOL    HW211439   6.472   4.652   1.069
 3514SOL     OW11440   3.298   5.983   3.179
 3514SOL    HW111441   3.211   6.026   3.158
 3514SOL    HW211442   3.290   5.884   3.167
 3515SOL     OW11443   4.307   5.675   3.482
 3515SOL    HW111444   4.282   5.593   3.432
 3515SOL    HW211445   4.306   5.754   3.420
 3516SOL     OW11446   0.871   1.359   0.207
 3516SOL    HW111447   0.930   1.367   0.287
 3516SOL    HW211448   0.796   1.296   0.227
 3517SOL     OW11449   0.300   0.467   7.001
 3517SOL    HW111450   0.230   0.443   6.934
 3517SOL    HW211451   0.387   0.424   6.976
 3518SOL     OW11452   4.204   3.721   6.226
 3518SOL    HW111453   4.271   3.753   6.293
 3518SOL    HW211454   4.233   3.633   6.189
 3519SOL     OW11455   4.327   0.143   0.018
 3519SOL    HW111456   4.373   0.232   0.022
 3519SOL    HW211457   4.373   0.079   0.079
 3520SOL     OW11458   3.979   4.803   1.478
 3520SOL    HW111459   3.983   4.873   1.407
 3520SOL    HW211460   3.934   4.721   1.442
 3521SOL     OW11461   0.373   2.187   5.497
 3521SOL    HW111462   0.293   2.236   5.532
 3521SOL    HW211463   0.456   2.228   5.534
 3522SOL     OW11464   2.204   0.203   0.787
 3522SOL    HW111465   2.278   0.239   0.731
 3522SOL    HW211466   2.222   0.225   0.883
 3523SOL     OW11467   2.082   3.938   5.186
 3523SOL    HW111468   2.160   3.916   5.128
 3523SOL    HW211469   2.069   4.037   5.187
 3524SOL     OW11470   2.614   1.986   3.654
 3524SOL    HW111471   2.545   1.982   3.582
 3524SOL    HW211472   2.701   2.016   3.616
 3525SOL     OW11473   1.637   2.963   3.575
 3525SOL    HW111474   1.672   2.988   3.485
 3525SOL    HW211475   1.561   3.023   3.599
 3526SOL     OW11476   3.492   5.794   3.474
 3526SOL    HW111477   3.572   5.736   3.488
 3526SOL    HW211478   3.465   5.792   3.378
 3527SOL     OW11479   6.943   4.122   6.475
 3527SOL    HW111480   6.948   4.134   6.574
 3527SOL    HW211481   6.870   4.179   6.438
 3528SOL     OW11482   0.725   6.547   4.099
 3528SOL    HW111483   0.696   6.595   4.016
 3528SOL    HW211484   0.684   6.591   4.179
 3529SOL     OW11485   3.252   5.667   0.616
 3529SOL    HW111486   3.250   5.701   0.522
 3529SOL    HW211487   3.345   5.638   0.639
 3530SOL     OW11488   2.354   5.585   2.797
 3530SOL    HW111489   2.280   5.599   2.863
 3530SOL    HW211490   2.434   5.636   2.827
 3531SOL     OW11491   5.069   4.573   6.360
 3531SOL    HW111492   5.061   4.566   6.459
 3531SOL    HW211493   5.136   4.644   6.337
 3532SOL     OW11494   2.378   6.618   0.111
 3532SOL    HW111495   2.411   6.615   0.205
 3532SOL    HW211496   2.437   6.677   0.056
 3533SOL     OW11497   1.133   1.055   3.545
 3533SOL    HW111498   1.123   1.103   3.458
 3533SOL    HW211499   1.044   1.043   3.588
 3534SOL     OW11500   5.006   0.062   4.251
 3534SOL    HW111501   4.956   0.116   4.183
 3534SOL    HW211502   5.082   0.014   4.206
 3535SOL     OW11503   4.435   4.868   0.011
 3535SOL    HW111504   4.517   4.921   7.010
 3535SOL    HW211505   4.419   4.867   0.110
 3536SOL     OW11506   2.040   3.322   2.437
 3536SOL    HW111507   2.006   3.348   2.346
 3536SOL    HW211508   1.997   3.381   2.506
 3537SOL     OW11509   3.382   5.034   2.081
 3537SOL    HW111510   3.336   5.061   2.165
 3537SOL    HW211511   3.478   5.013   2.100
 3538SOL     OW11512   3.259   0.282   3.223
 3538SOL    HW111513   3.344   0.267   3.272
 3538SOL    HW211514   3.193   0.210   3.247
 3539SOL     OW11515   5.363   5.359   5.615
 3539SOL    HW111516   5.412   5.446   5.607
 3539SOL    HW211517   5.322   5.352   5.706
 3540SOL     OW11518   4.369   4.088   6.485
 3540SOL    HW111519   4.428   4.169   6.482
 3540SOL    HW211520   4.275   4.114   6.467
 3541SOL     OW11521   0.807   2.923   2.546
 3541SOL    HW111522   0.863   3.004   2.561
 3541SOL    HW211523   0.766   2.928   2.455
 3542SOL     OW11524   5.665   1.074   6.792
 3542SOL    HW111525   5.575   1.115   6.804
 3542SOL    HW211526   5.661   1.009   6.716
 3543SOL     OW11527   6.954   2.922   4.666
 3543SOL    HW111528   0.011   2.972   4.624
 3543SOL    HW211529   6.910   2.981   4.734
 3544SOL     OW11530   3.415   4.878   5.839
 3544SOL    HW111531   3.396   4.792   5.793
 3544SOL    HW211532   3.469   4.861   5.922
 3545SOL     OW11533   2.696   6.833   1.054
 3545SOL    HW111534   2.699   6.756   0.989
 3545SOL    HW211535   2.647   6.805   1.136
 3546SOL     OW11536   0.357   4.604   0.974
 3546SOL    HW111537   0.338   4.702   0.965
 3546SOL    HW211538   0.299   4.554   0.909
 3547SOL     OW11539   1.726   3.726   4.326
 3547SOL    HW111540   1.822   3.696   4.330
 3547SOL    HW211541   1.722   3.818   4.286
 3548SOL     OW11542   6.390   0.090   5.453
 3548SOL    HW111543   6.320   0.031   5.491
 3548SOL    HW211544   6.480   0.052   5.472
 3549SOL     OW11545   1.902   6.956   6.719
 3549SOL    HW111546   1.978   7.016   6.694
 3549SOL    HW211547   1.890   6.888   6.647
 3550SOL     OW11548   6.616   2.240   5.223
 3550SOL    HW111549   6.639   2.337   5.221
 3550SOL    HW211550   6.548   2.222   5.293
 3551SOL     OW11551   6.365   1.205   4.933
 3551SOL    HW111552   6.462   1.183   4.947
 3551SOL    HW211553   6.319   1.207   5.022
 3552SOL     OW11554   6.134   1.160   3.829
 3552SOL    HW111555   6.196   1.199   3.897
 3552SOL    HW211556   6.054   1.121   3.874
 3553SOL     OW11557   5.521   6.216   6.329
 3553SOL    HW111558   5.462   6.280   6.280
 3553SOL    HW211559   5.470   6.134   6.353
 3554SOL     OW11560   5.701   3.702   6.582
 3554SOL    HW111561   5.666   3.737   6.495
 3554SOL    HW211562   5.758   3.622   6.565
 3555SOL     OW11563   3.383   1.326   5.513
 3555SOL    HW111564   3.302   1.362   5.559
 3555SOL    HW211565   3.377   1.344   5.415
 3556SOL     OW11566   5.649   1.035   1.158
 3556SOL    HW111567   5.588   1.093   1.212
 3556SOL    HW211568   5.693   0.968   1.218
 3557SOL     OW11569   4.809   0.169   1.444
 3557SOL    HW111570   4.831   0.149   1.539
 3557SOL    HW211571   4.892   0.167   1.389
 3558SOL     OW11572   3.948   5.623   2.951
 3558SOL    HW111573   3.957   5.596   2.855
 3558SOL    HW211574   3.985   5.714   2.964
 3559SOL     OW11575   4.018   6.203   6.527
 3559SOL    HW111576   4.022   6.302   6.542
 3559SOL    HW211577   3.938   6.181   6.472
 3560SOL     OW11578   2.084   5.922   4.321
 3560SOL    HW111579   2.054   6.017   4.329
 3560SOL    HW211580   2.009   5.862   4.351
 3561SOL     OW11581   3.865   2.498   5.899
 3561SOL    HW111582   3.912   2.480   5.985
 3561SOL    HW211583   3.874   2.419   5.839
 3562SOL     OW11584   2.980   0.883   0.213
 3562SOL    HW111585   2.986   0.794   0.167
 3562SOL    HW211586   3.023   0.953   0.155
 3563SOL     OW11587   6.977   2.261   6.483
 3563SOL    HW111588   6.961   2.227   6.390
 3563SOL    HW211589   7.001   2.358   6.478
 3564SOL     OW11590   5.693   3.015   3.101
 3564SOL    HW111591   5.759   3.039   3.029
 3564SOL    HW211592   5.601   3.043   3.072
 3565SOL     OW11593   4.796   6.655   4.847
 3565SOL    HW111594   4.880   6.677   4.797
 3565SOL    HW211595   4.772   6.559   4.833
 3566SOL     OW11596   0.542   0.884   4.942
 3566SOL    HW111597   0.498   0.838   4.865
 3566SOL    HW211598   0.571   0.975   4.914
 3567SOL     OW11599   0.738   4.579   6.476
 3567SOL    HW111600   0.673   4.643   6.515
 3567SOL    HW211601   0.764   4.609   6.384
 3568SOL     OW11602   2.722   4.343   5.919
 3568SOL    HW111603   2.712   4.386   5.830
 3568SOL    HW211604   2.636   4.345   5.969
 3569SOL     OW11605   0.821   0.571   3.102
 3569SOL    HW111606   0.854   0.495   3.046
 3569SOL    HW211607   0.732   0.600   3.068
 3570SOL     OW11608   0.103   2.190   4.764
 3570SOL    HW111609   0.156   2.273   4.778
 3570SOL    HW211610   0.124   2.151   4.674
 3571SOL     OW11611   6.579   5.406   4.939
 3571SOL    HW111612   6.678   5.392   4.930
 3571SOL    HW211613   6.531   5.326   4.902
 3572SOL     OW11614   5.616   6.162   5.473
 3572SOL    HW111615   5.668   6.231   5.422
 3572SOL    HW211616   5.651   6.071   5.452
 3573SOL     OW11617   0.785   2.639   2.227
 3573SOL    HW111618   0.835   2.606   2.307
 3573SOL    HW211619   0.722   2.568   2.195
 3574SOL     OW11620   6.882   3.926   0.082
 3574SOL    HW111621   6.853   3.852   0.021
 3574SOL    HW211622   6.837   4.011   0.055
 3575SOL     OW11623   6.410   0.291   2.855
 3575SOL    HW111624   6.371   0.383   2.847
 3575SOL    HW211625   6.365   0.242   2.929
 3576SOL     OW11626   0.423   1.143   0.692
 3576SOL    HW111627   0.459   1.160   0.600
 3576SOL    HW211628   0.356   1.214   0.715
 3577SOL     OW11629   2.222   4.796   0.445
 3577SOL    HW111630   2.272   4.710   0.455
 3577SOL    HW211631   2.234   4.852   0.527
 3578SOL     OW11632   3.398   4.527   1.618
 3578SOL    HW111633   3.454   4.560   1.694
 3578SOL    HW211634   3.313   4.580   1.615
 3579SOL     OW11635   2.343   2.940   6.486
 3579SOL    HW111636   2.259   2.989   6.462
 3579SOL    HW211637   2.334   2.901   6.578
 3580SOL     OW11638   5.911   1.482   1.850
 3580SOL    HW111639   5.977   1.501   1.777
 3580SOL    HW211640   5.833   1.543   1.842
 3581SOL     OW11641   0.080   1.187   2.823
 3581SOL    HW111642   0.048   1.237   2.903
 3581SOL    HW211643   0.042   1.095   2.823
 3582SOL     OW11644   0.705   0.566   5.734
 3582SOL    HW111645   0.724   0.638   5.667
 3582SOL    HW211646   0.713   0.477   5.689
 3583SOL     OW11647   1.539   6.946   1.434
 3583SOL    HW111648   1.462   6.953   1.497
 3583SOL    HW211649   1.598   0.007   1.443
 3584SOL     OW11650   5.354   0.543   4.719
 3584SOL    HW111651   5.266   0.590   4.711
 3584SOL    HW211652   5.338   0.445   4.729
 3585SOL     OW11653   2.523   4.504   3.856
 3585SOL    HW111654   2.502   4.542   3.766
 3585SOL    HW211655   2.595   4.558   3.899
 3586SOL     OW11656   1.283   0.959   0.017
 3586SOL    HW111657   1.243   0.867   0.017
 3586SOL    HW211658   1.215   1.024   0.050
 3587SOL     OW11659   3.490   6.659   5.918
 3587SOL    HW111660   3.560   6.618   5.859
 3587SOL    HW211661   3.472   6.599   5.995
 3588SOL     OW11662   2.556   2.653   5.548
 3588SOL    HW111663   2.516   2.740   5.519
 3588SOL    HW211664   2.530   2.581   5.484
 3589SOL     OW11665   2.941   6.743   4.502
 3589SOL    HW111666   2.887   6.693   4.570
 3589SOL    HW211667   2.901   6.728   4.411
 3590SOL     OW11668   0.900   5.727   6.923
 3590SOL    HW111669   0.909   5.628   6.909
 3590SOL    HW211670   0.893   5.772   6.834
 3591SOL     OW11671   5.140   1.336   5.460
 3591SOL    HW111672   5.179   1.424   5.432
 3591SOL    HW211673   5.164   1.266   5.392
 3592SOL     OW11674   5.639   1.493   2.169
 3592SOL    HW111675   5.611   1.544   2.088
 3592SOL    HW211676   5.738   1.478   2.167
 3593SOL     OW11677   0.868   5.439   3.987
 3593SOL    HW111678   0.781   5.390   3.987
 3593SOL    HW211679   0.917   5.421   4.072
 3594SOL     OW11680   4.334   1.519   4.043
 3594SOL    HW111681   4.258   1.454   4.033
 3594SOL    HW211682   4.385   1.524   3.957
 3595SOL     OW11683   2.476   6.135   6.104
 3595SOL    HW111684   2.436   6.052   6.067
 3595SOL    HW211685   2.418   6.170   6.178
 3596SOL     OW11686   6.497   3.478   2.698
 3596SOL    HW111687   6.523   3.574   2.710
 3596SOL    HW211688   6.416   3.472   2.640
 3597SOL     OW11689   4.111   0.445   4.289
 3597SOL    HW111690   4.047   0.371   4.270
 3597SOL    HW211691   4.202   0.420   4.255
 3598SOL     OW11692   2.517   0.081   0.365
 3598SOL    HW111693   2.514   0.043   0.273
 3598SOL    HW211694   2.475   0.172   0.365
 3599SOL     OW11695   0.178   2.134   4.112
 3599SOL    HW111696   0.236   2.184   4.177
 3599SOL    HW211697   0.202   2.037   4.113
 3600SOL     OW11698   6.183   6.510   1.648
 3600SOL    HW111699   6.131   6.494   1.732
 3600SOL    HW211700   6.132   6.573   1.589
 3601SOL     OW11701   6.735   3.346   5.729
 3601SOL    HW111702   6.740   3.341   5.630
 3601SOL    HW211703   6.647   3.386   5.756
 3602SOL     OW11704   3.189   2.662   1.483
 3602SOL    HW111705   3.223   2.698   1.570
 3602SOL    HW211706   3.265   2.655   1.418
 3603SOL     OW11707   3.928   5.400   4.700
 3603SOL    HW111708   3.936   5.343   4.619
 3603SOL    HW211709   3.979   5.358   4.775
 3604SOL     OW11710   6.215   4.468   2.827
 3604SOL    HW111711   6.164   4.413   2.894
 3604SOL    HW211712   6.312   4.463   2.848
 3605SOL     OW11713   5.929   1.456   6.381
 3605SOL    HW111714   5.863   1.453   6.456
 3605SOL    HW211715   5.922   1.372   6.327
 3606SOL     OW11716   1.967   4.207   2.945
 3606SOL    HW111717   1.917   4.124   2.971
 3606SOL    HW211718   1.925   4.245   2.862
 3607SOL     OW11719   4.234   6.967   5.530
 3607SOL    HW111720   4.225   6.964   5.430
 3607SOL    HW211721   4.264   0.039   5.558
 3608SOL     OW11722   0.153   2.991   3.158
 3608SOL    HW111723   0.106   2.905   3.174
 3608SOL    HW211724   0.212   2.983   3.078
 3609SOL     OW11725   6.717   0.677   3.558
 3609SOL    HW111726   6.754   0.770   3.569
 3609SOL    HW211727   6.688   0.642   3.647
 3610SOL     OW11728   1.708   4.919   5.575
 3610SOL    HW111729   1.705   4.838   5.634
 3610SOL    HW211730   1.658   4.901   5.490
 3611SOL     OW11731   4.975   4.797   5.600
 3611SOL    HW111732   5.024   4.866   5.548
 3611SOL    HW211733   4.922   4.841   5.672
 3612SOL     OW11734   2.055   6.131   1.308
 3612SOL    HW111735   2.077   6.131   1.210
 3612SOL    HW211736   1.998   6.052   1.329
 3613SOL     OW11737   5.501   4.982   6.198
 3613SOL    HW111738   5.571   4.987   6.268
 3613SOL    HW211739   5.412   4.966   6.240
 3614SOL     OW11740   3.588   3.156   4.802
 3614SOL    HW111741   3.493   3.160   4.834
 3614SOL    HW211742   3.623   3.063   4.815
 3615SOL     OW11743   5.687   6.586   6.263
 3615SOL    HW111744   5.636   6.575   6.178
 3615SOL    HW211745   5.752   6.510   6.273
 3616SOL     OW11746   6.649   1.233   4.458
 3616SOL    HW111747   6.746   1.213   4.450
 3616SOL    HW211748   6.636   1.331   4.471
 3617SOL     OW11749   0.239   0.397   0.641
 3617SOL    HW111750   0.333   0.398   0.675
 3617SOL    HW211751   0.209   0.303   0.627
 3618SOL     OW11752   3.745   5.614   6.376
 3618SOL    HW111753   3.731   5.521   6.341
 3618SOL    HW211754   3.780   5.672   6.302
 3619SOL     OW11755   4.919   3.436   3.914
 3619SOL    HW111756   4.909   3.338   3.925
 3619SOL    HW211757   5.015   3.458   3.895
 3620SOL     OW11758   6.275   1.801   5.094
 3620SOL    HW111759   6.264   1.762   5.003
 3620SOL    HW211760   6.219   1.883   5.102
 3621SOL     OW11761   1.623   2.691   6.313
 3621SOL    HW111762   1.676   2.765   6.354
 3621SOL    HW211763   1.530   2.722   6.294
 3622SOL     OW11764   1.090   3.863   0.914
 3622SOL    HW111765   1.075   3.894   0.821
 3622SOL    HW211766   1.152   3.784   0.914
 3623SOL     OW11767   6.273   4.796   4.812
 3623SOL    HW111768   6.191   4.853   4.814
 3623SOL    HW211769   6.248   4.705   4.778
 3624SOL     OW11770   1.563   0.450   1.814
 3624SOL    HW111771   1.627   0.375   1.800
 3624SOL    HW211772   1.479   0.415   1.857
 3625SOL     OW11773   1.409   2.492   5.038
 3625SOL    HW111774   1.370   2.560   5.100
 3625SOL    HW211775   1.451   2.539   4.960
 3626SOL     OW11776   2.104   3.414   5.529
 3626SOL    HW111777   2.153   3.413   5.616
 3626SOL    HW211778   2.164   3.381   5.457
 3627SOL     OW11779   3.520   3.191   4.542
 3627SOL    HW111780   3.546   3.178   4.638
 3627SOL    HW211781   3.594   3.240   4.495
 3628SOL     OW11782   2.675   5.781   4.040
 3628SOL    HW111783   2.762   5.831   4.048
 3628SOL    HW211784   2.675   5.726   3.956
 3629SOL     OW11785   5.458   3.497   4.872
 3629SOL    HW111786   5.530   3.522   4.937
 3629SOL    HW211787   5.489   3.421   4.815
 3630SOL     OW11788   6.151   2.068   5.107
 3630SOL    HW111789   6.131   2.118   5.023
 3630SOL    HW211790   6.205   2.125   5.169
 3631SOL     OW11791   1.782   0.792   4.208
 3631SOL    HW111792   1.783   0.706   4.157
 3631SOL    HW211793   1.874   0.811   4.243
 3632SOL     OW11794   4.751   6.768   5.940
 3632SOL    HW111795   4.652   6.755   5.942
 3632SOL    HW211796   4.796   6.683   5.914
 3633SOL     OW11797   0.909   2.755   5.580
 3633SOL    HW111798   0.866   2.675   5.540
 3633SOL    HW211799   0.840   2.811   5.626
 3634SOL     OW11800   2.976   4.932   6.125
 3634SOL    HW111801   3.047   4.869   6.092
 3634SOL    HW211802   2.892   4.881   6.141
 3635SOL     OW11803   2.328   1.683   4.418
 3635SOL    HW111804   2.402   1.703   4.354
 3635SOL    HW211805   2.240   1.702   4.373
 3636SOL     OW11806   0.931   6.665   1.685
 3636SOL    HW111807   0.932   6.695   1.589
 3636SOL    HW211808   0.999   6.716   1.737
 3637SOL     OW11809   4.973   1.155   2.207
 3637SOL    HW111810   4.897   1.142   2.143
 3637SOL    HW211811   5.037   1.221   2.168
 3638SOL     OW11812   6.908   5.176   3.442
 3638SOL    HW111813   6.987   5.116   3.426
 3638SOL    HW211814   6.831   5.144   3.386
 3639SOL     OW11815   2.857   6.346   6.860
 3639SOL    HW111816   2.773   6.359   6.807
 3639SOL    HW211817   2.835   6.311   6.951
 3640SOL     OW11818   2.178   6.802   1.956
 3640SOL    HW111819   2.231   6.723   1.988
 3640SOL    HW211820   2.200   6.882   2.013
 3641SOL     OW11821   1.786   1.500   5.260
 3641SOL    HW111822   1.691   1.480   5.236
 3641SOL    HW211823   1.834   1.413   5.276
 3642SOL     OW11824   6.258   6.864   2.412
 3642SOL    HW111825   6.311   6.915   2.480
 3642SOL    HW211826   6.316   6.839   2.335
 3643SOL     OW11827   3.606   6.900   4.356
 3643SOL    HW111828   3.613   6.822   4.295
 3643SOL    HW211829   3.694   6.948   4.359
 3644SOL     OW11830   6.048   7.001   2.050
 3644SOL    HW111831   6.106   6.929   2.012
 3644SOL    HW211832   6.070   7.013   2.147
 3645SOL     OW11833   4.499   6.268   3.798
 3645SOL    HW111834   4.435   6.204   3.840
 3645SOL    HW211835   4.543   6.324   3.868
 3646SOL     OW11836   0.546   5.116   5.027
 3646SOL    HW111837   0.551   5.170   5.111
 3646SOL    HW211838   0.555   5.177   4.948
 3647SOL     OW11839   3.071   2.861   0.689
 3647SOL    HW111840   3.044   2.923   0.615
 3647SOL    HW211841   3.095   2.772   0.651
 3648SOL     OW11842   2.697   6.468   3.309
 3648SOL    HW111843   2.650   6.541   3.259
 3648SOL    HW211844   2.702   6.492   3.406
 3649SOL     OW11845   3.177   3.001   2.616
 3649SOL    HW111846   3.211   2.966   2.529
 3649SOL    HW211847   3.115   3.078   2.599
 3650SOL     OW11848   6.038   6.269   1.198
 3650SOL    HW111849   5.973   6.322   1.144
 3650SOL    HW211850   5.998   6.179   1.218
 3651SOL     OW11851   2.094   5.752   2.138
 3651SOL    HW111852   2.073   5.828   2.076
 3651SOL    HW211853   2.027   5.751   2.212
 3652SOL     OW11854   4.124   6.439   3.534
 3652SOL    HW111855   4.158   6.517   3.587
 3652SOL    HW211856   4.055   6.391   3.587
 3653SOL     OW11857   6.878   3.048   3.848
 3653SOL    HW111858   6.904   2.962   3.804
 3653SOL    HW211859   6.960   3.097   3.877
 3654SOL     OW11860   2.148   0.033   2.085
 3654SOL    HW111861   2.121   0.084   2.003
 3654SOL    HW211862   2.072   0.033   2.150
 3655SOL     OW11863   6.495   1.276   3.856
 3655SOL    HW111864   6.481   1.180   3.835
 3655SOL    HW211865   6.509   1.327   3.771
 3656SOL     OW11866   2.172   1.999   2.728
 3656SOL    HW111867   2.130   1.989   2.818
 3656SOL    HW211868   2.139   1.926   2.668
 3657SOL     OW11869   5.045   5.498   1.962
 3657SOL    HW111870   5.075   5.427   1.898
 3657SOL    HW211871   5.111   5.506   2.037
 3658SOL     OW11872   2.708   4.767   5.735
 3658SOL    HW111873   2.614   4.733   5.736
 3658SOL    HW211874   2.727   4.810   5.646
 3659SOL     OW11875   1.590   3.928   6.611
 3659SOL    HW111876   1.598   4.009   6.553
 3659SOL    HW211877   1.613   3.847   6.557
 3660SOL     OW11878   4.506   3.740   0.854
 3660SOL    HW111879   4.447   3.662   0.878
 3660SOL    HW211880   4.514   3.801   0.933
 3661SOL     OW11881   5.626   1.246   1.591
 3661SOL    HW111882   5.534   1.251   1.629
 3661SOL    HW211883   5.687   1.202   1.657
 3662SOL     OW11884   0.815   6.339   4.252
 3662SOL    HW111885   0.803   6.409   4.182
 3662SOL    HW211886   0.809   6.381   4.343
 3663SOL     OW11887   1.999   2.710   6.191
 3663SOL    HW111888   2.097   2.731   6.183
 3663SOL    HW211889   1.956   2.717   6.101
 3664SOL     OW11890   3.482   0.379   2.469
 3664SOL    HW111891   3.387   0.350   2.477
 3664SOL    HW211892   3.497   0.419   2.379
 3665SOL     OW11893   2.099   1.326   5.187
 3665SOL    HW111894   2.142   1.361   5.104
 3665SOL    HW211895   2.085   1.228   5.179
 3666SOL     OW11896   0.658   4.602   3.447
 3666SOL    HW111897   0.578   4.595   3.506
 3666SOL    HW211898   0.642   4.672   3.377
 3667SOL     OW11899   0.340   1.281   0.129
 3667SOL    HW111900   0.267   1.254   0.191
 3667SOL    HW211901   0.354   1.210   0.060
 3668SOL     OW11902   1.941   6.645   1.966
 3668SOL    HW111903   1.869   6.666   1.900
 3668SOL    HW211904   2.017   6.708   1.953
 3669SOL     OW11905   5.524   1.476   4.059
 3669SOL    HW111906   5.450   1.536   4.086
 3669SOL    HW211907   5.487   1.396   4.011
 3670SOL     OW11908   2.960   5.148   5.976
 3670SOL    HW111909   2.938   5.132   5.880
 3670SOL    HW211910   2.966   5.060   6.024
 3671SOL     OW11911   2.104   1.161   3.275
 3671SOL    HW111912   2.137   1.145   3.182
 3671SOL    HW211913   2.027   1.101   3.295
 3672SOL     OW11914   6.284   6.766   0.268
 3672SOL    HW111915   6.371   6.724   0.293
 3672SOL    HW211916   6.210   6.725   0.322
 3673SOL     OW11917   4.412   6.726   6.287
 3673SOL    HW111918   4.437   6.799   6.351
 3673SOL    HW211919   4.327   6.683   6.317
 3674SOL     OW11920   0.984   6.182   0.899
 3674SOL    HW111921   1.032   6.128   0.968
 3674SOL    HW211922   0.898   6.217   0.936
 3675SOL     OW11923   2.138   2.106   4.214
 3675SOL    HW111924   2.157   2.203   4.228
 3675SOL    HW211925   2.090   2.093   4.127
 3676SOL     OW11926   1.824   5.165   2.753
 3676SOL    HW111927   1.763   5.116   2.690
 3676SOL    HW211928   1.768   5.215   2.820
 3677SOL     OW11929   5.623   0.345   3.607
 3677SOL    HW111930   5.685   0.417   3.576
 3677SOL    HW211931   5.614   0.349   3.707
 3678SOL     OW11932   1.252   2.529   4.094
 3678SOL    HW111933   1.219   2.549   4.002
 3678SOL    HW211934   1.344   2.490   4.088
 3679SOL     OW11935   6.326   1.376   1.935
 3679SOL    HW111936   6.379   1.348   2.015
 3679SOL    HW211937   6.336   1.475   1.922
 3680SOL     OW11938   5.825   4.364   4.492
 3680SOL    HW111939   5.911   4.340   4.447
 3680SOL    HW211940   5.753   4.374   4.423
 3681SOL     OW11941   5.403   6.912   5.070
 3681SOL    HW111942   5.344   6.937   4.993
 3681SOL    HW211943   5.498   6.910   5.040
 3682SOL     OW11944   0.500   2.248   6.746
 3682SOL    HW111945   0.586   2.199   6.763
 3682SOL    HW211946   0.474   2.237   6.650
 3683SOL     OW11947   5.021   6.139   2.886
 3683SOL    HW111948   4.951   6.170   2.950
 3683SOL    HW211949   5.099   6.104   2.936
 3684SOL     OW11950   2.276   4.024   1.635
 3684SOL    HW111951   2.293   4.058   1.727
 3684SOL    HW211952   2.286   4.099   1.569
 3685SOL     OW11953   5.322   6.278   5.819
 3685SOL    HW111954   5.396   6.228   5.775
 3685SOL    HW211955   5.359   6.361   5.861
 3686SOL     OW11956   0.140   4.123   0.373
 3686SOL    HW111957   0.239   4.131   0.373
 3686SOL    HW211958   0.112   4.062   0.298
 3687SOL     OW11959   4.215   1.137   0.331
 3687SOL    HW111960   4.249   1.139   0.237
 3687SOL    HW211961   4.278   1.082   0.387
 3688SOL     OW11962   0.167   3.547   0.585
 3688SOL    HW111963   0.188   3.508   0.495
 3688SOL    HW211964   0.071   3.529   0.607
 3689SOL     OW11965   1.837   6.481   3.386
 3689SOL    HW111966   1.868   6.386   3.392
 3689SOL    HW211967   1.833   6.520   3.478
 3690SOL     OW11968   4.819   4.915   5.778
 3690SOL    HW111969   4.853   4.974   5.851
 3690SOL    HW211970   4.799   4.824   5.816
 3691SOL     OW11971   3.245   2.782   5.700
 3691SOL    HW111972   3.191   2.863   5.720
 3691SOL    HW211973   3.288   2.792   5.610
 3692SOL     OW11974   0.214   0.203   5.454
 3692SOL    HW111975   0.300   0.239   5.491
 3692SOL    HW211976   0.138   0.234   5.511
 3693SOL     OW11977   1.481   1.447   3.665
 3693SOL    HW111978   1.476   1.370   3.729
 3693SOL    HW211979   1.390   1.468   3.631
 3694SOL     OW11980   1.782   5.029   3.527
 3694SOL    HW111981   1.808   4.934   3.545
 3694SOL    HW211982   1.745   5.070   3.610
 3695SOL     OW11983   2.068   2.311   0.460
 3695SOL    HW111984   2.013   2.358   0.391
 3695SOL    HW211985   2.158   2.289   0.422
 3696SOL     OW11986   2.818   6.224   5.503
 3696SOL    HW111987   2.773   6.231   5.591
 3696SOL    HW211988   2.916   6.207   5.516
 3697SOL     OW11989   5.169   1.111   3.766
 3697SOL    HW111990   5.210   1.139   3.679
 3697SOL    HW211991   5.231   1.133   3.841
 3698SOL     OW11992   3.299   6.857   6.633
 3698SOL    HW111993   3.352   6.931   6.593
 3698SOL    HW211994   3.339   6.769   6.607
 3699SOL     OW11995   0.952   5.207   2.277
 3699SOL    HW111996   1.039   5.163   2.295
 3699SOL    HW211997   0.958   5.304   2.303
 3700SOL     OW11998   6.134   0.552   3.522
 3700SOL    HW111999   6.213   0.574   3.464
 3700SOL    HW212000   6.100   0.636   3.566
 3701SOL     OW12001   4.773   1.042   3.970
 3701SOL    HW112002   4.714   1.047   3.889
 3701SOL    HW212003   4.734   0.977   4.035
 3702SOL     OW12004   5.169   0.992   6.685
 3702SOL    HW112005   5.083   1.033   6.657
 3702SOL    HW212006   5.154   0.895   6.705
 3703SOL     OW12007   3.857   4.781   1.141
 3703SOL    HW112008   3.922   4.833   1.195
 3703SOL    HW212009   3.901   4.749   1.057
 3704SOL     OW12010   3.494   6.128   1.251
 3704SOL    HW112011   3.479   6.059   1.181
 3704SOL    HW212012   3.555   6.092   1.322
 3705SOL     OW12013   6.935   0.997   4.257
 3705SOL    HW112014   6.890   0.970   4.343
 3705SOL    HW212015   6.957   0.915   4.204
 3706SOL     OW12016   2.895   2.144   2.973
 3706SOL    HW112017   2.824   2.208   2.943
 3706SOL    HW212018   2.898   2.065   2.912
 3707SOL     OW12019   4.428   2.388   5.451
 3707SOL    HW112020   4.450   2.340   5.536
 3707SOL    HW212021   4.495   2.459   5.435
 3708SOL     OW12022   6.547   0.521   0.194
 3708SOL    HW112023   6.463   0.570   0.169
 3708SOL    HW212024   6.612   0.525   0.118
 3709SOL     OW12025   0.092   6.827   6.802
 3709SOL    HW112026   0.034   6.902   6.835
 3709SOL    HW212027   0.171   6.865   6.753
 3710SOL     OW12028   0.419   4.953   6.725
 3710SOL    HW112029   0.349   4.986   6.789
 3710SOL    HW212030   0.410   4.854   6.714
 3711SOL     OW12031   0.111   5.874   1.914
 3711SOL    HW112032   0.208   5.877   1.890
 3711SOL    HW212033   0.080   5.779   1.910
 3712SOL     OW12034   1.779   0.194   6.918
 3712SOL    HW112035   1.740   0.102   6.926
 3712SOL    HW212036   1.729   0.245   6.848
 3713SOL     OW12037   3.708   5.140   5.973
 3713SOL    HW112038   3.770   5.186   6.037
 3713SOL    HW212039   3.613   5.155   6.002
 3714SOL     OW12040   4.935   1.954   4.977
 3714SOL    HW112041   4.985   1.979   5.059
 3714SOL    HW212042   4.900   1.860   4.987
 3715SOL     OW12043   4.948   3.869   3.462
 3715SOL    HW112044   4.881   3.943   3.460
 3715SOL    HW212045   5.019   3.890   3.529
 3716SOL     OW12046   1.173   1.258   4.008
 3716SOL    HW112047   1.196   1.248   3.911
 3716SOL    HW212048   1.165   1.355   4.031
 3717SOL     OW12049   6.014   0.603   6.509
 3717SOL    HW112050   6.077   0.679   6.491
 3717SOL    HW212051   5.955   0.627   6.586
 3718SOL     OW12052   0.993   6.545   6.557
 3718SOL    HW112053   1.064   6.527   6.489
 3718SOL    HW212054   0.921   6.476   6.549
 3719SOL     OW12055   3.113   4.418   0.550
 3719SOL    HW112056   3.085   4.489   0.486
 3719SOL    HW212057   3.080   4.329   0.517
 3720SOL     OW12058   0.089   1.115   6.233
 3720SOL    HW112059   0.092   1.021   6.200
 3720SOL    HW212060   0.182   1.145   6.255
 3721SOL     OW12061   4.617   2.988   0.246
 3721SOL    HW112062   4.677   2.910   0.261
 3721SOL    HW212063   4.653   3.067   0.295
 3722SOL     OW12064   4.892   5.671   1.299
 3722SOL    HW112065   4.819   5.729   1.336
 3722SOL    HW212066   4.926   5.610   1.370
 3723SOL     OW12067   4.633   1.260   0.853
 3723SOL    HW112068   4.654   1.263   0.950
 3723SOL    HW212069   4.712   1.291   0.800
 3724SOL     OW12070   0.811   4.202   5.890
 3724SOL    HW112071   0.799   4.252   5.805
 3724SOL    HW212072   0.833   4.106   5.871
 3725SOL     OW12073   5.559   6.395   1.491
 3725SOL    HW112074   5.505   6.480   1.491
 3725SOL    HW212075   5.497   6.317   1.487
 3726SOL     OW12076   6.218   2.714   1.740
 3726SOL    HW112077   6.121   2.727   1.762
 3726SOL    HW212078   6.264   2.802   1.741
 3727SOL     OW12079   3.023   2.957   5.449
 3727SOL    HW112080   2.928   2.927   5.446
 3727SOL    HW212081   3.060   2.958   5.356
 3728SOL     OW12082   0.695   3.989   6.474
 3728SOL    HW112083   0.671   4.041   6.392
 3728SOL    HW212084   0.777   4.029   6.515
 3729SOL     OW12085   0.794   2.941   3.779
 3729SOL    HW112086   0.869   3.000   3.747
 3729SOL    HW212087   0.707   2.984   3.756
 3730SOL     OW12088   2.035   0.366   1.354
 3730SOL    HW112089   2.125   0.388   1.393
 3730SOL    HW212090   2.038   0.273   1.316
 3731SOL     OW12091   2.307   5.378   0.112
 3731SOL    HW112092   2.380   5.429   0.066
 3731SOL    HW212093   2.232   5.441   0.133
 3732SOL     OW12094   2.150   3.822   4.573
 3732SOL    HW112095   2.123   3.885   4.500
 3732SOL    HW212096   2.205   3.748   4.535
 3733SOL     OW12097   3.036   3.754   1.360
 3733SOL    HW112098   3.036   3.675   1.421
 3733SOL    HW212099   3.072   3.728   1.271
 3734SOL     OW12100   4.438   0.958   3.194
 3734SOL    HW112101   4.466   0.864   3.175
 3734SOL    HW212102   4.512   1.007   3.239
 3735SOL     OW12103   3.924   2.159   2.112
 3735SOL    HW112104   3.936   2.061   2.123
 3735SOL    HW212105   3.838   2.178   2.065
 3736SOL     OW12106   4.837   0.822   6.134
 3736SOL    HW112107   4.786   0.741   6.163
 3736SOL    HW212108   4.774   0.900   6.127
 3737SOL     OW12109   3.143   0.055   3.649
 3737SOL    HW112110   3.176   0.145   3.676
 3737SOL    HW212111   3.186   7.004   3.706
 3738SOL     OW12112   0.052   0.607   4.175
 3738SOL    HW112113   0.136   0.659   4.188
 3738SOL    HW212114   0.047   0.575   4.080
 3739SOL     OW12115   0.262   3.342   1.233
 3739SOL    HW112116   0.337   3.278   1.253
 3739SOL    HW212117   0.247   3.402   1.312
 3740SOL     OW12118   5.660   6.835   0.206
 3740SOL    HW112119   5.737   6.871   0.259
 3740SOL    HW212120   5.690   6.818   0.112
 3741SOL     OW12121   3.953   1.591   6.950
 3741SOL    HW112122   3.865   1.624   6.983
 3741SOL    HW212123   3.939   1.524   6.877
 3742SOL     OW12124   3.568   3.354   5.990
 3742SOL    HW112125   3.663   3.367   6.019
 3742SOL    HW212126   3.542   3.258   6.002
 3743SOL     OW12127   0.742   5.652   6.194
 3743SOL    HW112128   0.716   5.731   6.139
 3743SOL    HW212129   0.769   5.576   6.134
 3744SOL     OW12130   6.786   4.830   3.172
 3744SOL    HW112131   6.814   4.839   3.077
 3744SOL    HW212132   6.735   4.912   3.200
 3745SOL     OW12133   5.212   4.916   1.489
 3745SOL    HW112134   5.240   4.964   1.572
 3745SOL    HW212135   5.139   4.966   1.443
 3746SOL     OW12136   4.306   1.840   1.363
 3746SOL    HW112137   4.341   1.921   1.411
 3746SOL    HW212138   4.343   1.838   1.270
 3747SOL     OW12139   2.277   0.145   1.060
 3747SOL    HW112140   2.318   0.073   1.116
 3747SOL    HW212141   2.324   0.232   1.078
 3748SOL     OW12142   6.157   0.488   1.906
 3748SOL    HW112143   6.220   0.551   1.952
 3748SOL    HW212144   6.073   0.481   1.959
 3749SOL     OW12145   0.966   0.420   3.952
 3749SOL    HW112146   1.020   0.430   4.035
 3749SOL    HW212147   0.945   0.511   3.915
 3750SOL     OW12148   0.576   3.768   6.716
 3750SOL    HW112149   0.521   3.756   6.798
 3750SOL    HW212150   0.671   3.783   6.741
 3751SOL     OW12151   1.875   5.235   1.447
 3751SOL    HW112152   1.946   5.304   1.463
 3751SOL    HW212153   1.809   5.271   1.380
 3752SOL     OW12154   5.144   6.092   6.616
 3752SOL    HW112155   5.061   6.131   6.655
 3752SOL    HW212156   5.184   6.026   6.679
 3753SOL     OW12157   0.345   0.659   3.104
 3753SOL    HW112158   0.441   0.690   3.110
 3753SOL    HW212159   0.343   0.563   3.077
 3754SOL     OW12160   3.439   1.746   1.324
 3754SOL    HW112161   3.526   1.785   1.354
 3754SOL    HW212162   3.455   1.671   1.261
 3755SOL     OW12163   2.352   5.955   4.328
 3755SOL    HW112164   2.252   5.952   4.317
 3755SOL    HW212165   2.378   5.910   4.413
 3756SOL     OW12166   1.417   6.140   0.867
 3756SOL    HW112167   1.422   6.067   0.799
 3756SOL    HW212168   1.498   6.199   0.859
 3757SOL     OW12169   0.555   4.927   0.340
 3757SOL    HW112170   0.607   4.948   0.258
 3757SOL    HW212171   0.471   4.878   0.315
 3758SOL     OW12172   0.452   6.147   3.690
 3758SOL    HW112173   0.398   6.173   3.770
 3758SOL    HW212174   0.456   6.048   3.683
 3759SOL     OW12175   4.659   0.715   3.414
 3759SOL    HW112176   4.744   0.763   3.436
 3759SOL    HW212177   4.657   0.628   3.464
 3760SOL     OW12178   0.638   0.979   2.944
 3760SOL    HW112179   0.585   1.053   2.986
 3760SOL    HW212180   0.673   1.008   2.856
 3761SOL     OW12181   4.572   1.150   5.192
 3761SOL    HW112182   4.623   1.077   5.146
 3761SOL    HW212183   4.577   1.234   5.137
 3762SOL     OW12184   0.400   2.216   4.268
 3762SOL    HW112185   0.450   2.179   4.190
 3762SOL    HW212186   0.413   2.315   4.273
 3763SOL     OW12187   0.971   6.329   0.121
 3763SOL    HW112188   0.985   6.387   0.202
 3763SOL    HW212189   0.972   6.385   0.039
 3764SOL     OW12190   3.111   1.521   2.553
 3764SOL    HW112191   3.105   1.491   2.458
 3764SOL    HW212192   3.131   1.619   2.556
 3765SOL     OW12193   5.747   3.797   2.751
 3765SOL    HW112194   5.708   3.773   2.662
 3765SOL    HW212195   5.810   3.873   2.741
 3766SOL     OW12196   1.526   2.741   2.280
 3766SOL    HW112197   1.573   2.702   2.359
 3766SOL    HW212198   1.589   2.743   2.201
 3767SOL     OW12199   1.665   5.923   6.176
 3767SOL    HW112200   1.736   5.880   6.233
 3767SOL    HW212201   1.708   5.988   6.114
 3768SOL     OW12202   1.556   6.716   3.545
 3768SOL    HW112203   1.570   6.740   3.641
 3768SOL    HW212204   1.525   6.621   3.539
 3769SOL     OW12205   5.115   4.992   5.447
 3769SOL    HW112206   5.050   5.067   5.438
 3769SOL    HW212207   5.198   5.025   5.493
 3770SOL     OW12208   2.918   6.944   0.922
 3770SOL    HW112209   2.846   6.917   0.986
 3770SOL    HW212210   2.924   6.876   0.849
 3771SOL     OW12211   6.339   6.048   5.556
 3771SOL    HW112212   6.398   5.975   5.589
 3771SOL    HW212213   6.374   6.136   5.588
 3772SOL     OW12214   2.908   5.895   1.799
 3772SOL    HW112215   2.923   5.993   1.811
 3772SOL    HW212216   2.897   5.875   1.701
 3773SOL     OW12217   4.804   4.533   6.642
 3773SOL    HW112218   4.824   4.468   6.568
 3773SOL    HW212219   4.890   4.569   6.679
 3774SOL     OW12220   6.878   4.408   1.205
 3774SOL    HW112221   6.840   4.355   1.281
 3774SOL    HW212222   6.970   4.376   1.184
 3775SOL     OW12223   5.551   6.023   4.741
 3775SOL    HW112224   5.642   6.056   4.716
 3775SOL    HW212225   5.511   6.083   4.810
 3776SOL     OW12226   4.450   2.376   6.718
 3776SOL    HW112227   4.450   2.386   6.619
 3776SOL    HW212228   4.470   2.281   6.742
 3777SOL     OW12229   3.072   5.205   3.828
 3777SOL    HW112230   3.171   5.219   3.824
 3777SOL    HW212231   3.051   5.111   3.798
 3778SOL     OW12232   3.027   5.292   6.550
 3778SOL    HW112233   2.998   5.206   6.509
 3778SOL    HW212234   2.998   5.295   6.646
 3779SOL     OW12235   0.039   4.866   5.909
 3779SOL    HW112236   0.112   4.929   5.885
 3779SOL    HW212237   6.982   4.916   5.949
 3780SOL     OW12238   6.165   2.501   2.252
 3780SOL    HW112239   6.192   2.594   2.279
 3780SOL    HW212240   6.135   2.450   2.333
 3781SOL     OW12241   1.158   6.728   5.894
 3781SOL    HW112242   1.080   6.749   5.835
 3781SOL    HW212243   1.243   6.743   5.844
 3782SOL     OW12244   3.493   5.487   6.906
 3782SOL    HW112245   3.548   5.405   6.894
 3782SOL    HW212246   3.541   5.550   6.969
 3783SOL     OW12247   4.560   4.756   5.608
 3783SOL    HW112248   4.595   4.675   5.560
 3783SOL    HW212249   4.509   4.728   5.688
 3784SOL     OW12250   5.849   3.539   4.668
 3784SOL    HW112251   5.937   3.505   4.634
 3784SOL    HW212252   5.834   3.505   4.761
 3785SOL     OW12253   0.938   3.143   2.604
 3785SOL    HW112254   1.033   3.139   2.574
 3785SOL    HW212255   0.929   3.211   2.677
 3786SOL     OW12256   2.407   3.010   6.103
 3786SOL    HW112257   2.335   3.080   6.098
 3786SOL    HW212258   2.453   3.004   6.014
 3787SOL     OW12259   5.072   5.921   5.049
 3787SOL    HW112260   4.984   5.966   5.065
 3787SOL    HW212261   5.130   5.933   5.130
 3788SOL     OW12262   5.849   3.116   6.196
 3788SOL    HW112263   5.916   3.186   6.173
 3788SOL    HW212264   5.762   3.159   6.218
 3789SOL     OW12265   1.694   4.229   1.044
 3789SOL    HW112266   1.731   4.275   0.963
 3789SOL    HW212267   1.692   4.130   1.027
 3790SOL     OW12268   2.037   6.984   1.596
 3790SOL    HW112269   2.132   7.002   1.571
 3790SOL    HW212270   2.021   6.885   1.596
 3791SOL     OW12271   4.870   0.700   4.434
 3791SOL    HW112272   4.876   0.672   4.339
 3791SOL    HW212273   4.849   0.798   4.439
 3792SOL     OW12274   6.148   0.253   3.025
 3792SOL    HW112275   6.128   0.345   3.061
 3792SOL    HW212276   6.080   0.189   3.059
 3793SOL     OW12277   4.860   3.576   0.036
 3793SOL    HW112278   4.888   3.672   0.048
 3793SOL    HW212279   4.939   3.522   0.006
 3794SOL     OW12280   1.214   5.011   5.851
 3794SOL    HW112281   1.277   4.962   5.792
 3794SOL    HW212282   1.194   4.956   5.932
 3795SOL     OW12283   3.116   6.055   0.554
 3795SOL    HW112284   3.109   5.955   0.561
 3795SOL    HW212285   3.122   6.094   0.646
 3796SOL     OW12286   5.316   0.677   0.281
 3796SOL    HW112287   5.364   0.635   0.358
 3796SOL    HW212288   5.274   0.606   0.225
 3797SOL     OW12289   6.897   2.795   1.302
 3797SOL    HW112290   6.955   2.854   1.359
 3797SOL    HW212291   6.867   2.846   1.222
 3798SOL     OW12292   0.833   4.922   3.518
 3798SOL    HW112293   0.750   4.973   3.541
 3798SOL    HW212294   0.840   4.841   3.577
 3799SOL     OW12295   6.983   1.974   2.570
 3799SOL    HW112296   0.057   1.966   2.606
 3799SOL    HW212297   6.953   1.884   2.538
 3800SOL     OW12298   5.373   2.937   2.272
 3800SOL    HW112299   5.374   2.981   2.361
 3800SOL    HW212300   5.410   2.845   2.279
 3801SOL     OW12301   5.812   1.320   1.000
 3801SOL    HW112302   5.765   1.395   0.953
 3801SOL    HW212303   5.844   1.352   1.089
 3802SOL     OW12304   6.068   3.496   2.984
 3802SOL    HW112305   6.041   3.548   2.903
 3802SOL    HW212306   6.023   3.534   3.064
 3803SOL     OW12307   4.119   3.775   5.872
 3803SOL    HW112308   4.171   3.847   5.825
 3803SOL    HW212309   4.054   3.817   5.936
 3804SOL     OW12310   2.963   6.006   3.017
 3804SOL    HW112311   2.891   6.047   2.962
 3804SOL    HW212312   2.929   5.989   3.109
 3805SOL     OW12313   2.641   1.991   6.515
 3805SOL    HW112314   2.581   2.065   6.546
 3805SOL    HW212315   2.640   1.987   6.415
 3806SOL     OW12316   1.866   3.704   2.194
 3806SOL    HW112317   1.810   3.786   2.210
 3806SOL    HW212318   1.810   3.632   2.154
 3807SOL     OW12319   0.559   4.148   4.017
 3807SOL    HW112320   0.658   4.146   4.005
 3807SOL    HW212321   0.536   4.120   4.110
 3808SOL     OW12322   2.515   6.407   5.985
 3808SOL    HW112323   2.505   6.317   6.028
 3808SOL    HW212324   2.576   6.463   6.041
 3809SOL     OW12325   5.390   1.282   1.863
 3809SOL    HW112326   5.421   1.255   1.954
 3809SOL    HW212327   5.385   1.382   1.858
 3810SOL     OW12328   5.328   1.975   3.321
 3810SOL    HW112329   5.408   1.934   3.278
 3810SOL    HW212330   5.334   2.075   3.313
 3811SOL     OW12331   0.379   5.889   5.476
 3811SOL    HW112332   0.328   5.826   5.418
 3811SOL    HW212333   0.461   5.921   5.428
 3812SOL     OW12334   4.133   5.722   0.190
 3812SOL    HW112335   4.176   5.672   0.115
 3812SOL    HW212336   4.126   5.662   0.270
 3813SOL     OW12337   6.391   3.094   6.750
 3813SOL    HW112338   6.420   3.007   6.789
 3813SOL    HW212339   6.355   3.153   6.823
 3814SOL     OW12340   0.093   0.433   5.028
 3814SOL    HW112341   0.173   0.402   5.079
 3814SOL    HW212342   0.121   0.497   4.957
 3815SOL     OW12343   4.829   2.105   5.316
 3815SOL    HW112344   4.894   2.055   5.374
 3815SOL    HW212345   4.796   2.186   5.365
 3816SOL     OW12346   6.924   6.731   1.035
 3816SOL    HW112347   6.960   6.821   1.009
 3816SOL    HW212348   6.998   6.664   1.031
 3817SOL     OW12349   3.836   3.557   2.210
 3817SOL    HW112350   3.776   3.630   2.179
 3817SOL    HW212351   3.904   3.537   2.139
 3818SOL     OW12352   4.209   5.451   2.714
 3818SOL    HW112353   4.253   5.528   2.761
 3818SOL    HW212354   4.241   5.448   2.619
 3819SOL     OW12355   6.160   3.255   3.270
 3819SOL    HW112356   6.246   3.226   3.311
 3819SOL    HW212357   6.172   3.347   3.230
 3820SOL     OW12358   2.857   6.476   5.946
 3820SOL    HW112359   2.856   6.566   5.988
 3820SOL    HW212360   2.878   6.407   6.015
 3821SOL     OW12361   2.046   6.821   1.215
 3821SOL    HW112362   2.066   6.740   1.271
 3821SOL    HW212363   1.976   6.798   1.148
 3822SOL     OW12364   5.938   7.007   1.593
 3822SOL    HW112365   5.838   7.000   1.603
 3822SOL    HW212366   5.978   0.018   1.679
 3823SOL     OW12367   5.460   5.899   5.024
 3823SOL    HW112368   5.423   5.987   5.055
 3823SOL    HW212369   5.524   5.915   4.948
 3824SOL     OW12370   2.013   2.197   0.764
 3824SOL    HW112371   2.033   2.283   0.718
 3824SOL    HW212372   2.059   2.122   0.717
 3825SOL     OW12373   0.604   4.587   5.435
 3825SOL    HW112374   0.580   4.678   5.403
 3825SOL    HW212375   0.633   4.531   5.358
 3826SOL     OW12376   4.805   4.035   3.962
 3826SOL    HW112377   4.807   3.967   3.889
 3826SOL    HW212378   4.894   4.037   4.008
 3827SOL     OW12379   0.542   1.385   6.743
 3827SOL    HW112380   0.527   1.321   6.818
 3827SOL    HW212381   0.457   1.435   6.725
 3828SOL     OW12382   3.323   3.816   5.327
 3828SOL    HW112383   3.310   3.913   5.349
 3828SOL    HW212384   3.235   3.769   5.335
 3829SOL     OW12385   0.359   3.129   1.760
 3829SOL    HW112386   0.414   3.183   1.695
 3829SOL    HW212387   0.269   3.112   1.721
 3830SOL     OW12388   5.402   6.942   3.543
 3830SOL    HW112389   5.321   6.891   3.570
 3830SOL    HW212390   5.383   6.992   3.458
 3831SOL     OW12391   5.517   2.129   3.855
 3831SOL    HW112392   5.539   2.130   3.757
 3831SOL    HW212393   5.422   2.158   3.868
 3832SOL     OW12394   6.303   1.355   4.044
 3832SOL    HW112395   6.371   1.333   3.974
 3832SOL    HW212396   6.276   1.272   4.091
 3833SOL     OW12397   1.633   2.956   6.151
 3833SOL    HW112398   1.685   2.977   6.234
 3833SOL    HW212399   1.682   2.887   6.097
 3834SOL     OW12400   5.168   4.581   0.699
 3834SOL    HW112401   5.202   4.501   0.650
 3834SOL    HW212402   5.139   4.554   0.791
 3835SOL     OW12403   4.436   5.362   4.885
 3835SOL    HW112404   4.524   5.315   4.890
 3835SOL    HW212405   4.443   5.452   4.927
 3836SOL     OW12406   0.237   7.004   4.554
 3836SOL    HW112407   0.195   0.075   4.544
 3836SOL    HW212408   0.336   7.012   4.544
 3837SOL     OW12409   4.803   4.466   5.649
 3837SOL    HW112410   4.743   4.515   5.585
 3837SOL    HW212411   4.747   4.412   5.712
 3838SOL     OW12412   6.720   0.997   4.091
 3838SOL    HW112413   6.763   0.924   4.038
 3838SOL    HW212414   6.779   1.023   4.167
 3839SOL     OW12415   4.635   1.311   3.679
 3839SOL    HW112416   4.712   1.371   3.659
 3839SOL    HW212417   4.549   1.361   3.664
 3840SOL     OW12418   3.927   1.256   6.468
 3840SOL    HW112419   3.927   1.350   6.502
 3840SOL    HW212420   3.998   1.245   6.399
 3841SOL     OW12421   5.562   4.395   3.503
 3841SOL    HW112422   5.606   4.391   3.593
 3841SOL    HW212423   5.587   4.314   3.451
 3842SOL     OW12424   2.042   3.625   5.258
 3842SOL    HW112425   1.999   3.558   5.319
 3842SOL    HW212426   1.979   3.701   5.242
 3843SOL     OW12427   5.803   2.085   6.256
 3843SOL    HW112428   5.839   2.175   6.278
 3843SOL    HW212429   5.751   2.049   6.333
 3844SOL     OW12430   6.563   6.847   0.684
 3844SOL    HW112431   6.552   6.876   0.779
 3844SOL    HW212432   6.654   6.808   0.671
 3845SOL     OW12433   2.100   5.221   0.353
 3845SOL    HW112434   2.194   5.191   0.340
 3845SOL    HW212435   2.044   5.189   0.276
 3846SOL     OW12436   6.640   3.237   2.796
 3846SOL    HW112437   6.655   3.202   2.888
 3846SOL    HW212438   6.550   3.279   2.790
 3847SOL     OW12439   0.808   1.482   6.689
 3847SOL    HW112440   0.826   1.566   6.739
 3847SOL    HW212441   0.709   1.466   6.685
 3848SOL     OW12442   6.306   5.140   2.098
 3848SOL    HW112443   6.302   5.238   2.116
 3848SOL    HW212444   6.256   5.120   2.013
 3849SOL     OW12445   0.639   3.720   5.744
 3849SOL    HW112446   0.629   3.648   5.676
 3849SOL    HW212447   0.567   3.711   5.813
 3850SOL     OW12448   3.467   3.105   1.248
 3850SOL    HW112449   3.514   3.051   1.318
 3850SOL    HW212450   3.432   3.044   1.177
 3851SOL     OW12451   0.260   5.790   2.832
 3851SOL    HW112452   0.227   5.824   2.743
 3851SOL    HW212453   0.350   5.749   2.820
 3852SOL     OW12454   2.213   0.738   4.900
 3852SOL    HW112455   2.155   0.803   4.851
 3852SOL    HW212456   2.303   0.779   4.916
 3853SOL     OW12457   2.257   1.048   2.923
 3853SOL    HW112458   2.283   0.996   2.842
 3853SOL    HW212459   2.167   1.016   2.955
 3854SOL     OW12460   0.614   1.984   2.064
 3854SOL    HW112461   0.689   2.009   2.125
 3854SOL    HW212462   0.533   1.961   2.119
 3855SOL     OW12463   2.812   6.283   6.209
 3855SOL    HW112464   2.910   6.283   6.230
 3855SOL    HW212465   2.780   6.188   6.201
 3856SOL     OW12466   6.629   2.790   6.632
 3856SOL    HW112467   6.709   2.797   6.692
 3856SOL    HW212468   6.630   2.866   6.568
 3857SOL     OW12469   1.876   0.243   6.478
 3857SOL    HW112470   1.817   0.162   6.481
 3857SOL    HW212471   1.866   0.289   6.390
 3858SOL     OW12472   3.670   1.385   5.115
 3858SOL    HW112473   3.608   1.321   5.071
 3858SOL    HW212474   3.695   1.457   5.051
 3859SOL     OW12475   6.062   0.370   2.281
 3859SOL    HW112476   6.129   0.302   2.250
 3859SOL    HW212477   6.005   0.398   2.204
 3860SOL     OW12478   1.429   6.591   4.530
 3860SOL    HW112479   1.347   6.648   4.520
 3860SOL    HW212480   1.509   6.641   4.495
 3861SOL     OW12481   3.326   5.752   2.283
 3861SOL    HW112482   3.308   5.842   2.321
 3861SOL    HW212483   3.404   5.756   2.221
 3862SOL     OW12484   1.271   0.228   4.325
 3862SOL    HW112485   1.285   0.212   4.423
 3862SOL    HW212486   1.359   0.248   4.282
 3863SOL     OW12487   4.214   0.796   0.625
 3863SOL    HW112488   4.195   0.767   0.532
 3863SOL    HW212489   4.137   0.849   0.660
 3864SOL     OW12490   0.562   6.920   4.236
 3864SOL    HW112491   0.528   6.921   4.142
 3864SOL    HW212492   0.595   6.828   4.258
 3865SOL     OW12493   5.084   0.758   0.854
 3865SOL    HW112494   5.044   0.834   0.803
 3865SOL    HW212495   5.011   0.700   0.889
 3866SOL     OW12496   2.966   0.753   6.791
 3866SOL    HW112497   3.020   0.669   6.792
 3866SOL    HW212498   2.969   0.794   6.699
 3867SOL     OW12499   6.822   3.285   2.317
 3867SOL    HW112500   6.807   3.200   2.367
 3867SOL    HW212501   6.793   3.362   2.373
 3868SOL     OW12502   3.775   0.342   0.108
 3868SOL    HW112503   3.707   0.270   0.089
 3868SOL    HW212504   3.864   0.313   0.073
 3869SOL     OW12505   4.116   1.257   4.105
 3869SOL    HW112506   4.055   1.188   4.067
 3869SOL    HW212507   4.144   1.231   4.198
 3870SOL     OW12508   6.965   1.797   5.587
 3870SOL    HW112509   6.980   1.844   5.500
 3870SOL    HW212510   7.002   1.704   5.582
 3871SOL     OW12511   2.644   5.492   3.991
 3871SOL    HW112512   2.556   5.456   4.019
 3871SOL    HW212513   2.717   5.429   4.019
 3872SOL     OW12514   2.835   3.891   5.263
 3872SOL    HW112515   2.830   3.850   5.172
 3872SOL    HW212516   2.742   3.900   5.300
 3873SOL     OW12517   4.909   1.942   6.903
 3873SOL    HW112518   4.971   2.019   6.915
 3873SOL    HW212519   4.816   1.970   6.925
 3874SOL     OW12520   2.600   1.273   1.174
 3874SOL    HW112521   2.608   1.218   1.091
 3874SOL    HW212522   2.538   1.228   1.238
 3875SOL     OW12523   1.105   1.701   6.369
 3875SOL    HW112524   1.194   1.656   6.364
 3875SOL    HW212525   1.039   1.638   6.410
 3876SOL     OW12526   3.550   5.541   2.682
 3876SOL    HW112527   3.521   5.611   2.748
 3876SOL    HW212528   3.513   5.564   2.592
 3877SOL     OW12529   0.590   1.335   5.614
 3877SOL    HW112530   0.567   1.418   5.665
 3877SOL    HW212531   0.524   1.263   5.636
 3878SOL     OW12532   4.777   1.316   4.992
 3878SOL    HW112533   4.820   1.286   4.907
 3878SOL    HW212534   4.688   1.356   4.972
 3879SOL     OW12535   5.272   5.659   0.037
 3879SOL    HW112536   5.298   5.566   0.064
 3879SOL    HW212537   5.305   5.724   0.105
 3880SOL     OW12538   5.007   4.793   3.984
 3880SOL    HW112539   5.085   4.829   4.035
 3880SOL    HW212540   4.949   4.740   4.045
 3881SOL     OW12541   1.221   3.312   0.248
 3881SOL    HW112542   1.284   3.367   0.302
 3881SOL    HW212543   1.251   3.310   0.152
 3882SOL     OW12544   0.411   2.425   5.704
 3882SOL    HW112545   0.448   2.394   5.792
 3882SOL    HW212546   0.472   2.395   5.630
 3883SOL     OW12547   4.246   6.056   4.140
 3883SOL    HW112548   4.277   5.970   4.099
 3883SOL    HW212549   4.277   6.060   4.235
 3884SOL     OW12550   0.372   3.575   2.285
 3884SOL    HW112551   0.286   3.538   2.250
 3884SOL    HW212552   0.361   3.600   2.381
 3885SOL     OW12553   4.523   5.660   2.084
 3885SOL    HW112554   4.481   5.685   2.171
 3885SOL    HW212555   4.602   5.601   2.101
 3886SOL     OW12556   2.453   5.508   5.851
 3886SOL    HW112557   2.477   5.474   5.761
 3886SOL    HW212558   2.518   5.474   5.919
 3887SOL     OW12559   1.793   5.506   2.093
 3887SOL    HW112560   1.731   5.585   2.092
 3887SOL    HW212561   1.839   5.500   2.005
 3888SOL     OW12562   5.148   5.193   4.053
 3888SOL    HW112563   5.187   5.120   4.109
 3888SOL    HW212564   5.055   5.213   4.085
 3889SOL     OW12565   5.606   4.350   0.255
 3889SOL    HW112566   5.551   4.267   0.269
 3889SOL    HW212567   5.588   4.415   0.328
 3890SOL     OW12568   5.526   3.664   3.767
 3890SOL    HW112569   5.434   3.689   3.736
 3890SOL    HW212570   5.579   3.629   3.690
 3891SOL     OW12571   4.838   5.539   4.032
 3891SOL    HW112572   4.825   5.446   3.999
 3891SOL    HW212573   4.811   5.545   4.128
 3892SOL     OW12574   6.663   2.017   1.235
 3892SOL    HW112575   6.624   1.930   1.206
 3892SOL    HW212576   6.763   2.012   1.230
 3893SOL     OW12577   3.998   3.138   3.344
 3893SOL    HW112578   4.031   3.217   3.293
 3893SOL    HW212579   4.017   3.151   3.441
 3894SOL     OW12580   4.302   0.983   6.089
 3894SOL    HW112581   4.329   0.892   6.059
 3894SOL    HW212582   4.356   1.052   6.040
 3895SOL     OW12583   0.304   0.043   3.928
 3895SOL    HW112584   0.221   0.087   3.964
 3895SOL    HW212585   0.380   0.107   3.934
 3896SOL     OW12586   1.962   1.331   6.421
 3896SOL    HW112587   1.977   1.348   6.519
 3896SOL    HW212588   2.034   1.374   6.368
 3897SOL     OW12589   4.129   5.700   1.211
 3897SOL    HW112590   4.208   5.693   1.272
 3897SOL    HW212591   4.085   5.789   1.224
 3898SOL     OW12592   3.453   3.006   1.955
 3898SOL    HW112593   3.472   3.040   1.863
 3898SOL    HW212594   3.372   3.052   1.992
 3899SOL     OW12595   3.009   0.255   5.552
 3899SOL    HW112596   3.070   0.292   5.622
 3899SOL    HW212597   2.979   0.164   5.579
 3900SOL     OW12598   4.647   4.943   2.852
 3900SOL    HW112599   4.743   4.934   2.827
 3900SOL    HW212600   4.590   4.906   2.779
 3901SOL     OW12601   2.866   0.970   6.911
 3901SOL    HW112602   2.919   1.030   6.971
 3901SOL    HW212603   2.924   0.898   6.875
 3902SOL     OW12604   5.318   3.145   3.277
 3902SOL    HW112605   5.334   3.082   3.201
 3902SOL    HW212606   5.307   3.238   3.242
 3903SOL     OW12607   3.233   4.284   5.991
 3903SOL    HW112608   3.192   4.307   5.903
 3903SOL    HW212609   3.161   4.260   6.056
 3904SOL     OW12610   2.195   6.679   0.593
 3904SOL    HW112611   2.274   6.706   0.647
 3904SOL    HW212612   2.122   6.646   0.653
 3905SOL     OW12613   6.806   6.364   5.095
 3905SOL    HW112614   6.869   6.416   5.152
 3905SOL    HW212615   6.737   6.426   5.057
 3906SOL     OW12616   0.011   6.083   5.267
 3906SOL    HW112617   6.986   6.018   5.205
 3906SOL    HW212618   0.018   6.043   5.358
 3907SOL     OW12619   5.740   2.118   3.545
 3907SOL    HW112620   5.745   2.025   3.508
 3907SOL    HW212621   5.656   2.162   3.513
 3908SOL     OW12622   2.757   4.151   6.196
 3908SOL    HW112623   2.702   4.074   6.164
 3908SOL    HW212624   2.706   4.236   6.180
 3909SOL     OW12625   5.634   5.971   3.438
 3909SOL    HW112626   5.671   6.010   3.523
 3909SOL    HW212627   5.566   6.033   3.400
 3910SOL     OW12628   3.762   3.283   2.829
 3910SOL    HW112629   3.818   3.222   2.773
 3910SOL    HW212630   3.788   3.378   2.810
 3911SOL     OW12631   5.898   2.242   5.859
 3911SOL    HW112632   5.985   2.265   5.814
 3911SOL    HW212633   5.907   2.153   5.903
 3912SOL     OW12634   5.355   2.514   6.204
 3912SOL    HW112635   5.284   2.516   6.134
 3912SOL    HW212636   5.338   2.586   6.271
 3913SOL     OW12637   1.354   6.907   1.197
 3913SOL    HW112638   1.398   6.889   1.285
 3913SOL    HW212639   1.284   6.838   1.180
 3914SOL     OW12640   2.773   5.828   5.631
 3914SOL    HW112641   2.860   5.837   5.679
 3914SOL    HW212642   2.789   5.812   5.534
 3915SOL     OW12643   0.163   5.886   1.541
 3915SOL    HW112644   0.234   5.872   1.609
 3915SOL    HW212645   0.144   5.984   1.532
 3916SOL     OW12646   0.490   0.092   3.361
 3916SOL    HW112647   0.442   0.076   3.275
 3916SOL    HW212648   0.528   0.184   3.361
 3917SOL     OW12649   2.584   6.964   6.547
 3917SOL    HW112650   2.665   6.914   6.577
 3917SOL    HW212651   2.607   0.001   6.467
 3918SOL     OW12652   5.485   3.374   6.742
 3918SOL    HW112653   5.465   3.307   6.671
 3918SOL    HW212654   5.406   3.384   6.802
 3919SOL     OW12655   3.291   6.485   0.807
 3919SOL    HW112656   3.234   6.518   0.732
 3919SOL    HW212657   3.368   6.434   0.770
 3920SOL     OW12658   2.303   0.994   6.961
 3920SOL    HW112659   2.296   1.002   6.861
 3920SOL    HW212660   2.244   0.920   6.993
 3921SOL     OW12661   0.651   3.689   1.238
 3921SOL    HW112662   0.744   3.701   1.273
 3921SOL    HW212663   0.588   3.678   1.315
 3922SOL     OW12664   1.420   5.110   1.356
 3922SOL    HW112665   1.503   5.061   1.382
 3922SOL    HW212666   1.402   5.184   1.422
 3923SOL     OW12667   6.598   0.231   1.134
 3923SOL    HW112668   6.630   0.139   1.158
 3923SOL    HW212669   6.547   0.269   1.211
 3924SOL     OW12670   6.491   4.924   4.704
 3924SOL    HW112671   6.581   4.880   4.699
 3924SOL    HW212672   6.429   4.869   4.759
 3925SOL     OW12673   1.517   4.818   1.586
 3925SOL    HW112674   1.612   4.821   1.617
 3925SOL    HW212675   1.510   4.858   1.495
 3926SOL     OW12676   3.456   5.325   3.093
 3926SOL    HW112677   3.511   5.399   3.054
 3926SOL    HW212678   3.362   5.357   3.106
 3927SOL     OW12679   1.637   3.038   6.632
 3927SOL    HW112680   1.625   3.115   6.694
 3927SOL    HW212681   1.563   2.972   6.647
 3928SOL     OW12682   6.199   6.578   6.330
 3928SOL    HW112683   6.199   6.479   6.349
 3928SOL    HW212684   6.150   6.626   6.403
 3929SOL     OW12685   0.910   1.590   4.271
 3929SOL    HW112686   0.879   1.663   4.332
 3929SOL    HW212687   0.831   1.551   4.223
 3930SOL     OW12688   2.565   2.120   3.893
 3930SOL    HW112689   2.629   2.192   3.920
 3930SOL    HW212690   2.588   2.088   3.801
 3931SOL     OW12691   4.390   0.283   2.323
 3931SOL    HW112692   4.410   0.188   2.343
 3931SOL    HW212693   4.472   0.329   2.290
 3932SOL     OW12694   1.710   2.718   3.677
 3932SOL    HW112695   1.701   2.729   3.776
 3932SOL    HW212696   1.685   2.804   3.632
 3933SOL     OW12697   1.700   0.738   5.956
 3933SOL    HW112698   1.746   0.797   6.022
 3933SOL    HW212699   1.696   0.785   5.867
 3934SOL     OW12700   5.447   6.404   6.821
 3934SOL    HW112701   5.546   6.393   6.809
 3934SOL    HW212702   5.400   6.352   6.750
 3935SOL     OW12703   5.035   6.690   1.539
 3935SOL    HW112704   5.092   6.652   1.611
 3935SOL    HW212705   5.054   6.788   1.530
 3936SOL     OW12706   0.546   4.541   2.520
 3936SOL    HW112707   0.543   4.497   2.430
 3936SOL    HW212708   0.641   4.548   2.550
 3937SOL     OW12709   0.380   2.384   2.130
 3937SOL    HW112710   0.455   2.434   2.087
 3937SOL    HW212711   0.413   2.341   2.214
 3938SOL     OW12712   6.665   2.636   3.404
 3938SOL    HW112713   6.714   2.621   3.490
 3938SOL    HW212714   6.671   2.732   3.379
 3939SOL     OW12715   2.308   1.828   1.441
 3939SOL    HW112716   2.343   1.914   1.478
 3939SOL    HW212717   2.382   1.760   1.440
 3940SOL     OW12718   4.346   3.869   1.196
 3940SOL    HW112719   4.314   3.802   1.262
 3940SOL    HW212720   4.419   3.924   1.236
 3941SOL     OW12721   4.926   3.171   6.827
 3941SOL    HW112722   4.907   3.136   6.735
 3941SOL    HW212723   4.853   3.142   6.889
 3942SOL     OW12724   6.973   0.451   0.696
 3942SOL    HW112725   0.046   0.414   0.701
 3942SOL    HW212726   6.954   0.482   0.603
 3943SOL     OW12727   6.210   2.975   5.461
 3943SOL    HW112728   6.196   3.040   5.386
 3943SOL    HW212729   6.296   2.926   5.447
 3944SOL     OW12730   5.696   1.359   4.672
 3944SOL    HW112731   5.730   1.453   4.680
 3944SOL    HW212732   5.633   1.340   4.747
 3945SOL     OW12733   0.158   0.602   1.013
 3945SOL    HW112734   0.062   0.589   1.038
 3945SOL    HW212735   0.205   0.513   1.016
 3946SOL     OW12736   3.655   5.325   3.477
 3946SOL    HW112737   3.568   5.276   3.474
 3946SOL    HW212738   3.704   5.312   3.391
 3947SOL     OW12739   6.519   4.249   6.264
 3947SOL    HW112740   6.460   4.174   6.293
 3947SOL    HW212741   6.615   4.220   6.268
 3948SOL     OW12742   6.461   3.834   0.663
 3948SOL    HW112743   6.550   3.876   0.679
 3948SOL    HW212744   6.434   3.780   0.742
 3949SOL     OW12745   5.480   6.153   3.337
 3949SOL    HW112746   5.404   6.117   3.283
 3949SOL    HW212747   5.513   6.238   3.295
 3950SOL     OW12748   1.505   5.860   0.735
 3950SOL    HW112749   1.427   5.887   0.678
 3950SOL    HW212750   1.576   5.931   0.729
 3951SOL     OW12751   5.628   6.164   1.724
 3951SOL    HW112752   5.665   6.100   1.792
 3951SOL    HW212753   5.636   6.123   1.633
 3952SOL     OW12754   6.246   1.577   6.370
 3952SOL    HW112755   6.198   1.652   6.415
 3952SOL    HW212756   6.183   1.500   6.359
 3953SOL     OW12757   3.391   4.062   2.932
 3953SOL    HW112758   3.356   4.090   3.022
 3953SOL    HW212759   3.315   4.054   2.868
 3954SOL     OW12760   3.872   4.916   5.654
 3954SOL    HW112761   3.896   4.897   5.749
 3954SOL    HW212762   3.790   4.973   5.651
 3955SOL     OW12763   3.918   1.417   4.664
 3955SOL    HW112764   4.016   1.408   4.647
 3955SOL    HW212765   3.872   1.331   4.642
 3956SOL     OW12766   2.051   1.406   1.384
 3956SOL    HW112767   2.110   1.343   1.332
 3956SOL    HW212768   2.029   1.485   1.327
 3957SOL     OW12769   3.538   1.143   4.031
 3957SOL    HW112770   3.509   1.190   4.115
 3957SOL    HW212771   3.531   1.205   3.954
 3958SOL     OW12772   5.458   6.766   5.421
 3958SOL    HW112773   5.405   6.751   5.504
 3958SOL    HW212774   5.480   6.677   5.380
 3959SOL     OW12775   5.435   5.354   6.806
 3959SOL    HW112776   5.451   5.310   6.717
 3959SOL    HW212777   5.410   5.449   6.791
 3960SOL     OW12778   6.036   2.187   4.872
 3960SOL    HW112779   5.989   2.099   4.869
 3960SOL    HW212780   6.114   2.185   4.809
 3961SOL     OW12781   5.229   6.751   4.359
 3961SOL    HW112782   5.182   6.664   4.343
 3961SOL    HW212783   5.323   6.745   4.324
 3962SOL     OW12784   6.612   5.362   5.201
 3962SOL    HW112785   6.603   5.394   5.106
 3962SOL    HW212786   6.545   5.290   5.217
 3963SOL     OW12787   4.498   0.000   2.223
 3963SOL    HW112788   4.427   6.984   2.162
 3963SOL    HW212789   4.576   0.031   2.170
 3964SOL     OW12790   5.108   2.926   3.618
 3964SOL    HW112791   5.080   2.968   3.531
 3964SOL    HW212792   5.052   2.964   3.692
 3965SOL     OW12793   4.968   3.840   4.277
 3965SOL    HW112794   4.950   3.831   4.374
 3965SOL    HW212795   4.943   3.755   4.230
 3966SOL     OW12796   2.156   6.833   6.592
 3966SOL    HW112797   2.064   6.802   6.569
 3966SOL    HW212798   2.160   6.933   6.588
 3967SOL     OW12799   1.587   4.190   3.924
 3967SOL    HW112800   1.660   4.256   3.904
 3967SOL    HW212801   1.627   4.100   3.938
 3968SOL     OW12802   4.053   0.084   0.245
 3968SOL    HW112803   4.070   0.033   0.330
 3968SOL    HW212804   3.956   0.079   0.222
 3969SOL     OW12805   0.348   5.164   3.248
 3969SOL    HW112806   0.391   5.219   3.177
 3969SOL    HW212807   0.261   5.206   3.274
 3970SOL     OW12808   5.101   5.738   1.665
 3970SOL    HW112809   5.048   5.662   1.627
 3970SOL    HW212810   5.075   5.752   1.761
 3971SOL     OW12811   1.576   6.257   3.304
 3971SOL    HW112812   1.623   6.182   3.352
 3971SOL    HW212813   1.633   6.339   3.308
 3972SOL     OW12814   1.307   3.852   0.060
 3972SOL    HW112815   1.400   3.818   0.046
 3972SOL    HW212816   1.307   3.952   0.060
 3973SOL     OW12817   1.896   4.684   0.703
 3973SOL    HW112818   1.849   4.687   0.792
 3973SOL    HW212819   1.992   4.662   0.718
 3974SOL     OW12820   2.823   1.512   5.624
 3974SOL    HW112821   2.872   1.477   5.545
 3974SOL    HW212822   2.732   1.470   5.629
 3975SOL     OW12823   6.132   3.272   6.577
 3975SOL    HW112824   6.138   3.174   6.595
 3975SOL    HW212825   6.204   3.320   6.628
 3976SOL     OW12826   2.061   4.408   2.485
 3976SOL    HW112827   2.030   4.472   2.556
 3976SOL    HW212828   2.152   4.375   2.508
 3977SOL     OW12829   0.686   3.194   7.017
 3977SOL    HW112830   0.744   3.134   0.054
 3977SOL    HW212831   0.596   3.202   0.040
 3978SOL     OW12832   6.380   4.553   4.037
 3978SOL    HW112833   6.314   4.626   4.021
 3978SOL    HW212834   6.437   4.576   4.116
 3979SOL     OW12835   4.573   5.957   6.123
 3979SOL    HW112836   4.549   5.988   6.031
 3979SOL    HW212837   4.559   6.033   6.188
 3980SOL     OW12838   5.455   5.008   5.912
 3980SOL    HW112839   5.476   4.982   6.006
 3980SOL    HW212840   5.518   5.080   5.883
 3981SOL     OW12841   4.402   5.621   6.968
 3981SOL    HW112842   4.318   5.661   6.931
 3981SOL    HW212843   4.395   5.614   0.048
 3982SOL     OW12844   2.878   5.980   3.261
 3982SOL    HW112845   2.803   5.917   3.282
 3982SOL    HW212846   2.933   5.995   3.343
 3983SOL     OW12847   3.579   5.711   4.137
 3983SOL    HW112848   3.509   5.716   4.066
 3983SOL    HW212849   3.619   5.802   4.150
 3984SOL     OW12850   6.774   2.888   3.368
 3984SOL    HW112851   6.739   2.982   3.359
 3984SOL    HW212852   6.870   2.886   3.339
 3985SOL     OW12853   3.887   5.344   6.753
 3985SOL    HW112854   3.833   5.281   6.697
 3985SOL    HW212855   3.975   5.302   6.775
 3986SOL     OW12856   5.307   0.641   2.634
 3986SOL    HW112857   5.217   0.624   2.596
 3986SOL    HW212858   5.298   0.686   2.723
 3987SOL     OW12859   4.011   5.810   4.903
 3987SOL    HW112860   4.044   5.733   4.957
 3987SOL    HW212861   3.968   5.878   4.963
 3988SOL     OW12862   4.534   5.501   0.698
 3988SOL    HW112863   4.599   5.556   0.749
 3988SOL    HW212864   4.485   5.439   0.760
 3989SOL     OW12865   6.358   3.044   1.166
 3989SOL    HW112866   6.430   3.016   1.103
 3989SOL    HW212867   6.297   3.109   1.121
 3990SOL     OW12868   0.032   1.303   1.878
 3990SOL    HW112869   0.128   1.313   1.903
 3990SOL    HW212870   6.994   1.329   1.956
 3991SOL     OW12871   5.485   0.885   3.079
 3991SOL    HW112872   5.582   0.886   3.102
 3991SOL    HW212873   5.449   0.978   3.082
 3992SOL     OW12874   3.969   2.093   1.057
 3992SOL    HW112875   4.047   2.058   1.005
 3992SOL    HW212876   3.953   2.036   1.137
 3993SOL     OW12877   0.899   3.187   1.391
 3993SOL    HW112878   0.849   3.200   1.305
 3993SOL    HW212879   0.984   3.240   1.389
 3994SOL     OW12880   2.457   6.197   4.294
 3994SOL    HW112881   2.403   6.265   4.343
 3994SOL    HW212882   2.409   6.109   4.295
 3995SOL     OW12883   1.919   1.637   4.540
 3995SOL    HW112884   1.960   1.651   4.630
 3995SOL    HW212885   1.825   1.670   4.541
 3996SOL     OW12886   0.118   6.072   4.648
 3996SOL    HW112887   0.134   6.168   4.668
 3996SOL    HW212888   0.205   6.024   4.641
 3997SOL     OW12889   2.860   1.137   3.674
 3997SOL    HW112890   2.820   1.208   3.732
 3997SOL    HW212891   2.921   1.179   3.607
 3998SOL     OW12892   4.457   2.393   3.082
 3998SOL    HW112893   4.468   2.336   3.163
 3998SOL    HW212894   4.372   2.368   3.035
 3999SOL     OW12895   5.005   1.909   4.154
 3999SOL    HW112896   4.913   1.946   4.137
 3999SOL    HW212897   4.998   1.810   4.168
 4000SOL     OW12898   3.954   5.812   4.087
 4000SOL    HW112899   4.029   5.802   4.153
 4000SOL    HW212900   3.992   5.841   3.999
 4001SOL     OW12901   0.703   1.519   4.097
 4001SOL    HW112902   0.694   1.613   4.063
 4001SOL    HW212903   0.687   1.455   4.021
 4002SOL     OW12904   1.993   4.495   1.263
 4002SOL    HW112905   2.048   4.508   1.346
 4002SOL    HW212906   1.911   4.442   1.285
 4003SOL     OW12907   4.065   2.156   4.954
 4003SOL    HW112908   4.099   2.238   4.999
 4003SOL    HW212909   3.972   2.136   4.986
 4004SOL     OW12910   6.479   1.880   6.112
 4004SOL    HW112911   6.398   1.894   6.054
 4004SOL    HW212912   6.479   1.947   6.186
 4005SOL     OW12913   5.903   4.258   5.337
 4005SOL    HW112914   5.858   4.244   5.425
 4005SOL    HW212915   5.839   4.300   5.273
 4006SOL     OW12916   3.590   5.997   2.946
 4006SOL    HW112917   3.561   6.093   2.938
 4006SOL    HW212918   3.630   5.982   3.037
 4007SOL     OW12919   0.485   1.745   5.845
 4007SOL    HW112920   0.413   1.810   5.871
 4007SOL    HW212921   0.444   1.655   5.832
 4008SOL     OW12922   3.265   1.609   5.429
 4008SOL    HW112923   3.324   1.586   5.352
 4008SOL    HW212924   3.176   1.638   5.395
 4009SOL     OW12925   3.704   3.505   3.091
 4009SOL    HW112926   3.688   3.568   3.015
 4009SOL    HW212927   3.748   3.554   3.166
 4010SOL     OW12928   1.324   3.499   0.025
 4010SOL    HW112929   1.227   3.518   0.014
 4010SOL    HW212930   1.366   3.487   6.954
 4011SOL     OW12931   0.496   2.729   0.929
 4011SOL    HW112932   0.459   2.689   0.846
 4011SOL    HW212933   0.515   2.656   0.996
 4012SOL     OW12934   5.478   3.298   3.734
 4012SOL    HW112935   5.425   3.242   3.670
 4012SOL    HW212936   5.415   3.349   3.793
 4013SOL     OW12937   5.299   2.946   3.050
 4013SOL    HW112938   5.242   2.865   3.060
 4013SOL    HW212939   5.294   2.978   2.955
 4014SOL     OW12940   5.309   5.642   2.013
 4014SOL    HW112941   5.305   5.737   2.044
 4014SOL    HW212942   5.326   5.640   1.915
 4015SOL     OW12943   4.590   3.798   6.977
 4015SOL    HW112944   4.606   3.832   0.050
 4015SOL    HW212945   4.524   3.724   6.980
 4016SOL     OW12946   3.361   6.011   4.684
 4016SOL    HW112947   3.292   5.941   4.699
 4016SOL    HW212948   3.418   5.986   4.606
 4017SOL     OW12949   6.247   0.093   6.214
 4017SOL    HW112950   6.185   0.015   6.205
 4017SOL    HW212951   6.283   0.096   6.307
 4018SOL     OW12952   2.216   0.190   6.870
 4018SOL    HW112953   2.177   0.126   6.936
 4018SOL    HW212954   2.302   0.153   6.834
 4019SOL     OW12955   4.961   5.909   3.635
 4019SOL    HW112956   5.016   5.959   3.568
 4019SOL    HW212957   5.019   5.887   3.714
 4020SOL     OW12958   5.371   2.137   4.963
 4020SOL    HW112959   5.284   2.185   4.978
 4020SOL    HW212960   5.432   2.195   4.909
 4021SOL     OW12961   4.928   3.554   6.685
 4021SOL    HW112962   4.907   3.502   6.601
 4021SOL    HW212963   4.867   3.632   6.691
 4022SOL     OW12964   5.548   0.657   0.711
 4022SOL    HW112965   5.590   0.747   0.717
 4022SOL    HW212966   5.461   0.657   0.761
 4023SOL     OW12967   6.455   6.474   5.913
 4023SOL    HW112968   6.392   6.472   5.836
 4023SOL    HW212969   6.412   6.521   5.990
 4024SOL     OW12970   4.582   4.644   5.007
 4024SOL    HW112971   4.633   4.567   5.043
 4024SOL    HW212972   4.486   4.621   5.000
 4025SOL     OW12973   0.690   4.028   4.276
 4025SOL    HW112974   0.629   3.983   4.342
 4025SOL    HW212975   0.723   3.961   4.210
 4026SOL     OW12976   5.272   0.412   5.884
 4026SOL    HW112977   5.288   0.336   5.947
 4026SOL    HW212978   5.177   0.410   5.853
 4027SOL     OW12979   3.328   5.291   2.351
 4027SOL    HW112980   3.402   5.272   2.415
 4027SOL    HW212981   3.365   5.299   2.259
 4028SOL     OW12982   2.357   5.702   3.084
 4028SOL    HW112983   2.365   5.659   3.174
 4028SOL    HW212984   2.422   5.777   3.077
 4029SOL     OW12985   1.835   4.298   3.510
 4029SOL    HW112986   1.892   4.378   3.529
 4029SOL    HW212987   1.855   4.227   3.578
 4030SOL     OW12988   1.971   1.469   6.655
 4030SOL    HW112989   1.875   1.489   6.634
 4030SOL    HW212990   2.009   1.542   6.711
 4031SOL     OW12991   6.495   5.891   4.239
 4031SOL    HW112992   6.549   5.810   4.262
 4031SOL    HW212993   6.526   5.929   4.152
 4032SOL     OW12994   3.680   0.318   5.143
 4032SOL    HW112995   3.710   0.264   5.222
 4032SOL    HW212996   3.675   0.415   5.169
 4033SOL     OW12997   3.983   3.573   6.091
 4033SOL    HW112998   4.026   3.643   6.035
 4033SOL    HW212999   3.887   3.598   6.108
 4034SOL     OW13000   5.818   3.522   4.936
 4034SOL    HW113001   5.908   3.498   4.973
 4034SOL    HW213002   5.747   3.474   4.988
 4035SOL     OW13003   0.379   6.308   1.928
 4035SOL    HW113004   0.453   6.305   1.995
 4035SOL    HW213005   0.404   6.253   1.848
 4036SOL     OW13006   6.271   5.827   1.768
 4036SOL    HW113007   6.182   5.796   1.735
 4036SOL    HW213008   6.302   5.904   1.712
 4037SOL     OW13009   0.187   3.519   5.804
 4037SOL    HW113010   0.285   3.521   5.826
 4037SOL    HW213011   0.174   3.470   5.718
 4038SOL     OW13012   6.118   5.059   3.106
 4038SOL    HW113013   6.170   5.137   3.071
 4038SOL    HW213014   6.072   5.013   3.029
 4039SOL     OW13015   2.541   5.538   1.060
 4039SOL    HW113016   2.589   5.624   1.078
 4039SOL    HW213017   2.572   5.469   1.125
 4040SOL     OW13018   3.404   6.689   6.865
 4040SOL    HW113019   3.476   6.730   6.809
 4040SOL    HW213020   3.443   6.619   6.925
 4041SOL     OW13021   0.755   5.779   2.982
 4041SOL    HW113022   0.718   5.862   3.023
 4041SOL    HW213023   0.832   5.746   3.037
 4042SOL     OW13024   6.034   5.905   2.044
 4042SOL    HW113025   5.988   5.818   2.029
 4042SOL    HW213026   6.130   5.898   2.017
 4043SOL     OW13027   6.415   3.769   1.161
 4043SOL    HW113028   6.339   3.718   1.122
 4043SOL    HW213029   6.397   3.787   1.258
 4044SOL     OW13030   5.733   5.229   2.153
 4044SOL    HW113031   5.666   5.169   2.197
 4044SOL    HW213032   5.825   5.198   2.174
 4045SOL     OW13033   2.963   4.663   5.826
 4045SOL    HW113034   3.021   4.744   5.837
 4045SOL    HW213035   2.877   4.689   5.783
 4046SOL     OW13036   0.407   3.216   0.476
 4046SOL    HW113037   0.446   3.142   0.532
 4046SOL    HW213038   0.434   3.304   0.515
 4047SOL     OW13039   2.980   3.461   2.930
 4047SOL    HW113040   3.069   3.439   2.889
 4047SOL    HW213041   2.994   3.511   3.015
 4048SOL     OW13042   4.462   2.399   0.522
 4048SOL    HW113043   4.430   2.374   0.430
 4048SOL    HW213044   4.526   2.475   0.516
 4049SOL     OW13045   6.714   6.986   0.240
 4049SOL    HW113046   6.634   0.020   0.211
 4049SOL    HW213047   6.773   0.023   0.297
 4050SOL     OW13048   2.692   0.628   2.712
 4050SOL    HW113049   2.680   0.708   2.654
 4050SOL    HW213050   2.754   0.650   2.788
 4051SOL     OW13051   2.005   3.889   1.198
 4051SOL    HW113052   2.044   3.826   1.130
 4051SOL    HW213053   2.035   3.862   1.289
 4052SOL     OW13054   1.204   0.110   1.197
 4052SOL    HW113055   1.207   0.132   1.295
 4052SOL    HW213056   1.265   0.032   1.179
 4053SOL     OW13057   2.933   5.353   2.917
 4053SOL    HW113058   2.927   5.334   2.819
 4053SOL    HW213059   2.955   5.269   2.966
 4054SOL     OW13060   5.634   1.499   6.847
 4054SOL    HW113061   5.565   1.569   6.827
 4054SOL    HW213062   5.588   1.414   6.872
 4055SOL     OW13063   4.680   3.414   0.519
 4055SOL    HW113064   4.757   3.453   0.468
 4055SOL    HW213065   4.599   3.471   0.507
 4056SOL     OW13066   4.483   2.934   0.005
 4056SOL    HW113067   4.432   3.014   6.995
 4056SOL    HW213068   4.543   2.958   0.081
 4057SOL     OW13069   6.117   2.352   0.597
 4057SOL    HW113070   6.178   2.428   0.575
 4057SOL    HW213071   6.170   2.268   0.610
 4058SOL     OW13072   1.031   2.742   3.942
 4058SOL    HW113073   1.046   2.832   3.983
 4058SOL    HW213074   0.935   2.718   3.950
 4059SOL     OW13075   6.904   2.127   4.916
 4059SOL    HW113076   6.969   2.171   4.855
 4059SOL    HW213077   6.901   2.029   4.897
 4060SOL     OW13078   2.874   6.742   5.660
 4060SOL    HW113079   2.926   6.769   5.742
 4060SOL    HW213080   2.884   6.643   5.646
 4061SOL     OW13081   2.276   3.068   1.182
 4061SOL    HW113082   2.373   3.048   1.195
 4061SOL    HW213083   2.253   3.154   1.227
 4062SOL     OW13084   3.099   6.940   2.653
 4062SOL    HW113085   3.169   6.943   2.724
 4062SOL    HW213086   3.143   6.946   2.563
 4063SOL     OW13087   3.248   5.709   6.050
 4063SOL    HW113088   3.181   5.644   6.013
 4063SOL    HW213089   3.287   5.762   5.975
 4064SOL     OW13090   6.237   6.715   4.393
 4064SOL    HW113091   6.231   6.765   4.479
 4064SOL    HW213092   6.173   6.638   4.394
 4065SOL     OW13093   1.408   4.364   5.840
 4065SOL    HW113094   1.485   4.396   5.785
 4065SOL    HW213095   1.354   4.442   5.871
 4066SOL     OW13096   4.970   5.534   1.532
 4066SOL    HW113097   4.910   5.491   1.599
 4066SOL    HW213098   5.023   5.464   1.484
 4067SOL     OW13099   5.898   0.795   1.092
 4067SOL    HW113100   5.820   0.793   1.155
 4067SOL    HW213101   5.960   0.868   1.118
 4068SOL     OW13102   5.085   0.779   5.094
 4068SOL    HW113103   5.161   0.718   5.114
 4068SOL    HW213104   5.120   0.864   5.053
 4069SOL     OW13105   6.608   5.957   0.681
 4069SOL    HW113106   6.566   6.028   0.624
 4069SOL    HW213107   6.547   5.877   0.685
 4070SOL     OW13108   6.454   3.783   2.799
 4070SOL    HW113109   6.528   3.844   2.827
 4070SOL    HW213110   6.410   3.745   2.881
 4071SOL     OW13111   2.568   0.600   4.746
 4071SOL    HW113112   2.597   0.679   4.691
 4071SOL    HW213113   2.477   0.571   4.717
 4072SOL     OW13114   0.620   0.174   4.352
 4072SOL    HW113115   0.561   0.116   4.294
 4072SOL    HW213116   0.704   0.195   4.303
 4073SOL     OW13117   2.494   4.884   2.266
 4073SOL    HW113118   2.407   4.887   2.216
 4073SOL    HW213119   2.501   4.966   2.324
 4074SOL     OW13120   0.359   3.009   0.911
 4074SOL    HW113121   0.385   3.003   1.007
 4074SOL    HW213122   0.293   2.938   0.889
 4075SOL     OW13123   6.173   0.272   3.424
 4075SOL    HW113124   6.186   0.273   3.523
 4075SOL    HW213125   6.103   0.206   3.400
 4076SOL     OW13126   1.398   3.136   3.485
 4076SOL    HW113127   1.326   3.202   3.464
 4076SOL    HW213128   1.416   3.081   3.403
 4077SOL     OW13129   3.668   0.767   1.260
 4077SOL    HW113130   3.620   0.804   1.340
 4077SOL    HW213131   3.602   0.724   1.199
 4078SOL     OW13132   4.812   4.432   3.161
 4078SOL    HW113133   4.909   4.412   3.145
 4078SOL    HW213134   4.778   4.491   3.088
 4079SOL     OW13135   5.014   0.896   3.822
 4079SOL    HW113136   5.080   0.970   3.807
 4079SOL    HW213137   4.930   0.933   3.862
 4080SOL     OW13138   3.394   4.150   4.723
 4080SOL    HW113139   3.473   4.156   4.663
 4080SOL    HW213140   3.389   4.232   4.780
 4081SOL     OW13141   2.536   0.476   0.059
 4081SOL    HW113142   2.452   0.423   0.049
 4081SOL    HW213143   2.514   0.569   0.085
 4082SOL     OW13144   1.112   1.014   5.928
 4082SOL    HW113145   1.105   0.953   5.848
 4082SOL    HW213146   1.205   1.012   5.964
 4083SOL     OW13147   6.298   5.388   2.217
 4083SOL    HW113148   6.263   5.481   2.233
 4083SOL    HW213149   6.324   5.348   2.304
 4084SOL     OW13150   4.344   6.511   2.224
 4084SOL    HW113151   4.249   6.512   2.193
 4084SOL    HW213152   4.364   6.595   2.274
 4085SOL     OW13153   2.296   4.390   2.935
 4085SOL    HW113154   2.309   4.310   2.995
 4085SOL    HW213155   2.216   4.442   2.966
 4086SOL     OW13156   5.639   5.121   5.167
 4086SOL    HW113157   5.735   5.128   5.140
 4086SOL    HW213158   5.582   5.168   5.100
 4087SOL     OW13159   1.603   1.187   1.916
 4087SOL    HW113160   1.575   1.268   1.968
 4087SOL    HW213161   1.699   1.195   1.891
 4088SOL     OW13162   0.167   2.359   5.574
 4088SOL    HW113163   0.100   2.350   5.647
 4088SOL    HW213164   0.245   2.413   5.607
 4089SOL     OW13165   0.667   0.371   2.711
 4089SOL    HW113166   0.751   0.321   2.732
 4089SOL    HW213167   0.603   0.309   2.665
 4090SOL     OW13168   3.244   2.471   5.392
 4090SOL    HW113169   3.252   2.408   5.469
 4090SOL    HW213170   3.209   2.422   5.312
 4091SOL     OW13171   3.727   6.482   2.515
 4091SOL    HW113172   3.753   6.391   2.484
 4091SOL    HW213173   3.798   6.520   2.575
 4092SOL     OW13174   5.416   1.642   6.416
 4092SOL    HW113175   5.399   1.560   6.361
 4092SOL    HW213176   5.473   1.618   6.494
 4093SOL     OW13177   5.758   4.065   2.442
 4093SOL    HW113178   5.689   4.083   2.512
 4093SOL    HW213179   5.848   4.058   2.484
 4094SOL     OW13180   6.513   6.613   0.295
 4094SOL    HW113181   6.540   6.646   0.205
 4094SOL    HW213182   6.591   6.618   0.358
 4095SOL     OW13183   1.450   4.993   0.952
 4095SOL    HW113184   1.492   5.034   0.871
 4095SOL    HW213185   1.520   4.981   1.023
 4096SOL     OW13186   0.623   6.835   5.779
 4096SOL    HW113187   0.632   6.871   5.872
 4096SOL    HW213188   0.711   6.797   5.750
 4097SOL     OW13189   1.356   3.966   5.187
 4097SOL    HW113190   1.332   4.040   5.250
 4097SOL    HW213191   1.272   3.923   5.154
 4098SOL     OW13192   1.568   5.713   2.089
 4098SOL    HW113193   1.520   5.647   2.031
 4098SOL    HW213194   1.503   5.757   2.150
 4099SOL     OW13195   6.815   2.526   5.843
 4099SOL    HW113196   6.785   2.436   5.876
 4099SOL    HW213197   6.822   2.523   5.743
 4100SOL     OW13198   2.658   0.760   3.911
 4100SOL    HW113199   2.712   0.742   3.829
 4100SOL    HW213200   2.598   0.681   3.929
 4101SOL     OW13201   6.303   6.223   6.029
 4101SOL    HW113202   6.359   6.306   6.020
 4101SOL    HW213203   6.209   6.244   6.005
 4102SOL     OW13204   2.471   5.243   0.668
 4102SOL    HW113205   2.419   5.328   0.665
 4102SOL    HW213206   2.412   5.166   0.644
 4103SOL     OW13207   2.583   5.060   3.089
 4103SOL    HW113208   2.523   5.137   3.109
 4103SOL    HW213209   2.661   5.061   3.151
 4104SOL     OW13210   2.125   5.702   5.904
 4104SOL    HW113211   2.160   5.700   5.810
 4104SOL    HW213212   2.094   5.795   5.926
 4105SOL     OW13213   3.532   6.995   1.283
 4105SOL    HW113214   3.438   7.018   1.309
 4105SOL    HW213215   3.566   6.924   1.345
 4106SOL     OW13216   1.196   6.983   2.758
 4106SOL    HW113217   1.292   6.999   2.736
 4106SOL    HW213218   1.157   6.918   2.692
 4107SOL     OW13219   1.803   2.145   0.944
 4107SOL    HW113220   1.865   2.161   0.867
 4107SOL    HW213221   1.805   2.048   0.969
 4108SOL     OW13222   0.910   5.945   5.111
 4108SOL    HW113223   0.917   5.964   5.013
 4108SOL    HW213224   0.854   6.015   5.155
 4109SOL     OW13225   4.885   6.960   5.197
 4109SOL    HW113226   4.803   7.015   5.207
 4109SOL    HW213227   4.962   7.019   5.171
 4110SOL     OW13228   4.353   2.386   0.231
 4110SOL    HW113229   4.294   2.370   0.309
 4110SOL    HW213230   4.345   2.481   0.201
 4111SOL     OW13231   6.264   4.924   3.624
 4111SOL    HW113232   6.292   4.832   3.653
 4111SOL    HW213233   6.253   4.926   3.525
 4112SOL     OW13234   4.100   5.842   5.624
 4112SOL    HW113235   4.040   5.762   5.623
 4112SOL    HW213236   4.186   5.819   5.578
 4113SOL     OW13237   4.965   5.293   5.719
 4113SOL    HW113238   4.966   5.241   5.633
 4113SOL    HW213239   4.946   5.389   5.699
 4114SOL     OW13240   6.570   1.624   3.023
 4114SOL    HW113241   6.522   1.585   3.101
 4114SOL    HW213242   6.638   1.690   3.056
 4115SOL     OW13243   4.115   6.405   4.867
 4115SOL    HW113244   4.055   6.325   4.865
 4115SOL    HW213245   4.073   6.480   4.817
 4116SOL     OW13246   6.596   3.942   3.688
 4116SOL    HW113247   6.520   3.888   3.654
 4116SOL    HW213248   6.587   3.954   3.787
 4117SOL     OW13249   0.337   2.281   2.737
 4117SOL    HW113250   0.307   2.248   2.647
 4117SOL    HW213251   0.398   2.213   2.778
 4118SOL     OW13252   1.348   0.338   1.953
 4118SOL    HW113253   1.355   0.249   1.999
 4118SOL    HW213254   1.300   0.403   2.011
 4119SOL     OW13255   6.676   0.979   4.883
 4119SOL    HW113256   6.664   0.980   4.982
 4119SOL    HW213257   6.767   1.012   4.860
 4120SOL     OW13258   1.737   0.634   6.419
 4120SOL    HW113259   1.646   0.652   6.456
 4120SOL    HW213260   1.747   0.679   6.330
 4121SOL     OW13261   6.868   0.996   1.065
 4121SOL    HW113262   6.833   0.938   1.139
 4121SOL    HW213263   6.811   0.986   0.984
 4122SOL     OW13264   0.892   4.656   3.692
 4122SOL    HW113265   0.870   4.594   3.617
 4122SOL    HW213266   0.899   4.604   3.777
 4123SOL     OW13267   5.953   4.243   1.730
 4123SOL    HW113268   5.918   4.308   1.662
 4123SOL    HW213269   5.887   4.168   1.740
 4124SOL     OW13270   6.066   6.718   0.054
 4124SOL    HW113271   6.058   6.619   0.045
 4124SOL    HW213272   6.129   6.741   0.128
 4125SOL     OW13273   0.273   2.904   6.858
 4125SOL    HW113274   0.302   2.836   6.925
 4125SOL    HW213275   0.198   2.868   6.803
 4126SOL     OW13276   1.020   4.344   3.747
 4126SOL    HW113277   1.113   4.348   3.783
 4126SOL    HW213278   1.011   4.409   3.671
 4127SOL     OW13279   4.386   2.422   3.922
 4127SOL    HW113280   4.480   2.438   3.954
 4127SOL    HW213281   4.330   2.501   3.945
 4128SOL     OW13282   6.129   2.399   6.442
 4128SOL    HW113283   6.071   2.480   6.447
 4128SOL    HW213284   6.087   2.324   6.493
 4129SOL     OW13285   3.579   0.281   1.968
 4129SOL    HW113286   3.648   0.323   1.910
 4129SOL    HW213287   3.532   0.208   1.918
 4130SOL     OW13288   5.258   2.222   0.441
 4130SOL    HW113289   5.307   2.143   0.405
 4130SOL    HW213290   5.322   2.299   0.451
 4131SOL     OW13291   5.033   6.481   3.443
 4131SOL    HW113292   4.961   6.546   3.416
 4131SOL    HW213293   4.991   6.393   3.467
 4132SOL     OW13294   6.109   3.865   2.788
 4132SOL    HW113295   6.208   3.878   2.792
 4132SOL    HW213296   6.063   3.940   2.836
 4133SOL     OW13297   5.704   6.449   3.569
 4133SOL    HW113298   5.663   6.531   3.609
 4133SOL    HW213299   5.804   6.455   3.576
 4134SOL     OW13300   1.140   3.155   1.185
 4134SOL    HW113301   1.096   3.218   1.121
 4134SOL    HW213302   1.135   3.061   1.149
 4135SOL     OW13303   6.061   1.388   0.681
 4135SOL    HW113304   5.983   1.438   0.719
 4135SOL    HW213305   6.035   1.293   0.665
 4136SOL     OW13306   0.678   4.671   0.394
 4136SOL    HW113307   0.745   4.625   0.334
 4136SOL    HW213308   0.642   4.752   0.348
 4137SOL     OW13309   0.237   2.865   5.518
 4137SOL    HW113310   0.251   2.803   5.595
 4137SOL    HW213311   0.139   2.876   5.501
 4138SOL     OW13312   6.116   6.874   6.157
 4138SOL    HW113313   6.026   6.854   6.119
 4138SOL    HW213314   6.144   6.799   6.216
 4139SOL     OW13315   1.676   3.918   2.353
 4139SOL    HW113316   1.757   3.972   2.328
 4139SOL    HW213317   1.624   3.966   2.422
 4140SOL     OW13318   2.341   6.404   6.933
 4140SOL    HW113319   2.428   6.395   6.884
 4140SOL    HW213320   2.338   6.493   6.979
 4141SOL     OW13321   5.339   0.177   6.043
 4141SOL    HW113322   5.259   0.121   6.068
 4141SOL    HW213323   5.398   0.188   6.123
 4142SOL     OW13324   6.939   6.715   1.554
 4142SOL    HW113325   6.847   6.680   1.574
 4142SOL    HW213326   7.000   6.639   1.533
 4143SOL     OW13327   6.861   3.736   6.874
 4143SOL    HW113328   6.866   3.779   6.784
 4143SOL    HW213329   6.765   3.725   6.900
 4144SOL     OW13330   4.079   0.565   1.852
 4144SOL    HW113331   4.102   0.661   1.867
 4144SOL    HW213332   3.981   0.550   1.866
 4145SOL     OW13333   5.301   0.995   1.377
 4145SOL    HW113334   5.282   0.897   1.369
 4145SOL    HW213335   5.326   1.015   1.472
 4146SOL     OW13336   3.792   0.139   2.683
 4146SOL    HW113337   3.848   0.108   2.759
 4146SOL    HW213338   3.750   0.061   2.637
 4147SOL     OW13339   4.619   3.931   6.579
 4147SOL    HW113340   4.650   3.958   6.488
 4147SOL    HW213341   4.534   3.980   6.600
 4148SOL     OW13342   3.250   0.932   6.022
 4148SOL    HW113343   3.313   1.001   5.987
 4148SOL    HW213344   3.156   0.964   6.010
 4149SOL     OW13345   1.606   3.344   0.178
 4149SOL    HW113346   1.568   3.252   0.164
 4149SOL    HW213347   1.643   3.378   0.092
 4150SOL     OW13348   6.439   1.254   0.599
 4150SOL    HW113349   6.393   1.167   0.583
 4150SOL    HW213350   6.403   1.297   0.682
 4151SOL     OW13351   2.802   5.693   4.609
 4151SOL    HW113352   2.709   5.659   4.599
 4151SOL    HW213353   2.830   5.688   4.705
 4152SOL     OW13354   2.450   3.947   1.209
 4152SOL    HW113355   2.538   3.995   1.212
 4152SOL    HW213356   2.452   3.871   1.274
 4153SOL     OW13357   6.736   6.011   0.910
 4153SOL    HW113358   6.695   5.971   0.829
 4153SOL    HW213359   6.740   6.110   0.900
 4154SOL     OW13360   0.073   6.423   4.100
 4154SOL    HW113361   0.042   6.472   4.018
 4154SOL    HW213362   0.005   6.353   4.124
 4155SOL     OW13363   5.924   1.464   2.111
 4155SOL    HW113364   6.016   1.490   2.142
 4155SOL    HW213365   5.916   1.482   2.013
 4156SOL     OW13366   0.884   4.850   5.784
 4156SOL    HW113367   0.955   4.781   5.768
 4156SOL    HW213368   0.894   4.925   5.719
 4157SOL     OW13369   5.150   5.830   0.820
 4157SOL    HW113370   5.073   5.876   0.776
 4157SOL    HW213371   5.117   5.754   0.875
 4158SOL     OW13372   6.607   1.681   6.741
 4158SOL    HW113373   6.659   1.752   6.693
 4158SOL    HW213374   6.550   1.631   6.675
 4159SOL     OW13375   2.819   0.600   4.857
 4159SOL    HW113376   2.733   0.585   4.809
 4159SOL    HW213377   2.895   0.593   4.792
 4160SOL     OW13378   1.589   0.102   5.780
 4160SOL    HW113379   1.559   0.090   5.685
 4160SOL    HW213380   1.619   0.197   5.793
 4161SOL     OW13381   3.448   2.864   4.769
 4161SOL    HW113382   3.352   2.835   4.761
 4161SOL    HW213383   3.477   2.908   4.684
 4162SOL     OW13384   4.666   6.005   1.623
 4162SOL    HW113385   4.712   6.029   1.708
 4162SOL    HW213386   4.706   5.922   1.586
 4163SOL     OW13387   3.728   5.666   0.894
 4163SOL    HW113388   3.746   5.718   0.811
 4163SOL    HW213389   3.813   5.623   0.926
 4164SOL     OW13390   5.477   1.321   6.953
 4164SOL    HW113391   5.443   1.261   6.881
 4164SOL    HW213392   5.469   1.275   0.022
 4165SOL     OW13393   3.036   2.138   4.119
 4165SOL    HW113394   3.132   2.125   4.142
 4165SOL    HW213395   3.020   2.107   4.025
 4166SOL     OW13396   6.008   2.437   2.804
 4166SOL    HW113397   6.048   2.435   2.895
 4166SOL    HW213398   5.976   2.345   2.779
 4167SOL     OW13399   3.725   6.327   4.897
 4167SOL    HW113400   3.667   6.280   4.831
 4167SOL    HW213401   3.709   6.426   4.892
 4168SOL     OW13402   4.828   3.731   6.141
 4168SOL    HW113403   4.826   3.783   6.055
 4168SOL    HW213404   4.833   3.634   6.120
 4169SOL     OW13405   4.891   3.938   6.506
 4169SOL    HW113406   4.990   3.949   6.491
 4169SOL    HW213407   4.854   4.021   6.545
 4170SOL     OW13408   1.653   3.177   5.164
 4170SOL    HW113409   1.637   3.080   5.182
 4170SOL    HW213410   1.729   3.187   5.100
 4171SOL     OW13411   0.486   0.901   6.240
 4171SOL    HW113412   0.479   0.962   6.161
 4171SOL    HW213413   0.578   0.862   6.244
 4172SOL     OW13414   2.907   2.815   6.881
 4172SOL    HW113415   2.824   2.844   6.834
 4172SOL    HW213416   2.903   2.840   6.977
 4173SOL     OW13417   5.438   0.995   5.544
 4173SOL    HW113418   5.529   0.970   5.579
 4173SOL    HW213419   5.420   0.945   5.460
 4174SOL     OW13420   2.908   6.881   3.637
 4174SOL    HW113421   2.976   6.953   3.637
 4174SOL    HW213422   2.951   6.794   3.612
 4175SOL     OW13423   1.136   4.829   6.056
 4175SOL    HW113424   1.102   4.748   6.007
 4175SOL    HW213425   1.189   4.800   6.136
 4176SOL     OW13426   4.555   6.953   5.679
 4176SOL    HW113427   4.617   0.012   5.675
 4176SOL    HW213428   4.463   6.982   5.652
 4177SOL     OW13429   4.264   6.189   3.518
 4177SOL    HW113430   4.257   6.284   3.550
 4177SOL    HW213431   4.335   6.183   3.447
 4178SOL     OW13432   3.966   6.676   0.865
 4178SOL    HW113433   3.904   6.691   0.943
 4178SOL    HW213434   3.913   6.673   0.781
 4179SOL     OW13435   4.366   1.616   6.767
 4179SOL    HW113436   4.320   1.673   6.699
 4179SOL    HW213437   4.311   1.614   6.851
 4180SOL     OW13438   3.751   4.260   6.947
 4180SOL    HW113439   3.717   4.166   6.941
 4180SOL    HW213440   3.826   4.272   6.881
 4181SOL     OW13441   5.344   6.161   5.504
 4181SOL    HW113442   5.326   6.258   5.518
 4181SOL    HW213443   5.429   6.150   5.451
 4182SOL     OW13444   6.942   5.073   5.360
 4182SOL    HW113445   6.927   5.072   5.459
 4182SOL    HW213446   6.853   5.069   5.314
 4183SOL     OW13447   4.994   2.603   0.093
 4183SOL    HW113448   4.923   2.644   0.035
 4183SOL    HW213449   4.952   2.532   0.150
 4184SOL     OW13450   3.483   5.711   3.208
 4184SOL    HW113451   3.550   5.651   3.166
 4184SOL    HW213452   3.398   5.710   3.155
 4185SOL     OW13453   4.675   4.248   3.298
 4185SOL    HW113454   4.706   4.327   3.245
 4185SOL    HW213455   4.674   4.166   3.240
 4186SOL     OW13456   1.429   4.996   6.955
 4186SOL    HW113457   1.329   4.998   6.952
 4186SOL    HW213458   1.464   5.089   6.964
 4187SOL     OW13459   2.213   4.302   6.535
 4187SOL    HW113460   2.232   4.374   6.602
 4187SOL    HW213461   2.236   4.213   6.575
 4188SOL     OW13462   5.224   0.542   6.509
 4188SOL    HW113463   5.311   0.589   6.494
 4188SOL    HW213464   5.173   0.538   6.423
 4189SOL     OW13465   4.651   5.716   3.246
 4189SOL    HW113466   4.699   5.647   3.300
 4189SOL    HW213467   4.713   5.790   3.222
 4190SOL     OW13468   6.676   5.917   1.512
 4190SOL    HW113469   6.689   6.011   1.480
 4190SOL    HW213470   6.660   5.858   1.434
 4191SOL     OW13471   4.689   2.444   5.982
 4191SOL    HW113472   4.773   2.486   5.948
 4191SOL    HW213473   4.671   2.476   6.075
 4192SOL     OW13474   1.482   3.513   6.311
 4192SOL    HW113475   1.444   3.425   6.283
 4192SOL    HW213476   1.427   3.587   6.272
 4193SOL     OW13477   6.048   6.743   1.545
 4193SOL    HW113478   5.969   6.682   1.541
 4193SOL    HW213479   6.017   6.836   1.564
 4194SOL     OW13480   5.382   0.331   6.952
 4194SOL    HW113481   5.400   0.429   6.943
 4194SOL    HW213482   5.337   0.296   6.870
 4195SOL     OW13483   2.229   5.754   0.561
 4195SOL    HW113484   2.166   5.817   0.515
 4195SOL    HW213485   2.278   5.700   0.492
 4196SOL     OW13486   6.660   3.155   3.700
 4196SOL    HW113487   6.583   3.108   3.743
 4196SOL    HW213488   6.745   3.129   3.746
 4197SOL     OW13489   4.448   0.390   0.013
 4197SOL    HW113490   4.513   0.386   0.088
 4197SOL    HW213491   4.434   0.486   7.006
 4198SOL     OW13492   6.997   2.334   1.434
 4198SOL    HW113493   0.020   2.304   1.519
 4198SOL    HW213494   6.961   2.255   1.385
 4199SOL     OW13495   1.101   4.093   6.847
 4199SOL    HW113496   1.041   4.096   6.767
 4199SOL    HW213497   1.055   4.046   6.922
 4200SOL     OW13498   5.570   1.802   2.709
 4200SOL    HW113499   5.519   1.741   2.648
 4200SOL    HW213500   5.512   1.880   2.733
 4201SOL     OW13501   4.968   6.994   4.604
 4201SOL    HW113502   5.062   6.960   4.608
 4201SOL    HW213503   4.955   0.026   4.519
 4202SOL     OW13504   4.518   3.983   1.677
 4202SOL    HW113505   4.500   4.066   1.730
 4202SOL    HW213506   4.468   3.906   1.717
 4203SOL     OW13507   5.988   4.136   4.745
 4203SOL    HW113508   6.073   4.157   4.697
 4203SOL    HW213509   5.932   4.218   4.753
 4204SOL     OW13510   2.248   4.479   5.846
 4204SOL    HW113511   2.200   4.392   5.861
 4204SOL    HW213512   2.329   4.463   5.791
 4205SOL     OW13513   5.727   6.024   5.844
 4205SOL    HW113514   5.801   5.987   5.788
 4205SOL    HW213515   5.750   6.016   5.941
 4206SOL     OW13516   2.467   2.399   4.726
 4206SOL    HW113517   2.536   2.336   4.762
 4206SOL    HW213518   2.509   2.461   4.661
 4207SOL     OW13519   2.038   2.657   1.057
 4207SOL    HW113520   2.003   2.616   0.973
 4207SOL    HW213521   2.075   2.748   1.037
 4208SOL     OW13522   2.499   2.290   2.959
 4208SOL    HW113523   2.463   2.242   3.040
 4208SOL    HW213524   2.438   2.273   2.881
 4209SOL     OW13525   6.482   5.883   2.514
 4209SOL    HW113526   6.383   5.887   2.501
 4209SOL    HW213527   6.523   5.827   2.442
 4210SOL     OW13528   3.098   4.923   5.701
 4210SOL    HW113529   3.137   4.902   5.611
 4210SOL    HW213530   3.012   4.972   5.690
 4211SOL     OW13531   4.490   2.468   5.797
 4211SOL    HW113532   4.563   2.465   5.865
 4211SOL    HW213533   4.402   2.485   5.843
 4212SOL     OW13534   0.902   2.767   3.187
 4212SOL    HW113535   0.931   2.695   3.251
 4212SOL    HW213536   0.841   2.727   3.118
 4213SOL     OW13537   3.528   0.749   3.443
 4213SOL    HW113538   3.447   0.785   3.491
 4213SOL    HW213539   3.608   0.804   3.467
 4214SOL     OW13540   6.318   6.683   4.151
 4214SOL    HW113541   6.275   6.735   4.077
 4214SOL    HW213542   6.282   6.715   4.239
 4215SOL     OW13543   5.827   0.199   5.345
 4215SOL    HW113544   5.878   0.145   5.412
 4215SOL    HW213545   5.737   0.222   5.382
 4216SOL     OW13546   2.452   5.567   2.522
 4216SOL    HW113547   2.401   5.586   2.605
 4216SOL    HW213548   2.402   5.604   2.443
 4217SOL     OW13549   0.587   0.196   2.483
 4217SOL    HW113550   0.679   0.157   2.484
 4217SOL    HW213551   0.520   0.122   2.476
 4218SOL     OW13552   2.802   0.461   1.901
 4218SOL    HW113553   2.827   0.365   1.908
 4218SOL    HW213554   2.831   0.496   1.812
 4219SOL     OW13555   3.219   5.201   2.886
 4219SOL    HW113556   3.166   5.139   2.827
 4219SOL    HW213557   3.173   5.211   2.974
 4220SOL     OW13558   5.999   2.261   1.154
 4220SOL    HW113559   5.923   2.317   1.121
 4220SOL    HW213560   5.988   2.168   1.121
 4221SOL     OW13561   0.610   6.575   0.906
 4221SOL    HW113562   0.524   6.537   0.871
 4221SOL    HW213563   0.657   6.623   0.832
 4222SOL     OW13564   5.140   3.440   4.180
 4222SOL    HW113565   5.189   3.373   4.235
 4222SOL    HW213566   5.190   3.526   4.180
 4223SOL     OW13567   3.345   4.179   3.221
 4223SOL    HW113568   3.344   4.279   3.224
 4223SOL    HW213569   3.253   4.145   3.203
 4224SOL     OW13570   4.768   4.440   4.834
 4224SOL    HW113571   4.770   4.377   4.756
 4224SOL    HW213572   4.676   4.478   4.844
 4225SOL     OW13573   0.722   1.949   6.339
 4225SOL    HW113574   0.714   1.863   6.289
 4225SOL    HW213575   0.818   1.964   6.363
 4226SOL     OW13576   5.409   4.785   4.565
 4226SOL    HW113577   5.495   4.761   4.608
 4226SOL    HW213578   5.401   4.884   4.558
 4227SOL     OW13579   5.710   5.550   1.134
 4227SOL    HW113580   5.634   5.562   1.071
 4227SOL    HW213581   5.719   5.631   1.192
 4228SOL     OW13582   1.504   4.053   3.697
 4228SOL    HW113583   1.512   4.124   3.766
 4228SOL    HW213584   1.452   3.976   3.733
 4229SOL     OW13585   6.019   6.143   5.483
 4229SOL    HW113586   6.020   6.116   5.386
 4229SOL    HW213587   6.034   6.062   5.540
 4230SOL     OW13588   0.558   1.111   2.199
 4230SOL    HW113589   0.495   1.095   2.275
 4230SOL    HW213590   0.517   1.078   2.114
 4231SOL     OW13591   0.692   0.537   6.179
 4231SOL    HW113592   0.619   0.482   6.218
 4231SOL    HW213593   0.727   0.493   6.097
 4232SOL     OW13594   1.535   4.483   3.106
 4232SOL    HW113595   1.461   4.533   3.151
 4232SOL    HW213596   1.594   4.442   3.176
 4233SOL     OW13597   4.006   5.195   2.418
 4233SOL    HW113598   4.036   5.279   2.373
 4233SOL    HW213599   4.061   5.118   2.385
 4234SOL     OW13600   3.472   5.230   6.075
 4234SOL    HW113601   3.382   5.211   6.037
 4234SOL    HW213602   3.490   5.169   6.153
 4235SOL     OW13603   6.795   6.373   6.681
 4235SOL    HW113604   6.696   6.380   6.668
 4235SOL    HW213605   6.827   6.452   6.734
 4236SOL     OW13606   0.432   5.357   3.068
 4236SOL    HW113607   0.438   5.425   3.141
 4236SOL    HW213608   0.394   5.399   2.986
 4237SOL     OW13609   6.814   4.649   3.602
 4237SOL    HW113610   6.807   4.561   3.556
 4237SOL    HW213611   6.883   4.643   3.675
 4238SOL     OW13612   2.814   6.049   2.676
 4238SOL    HW113613   2.886   5.981   2.682
 4238SOL    HW213614   2.785   6.060   2.581
 4239SOL     OW13615   4.123   0.898   2.966
 4239SOL    HW113616   4.026   0.883   2.983
 4239SOL    HW213617   4.161   0.820   2.916
 4240SOL     OW13618   5.446   0.312   2.034
 4240SOL    HW113619   5.378   0.360   2.090
 4240SOL    HW213620   5.406   0.227   2.000
 4241SOL     OW13621   0.196   4.460   0.112
 4241SOL    HW113622   0.273   4.458   0.176
 4241SOL    HW213623   0.142   4.376   0.121
 4242SOL     OW13624   3.645   2.067   2.855
 4242SOL    HW113625   3.547   2.053   2.861
 4242SOL    HW213626   3.673   2.067   2.758
 4243SOL     OW13627   3.409   2.104   2.643
 4243SOL    HW113628   3.497   2.150   2.630
 4243SOL    HW213629   3.414   2.012   2.605
 4244SOL     OW13630   3.081   3.438   5.054
 4244SOL    HW113631   3.123   3.404   5.139
 4244SOL    HW213632   3.149   3.437   4.981
 4245SOL     OW13633   6.717   0.641   5.893
 4245SOL    HW113634   6.692   0.737   5.883
 4245SOL    HW213635   6.762   0.610   5.809
 4246SOL     OW13636   0.749   4.529   6.157
 4246SOL    HW113637   0.777   4.617   6.118
 4246SOL    HW213638   0.684   4.484   6.097
 4247SOL     OW13639   0.083   5.366   5.073
 4247SOL    HW113640   0.101   5.347   5.170
 4247SOL    HW213641   0.169   5.359   5.022
 4248SOL     OW13642   2.113   3.630   6.680
 4248SOL    HW113643   2.189   3.566   6.687
 4248SOL    HW213644   2.136   3.701   6.613
 4249SOL     OW13645   5.238   2.969   6.277
 4249SOL    HW113646   5.184   2.889   6.255
 4249SOL    HW213647   5.334   2.944   6.285
 4250SOL     OW13648   6.747   4.255   3.783
 4250SOL    HW113649   6.819   4.316   3.816
 4250SOL    HW213650   6.772   4.220   3.693
 4251SOL     OW13651   6.205   4.813   5.997
 4251SOL    HW113652   6.122   4.757   6.005
 4251SOL    HW213653   6.283   4.764   6.035
 4252SOL     OW13654   0.070   4.838   5.384
 4252SOL    HW113655   0.138   4.855   5.314
 4252SOL    HW213656   7.016   4.905   5.378
 4253SOL     OW13657   3.383   6.504   3.107
 4253SOL    HW113658   3.355   6.597   3.082
 4253SOL    HW213659   3.337   6.438   3.048
 4254SOL     OW13660   3.160   3.172   2.286
 4254SOL    HW113661   3.151   3.072   2.297
 4254SOL    HW213662   3.210   3.209   2.365
 4255SOL     OW13663   0.288   2.312   3.717
 4255SOL    HW113664   0.247   2.221   3.724
 4255SOL    HW213665   0.387   2.305   3.726
 4256SOL     OW13666   1.582   1.411   2.101
 4256SOL    HW113667   1.600   1.474   2.025
 4256SOL    HW213668   1.608   1.456   2.187
 4257SOL     OW13669   4.182   2.100   5.292
 4257SOL    HW113670   4.130   2.036   5.236
 4257SOL    HW213671   4.202   2.058   5.381
 4258SOL     OW13672   5.280   6.142   2.271
 4258SOL    HW113673   5.245   6.140   2.177
 4258SOL    HW213674   5.206   6.162   2.334
 4259SOL     OW13675   2.708   3.373   1.456
 4259SOL    HW113676   2.745   3.447   1.400
 4259SOL    HW213677   2.669   3.410   1.539
 4260SOL     OW13678   4.346   6.041   4.413
 4260SOL    HW113679   4.306   5.951   4.429
 4260SOL    HW213680   4.401   6.067   4.493
 4261SOL     OW13681   1.151   1.211   3.335
 4261SOL    HW113682   1.106   1.300   3.342
 4261SOL    HW213683   1.246   1.223   3.306
 4262SOL     OW13684   0.817   6.209   5.873
 4262SOL    HW113685   0.903   6.158   5.878
 4262SOL    HW213686   0.741   6.145   5.858
 4263SOL     OW13687   4.245   5.087   6.480
 4263SOL    HW113688   4.314   5.025   6.444
 4263SOL    HW213689   4.289   5.173   6.508
 4264SOL     OW13690   0.788   0.181   1.439
 4264SOL    HW113691   0.877   0.170   1.396
 4264SOL    HW213692   0.738   0.256   1.393
 4265SOL     OW13693   1.565   1.237   0.576
 4265SOL    HW113694   1.538   1.178   0.500
 4265SOL    HW213695   1.652   1.205   0.614
 4266SOL     OW13696   3.043   4.594   0.845
 4266SOL    HW113697   2.996   4.516   0.804
 4266SOL    HW213698   3.104   4.636   0.777
 4267SOL     OW13699   1.600   3.935   5.818
 4267SOL    HW113700   1.630   3.869   5.887
 4267SOL    HW213701   1.531   3.995   5.857
 4268SOL     OW13702   1.268   1.286   1.711
 4268SOL    HW113703   1.171   1.294   1.689
 4268SOL    HW213704   1.301   1.372   1.749
 4269SOL     OW13705   2.868   3.466   0.854
 4269SOL    HW113706   2.919   3.475   0.940
 4269SOL    HW213707   2.902   3.387   0.803
 4270SOL     OW13708   3.900   2.972   6.591
 4270SOL    HW113709   3.939   3.049   6.641
 4270SOL    HW213710   3.973   2.909   6.565
 4271SOL     OW13711   1.588   0.480   1.275
 4271SOL    HW113712   1.580   0.395   1.224
 4271SOL    HW213713   1.501   0.500   1.320
 4272SOL     OW13714   0.199   3.860   3.805
 4272SOL    HW113715   0.128   3.927   3.825
 4272SOL    HW213716   0.271   3.903   3.751
 4273SOL     OW13717   5.854   0.082   3.820
 4273SOL    HW113718   5.788   0.045   3.754
 4273SOL    HW213719   5.886   0.171   3.788
 4274SOL     OW13720   2.342   0.360   3.867
 4274SOL    HW113721   2.289   0.396   3.944
 4274SOL    HW213722   2.284   0.353   3.786
 4275SOL     OW13723   0.452   0.444   5.280
 4275SOL    HW113724   0.524   0.398   5.228
 4275SOL    HW213725   0.456   0.415   5.376
 4276SOL     OW13726   2.195   4.141   2.786
 4276SOL    HW113727   2.261   4.205   2.825
 4276SOL    HW213728   2.142   4.099   2.859
 4277SOL     OW13729   0.862   5.425   5.479
 4277SOL    HW113730   0.885   5.398   5.572
 4277SOL    HW213731   0.929   5.386   5.415
 4278SOL     OW13732   1.144   6.235   6.525
 4278SOL    HW113733   1.181   6.145   6.502
 4278SOL    HW213734   1.217   6.292   6.561
 4279SOL     OW13735   3.045   5.998   3.523
 4279SOL    HW113736   3.115   5.927   3.528
 4279SOL    HW213737   2.972   5.979   3.589
 4280SOL     OW13738   5.204   2.462   3.361
 4280SOL    HW113739   5.229   2.559   3.356
 4280SOL    HW213740   5.107   2.454   3.383
 4281SOL     OW13741   1.790   4.089   5.385
 4281SOL    HW113742   1.869   4.101   5.445
 4281SOL    HW213743   1.736   4.011   5.416
 4282SOL     OW13744   0.302   2.235   0.577
 4282SOL    HW113745   0.319   2.160   0.513
 4282SOL    HW213746   0.224   2.289   0.545
 4283SOL     OW13747   2.464   1.093   4.494
 4283SOL    HW113748   2.495   1.175   4.542
 4283SOL    HW213749   2.383   1.115   4.439
 4284SOL     OW13750   6.548   1.952   3.236
 4284SOL    HW113751   6.494   1.892   3.294
 4284SOL    HW213752   6.491   2.029   3.206
 4285SOL     OW13753   0.931   6.102   4.386
 4285SOL    HW113754   0.965   6.126   4.477
 4285SOL    HW213755   0.896   6.184   4.341
 4286SOL     OW13756   4.160   5.684   6.672
 4286SOL    HW113757   4.227   5.662   6.600
 4286SOL    HW213758   4.073   5.642   6.650
 4287SOL     OW13759   3.721   5.605   5.621
 4287SOL    HW113760   3.645   5.561   5.670
 4287SOL    HW213761   3.693   5.696   5.591
 4288SOL     OW13762   1.302   5.987   3.541
 4288SOL    HW113763   1.252   6.004   3.626
 4288SOL    HW213764   1.247   6.016   3.463
 4289SOL     OW13765   0.587   4.086   6.707
 4289SOL    HW113766   0.672   4.118   6.749
 4289SOL    HW213767   0.605   4.056   6.614
 4290SOL     OW13768   1.859   1.559   3.241
 4290SOL    HW113769   1.795   1.524   3.308
 4290SOL    HW213770   1.949   1.573   3.284
 4291SOL     OW13771   0.216   3.946   1.358
 4291SOL    HW113772   0.274   3.937   1.439
 4291SOL    HW213773   0.269   3.984   1.283
 4292SOL     OW13774   5.960   5.385   5.209
 4292SOL    HW113775   5.948   5.312   5.143
 4292SOL    HW213776   5.877   5.441   5.212
 4293SOL     OW13777   0.601   2.016   0.029
 4293SOL    HW113778   0.503   2.015   0.045
 4293SOL    HW213779   0.624   1.951   6.975
 4294SOL     OW13780   5.330   1.384   6.384
 4294SOL    HW113781   5.244   1.417   6.423
 4294SOL    HW213782   5.312   1.307   6.323
 4295SOL     OW13783   3.675   5.917   5.845
 4295SOL    HW113784   3.775   5.921   5.838
 4295SOL    HW213785   3.646   5.821   5.846
 4296SOL     OW13786   2.131   1.241   2.752
 4296SOL    HW113787   2.166   1.288   2.671
 4296SOL    HW213788   2.198   1.172   2.780
 4297SOL     OW13789   6.062   0.409   0.426
 4297SOL    HW113790   6.088   0.505   0.440
 4297SOL    HW213791   6.137   0.360   0.383
 4298SOL     OW13792   1.780   4.930   1.806
 4298SOL    HW113793   1.859   4.926   1.868
 4298SOL    HW213794   1.707   4.870   1.841
 4299SOL     OW13795   1.401   5.486   5.332
 4299SOL    HW113796   1.428   5.416   5.266
 4299SOL    HW213797   1.302   5.501   5.326
 4300SOL     OW13798   6.164   6.937   5.499
 4300SOL    HW113799   6.161   6.843   5.533
 4300SOL    HW213800   6.173   6.936   5.400
 4301SOL     OW13801   3.266   0.772   0.918
 4301SOL    HW113802   3.329   0.843   0.950
 4301SOL    HW213803   3.174   0.811   0.911
 4302SOL     OW13804   0.586   0.390   6.518
 4302SOL    HW113805   0.504   0.446   6.529
 4302SOL    HW213806   0.580   0.309   6.576
 4303SOL     OW13807   0.344   4.291   1.561
 4303SOL    HW113808   0.338   4.192   1.577
 4303SOL    HW213809   0.424   4.311   1.505
 4304SOL     OW13810   3.060   3.708   5.355
 4304SOL    HW113811   3.027   3.801   5.338
 4304SOL    HW213812   2.991   3.643   5.325
 4305SOL     OW13813   0.068   1.497   5.225
 4305SOL    HW113814   7.004   1.443   5.233
 4305SOL    HW213815   0.143   1.439   5.193
 4306SOL     OW13816   6.181   5.567   5.681
 4306SOL    HW113817   6.273   5.600   5.705
 4306SOL    HW213818   6.168   5.570   5.582
 4307SOL     OW13819   5.688   3.430   0.141
 4307SOL    HW113820   5.685   3.514   0.088
 4307SOL    HW213821   5.758   3.437   0.213
 4308SOL     OW13822   3.349   6.862   5.251
 4308SOL    HW113823   3.325   6.946   5.301
 4308SOL    HW213824   3.416   6.810   5.304
 4309SOL     OW13825   1.229   0.487   1.748
 4309SOL    HW113826   1.250   0.416   1.816
 4309SOL    HW213827   1.252   0.576   1.787
 4310SOL     OW13828   1.581   0.010   3.037
 4310SOL    HW113829   1.535   0.075   3.098
 4310SOL    HW213830   1.677   0.035   3.027
 4311SOL     OW13831   1.223   5.294   4.030
 4311SOL    HW113832   1.267   5.335   3.950
 4311SOL    HW213833   1.285   5.230   4.074
 4312SOL     OW13834   1.326   5.566   1.795
 4312SOL    HW113835   1.403   5.508   1.770
 4312SOL    HW213836   1.302   5.624   1.717
 4313SOL     OW13837   5.066   0.864   1.641
 4313SOL    HW113838   5.069   0.933   1.568
 4313SOL    HW213839   4.974   0.826   1.646
 4314SOL     OW13840   5.990   3.208   0.877
 4314SOL    HW113841   5.922   3.148   0.836
 4314SOL    HW213842   6.008   3.285   0.815
 4315SOL     OW13843   2.263   1.123   2.455
 4315SOL    HW113844   2.228   1.214   2.472
 4315SOL    HW213845   2.215   1.082   2.377
 4316SOL     OW13846   0.719   1.358   2.491
 4316SOL    HW113847   0.678   1.283   2.542
 4316SOL    HW213848   0.648   1.423   2.463
 4317SOL     OW13849   4.115   0.468   3.331
 4317SOL    HW113850   4.187   0.528   3.367
 4317SOL    HW213851   4.140   0.437   3.239
 4318SOL     OW13852   6.693   2.522   5.306
 4318SOL    HW113853   6.598   2.548   5.287
 4318SOL    HW213854   6.755   2.571   5.245
 4319SOL     OW13855   3.610   2.543   5.985
 4319SOL    HW113856   3.576   2.623   5.935
 4319SOL    HW213857   3.704   2.524   5.956
 4320SOL     OW13858   6.888   6.346   3.189
 4320SOL    HW113859   6.941   6.262   3.193
 4320SOL    HW213860   6.898   6.388   3.099
 4321SOL     OW13861   0.721   0.367   4.898
 4321SOL    HW113862   0.745   0.274   4.870
 4321SOL    HW213863   0.796   0.429   4.876
 4322SOL     OW13864   6.045   1.545   1.387
 4322SOL    HW113865   6.031   1.487   1.306
 4322SOL    HW213866   6.034   1.641   1.362
 4323SOL     OW13867   6.754   1.940   3.771
 4323SOL    HW113868   6.736   1.903   3.680
 4323SOL    HW213869   6.763   1.866   3.837
 4324SOL     OW13870   5.560   2.602   5.764
 4324SOL    HW113871   5.613   2.546   5.828
 4324SOL    HW213872   5.463   2.596   5.787
 4325SOL     OW13873   1.838   2.539   6.653
 4325SOL    HW113874   1.780   2.463   6.622
 4325SOL    HW213875   1.932   2.507   6.663
 4326SOL     OW13876   6.426   2.578   5.251
 4326SOL    HW113877   6.401   2.551   5.158
 4326SOL    HW213878   6.375   2.522   5.317
 4327SOL     OW13879   4.747   1.144   2.889
 4327SOL    HW113880   4.808   1.185   2.821
 4327SOL    HW213881   4.655   1.183   2.879
 4328SOL     OW13882   5.800   4.725   0.438
 4328SOL    HW113883   5.814   4.751   0.343
 4328SOL    HW213884   5.881   4.675   0.471
 4329SOL     OW13885   5.275   1.759   0.143
 4329SOL    HW113886   5.294   1.704   0.224
 4329SOL    HW213887   5.351   1.822   0.127
 4330SOL     OW13888   1.054   0.979   6.577
 4330SOL    HW113889   0.955   0.966   6.584
 4330SOL    HW213890   1.096   0.895   6.541
 4331SOL     OW13891   5.020   2.359   6.625
 4331SOL    HW113892   4.990   2.435   6.682
 4331SOL    HW213893   5.109   2.381   6.584
 4332SOL     OW13894   5.504   3.894   1.738
 4332SOL    HW113895   5.458   3.911   1.825
 4332SOL    HW213896   5.550   3.806   1.742
 4333SOL     OW13897   6.366   1.408   4.736
 4333SOL    HW113898   6.360   1.328   4.795
 4333SOL    HW213899   6.459   1.445   4.738
 4334SOL     OW13900   3.734   0.356   1.702
 4334SOL    HW113901   3.778   0.417   1.769
 4334SOL    HW213902   3.673   0.409   1.643
 4335SOL     OW13903   3.681   4.549   5.798
 4335SOL    HW113904   3.731   4.515   5.719
 4335SOL    HW213905   3.691   4.649   5.803
 4336SOL     OW13906   1.246   7.004   5.613
 4336SOL    HW113907   1.166   7.005   5.673
 4336SOL    HW213908   1.222   6.963   5.525
 4337SOL     OW13909   0.469   5.832   6.841
 4337SOL    HW113910   0.439   5.863   6.750
 4337SOL    HW213911   0.423   5.887   6.911
 4338SOL     OW13912   5.489   6.593   3.141
 4338SOL    HW113913   5.510   6.626   3.233
 4338SOL    HW213914   5.401   6.545   3.142
 4339SOL     OW13915   6.734   1.166   6.578
 4339SOL    HW113916   6.729   1.216   6.664
 4339SOL    HW213917   6.829   1.137   6.561
 4340SOL     OW13918   4.479   3.715   1.665
 4340SOL    HW113919   4.516   3.623   1.673
 4340SOL    HW213920   4.438   3.727   1.575
 4341SOL     OW13921   1.173   3.491   0.778
 4341SOL    HW113922   1.165   3.505   0.877
 4341SOL    HW213923   1.245   3.550   0.743
 4342SOL     OW13924   0.082   2.004   3.420
 4342SOL    HW113925   0.023   2.060   3.362
 4342SOL    HW213926   0.176   2.038   3.414
 4343SOL     OW13927   2.877   1.942   0.767
 4343SOL    HW113928   2.921   1.871   0.713
 4343SOL    HW213929   2.917   1.943   0.859
 4344SOL     OW13930   1.952   3.524   1.847
 4344SOL    HW113931   1.862   3.561   1.823
 4344SOL    HW213932   1.949   3.487   1.940
 4345SOL     OW13933   2.872   1.284   5.963
 4345SOL    HW113934   2.789   1.257   6.011
 4345SOL    HW213935   2.884   1.383   5.971
 4346SOL     OW13936   6.755   3.958   1.464
 4346SOL    HW113937   6.698   3.950   1.546
 4346SOL    HW213938   6.851   3.946   1.490
 4347SOL     OW13939   4.753   5.541   2.787
 4347SOL    HW113940   4.706   5.610   2.731
 4347SOL    HW213941   4.845   5.525   2.750
 4348SOL     OW13942   1.302   3.684   0.504
 4348SOL    HW113943   1.212   3.640   0.511
 4348SOL    HW213944   1.361   3.630   0.444
 4349SOL     OW13945   6.599   0.989   1.261
 4349SOL    HW113946   6.688   0.974   1.304
 4349SOL    HW213947   6.587   0.925   1.185
 4350SOL     OW13948   4.042   0.728   2.680
 4350SOL    HW113949   3.998   0.645   2.648
 4350SOL    HW213950   4.126   0.704   2.729
 4351SOL     OW13951   3.059   6.706   6.643
 4351SOL    HW113952   3.142   6.760   6.656
 4351SOL    HW213953   3.079   6.610   6.661
 4352SOL     OW13954   6.718   1.964   2.370
 4352SOL    HW113955   6.715   2.046   2.312
 4352SOL    HW213956   6.670   1.982   2.455
 4353SOL     OW13957   3.307   5.634   1.267
 4353SOL    HW113958   3.349   5.595   1.185
 4353SOL    HW213959   3.211   5.605   1.272
 4354SOL     OW13960   3.073   0.650   1.165
 4354SOL    HW113961   3.092   0.579   1.097
 4354SOL    HW213962   2.986   0.631   1.210
 4355SOL     OW13963   4.944   6.940   0.463
 4355SOL    HW113964   4.888   6.880   0.405
 4355SOL    HW213965   4.896   6.957   0.549
 4356SOL     OW13966   3.680   3.612   1.021
 4356SOL    HW113967   3.626   3.537   0.983
 4356SOL    HW213968   3.636   3.647   1.103
 4357SOL     OW13969   5.880   0.470   0.193
 4357SOL    HW113970   5.780   0.473   0.202
 4357SOL    HW213971   5.919   0.424   0.272
 4358SOL     OW13972   6.171   0.953   1.330
 4358SOL    HW113973   6.218   0.906   1.255
 4358SOL    HW213974   6.116   1.028   1.293
 4359SOL     OW13975   0.113   4.215   4.529
 4359SOL    HW113976   0.135   4.268   4.611
 4359SOL    HW213977   0.044   4.146   4.551
 4360SOL     OW13978   2.267   3.836   0.807
 4360SOL    HW113979   2.292   3.758   0.750
 4360SOL    HW213980   2.348   3.892   0.823
 4361SOL     OW13981   5.781   2.484   2.627
 4361SOL    HW113982   5.857   2.496   2.691
 4361SOL    HW213983   5.813   2.499   2.534
 4362SOL     OW13984   5.142   3.924   2.724
 4362SOL    HW113985   5.083   3.867   2.781
 4362SOL    HW213986   5.132   3.898   2.628
 4363SOL     OW13987   5.209   0.663   6.767
 4363SOL    HW113988   5.187   0.576   6.812
 4363SOL    HW213989   5.201   0.653   6.668
 4364SOL     OW13990   3.627   4.197   4.589
 4364SOL    HW113991   3.704   4.133   4.593
 4364SOL    HW213992   3.657   4.286   4.623
 4365SOL     OW13993   3.961   2.223   0.010
 4365SOL    HW113994   4.045   2.276   0.022
 4365SOL    HW213995   3.924   2.198   0.099
 4366SOL     OW13996   5.015   4.874   0.038
 4366SOL    HW113997   4.959   4.869   6.974
 4366SOL    HW213998   5.100   4.922   0.017
 4367SOL     OW13999   6.728   6.990   1.156
 4367SOL    HW114000   6.803   6.988   1.090
 4367SOL    HW214001   6.734   6.909   1.215
 4368SOL     OW14002   4.307   4.706   2.080
 4368SOL    HW114003   4.385   4.647   2.060
 4368SOL    HW214004   4.326   4.759   2.163
 4369SOL     OW14005   3.387   5.451   1.510
 4369SOL    HW114006   3.412   5.513   1.435
 4369SOL    HW214007   3.315   5.494   1.566
 4370SOL     OW14008   5.241   4.552   1.915
 4370SOL    HW114009   5.181   4.628   1.889
 4370SOL    HW214010   5.311   4.539   1.844
 4371SOL     OW14011   1.330   1.816   2.673
 4371SOL    HW114012   1.311   1.863   2.587
 4371SOL    HW214013   1.363   1.882   2.741
 4372SOL     OW14014   4.788   7.015   3.567
 4372SOL    HW114015   4.725   0.047   3.509
 4372SOL    HW214016   4.759   6.919   3.570
 4373SOL     OW14017   0.047   1.641   6.033
 4373SOL    HW114018   0.090   1.609   6.118
 4373SOL    HW214019   0.049   1.740   6.029
 4374SOL     OW14020   3.229   1.574   0.265
 4374SOL    HW114021   3.185   1.505   0.322
 4374SOL    HW214022   3.193   1.665   0.289
 4375SOL     OW14023   3.715   5.352   4.130
 4375SOL    HW114024   3.798   5.400   4.104
 4375SOL    HW214025   3.697   5.367   4.228
 4376SOL     OW14026   0.130   2.394   3.942
 4376SOL    HW114027   0.146   2.324   4.011
 4376SOL    HW214028   0.179   2.370   3.858
 4377SOL     OW14029   6.763   4.484   6.034
 4377SOL    HW114030   6.810   4.417   5.977
 4377SOL    HW214031   6.672   4.503   5.997
 4378SOL     OW14032   3.170   1.736   3.985
 4378SOL    HW114033   3.186   1.768   4.078
 4378SOL    HW214034   3.073   1.740   3.964
 4379SOL     OW14035   3.875   1.902   6.116
 4379SOL    HW114036   3.785   1.865   6.142
 4379SOL    HW214037   3.942   1.828   6.116
 4380SOL     OW14038   0.389   2.245   3.033
 4380SOL    HW114039   0.381   2.294   3.119
 4380SOL    HW214040   0.320   2.279   2.969
 4381SOL     OW14041   1.569   5.651   0.040
 4381SOL    HW114042   1.610   5.701   6.983
 4381SOL    HW214043   1.470   5.650   0.030
 4382SOL     OW14044   1.063   5.388   4.282
 4382SOL    HW114045   1.097   5.482   4.279
 4382SOL    HW214046   1.092   5.339   4.201
 4383SOL     OW14047   0.093   4.216   0.625
 4383SOL    HW114048   0.093   4.170   0.537
 4383SOL    HW214049   0.186   4.218   0.662
 4384SOL     OW14050   5.075   6.943   3.490
 4384SOL    HW114051   5.121   6.901   3.568
 4384SOL    HW214052   4.992   6.990   3.520
 4385SOL     OW14053   4.555   0.869   5.726
 4385SOL    HW114054   4.508   0.957   5.719
 4385SOL    HW214055   4.642   0.874   5.677
 4386SOL     OW14056   2.064   3.617   4.158
 4386SOL    HW114057   2.027   3.557   4.229
 4386SOL    HW214058   2.008   3.610   4.076
 4387SOL     OW14059   5.498   2.072   0.975
 4387SOL    HW114060   5.550   1.988   0.960
 4387SOL    HW214061   5.526   2.114   1.061
 4388SOL     OW14062   5.421   3.545   0.259
 4388SOL    HW114063   5.508   3.535   0.211
 4388SOL    HW214064   5.438   3.547   0.358
 4389SOL     OW14065   2.604   0.906   7.003
 4389SOL    HW114066   2.693   0.935   6.968
 4389SOL    HW214067   2.538   0.980   6.993
 4390SOL     OW14068   0.109   1.811   0.859
 4390SOL    HW114069   0.051   1.792   0.938
 4390SOL    HW214070   0.203   1.785   0.879
 4391SOL     OW14071   0.551   6.080   1.454
 4391SOL    HW114072   0.481   6.073   1.383
 4391SOL    HW214073   0.619   6.148   1.427
 4392SOL     OW14074   1.523   2.664   5.908
 4392SOL    HW114075   1.579   2.745   5.891
 4392SOL    HW214076   1.568   2.606   5.975
 4393SOL     OW14077   6.144   0.259   2.512
 4393SOL    HW114078   6.119   0.290   2.420
 4393SOL    HW214079   6.078   0.296   2.578
 4394SOL     OW14080   0.198   0.136   2.530
 4394SOL    HW114081   0.230   0.172   2.442
 4394SOL    HW214082   0.100   0.120   2.526
 4395SOL     OW14083   1.345   3.578   1.990
 4395SOL    HW114084   1.437   3.550   2.015
 4395SOL    HW214085   1.345   3.674   1.961
 4396SOL     OW14086   2.816   1.366   2.950
 4396SOL    HW114087   2.730   1.345   2.996
 4396SOL    HW214088   2.840   1.291   2.888
 4397SOL     OW14089   3.637   1.166   5.539
 4397SOL    HW114090   3.647   1.071   5.510
 4397SOL    HW214091   3.541   1.193   5.535
 4398SOL     OW14092   2.295   3.337   5.713
 4398SOL    HW114093   2.367   3.399   5.681
 4398SOL    HW214094   2.305   3.321   5.811
 4399SOL     OW14095   3.139   6.247   1.380
 4399SOL    HW114096   3.224   6.300   1.384
 4399SOL    HW214097   3.072   6.296   1.325
 4400SOL     OW14098   1.808   6.065   4.899
 4400SOL    HW114099   1.838   6.070   4.994
 4400SOL    HW214100   1.740   5.991   4.889
 4401SOL     OW14101   2.399   6.495   6.366
 4401SOL    HW114102   2.464   6.514   6.293
 4401SOL    HW214103   2.389   6.576   6.424
 4402SOL     OW14104   1.484   0.575   2.629
 4402SOL    HW114105   1.412   0.550   2.565
 4402SOL    HW214106   1.536   0.493   2.653
 4403SOL     OW14107   6.699   5.818   2.886
 4403SOL    HW114108   6.678   5.734   2.935
 4403SOL    HW214109   6.795   5.818   2.860
 4404SOL     OW14110   0.465   6.642   5.643
 4404SOL    HW114111   0.520   6.593   5.575
 4404SOL    HW214112   0.524   6.695   5.703
 4405SOL     OW14113   1.409   4.967   2.582
 4405SOL    HW114114   1.380   5.058   2.612
 4405SOL    HW214115   1.500   4.972   2.543
 4406SOL     OW14116   6.306   4.695   2.265
 4406SOL    HW114117   6.263   4.725   2.180
 4406SOL    HW214118   6.391   4.745   2.279
 4407SOL     OW14119   6.267   6.562   1.034
 4407SOL    HW114120   6.313   6.525   0.953
 4407SOL    HW214121   6.289   6.505   1.113
 4408SOL     OW14122   4.583   0.955   1.033
 4408SOL    HW114123   4.497   0.996   1.002
 4408SOL    HW214124   4.569   0.909   1.120
 4409SOL     OW14125   3.170   1.039   4.278
 4409SOL    HW114126   3.136   1.120   4.230
 4409SOL    HW214127   3.248   1.001   4.228
 4410SOL     OW14128   0.952   0.359   0.921
 4410SOL    HW114129   0.908   0.293   0.982
 4410SOL    HW214130   1.014   0.311   0.859
 4411SOL     OW14131   4.502   4.785   5.264
 4411SOL    HW114132   4.469   4.879   5.268
 4411SOL    HW214133   4.599   4.784   5.242
 4412SOL     OW14134   4.361   5.953   2.100
 4412SOL    HW114135   4.440   5.984   2.047
 4412SOL    HW214136   4.322   6.030   2.151
 4413SOL     OW14137   4.930   6.079   4.234
 4413SOL    HW114138   4.849   6.020   4.227
 4413SOL    HW214139   5.008   6.033   4.190
 4414SOL     OW14140   5.659   3.825   1.383
 4414SOL    HW114141   5.694   3.881   1.308
 4414SOL    HW214142   5.662   3.878   1.468
 4415SOL     OW14143   1.750   4.016   1.357
 4415SOL    HW114144   1.735   4.089   1.290
 4415SOL    HW214145   1.835   3.968   1.336
 4416SOL     OW14146   5.148   2.847   4.630
 4416SOL    HW114147   5.053   2.876   4.615
 4416SOL    HW214148   5.209   2.926   4.624
 4417SOL     OW14149   0.197   4.304   1.923
 4417SOL    HW114150   0.153   4.226   1.967
 4417SOL    HW214151   0.286   4.276   1.887
 4418SOL     OW14152   6.364   1.527   5.169
 4418SOL    HW114153   6.267   1.505   5.182
 4418SOL    HW214154   6.373   1.622   5.140
 4419SOL     OW14155   6.469   6.357   6.335
 4419SOL    HW114156   6.467   6.448   6.376
 4419SOL    HW214157   6.469   6.365   6.235
 4420SOL     OW14158   3.992   1.429   0.894
 4420SOL    HW114159   3.915   1.414   0.832
 4420SOL    HW214160   3.992   1.524   0.926
 4421SOL     OW14161   2.623   2.675   6.945
 4421SOL    HW114162   2.638   2.711   6.853
 4421SOL    HW214163   2.689   2.603   6.964
 4422SOL     OW14164   0.607   3.000   6.226
 4422SOL    HW114165   0.603   3.074   6.292
 4422SOL    HW214166   0.518   2.956   6.219
 4423SOL     OW14167   5.650   4.721   4.645
 4423SOL    HW114168   5.674   4.696   4.552
 4423SOL    HW214169   5.614   4.642   4.694
 4424SOL     OW14170   4.071   5.884   2.845
 4424SOL    HW114171   4.127   5.933   2.911
 4424SOL    HW214172   4.128   5.822   2.792
 4425SOL     OW14173   0.445   6.577   1.554
 4425SOL    HW114174   0.349   6.549   1.557
 4425SOL    HW214175   0.460   6.632   1.472
 4426SOL     OW14176   0.334   0.321   4.716
 4426SOL    HW114177   0.396   0.254   4.674
 4426SOL    HW214178   0.243   0.313   4.675
 4427SOL     OW14179   3.075   5.634   2.356
 4427SOL    HW114180   3.006   5.693   2.312
 4427SOL    HW214181   3.166   5.657   2.320
 4428SOL     OW14182   6.169   6.025   4.016
 4428SOL    HW114183   6.245   5.988   3.964
 4428SOL    HW214184   6.089   5.966   4.006
 4429SOL     OW14185   2.711   6.208   3.184
 4429SOL    HW114186   2.702   6.295   3.232
 4429SOL    HW214187   2.781   6.152   3.228
 4430SOL     OW14188   6.425   3.749   4.783
 4430SOL    HW114189   6.469   3.679   4.839
 4430SOL    HW214190   6.326   3.747   4.799
 4431SOL     OW14191   4.298   6.745   4.896
 4431SOL    HW114192   4.386   6.700   4.907
 4431SOL    HW214193   4.271   6.743   4.800
 4432SOL     OW14194   1.422   3.503   6.794
 4432SOL    HW114195   1.355   3.503   6.720
 4432SOL    HW214196   1.481   3.583   6.785
 4433SOL     OW14197   0.848   0.250   4.268
 4433SOL    HW114198   0.932   0.303   4.283
 4433SOL    HW214199   0.854   0.202   4.181
 4434SOL     OW14200   6.747   1.364   1.977
 4434SOL    HW114201   6.771   1.271   1.947
 4434SOL    HW214202   6.775   1.377   2.072
 4435SOL     OW14203   2.677   4.597   1.041
 4435SOL    HW114204   2.661   4.536   1.118
 4435SOL    HW214205   2.628   4.564   0.961
 4436SOL     OW14206   4.708   2.153   1.777
 4436SOL    HW114207   4.743   2.206   1.854
 4436SOL    HW214208   4.608   2.151   1.781
 4437SOL     OW14209   6.569   4.776   7.011
 4437SOL    HW114210   6.610   4.824   6.933
 4437SOL    HW214211   6.472   4.760   6.992
 4438SOL     OW14212   4.351   1.483   4.469
 4438SOL    HW114213   4.323   1.394   4.505
 4438SOL    HW214214   4.292   1.554   4.508
 4439SOL     OW14215   2.558   5.116   2.386
 4439SOL    HW114216   2.572   5.184   2.314
 4439SOL    HW214217   2.638   5.115   2.446
 4440SOL     OW14218   1.895   5.401   5.688
 4440SOL    HW114219   1.842   5.317   5.687
 4440SOL    HW214220   1.910   5.431   5.782
 4441SOL     OW14221   6.853   1.340   1.479
 4441SOL    HW114222   6.920   1.293   1.536
 4441SOL    HW214223   6.787   1.387   1.537
 4442SOL     OW14224   1.688   4.938   1.075
 4442SOL    HW114225   1.765   4.985   1.031
 4442SOL    HW214226   1.673   4.850   1.030
 4443SOL     OW14227   1.212   5.729   5.601
 4443SOL    HW114228   1.256   5.652   5.647
 4443SOL    HW214229   1.113   5.715   5.600
 4444SOL     OW14230   5.440   5.872   6.918
 4444SOL    HW114231   5.530   5.880   6.960
 4444SOL    HW214232   5.392   5.795   6.959
 4445SOL     OW14233   2.317   3.858   0.375
 4445SOL    HW114234   2.248   3.898   0.436
 4445SOL    HW214235   2.402   3.842   0.426
 4446SOL     OW14236   4.842   1.928   2.175
 4446SOL    HW114237   4.890   1.930   2.263
 4446SOL    HW214238   4.760   1.985   2.181
 4447SOL     OW14239   4.869   5.703   5.337
 4447SOL    HW114240   4.952   5.649   5.349
 4447SOL    HW214241   4.893   5.800   5.331
 4448SOL     OW14242   2.969   6.406   2.304
 4448SOL    HW114243   2.873   6.436   2.310
 4448SOL    HW214244   2.987   6.372   2.212
 4449SOL     OW14245   4.107   1.611   5.285
 4449SOL    HW114246   4.124   1.598   5.383
 4449SOL    HW214247   4.050   1.536   5.251
 4450SOL     OW14248   1.995   5.858   0.466
 4450SOL    HW114249   1.959   5.779   0.515
 4450SOL    HW214250   1.926   5.931   0.466
 4451SOL     OW14251   4.725   5.941   3.795
 4451SOL    HW114252   4.684   6.030   3.777
 4451SOL    HW214253   4.797   5.923   3.728
 4452SOL     OW14254   5.264   4.411   3.840
 4452SOL    HW114255   5.300   4.488   3.787
 4452SOL    HW214256   5.254   4.331   3.781
 4453SOL     OW14257   0.578   5.116   1.351
 4453SOL    HW114258   0.602   5.213   1.337
 4453SOL    HW214259   0.630   5.060   1.286
 4454SOL     OW14260   0.692   1.765   0.177
 4454SOL    HW114261   0.699   1.669   0.151
 4454SOL    HW214262   0.659   1.818   0.099
 4455SOL     OW14263   1.191   0.366   3.791
 4455SOL    HW114264   1.139   0.413   3.719
 4455SOL    HW214265   1.130   0.347   3.867
 4456SOL     OW14266   1.472   5.822   4.119
 4456SOL    HW114267   1.491   5.860   4.029
 4456SOL    HW214268   1.437   5.894   4.179
 4457SOL     OW14269   1.523   1.677   4.287
 4457SOL    HW114270   1.493   1.593   4.333
 4457SOL    HW214271   1.450   1.710   4.229
 4458SOL     OW14272   2.178   2.345   6.112
 4458SOL    HW114273   2.192   2.420   6.047
 4458SOL    HW214274   2.120   2.275   6.071
 4459SOL     OW14275   0.414   4.078   2.858
 4459SOL    HW114276   0.373   4.123   2.937
 4459SOL    HW214277   0.484   4.138   2.818
 4460SOL     OW14278   6.603   3.133   4.718
 4460SOL    HW114279   6.689   3.169   4.755
 4460SOL    HW214280   6.526   3.184   4.755
 4461SOL     OW14281   1.947   0.429   0.841
 4461SOL    HW114282   1.877   0.359   0.848
 4461SOL    HW214283   1.995   0.420   0.753
 4462SOL     OW14284   6.777   4.281   2.413
 4462SOL    HW114285   6.710   4.228   2.464
 4462SOL    HW214286   6.836   4.220   2.361
 4463SOL     OW14287   5.899   1.959   6.847
 4463SOL    HW114288   5.932   1.875   6.805
 4463SOL    HW214289   5.846   2.011   6.780
 4464SOL     OW14290   0.561   3.624   0.993
 4464SOL    HW114291   0.615   3.642   1.075
 4464SOL    HW214292   0.480   3.570   1.017
 4465SOL     OW14293   4.549   4.958   1.879
 4465SOL    HW114294   4.569   4.861   1.886
 4465SOL    HW214295   4.451   4.973   1.890
 4466SOL     OW14296   0.394   2.979   2.595
 4466SOL    HW114297   0.379   3.004   2.499
 4466SOL    HW214298   0.380   3.059   2.653
 4467SOL     OW14299   5.135   4.645   1.453
 4467SOL    HW114300   5.090   4.596   1.527
 4467SOL    HW214301   5.162   4.736   1.485
 4468SOL     OW14302   1.704   3.194   0.524
 4468SOL    HW114303   1.747   3.179   0.434
 4468SOL    HW214304   1.605   3.181   0.516
 4469SOL     OW14305   2.030   6.049   1.685
 4469SOL    HW114306   1.963   6.020   1.617
 4469SOL    HW214307   2.043   5.976   1.752
 4470SOL     OW14308   1.010   6.861   2.594
 4470SOL    HW114309   0.973   6.814   2.513
 4470SOL    HW214310   0.946   6.932   2.623
 4471SOL     OW14311   1.114   0.720   6.933
 4471SOL    HW114312   1.093   0.668   6.850
 4471SOL    HW214313   1.067   0.808   6.929
 4472SOL     OW14314   1.582   2.593   0.670
 4472SOL    HW114315   1.487   2.582   0.640
 4472SOL    HW214316   1.585   2.615   0.767
 4473SOL     OW14317   0.478   2.607   5.140
 4473SOL    HW114318   0.546   2.572   5.204
 4473SOL    HW214319   0.400   2.644   5.190
 4474SOL     OW14320   2.404   6.274   1.159
 4474SOL    HW114321   2.472   6.220   1.109
 4474SOL    HW214322   2.381   6.228   1.245
 4475SOL     OW14323   0.871   3.709   0.591
 4475SOL    HW114324   0.890   3.611   0.599
 4475SOL    HW214325   0.838   3.729   0.499
 4476SOL     OW14326   5.035   0.329   3.673
 4476SOL    HW114327   4.941   0.318   3.641
 4476SOL    HW214328   5.034   0.373   3.763
 4477SOL     OW14329   0.087   1.394   3.971
 4477SOL    HW114330   7.018   1.397   3.926
 4477SOL    HW214331   0.131   1.484   3.966
 4478SOL     OW14332   1.486   0.552   2.307
 4478SOL    HW114333   1.550   0.607   2.359
 4478SOL    HW214334   1.392   0.577   2.332
 4479SOL     OW14335   2.565   2.520   0.245
 4479SOL    HW114336   2.526   2.549   0.158
 4479SOL    HW214337   2.572   2.420   0.247
 4480SOL     OW14338   6.596   6.797   3.226
 4480SOL    HW114339   6.637   6.859   3.293
 4480SOL    HW214340   6.546   6.725   3.275
 4481SOL     OW14341   2.279   3.987   5.889
 4481SOL    HW114342   2.293   3.953   5.982
 4481SOL    HW214343   2.333   3.932   5.825
 4482SOL     OW14344   2.881   0.255   1.317
 4482SOL    HW114345   2.889   0.171   1.371
 4482SOL    HW214346   2.972   0.283   1.286
 4483SOL     OW14347   0.693   3.407   1.189
 4483SOL    HW114348   0.670   3.498   1.225
 4483SOL    HW214349   0.728   3.416   1.096
 4484SOL     OW14350   3.709   0.978   0.586
 4484SOL    HW114351   3.733   0.881   0.593
 4484SOL    HW214352   3.646   0.992   0.510
 4485SOL     OW14353   0.375   3.182   5.011
 4485SOL    HW114354   0.350   3.254   5.075
 4485SOL    HW214355   0.406   3.223   4.925
 4486SOL     OW14356   4.937   4.698   3.349
 4486SOL    HW114357   5.025   4.699   3.301
 4486SOL    HW214358   4.900   4.605   3.349
 4487SOL     OW14359   0.731   2.620   6.513
 4487SOL    HW114360   0.823   2.646   6.482
 4487SOL    HW214361   0.689   2.558   6.446
 4488SOL     OW14362   5.933   4.534   4.005
 4488SOL    HW114363   5.850   4.582   4.033
 4488SOL    HW214364   5.943   4.450   4.058
 4489SOL     OW14365   3.530   6.021   6.564
 4489SOL    HW114366   3.477   6.053   6.643
 4489SOL    HW214367   3.571   5.933   6.585
 4490SOL     OW14368   5.528   1.686   2.029
 4490SOL    HW114369   5.591   1.738   2.087
 4490SOL    HW214370   5.531   1.724   1.936
 4491SOL     OW14371   0.243   3.832   2.960
 4491SOL    HW114372   0.158   3.860   2.915
 4491SOL    HW214373   0.246   3.869   3.053
 4492SOL     OW14374   6.453   1.345   2.184
 4492SOL    HW114375   6.412   1.284   2.252
 4492SOL    HW214376   6.551   1.352   2.201
 4493SOL     OW14377   5.395   1.138   6.196
 4493SOL    HW114378   5.494   1.144   6.197
 4493SOL    HW214379   5.361   1.164   6.105
 4494SOL     OW14380   1.583   1.458   2.565
 4494SOL    HW114381   1.499   1.478   2.616
 4494SOL    HW214382   1.651   1.418   2.626
 4495SOL     OW14383   4.565   6.281   0.934
 4495SOL    HW114384   4.483   6.315   0.979
 4495SOL    HW214385   4.620   6.229   1.000
 4496SOL     OW14386   2.266   5.623   5.697
 4496SOL    HW114387   2.320   5.573   5.764
 4496SOL    HW214388   2.324   5.650   5.620
 4497SOL     OW14389   4.164   6.836   5.772
 4497SOL    HW114390   4.142   6.873   5.682
 4497SOL    HW214391   4.217   6.902   5.823
 4498SOL     OW14392   1.572   4.607   4.163
 4498SOL    HW114393   1.623   4.684   4.125
 4498SOL    HW214394   1.476   4.613   4.133
 4499SOL     OW14395   5.856   2.058   2.134
 4499SOL    HW114396   5.850   2.054   2.233
 4499SOL    HW214397   5.867   2.153   2.105
 4500SOL     OW14398   3.545   6.386   6.752
 4500SOL    HW114399   3.535   6.352   6.845
 4500SOL    HW214400   3.471   6.350   6.695
 4501SOL     OW14401   6.631   0.102   2.863
 4501SOL    HW114402   6.563   0.155   2.814
 4501SOL    HW214403   6.586   0.046   2.933
 4502SOL     OW14404   1.320   4.114   7.016
 4502SOL    HW114405   1.252   4.119   6.943
 4502SOL    HW214406   1.410   4.096   6.977
 4503SOL     OW14407   3.564   1.239   2.645
 4503SOL    HW114408   3.642   1.281   2.692
 4503SOL    HW214409   3.549   1.284   2.557
 4504SOL     OW14410   1.872   2.673   4.089
 4504SOL    HW114411   1.775   2.679   4.064
 4504SOL    HW214412   1.898   2.577   4.099
 4505SOL     OW14413   6.774   3.178   3.453
 4505SOL    HW114414   6.868   3.152   3.474
 4505SOL    HW214415   6.717   3.165   3.534
 4506SOL     OW14416   4.146   3.704   0.167
 4506SOL    HW114417   4.145   3.608   0.194
 4506SOL    HW214418   4.064   3.725   0.113
 4507SOL     OW14419   6.080   2.549   3.057
 4507SOL    HW114420   5.987   2.523   3.081
 4507SOL    HW214421   6.140   2.538   3.137
 4508SOL     OW14422   6.303   5.088   0.504
 4508SOL    HW114423   6.293   5.031   0.422
 4508SOL    HW214424   6.400   5.096   0.527
 4509SOL     OW14425   4.759   2.234   2.447
 4509SOL    HW114426   4.732   2.330   2.448
 4509SOL    HW214427   4.836   2.221   2.384
 4510SOL     OW14428   4.971   1.929   3.781
 4510SOL    HW114429   4.948   1.878   3.865
 4510SOL    HW214430   5.057   1.894   3.744
 4511SOL     OW14431   0.845   4.667   6.810
 4511SOL    HW114432   0.847   4.732   6.734
 4511SOL    HW214433   0.884   4.709   6.892
 4512SOL     OW14434   2.829   3.422   5.834
 4512SOL    HW114435   2.808   3.338   5.884
 4512SOL    HW214436   2.843   3.401   5.737
 4513SOL     OW14437   0.569   1.136   1.285
 4513SOL    HW114438   0.521   1.049   1.302
 4513SOL    HW214439   0.580   1.149   1.187
 4514SOL     OW14440   4.530   4.545   6.633
 4514SOL    HW114441   4.473   4.560   6.714
 4514SOL    HW214442   4.625   4.533   6.660
 4515SOL     OW14443   4.337   0.002   5.910
 4515SOL    HW114444   4.385   0.077   5.864
 4515SOL    HW214445   4.252   0.037   5.951
 4516SOL     OW14446   3.280   1.772   5.140
 4516SOL    HW114447   3.274   1.806   5.234
 4516SOL    HW214448   3.233   1.836   5.078
 4517SOL     OW14449   3.650   0.712   4.103
 4517SOL    HW114450   3.709   0.719   4.183
 4517SOL    HW214451   3.657   0.797   4.049
 4518SOL     OW14452   0.229   0.045   0.842
 4518SOL    HW114453   0.236   0.058   0.744
 4518SOL    HW214454   0.163   0.111   0.880
 4519SOL     OW14455   5.086   0.229   6.480
 4519SOL    HW114456   5.105   0.295   6.553
 4519SOL    HW214457   5.028   0.156   6.515
 4520SOL     OW14458   4.497   5.278   5.177
 4520SOL    HW114459   4.414   5.243   5.132
 4520SOL    HW214460   4.531   5.357   5.127
 4521SOL     OW14461   4.587   2.622   3.962
 4521SOL    HW114462   4.602   2.640   3.865
 4521SOL    HW214463   4.601   2.707   4.014
 4522SOL     OW14464   5.537   3.943   3.501
 4522SOL    HW114465   5.615   3.881   3.491
 4522SOL    HW214466   5.454   3.897   3.472
 4523SOL     OW14467   0.299   2.846   6.469
 4523SOL    HW114468   0.391   2.868   6.500
 4523SOL    HW214469   0.245   2.929   6.460
 4524SOL     OW14470   2.036   3.824   1.844
 4524SOL    HW114471   1.971   3.886   1.801
 4524SOL    HW214472   2.022   3.825   1.943
 4525SOL     OW14473   3.812   1.564   5.988
 4525SOL    HW114474   3.786   1.468   5.977
 4525SOL    HW214475   3.746   1.610   6.048
 4526SOL     OW14476   1.413   0.110   5.214
 4526SOL    HW114477   1.490   0.047   5.205
 4526SOL    HW214478   1.328   0.064   5.188
 4527SOL     OW14479   0.737   2.307   2.750
 4527SOL    HW114480   0.751   2.278   2.655
 4527SOL    HW214481   0.820   2.348   2.786
 4528SOL     OW14482   5.640   2.174   4.774
 4528SOL    HW114483   5.633   2.090   4.827
 4528SOL    HW214484   5.567   2.176   4.705
 4529SOL     OW14485   1.738   2.126   3.912
 4529SOL    HW114486   1.762   2.031   3.896
 4529SOL    HW214487   1.723   2.172   3.825
 4530SOL     OW14488   4.003   4.803   5.877
 4530SOL    HW114489   4.019   4.705   5.882
 4530SOL    HW214490   4.059   4.850   5.944
 4531SOL     OW14491   1.439   6.653   5.293
 4531SOL    HW114492   1.483   6.627   5.379
 4531SOL    HW214493   1.495   6.621   5.216
 4532SOL     OW14494   5.517   1.231   2.140
 4532SOL    HW114495   5.550   1.318   2.176
 4532SOL    HW214496   5.446   1.195   2.201
 4533SOL     OW14497   2.955   6.266   1.168
 4533SOL    HW114498   2.905   6.185   1.137
 4533SOL    HW214499   2.902   6.348   1.148
 4534SOL     OW14500   5.615   1.103   4.798
 4534SOL    HW114501   5.606   1.100   4.698
 4534SOL    HW214502   5.705   1.068   4.824
 4535SOL     OW14503   1.360   0.482   0.225
 4535SOL    HW114504   1.269   0.453   0.254
 4535SOL    HW214505   1.391   0.557   0.285
 4536SOL     OW14506   3.733   0.775   5.669
 4536SOL    HW114507   3.805   0.829   5.715
 4536SOL    HW214508   3.679   0.836   5.611
 4537SOL     OW14509   3.411   3.783   3.647
 4537SOL    HW114510   3.372   3.870   3.617
 4537SOL    HW214511   3.342   3.731   3.697
 4538SOL     OW14512   1.248   3.081   0.387
 4538SOL    HW114513   1.263   3.167   0.338
 4538SOL    HW214514   1.159   3.084   0.433
 4539SOL     OW14515   1.064   4.849   4.337
 4539SOL    HW114516   0.992   4.784   4.313
 4539SOL    HW214517   1.034   4.942   4.315
 4540SOL     OW14518   1.997   1.723   0.425
 4540SOL    HW114519   2.044   1.811   0.424
 4540SOL    HW214520   1.967   1.701   0.332
 4541SOL     OW14521   3.906   3.002   0.090
 4541SOL    HW114522   3.814   3.016   0.054
 4541SOL    HW214523   3.973   3.004   0.016
 4542SOL     OW14524   6.655   1.623   0.681
 4542SOL    HW114525   6.709   1.707   0.679
 4542SOL    HW214526   6.655   1.585   0.774
 4543SOL     OW14527   4.583   1.317   1.346
 4543SOL    HW114528   4.489   1.313   1.313
 4543SOL    HW214529   4.645   1.286   1.274
 4544SOL     OW14530   5.184   6.026   0.397
 4544SOL    HW114531   5.094   6.070   0.389
 4544SOL    HW214532   5.253   6.084   0.354
 4545SOL     OW14533   3.190   3.384   5.287
 4545SOL    HW114534   3.282   3.410   5.317
 4545SOL    HW214535   3.147   3.326   5.355
 4546SOL     OW14536   4.787   0.042   5.936
 4546SOL    HW114537   4.821   0.052   5.842
 4546SOL    HW214538   4.760   6.966   5.951
 4547SOL     OW14539   6.926   1.243   0.255
 4547SOL    HW114540   6.937   1.322   0.196
 4547SOL    HW214541   6.844   1.191   0.228
 4548SOL     OW14542   3.156   1.372   2.023
 4548SOL    HW114543   3.181   1.425   1.941
 4548SOL    HW214544   3.119   1.284   1.995
 4549SOL     OW14545   6.539   4.805   3.965
 4549SOL    HW114546   6.556   4.807   3.867
 4549SOL    HW214547   6.614   4.851   4.013
 4550SOL     OW14548   2.530   5.213   6.751
 4550SOL    HW114549   2.446   5.163   6.773
 4550SOL    HW214550   2.597   5.150   6.713
 4551SOL     OW14551   3.770   2.912   5.835
 4551SOL    HW114552   3.833   2.988   5.846
 4551SOL    HW214553   3.816   2.836   5.788
 4552SOL     OW14554   5.030   0.608   0.001
 4552SOL    HW114555   5.112   0.557   0.027
 4552SOL    HW214556   4.950   0.549   0.011
 4553SOL     OW14557   0.106   6.975   0.415
 4553SOL    HW114558   0.158   6.954   0.332
 4553SOL    HW214559   0.028   6.914   0.422
 4554SOL     OW14560   5.471   6.408   2.548
 4554SOL    HW114561   5.467   6.312   2.520
 4554SOL    HW214562   5.413   6.422   2.628
 4555SOL     OW14563   0.477   0.347   2.951
 4555SOL    HW114564   0.428   0.261   2.938
 4555SOL    HW214565   0.568   0.341   2.909
 4556SOL     OW14566   5.019   4.654   4.708
 4556SOL    HW114567   5.041   4.633   4.803
 4556SOL    HW214568   5.013   4.753   4.695
 4557SOL     OW14569   0.074   5.580   4.932
 4557SOL    HW114570   0.159   5.621   4.964
 4557SOL    HW214571   0.054   5.498   4.985
 4558SOL     OW14572   0.900   4.544   3.972
 4558SOL    HW114573   0.890   4.636   4.010
 4558SOL    HW214574   0.930   4.481   4.043
 4559SOL     OW14575   0.422   3.564   4.364
 4559SOL    HW114576   0.492   3.545   4.433
 4559SOL    HW214577   0.423   3.661   4.341
 4560SOL     OW14578   6.248   4.189   3.261
 4560SOL    HW114579   6.243   4.119   3.190
 4560SOL    HW214580   6.338   4.186   3.305
 4561SOL     OW14581   4.836   3.030   4.265
 4561SOL    HW114582   4.919   3.010   4.214
 4561SOL    HW214583   4.847   3.117   4.314
 4562SOL     OW14584   4.986   1.114   1.521
 4562SOL    HW114585   4.942   1.155   1.601
 4562SOL    HW214586   4.999   1.185   1.451
 4563SOL     OW14587   0.684   4.071   1.757
 4563SOL    HW114588   0.757   4.046   1.821
 4563SOL    HW214589   0.724   4.118   1.679
 4564SOL     OW14590   2.125   3.742   2.139
 4564SOL    HW114591   2.163   3.666   2.086
 4564SOL    HW214592   2.029   3.724   2.160
 4565SOL     OW14593   2.101   6.893   4.929
 4565SOL    HW114594   2.184   6.940   4.958
 4565SOL    HW214595   2.061   6.940   4.851
 4566SOL     OW14596   6.923   5.134   3.073
 4566SOL    HW114597   6.997   5.082   3.117
 4566SOL    HW214598   6.957   5.224   3.045
 4567SOL     OW14599   1.017   6.976   0.611
 4567SOL    HW114600   0.939   6.914   0.615
 4567SOL    HW214601   1.094   6.931   0.567
 4568SOL     OW14602   0.310   4.195   3.579
 4568SOL    HW114603   0.405   4.204   3.547
 4568SOL    HW214604   0.310   4.156   3.671
 4569SOL     OW14605   0.762   2.660   3.695
 4569SOL    HW114606   0.676   2.705   3.674
 4569SOL    HW214607   0.826   2.725   3.734
 4570SOL     OW14608   4.918   6.279   1.011
 4570SOL    HW114609   4.956   6.371   1.014
 4570SOL    HW214610   4.861   6.263   1.092
 4571SOL     OW14611   2.060   2.776   5.347
 4571SOL    HW114612   2.003   2.851   5.380
 4571SOL    HW214613   2.142   2.813   5.305
 4572SOL     OW14614   4.322   3.093   1.728
 4572SOL    HW114615   4.307   3.185   1.763
 4572SOL    HW214616   4.415   3.064   1.749
 4573SOL     OW14617   2.139   5.226   1.061
 4573SOL    HW114618   2.232   5.262   1.063
 4573SOL    HW214619   2.143   5.126   1.058
 4574SOL     OW14620   5.280   0.482   1.775
 4574SOL    HW114621   5.374   0.472   1.810
 4574SOL    HW214622   5.226   0.532   1.842
 4575SOL     OW14623   0.193   1.776   5.299
 4575SOL    HW114624   0.211   1.798   5.203
 4575SOL    HW214625   0.158   1.683   5.306
 4576SOL     OW14626   3.019   3.834   0.007
 4576SOL    HW114627   2.961   3.900   6.979
 4576SOL    HW214628   3.077   3.882   0.073
 4577SOL     OW14629   0.753   1.743   1.948
 4577SOL    HW114630   0.681   1.803   1.981
 4577SOL    HW214631   0.842   1.778   1.978
 4578SOL     OW14632   1.565   0.652   3.110
 4578SOL    HW114633   1.478   0.635   3.063
 4578SOL    HW214634   1.584   0.750   3.111
 4579SOL     OW14635   4.486   1.209   2.822
 4579SOL    HW114636   4.459   1.273   2.750
 4579SOL    HW214637   4.430   1.224   2.903
 4580SOL     OW14638   0.595   0.421   1.637
 4580SOL    HW114639   0.499   0.440   1.617
 4580SOL    HW214640   0.652   0.456   1.563
 4581SOL     OW14641   2.863   0.573   1.651
 4581SOL    HW114642   2.819   0.500   1.599
 4581SOL    HW214643   2.957   0.586   1.618
 4582SOL     OW14644   5.946   0.611   4.403
 4582SOL    HW114645   5.969   0.576   4.312
 4582SOL    HW214646   5.909   0.537   4.459
 4583SOL     OW14647   1.883   6.599   6.998
 4583SOL    HW114648   1.950   6.672   6.985
 4583SOL    HW214649   1.855   6.563   6.909
 4584SOL     OW14650   0.243   1.176   4.462
 4584SOL    HW114651   0.230   1.180   4.363
 4584SOL    HW214652   0.289   1.260   4.492
 4585SOL     OW14653   1.037   2.920   2.973
 4585SOL    HW114654   1.000   2.842   3.023
 4585SOL    HW214655   1.040   2.898   2.875
 4586SOL     OW14656   0.035   5.198   5.748
 4586SOL    HW114657   0.002   5.245   5.830
 4586SOL    HW214658   6.978   5.152   5.703
 4587SOL     OW14659   4.392   3.300   5.842
 4587SOL    HW114660   4.305   3.324   5.887
 4587SOL    HW214661   4.427   3.380   5.793
 4588SOL     OW14662   2.525   4.270   6.553
 4588SOL    HW114663   2.511   4.171   6.544
 4588SOL    HW214664   2.478   4.303   6.635
 4589SOL     OW14665   5.110   6.174   2.041
 4589SOL    HW114666   5.042   6.103   2.062
 4589SOL    HW214667   5.143   6.161   1.948
 4590SOL     OW14668   2.424   4.866   1.807
 4590SOL    HW114669   2.433   4.965   1.794
 4590SOL    HW214670   2.512   4.822   1.790
 4591SOL     OW14671   2.027   1.276   4.724
 4591SOL    HW114672   1.962   1.331   4.777
 4591SOL    HW214673   2.017   1.299   4.627
 4592SOL     OW14674   2.478   2.521   3.162
 4592SOL    HW114675   2.512   2.460   3.091
 4592SOL    HW214676   2.538   2.516   3.243
 4593SOL     OW14677   1.629   6.056   4.527
 4593SOL    HW114678   1.666   6.132   4.474
 4593SOL    HW214679   1.705   6.003   4.565
 4594SOL     OW14680   1.155   6.073   3.759
 4594SOL    HW114681   1.073   6.116   3.723
 4594SOL    HW214682   1.135   6.031   3.848
 4595SOL     OW14683   5.750   2.071   6.651
 4595SOL    HW114684   5.667   2.101   6.697
 4595SOL    HW214685   5.728   2.000   6.584
 4596SOL     OW14686   0.873   1.558   2.584
 4596SOL    HW114687   0.821   1.492   2.529
 4596SOL    HW214688   0.809   1.615   2.636
 4597SOL     OW14689   2.249   5.423   0.628
 4597SOL    HW114690   2.231   5.519   0.609
 4597SOL    HW214691   2.164   5.376   0.648
 4598SOL     OW14692   0.238   2.651   6.986
 4598SOL    HW114693   0.324   2.612   0.001
 4598SOL    HW214694   0.182   2.578   6.946
 4599SOL     OW14695   2.942   6.499   3.164
 4599SOL    HW114696   2.969   6.558   3.240
 4599SOL    HW214697   2.856   6.454   3.185
 4600SOL     OW14698   0.871   6.498   5.890
 4600SOL    HW114699   0.854   6.400   5.881
 4600SOL    HW214700   0.867   6.525   5.986
 4601SOL     OW14701   1.222   1.162   5.143
 4601SOL    HW114702   1.147   1.223   5.118
 4601SOL    HW214703   1.304   1.189   5.094
 4602SOL     OW14704   3.927   0.477   6.485
 4602SOL    HW114705   4.002   0.529   6.444
 4602SOL    HW214706   3.958   0.385   6.507
 4603SOL     OW14707   4.225   6.772   0.881
 4603SOL    HW114708   4.245   6.797   0.976
 4603SOL    HW214709   4.128   6.747   0.873
 4604SOL     OW14710   0.924   6.271   3.159
 4604SOL    HW114711   0.887   6.355   3.120
 4604SOL    HW214712   0.962   6.290   3.249
 4605SOL     OW14713   4.467   1.426   2.018
 4605SOL    HW114714   4.445   1.414   2.115
 4605SOL    HW214715   4.523   1.348   1.987
 4606SOL     OW14716   6.608   6.883   4.421
 4606SOL    HW114717   6.625   6.982   4.424
 4606SOL    HW214718   6.688   6.836   4.384
 4607SOL     OW14719   2.982   1.807   1.014
 4607SOL    HW114720   3.026   1.719   0.995
 4607SOL    HW214721   3.028   1.851   1.091
 4608SOL     OW14722   0.621   2.324   5.554
 4608SOL    HW114723   0.669   2.402   5.513
 4608SOL    HW214724   0.685   2.249   5.568
 4609SOL     OW14725   6.194   5.089   6.154
 4609SOL    HW114726   6.242   5.038   6.225
 4609SOL    HW214727   6.195   5.037   6.069
 4610SOL     OW14728   5.344   4.400   6.465
 4610SOL    HW114729   5.298   4.407   6.376
 4610SOL    HW214730   5.312   4.318   6.512
 4611SOL     OW14731   0.166   0.588   6.703
 4611SOL    HW114732   0.097   0.600   6.632
 4611SOL    HW214733   0.149   0.503   6.752
 4612SOL     OW14734   1.997   0.988   2.944
 4612SOL    HW114735   1.938   0.910   2.923
 4612SOL    HW214736   1.949   1.073   2.920
 4613SOL     OW14737   1.363   4.975   3.407
 4613SOL    HW114738   1.336   5.029   3.487
 4613SOL    HW214739   1.296   4.904   3.389
 4614SOL     OW14740   0.092   4.691   2.757
 4614SOL    HW114741   0.160   4.639   2.808
 4614SOL    HW214742   0.119   4.787   2.753
 4615SOL     OW14743   1.234   4.600   0.036
 4615SOL    HW114744   1.208   4.686   0.078
 4615SOL    HW214745   1.274   4.617   6.965
 4616SOL     OW14746   1.529   3.954   6.184
 4616SOL    HW114747   1.459   3.915   6.243
 4616SOL    HW214748   1.495   4.039   6.144
 4617SOL     OW14749   0.361   4.407   4.148
 4617SOL    HW114750   0.302   4.462   4.088
 4617SOL    HW214751   0.456   4.416   4.119
 4618SOL     OW14752   2.128   4.200   5.534
 4618SOL    HW114753   2.068   4.131   5.574
 4618SOL    HW214754   2.167   4.166   5.449
 4619SOL     OW14755   4.282   5.948   6.719
 4619SOL    HW114756   4.226   5.866   6.729
 4619SOL    HW214757   4.285   5.975   6.623
 4620SOL     OW14758   1.393   4.567   1.515
 4620SOL    HW114759   1.299   4.553   1.546
 4620SOL    HW214760   1.416   4.664   1.520
 4621SOL     OW14761   2.962   0.312   2.912
 4621SOL    HW114762   2.952   0.281   2.817
 4621SOL    HW214763   2.887   0.373   2.936
 4622SOL     OW14764   6.068   0.119   0.198
 4622SOL    HW114765   6.139   0.068   0.149
 4622SOL    HW214766   6.111   0.194   0.248
 4623SOL     OW14767   3.121   4.965   2.751
 4623SOL    HW114768   3.074   4.940   2.667
 4623SOL    HW214769   3.057   4.956   2.828
 4624SOL     OW14770   5.276   1.785   0.706
 4624SOL    HW114771   5.275   1.709   0.770
 4624SOL    HW214772   5.249   1.869   0.754
 4625SOL     OW14773   0.545   6.244   2.148
 4625SOL    HW114774   0.608   6.317   2.176
 4625SOL    HW214775   0.597   6.166   2.114
 4626SOL     OW14776   4.050   3.742   2.127
 4626SOL    HW114777   4.068   3.656   2.176
 4626SOL    HW214778   4.045   3.817   2.192
 4627SOL     OW14779   5.904   6.823   4.424
 4627SOL    HW114780   5.869   6.881   4.350
 4627SOL    HW214781   5.828   6.772   4.465
 4628SOL     OW14782   6.870   4.720   2.878
 4628SOL    HW114783   6.818   4.772   2.810
 4628SOL    HW214784   6.956   4.689   2.838
 4629SOL     OW14785   1.173   5.006   1.002
 4629SOL    HW114786   1.118   5.034   0.923
 4629SOL    HW214787   1.264   4.979   0.972
 4630SOL     OW14788   2.043   3.869   1.469
 4630SOL    HW114789   2.008   3.944   1.526
 4630SOL    HW214790   2.094   3.805   1.526
 4631SOL     OW14791   6.593   2.043   2.587
 4631SOL    HW114792   6.498   2.016   2.604
 4631SOL    HW214793   6.651   2.009   2.662
 4632SOL     OW14794   3.006   4.969   3.688
 4632SOL    HW114795   2.939   4.894   3.695
 4632SOL    HW214796   2.977   5.033   3.618
 4633SOL     OW14797   5.393   2.759   3.995
 4633SOL    HW114798   5.301   2.738   4.027
 4633SOL    HW214799   5.423   2.688   3.932
 4634SOL     OW14800   3.715   3.094   5.358
 4634SOL    HW114801   3.768   3.033   5.300
 4634SOL    HW214802   3.704   3.052   5.449
 4635SOL     OW14803   4.112   6.992   2.601
 4635SOL    HW114804   4.150   0.063   2.578
 4635SOL    HW214805   4.070   6.952   2.520
 4636SOL     OW14806   1.844   5.359   6.706
 4636SOL    HW114807   1.825   5.370   6.804
 4636SOL    HW214808   1.898   5.276   6.692
 4637SOL     OW14809   1.855   2.421   3.373
 4637SOL    HW114810   1.908   2.505   3.367
 4637SOL    HW214811   1.892   2.354   3.309
 4638SOL     OW14812   4.210   4.250   0.139
 4638SOL    HW114813   4.248   4.342   0.129
 4638SOL    HW214814   4.259   4.202   0.211
 4639SOL     OW14815   4.449   2.099   1.842
 4639SOL    HW114816   4.372   2.098   1.778
 4639SOL    HW214817   4.423   2.052   1.926
 4640SOL     OW14818   0.178   2.824   0.829
 4640SOL    HW114819   0.153   2.796   0.921
 4640SOL    HW214820   0.236   2.755   0.787
 4641SOL     OW14821   1.243   6.017   4.840
 4641SOL    HW114822   1.312   6.074   4.887
 4641SOL    HW214823   1.269   5.921   4.847
 4642SOL     OW14824   5.972   1.234   6.235
 4642SOL    HW114825   6.004   1.152   6.281
 4642SOL    HW214826   6.044   1.269   6.174
 4643SOL     OW14827   0.744   2.128   6.781
 4643SOL    HW114828   0.829   2.143   6.833
 4643SOL    HW214829   0.713   2.034   6.795
 4644SOL     OW14830   1.258   1.474   1.263
 4644SOL    HW114831   1.221   1.534   1.333
 4644SOL    HW214832   1.277   1.384   1.302
 4645SOL     OW14833   5.487   2.246   5.771
 4645SOL    HW114834   5.394   2.254   5.737
 4645SOL    HW214835   5.519   2.336   5.802
 4646SOL     OW14836   1.335   4.209   2.540
 4646SOL    HW114837   1.419   4.155   2.537
 4646SOL    HW214838   1.310   4.226   2.636
 4647SOL     OW14839   2.162   6.005   2.634
 4647SOL    HW114840   2.246   6.054   2.609
 4647SOL    HW214841   2.178   5.951   2.716
 4648SOL     OW14842   2.625   0.915   4.392
 4648SOL    HW114843   2.573   0.977   4.452
 4648SOL    HW214844   2.653   0.965   4.310
 4649SOL     OW14845   4.881   2.867   0.542
 4649SOL    HW114846   4.912   2.853   0.636
 4649SOL    HW214847   4.802   2.928   0.542
 4650SOL     OW14848   3.760   5.340   0.346
 4650SOL    HW114849   3.709   5.424   0.329
 4650SOL    HW214850   3.697   5.263   0.349
 4651SOL     OW14851   1.130   3.838   0.274
 4651SOL    HW114852   1.102   3.743   0.292
 4651SOL    HW214853   1.209   3.839   0.213
 4652SOL     OW14854   0.440   0.326   5.544
 4652SOL    HW114855   0.523   0.285   5.583
 4652SOL    HW214856   0.405   0.396   5.606
 4653SOL     OW14857   0.338   6.346   0.915
 4653SOL    HW114858   0.348   6.247   0.911
 4653SOL    HW214859   0.343   6.384   0.823
 4654SOL     OW14860   0.515   1.324   5.357
 4654SOL    HW114861   0.497   1.415   5.318
 4654SOL    HW214862   0.564   1.334   5.443
 4655SOL     OW14863   5.787   5.041   3.071
 4655SOL    HW114864   5.843   4.980   3.015
 4655SOL    HW214865   5.846   5.096   3.130
 4656SOL     OW14866   5.867   0.533   1.702
 4656SOL    HW114867   5.918   0.601   1.754
 4656SOL    HW214868   5.928   0.491   1.634
 4657SOL     OW14869   3.649   1.575   2.676
 4657SOL    HW114870   3.624   1.524   2.593
 4657SOL    HW214871   3.587   1.652   2.687
 4658SOL     OW14872   1.081   1.728   0.238
 4658SOL    HW114873   1.136   1.747   0.320
 4658SOL    HW214874   1.140   1.692   0.166
 4659SOL     OW14875   2.308   4.964   0.680
 4659SOL    HW114876   2.226   5.020   0.675
 4659SOL    HW214877   2.292   4.886   0.740
 4660SOL     OW14878   0.118   5.106   4.376
 4660SOL    HW114879   0.215   5.131   4.372
 4660SOL    HW214880   0.097   5.066   4.465
 4661SOL     OW14881   1.026   0.733   6.051
 4661SOL    HW114882   1.091   0.730   5.975
 4661SOL    HW214883   1.034   0.820   6.098
 4662SOL     OW14884   3.071   0.721   6.121
 4662SOL    HW114885   3.135   0.763   6.057
 4662SOL    HW214886   3.035   0.637   6.082
 4663SOL     OW14887   0.709   0.829   1.383
 4663SOL    HW114888   0.623   0.881   1.379
 4663SOL    HW214889   0.741   0.810   1.290
 4664SOL     OW14890   5.773   6.156   4.652
 4664SOL    HW114891   5.826   6.122   4.574
 4664SOL    HW214892   5.835   6.202   4.716
 4665SOL     OW14893   7.002   0.932   2.875
 4665SOL    HW114894   0.067   0.894   2.913
 4665SOL    HW214895   6.965   0.871   2.806
 4666SOL     OW14896   1.797   2.223   6.086
 4666SOL    HW114897   1.846   2.220   5.999
 4666SOL    HW214898   1.728   2.296   6.083
 4667SOL     OW14899   6.768   2.915   1.114
 4667SOL    HW114900   6.765   2.972   1.031
 4667SOL    HW214901   6.711   2.834   1.100
 4668SOL     OW14902   4.800   1.345   6.074
 4668SOL    HW114903   4.857   1.422   6.105
 4668SOL    HW214904   4.797   1.345   5.974
 4669SOL     OW14905   5.510   6.899   6.103
 4669SOL    HW114906   5.593   6.938   6.142
 4669SOL    HW214907   5.449   6.871   6.177
 4670SOL     OW14908   0.418   3.286   0.047
 4670SOL    HW114909   0.443   3.369   0.096
 4670SOL    HW214910   0.343   3.306   7.003
 4671SOL     OW14911   6.577   2.066   1.813
 4671SOL    HW114912   6.594   1.997   1.883
 4671SOL    HW214913   6.582   2.157   1.854
 4672SOL     OW14914   3.415   3.193   0.717
 4672SOL    HW114915   3.368   3.227   0.798
 4672SOL    HW214916   3.393   3.097   0.703
 4673SOL     OW14917   5.495   0.918   0.938
 4673SOL    HW114918   5.452   0.830   0.960
 4673SOL    HW214919   5.544   0.952   1.019
 4674SOL     OW14920   0.996   3.445   0.587
 4674SOL    HW114921   1.060   3.474   0.658
 4674SOL    HW214922   0.995   3.345   0.581
 4675SOL     OW14923   1.527   5.683   0.498
 4675SOL    HW114924   1.441   5.632   0.499
 4675SOL    HW214925   1.532   5.741   0.579
 4676SOL     OW14926   1.354   5.782   4.808
 4676SOL    HW114927   1.303   5.752   4.728
 4676SOL    HW214928   1.368   5.705   4.870
 4677SOL     OW14929   4.445   6.945   6.891
 4677SOL    HW114930   4.462   6.994   6.806
 4677SOL    HW214931   4.524   6.955   6.952
 4678SOL     OW14932   2.587   4.816   0.323
 4678SOL    HW114933   2.634   4.844   0.239
 4678SOL    HW214934   2.567   4.897   0.379
 4679SOL     OW14935   2.104   6.619   5.018
 4679SOL    HW114936   2.200   6.616   5.047
 4679SOL    HW214937   2.081   6.711   4.988
 4680SOL     OW14938   0.950   4.980   6.359
 4680SOL    HW114939   0.992   5.017   6.442
 4680SOL    HW214940   0.926   5.055   6.297
 4681SOL     OW14941   6.742   5.755   5.124
 4681SOL    HW114942   6.739   5.807   5.209
 4681SOL    HW214943   6.775   5.662   5.142
 4682SOL     OW14944   3.468   0.713   1.103
 4682SOL    HW114945   3.455   0.803   1.061
 4682SOL    HW214946   3.391   0.654   1.080
 4683SOL     OW14947   0.477   4.753   3.720
 4683SOL    HW114948   0.475   4.656   3.699
 4683SOL    HW214949   0.427   4.770   3.805
 4684SOL     OW14950   1.848   1.447   4.845
 4684SOL    HW114951   1.784   1.500   4.789
 4684SOL    HW214952   1.880   1.503   4.922
 4685SOL     OW14953   5.456   3.924   4.239
 4685SOL    HW114954   5.514   4.006   4.236
 4685SOL    HW214955   5.373   3.940   4.186
 4686SOL     OW14956   4.986   5.287   6.458
 4686SOL    HW114957   5.007   5.306   6.554
 4686SOL    HW214958   4.970   5.373   6.410
 4687SOL     OW14959   4.673   0.354   4.484
 4687SOL    HW114960   4.688   0.443   4.527
 4687SOL    HW214961   4.613   0.299   4.542
 4688SOL     OW14962   6.719   1.252   0.528
 4688SOL    HW114963   6.763   1.223   0.444
 4688SOL    HW214964   6.626   1.214   0.532
 4689SOL     OW14965   1.947   5.738   4.024
 4689SOL    HW114966   1.975   5.660   4.081
 4689SOL    HW214967   1.866   5.781   4.065
 4690SOL     OW14968   2.246   1.440   0.770
 4690SOL    HW114969   2.223   1.356   0.819
 4690SOL    HW214970   2.176   1.459   0.702
 4691SOL     OW14971   3.229   4.502   0.143
 4691SOL    HW114972   3.238   4.402   0.147
 4691SOL    HW214973   3.192   4.536   0.230
 4692SOL     OW14974   1.121   5.033   3.754
 4692SOL    HW114975   1.147   4.948   3.707
 4692SOL    HW214976   1.126   5.109   3.689
 4693SOL     OW14977   0.747   1.581   2.178
 4693SOL    HW114978   0.738   1.613   2.084
 4693SOL    HW214979   0.794   1.493   2.179
 4694SOL     OW14980   1.119   1.121   4.848
 4694SOL    HW114981   1.207   1.075   4.859
 4694SOL    HW214982   1.115   1.200   4.910
 4695SOL     OW14983   3.309   3.732   3.114
 4695SOL    HW114984   3.273   3.734   3.207
 4695SOL    HW214985   3.238   3.760   3.050
 4696SOL     OW14986   6.772   3.248   0.676
 4696SOL    HW114987   6.744   3.343   0.691
 4696SOL    HW214988   6.788   3.204   0.765
 4697SOL     OW14989   0.875   5.872   6.660
 4697SOL    HW114990   0.816   5.844   6.584
 4697SOL    HW214991   0.830   5.944   6.712
 4698SOL     OW14992   6.066   2.972   2.040
 4698SOL    HW114993   6.164   2.983   2.057
 4698SOL    HW214994   6.038   2.880   2.064
 4699SOL     OW14995   6.704   6.960   3.405
 4699SOL    HW114996   6.780   6.910   3.447
 4699SOL    HW214997   6.651   7.005   3.477
 4700SOL     OW14998   4.997   6.686   6.383
 4700SOL    HW114999   5.084   6.675   6.432
 4700SOL    HW215000   4.969   6.782   6.389
 4701SOL     OW15001   2.102   0.727   6.625
 4701SOL    HW115002   2.040   0.649   6.622
 4701SOL    HW215003   2.053   0.808   6.658
 4702SOL     OW15004   3.350   3.041   0.979
 4702SOL    HW115005   3.276   2.976   0.967
 4702SOL    HW215006   3.437   2.992   0.990
 4703SOL     OW15007   0.854   6.760   2.408
 4703SOL    HW115008   0.810   6.671   2.396
 4703SOL    HW215009   0.852   6.811   2.322
 4704SOL     OW15010   4.817   6.435   6.418
 4704SOL    HW115011   4.804   6.369   6.492
 4704SOL    HW215012   4.910   6.469   6.420
 4705SOL     OW15013   3.800   2.970   4.775
 4705SOL    HW115014   3.763   2.920   4.697
 4705SOL    HW215015   3.868   3.036   4.743
 4706SOL     OW15016   5.698   3.700   0.051
 4706SOL    HW115017   5.785   3.740   0.021
 4706SOL    HW215018   5.645   3.674   6.990
 4707SOL     OW15019   2.734   5.252   0.722
 4707SOL    HW115020   2.796   5.241   0.644
 4707SOL    HW215021   2.640   5.261   0.689
 4708SOL     OW15022   1.531   2.988   2.595
 4708SOL    HW115023   1.535   2.961   2.499
 4708SOL    HW215024   1.496   3.082   2.601
 4709SOL     OW15025   2.823   4.107   0.684
 4709SOL    HW115026   2.753   4.094   0.613
 4709SOL    HW215027   2.912   4.079   0.649
 4710SOL     OW15028   4.706   3.277   1.307
 4710SOL    HW115029   4.803   3.256   1.322
 4710SOL    HW215030   4.683   3.262   1.211
 4711SOL     OW15031   2.763   0.160   3.429
 4711SOL    HW115032   2.770   0.100   3.349
 4711SOL    HW215033   2.828   0.235   3.420
 4712SOL     OW15034   1.622   3.633   6.944
 4712SOL    HW115035   1.696   3.568   6.961
 4712SOL    HW215036   1.579   3.658   0.011
 4713SOL     OW15037   0.917   5.194   0.825
 4713SOL    HW115038   0.876   5.184   0.916
 4713SOL    HW215039   0.938   5.103   0.788
 4714SOL     OW15040   4.136   2.633   1.317
 4714SOL    HW115041   4.109   2.652   1.223
 4714SOL    HW215042   4.194   2.552   1.319
 4715SOL     OW15043   4.963   3.711   4.850
 4715SOL    HW115044   4.912   3.794   4.829
 4715SOL    HW215045   4.906   3.648   4.902
 4716SOL     OW15046   2.413   5.500   6.439
 4716SOL    HW115047   2.333   5.510   6.498
 4716SOL    HW215048   2.462   5.588   6.434
 4717SOL     OW15049   1.911   5.452   4.642
 4717SOL    HW115050   1.977   5.456   4.567
 4717SOL    HW215051   1.959   5.460   4.730
 4718SOL     OW15052   4.744   6.610   0.146
 4718SOL    HW115053   4.787   6.550   0.078
 4718SOL    HW215054   4.667   6.657   0.104
 4719SOL     OW15055   4.333   3.382   1.771
 4719SOL    HW115056   4.279   3.432   1.838
 4719SOL    HW215057   4.426   3.418   1.769
 4720SOL     OW15058   2.456   1.558   2.777
 4720SOL    HW115059   2.363   1.533   2.749
 4720SOL    HW215060   2.486   1.497   2.850
 4721SOL     OW15061   1.608   1.362   1.618
 4721SOL    HW115062   1.574   1.453   1.597
 4721SOL    HW215063   1.625   1.354   1.716
 4722SOL     OW15064   2.861   0.477   2.552
 4722SOL    HW115065   2.779   0.477   2.609
 4722SOL    HW215066   2.924   0.548   2.583
 4723SOL     OW15067   3.245   0.242   5.344
 4723SOL    HW115068   3.183   0.165   5.351
 4723SOL    HW215069   3.251   0.272   5.249
 4724SOL     OW15070   4.682   5.100   1.010
 4724SOL    HW115071   4.708   5.174   1.072
 4724SOL    HW215072   4.723   5.014   1.040
 4725SOL     OW15073   6.006   5.547   2.850
 4725SOL    HW115074   5.957   5.516   2.769
 4725SOL    HW215075   5.997   5.646   2.858
 4726SOL     OW15076   0.129   6.343   4.611
 4726SOL    HW115077   0.041   6.382   4.584
 4726SOL    HW215078   0.166   6.397   4.688
 4727SOL     OW15079   5.516   6.611   2.031
 4727SOL    HW115080   5.468   6.614   2.119
 4727SOL    HW215081   5.590   6.677   2.031
 4728SOL     OW15082   6.671   0.270   6.714
 4728SOL    HW115083   6.747   0.242   6.656
 4728SOL    HW215084   6.611   0.332   6.663
 4729SOL     OW15085   3.463   0.977   0.994
 4729SOL    HW115086   3.510   1.051   1.042
 4729SOL    HW215087   3.411   1.015   0.918
 4730SOL     OW15088   1.889   0.533   6.081
 4730SOL    HW115089   1.951   0.559   6.006
 4730SOL    HW215090   1.801   0.579   6.070
 4731SOL     OW15091   4.720   1.065   6.054
 4731SOL    HW115092   4.761   1.154   6.035
 4731SOL    HW215093   4.639   1.052   5.997
 4732SOL     OW15094   0.657   6.971   0.155
 4732SOL    HW115095   0.647   6.989   0.253
 4732SOL    HW215096   0.701   6.883   0.141
 4733SOL     OW15097   6.255   3.724   3.475
 4733SOL    HW115098   6.296   3.657   3.537
 4733SOL    HW215099   6.310   3.730   3.392
 4734SOL     OW15100   6.448   4.170   5.535
 4734SOL    HW115101   6.451   4.149   5.437
 4734SOL    HW215102   6.369   4.228   5.554
 4735SOL     OW15103   0.469   3.866   3.643
 4735SOL    HW115104   0.443   3.857   3.547
 4735SOL    HW215105   0.537   3.939   3.652
 4736SOL     OW15106   1.698   7.015   2.582
 4736SOL    HW115107   1.709   0.047   2.497
 4736SOL    HW215108   1.781   0.003   2.636
 4737SOL     OW15109   3.658   4.951   2.090
 4737SOL    HW115110   3.664   4.901   2.004
 4737SOL    HW215111   3.692   4.893   2.164
 4738SOL     OW15112   0.849   0.085   2.464
 4738SOL    HW115113   0.879   0.179   2.445
 4738SOL    HW215114   0.807   0.046   2.381
 4739SOL     OW15115   3.787   0.161   1.493
 4739SOL    HW115116   3.711   0.145   1.430
 4739SOL    HW215117   3.765   0.238   1.552
 4740SOL     OW15118   0.689   1.750   3.944
 4740SOL    HW115119   0.714   1.745   3.847
 4740SOL    HW215120   0.674   1.845   3.970
 4741SOL     OW15121   4.059   3.561   2.829
 4741SOL    HW115122   4.104   3.566   2.740
 4741SOL    HW215123   3.961   3.572   2.818
 4742SOL     OW15124   5.035   0.799   2.045
 4742SOL    HW115125   5.007   0.867   1.977
 4742SOL    HW215126   5.042   0.710   2.002
 4743SOL     OW15127   1.163   5.141   1.233
 4743SOL    HW115128   1.253   5.131   1.276
 4743SOL    HW215129   1.157   5.079   1.154
 4744SOL     OW15130   1.805   5.543   1.457
 4744SOL    HW115131   1.884   5.603   1.442
 4744SOL    HW215132   1.804   5.470   1.389
 4745SOL     OW15133   1.869   3.241   0.311
 4745SOL    HW115134   1.929   3.170   0.275
 4745SOL    HW215135   1.832   3.296   0.236
 4746SOL     OW15136   5.337   5.188   4.378
 4746SOL    HW115137   5.316   5.230   4.466
 4746SOL    HW215138   5.261   5.204   4.315
 4747SOL     OW15139   4.172   0.709   0.360
 4747SOL    HW115140   4.108   0.695   0.283
 4747SOL    HW215141   4.199   0.620   0.397
 4748SOL     OW15142   2.218   7.009   3.221
 4748SOL    HW115143   2.158   0.016   3.146
 4748SOL    HW215144   2.164   6.965   3.293
 4749SOL     OW15145   2.289   1.197   0.900
 4749SOL    HW115146   2.226   1.164   0.971
 4749SOL    HW215147   2.383   1.180   0.930
 4750SOL     OW15148   4.893   3.170   6.371
 4750SOL    HW115149   4.905   3.263   6.337
 4750SOL    HW215150   4.854   3.112   6.299
 4751SOL     OW15151   4.471   1.601   2.419
 4751SOL    HW115152   4.492   1.699   2.422
 4751SOL    HW215153   4.547   1.550   2.460
 4752SOL     OW15154   5.837   0.665   6.713
 4752SOL    HW115155   5.909   0.724   6.749
 4752SOL    HW215156   5.805   0.604   6.785
 4753SOL     OW15157   2.598   6.080   5.162
 4753SOL    HW115158   2.692   6.046   5.170
 4753SOL    HW215159   2.568   6.074   5.067
 4754SOL     OW15160   5.073   4.569   6.707
 4754SOL    HW115161   5.152   4.628   6.726
 4754SOL    HW215162   5.046   4.522   6.791
 4755SOL     OW15163   0.447   0.923   1.406
 4755SOL    HW115164   0.415   0.991   1.471
 4755SOL    HW215165   0.403   0.835   1.424
 4756SOL     OW15166   6.972   3.513   5.345
 4756SOL    HW115167   0.003   3.599   5.334
 4756SOL    HW215168   7.019   3.440   5.297
 4757SOL     OW15169   2.102   2.996   0.621
 4757SOL    HW115170   2.091   2.947   0.708
 4757SOL    HW215171   2.022   2.977   0.563
 4758SOL     OW15172   1.942   4.831   2.575
 4758SOL    HW115173   2.010   4.891   2.533
 4758SOL    HW215174   1.976   4.799   2.664
 4759SOL     OW15175   0.601   6.767   2.529
 4759SOL    HW115176   0.543   6.824   2.471
 4759SOL    HW215177   0.681   6.737   2.477
 4760SOL     OW15178   1.526   6.823   1.803
 4760SOL    HW115179   1.481   6.839   1.891
 4760SOL    HW215180   1.584   6.902   1.781
 4761SOL     OW15181   4.554   6.398   1.736
 4761SOL    HW115182   4.568   6.450   1.820
 4761SOL    HW215183   4.639   6.397   1.683
 4762SOL     OW15184   1.209   1.285   2.531
 4762SOL    HW115185   1.241   1.203   2.577
 4762SOL    HW215186   1.143   1.333   2.589
 4763SOL     OW15187   5.530   5.325   1.596
 4763SOL    HW115188   5.477   5.298   1.676
 4763SOL    HW215189   5.596   5.253   1.575
 4764SOL     OW15190   4.643   2.802   6.585
 4764SOL    HW115191   4.733   2.777   6.619
 4764SOL    HW215192   4.573   2.768   6.649
 4765SOL     OW15193   4.043   1.138   6.097
 4765SOL    HW115194   4.088   1.054   6.067
 4765SOL    HW215195   3.944   1.126   6.092
 4766SOL     OW15196   0.836   1.250   4.141
 4766SOL    HW115197   0.837   1.222   4.237
 4766SOL    HW215198   0.818   1.348   4.134
 4767SOL     OW15199   2.408   4.846   3.664
 4767SOL    HW115200   2.463   4.900   3.599
 4767SOL    HW215201   2.359   4.774   3.614
 4768SOL     OW15202   4.615   1.581   6.363
 4768SOL    HW115203   4.592   1.501   6.417
 4768SOL    HW215204   4.604   1.560   6.266
 4769SOL     OW15205   2.430   2.862   0.294
 4769SOL    HW115206   2.480   2.786   0.335
 4769SOL    HW215207   2.438   2.858   0.195
 4770SOL     OW15208   6.542   1.632   3.604
 4770SOL    HW115209   6.530   1.702   3.674
 4770SOL    HW215210   6.507   1.666   3.517
 4771SOL     OW15211   2.914   0.760   4.182
 4771SOL    HW115212   2.878   0.669   4.161
 4771SOL    HW215213   2.981   0.786   4.111
 4772SOL     OW15214   2.885   4.926   2.937
 4772SOL    HW115215   2.886   4.832   2.971
 4772SOL    HW215216   2.811   4.936   2.869
 4773SOL     OW15217   2.928   5.331   4.267
 4773SOL    HW115218   3.012   5.298   4.310
 4773SOL    HW215219   2.853   5.327   4.333
 4774SOL     OW15220   1.224   4.501   0.713
 4774SOL    HW115221   1.157   4.526   0.783
 4774SOL    HW215222   1.285   4.431   0.749
 4775SOL     OW15223   6.025   5.045   4.651
 4775SOL    HW115224   5.931   5.061   4.623
 4775SOL    HW215225   6.082   5.028   4.570
 4776SOL     OW15226   6.748   1.742   5.307
 4776SOL    HW115227   6.687   1.797   5.251
 4776SOL    HW215228   6.787   1.668   5.251
 4777SOL     OW15229   1.150   6.690   3.595
 4777SOL    HW115230   1.185   6.776   3.558
 4777SOL    HW215231   1.171   6.615   3.532
 4778SOL     OW15232   1.640   0.545   0.569
 4778SOL    HW115233   1.562   0.592   0.528
 4778SOL    HW215234   1.655   0.458   0.523
 4779SOL     OW15235   4.968   1.390   4.608
 4779SOL    HW115236   4.943   1.451   4.533
 4779SOL    HW215237   4.979   1.444   4.692
 4780SOL     OW15238   4.707   2.623   4.695
 4780SOL    HW115239   4.676   2.717   4.688
 4780SOL    HW215240   4.700   2.593   4.790
 4781SOL     OW15241   2.030   5.363   2.111
 4781SOL    HW115242   2.086   5.433   2.155
 4781SOL    HW215243   1.947   5.405   2.074
 4782SOL     OW15244   1.204   5.948   3.023
 4782SOL    HW115245   1.140   6.021   2.999
 4782SOL    HW215246   1.294   5.969   2.983
 4783SOL     OW15247   0.882   3.534   6.714
 4783SOL    HW115248   0.819   3.514   6.789
 4783SOL    HW215249   0.892   3.632   6.703
 4784SOL     OW15250   5.830   3.083   0.070
 4784SOL    HW115251   5.802   3.178   0.088
 4784SOL    HW215252   5.927   3.081   0.046
 4785SOL     OW15253   6.922   0.799   4.034
 4785SOL    HW115254   6.998   0.798   3.969
 4785SOL    HW215255   6.934   0.725   4.100
 4786SOL     OW15256   1.249   5.466   0.289
 4786SOL    HW115257   1.149   5.464   0.289
 4786SOL    HW215258   1.282   5.483   0.382
 4787SOL     OW15259   5.055   1.105   5.205
 4787SOL    HW115260   5.065   1.059   5.117
 4787SOL    HW215261   5.010   1.193   5.192
 4788SOL     OW15262   6.673   5.728   1.256
 4788SOL    HW115263   6.666   5.824   1.229
 4788SOL    HW215264   6.626   5.671   1.189
 4789SOL     OW15265   5.975   1.036   2.669
 4789SOL    HW115266   5.908   1.051   2.596
 4789SOL    HW215267   5.939   1.071   2.755
 4790SOL     OW15268   6.828   2.501   5.562
 4790SOL    HW115269   6.778   2.515   5.476
 4790SOL    HW215270   6.924   2.483   5.542
 4791SOL     OW15271   0.639   0.774   6.575
 4791SOL    HW115272   0.549   0.732   6.563
 4791SOL    HW215273   0.705   0.704   6.602
 4792SOL     OW15274   0.234   3.517   1.461
 4792SOL    HW115275   0.301   3.577   1.503
 4792SOL    HW215276   0.169   3.571   1.407
 4793SOL     OW15277   1.093   3.179   5.198
 4793SOL    HW115278   1.124   3.218   5.111
 4793SOL    HW215279   1.151   3.213   5.272
 4794SOL     OW15280   5.392   1.138   6.757
 4794SOL    HW115281   5.417   1.170   6.665
 4794SOL    HW215282   5.312   1.077   6.750
 4795SOL     OW15283   0.048   0.761   6.864
 4795SOL    HW115284   0.003   0.707   6.935
 4795SOL    HW215285   0.099   0.699   6.803
 4796SOL     OW15286   5.938   0.890   5.576
 4796SOL    HW115287   5.938   0.989   5.579
 4796SOL    HW215288   5.937   0.859   5.480
 4797SOL     OW15289   2.811   4.856   5.473
 4797SOL    HW115290   2.880   4.811   5.416
 4797SOL    HW215291   2.740   4.896   5.414
 4798SOL     OW15292   3.157   6.018   0.105
 4798SOL    HW115293   3.119   6.055   0.190
 4798SOL    HW215294   3.124   6.072   0.027
 4799SOL     OW15295   4.045   3.604   1.130
 4799SOL    HW115296   4.022   3.573   1.038
 4799SOL    HW215297   4.112   3.542   1.171
 4800SOL     OW15298   0.932   4.903   0.220
 4800SOL    HW115299   0.938   5.003   0.211
 4800SOL    HW215300   0.961   4.876   0.312
 4801SOL     OW15301   4.747   2.900   3.290
 4801SOL    HW115302   4.698   2.929   3.208
 4801SOL    HW215303   4.732   2.802   3.304
 4802SOL     OW15304   7.000   1.155   5.392
 4802SOL    HW115305   6.946   1.163   5.476
 4802SOL    HW215306   6.958   1.209   5.319
 4803SOL     OW15307   5.313   3.065   5.415
 4803SOL    HW115308   5.344   2.973   5.394
 4803SOL    HW215309   5.339   3.089   5.508
 4804SOL     OW15310   5.373   2.863   0.682
 4804SOL    HW115311   5.466   2.830   0.690
 4804SOL    HW215312   5.355   2.890   0.587
 4805SOL     OW15313   5.422   0.854   6.554
 4805SOL    HW115314   5.405   0.895   6.643
 4805SOL    HW215315   5.367   0.900   6.484
 4806SOL     OW15316   1.279   2.857   3.677
 4806SOL    HW115317   1.314   2.864   3.771
 4806SOL    HW215318   1.306   2.939   3.625
 4807SOL     OW15319   0.992   3.861   0.012
 4807SOL    HW115320   0.893   3.854   0.018
 4807SOL    HW215321   1.034   3.826   0.096
 4808SOL     OW15322   3.461   6.482   2.664
 4808SOL    HW115323   3.383   6.513   2.610
 4808SOL    HW215324   3.542   6.534   2.638
 4809SOL     OW15325   3.070   3.614   0.163
 4809SOL    HW115326   3.037   3.542   0.103
 4809SOL    HW215327   3.050   3.703   0.122
 4810SOL     OW15328   1.828   4.841   4.572
 4810SOL    HW115329   1.846   4.925   4.624
 4810SOL    HW215330   1.902   4.825   4.507
 4811SOL     OW15331   2.969   3.301   4.342
 4811SOL    HW115332   2.955   3.278   4.438
 4811SOL    HW215333   3.016   3.389   4.336
 4812SOL     OW15334   2.660   6.458   1.750
 4812SOL    HW115335   2.580   6.437   1.693
 4812SOL    HW215336   2.679   6.556   1.744
 4813SOL     OW15337   1.029   2.365   4.494
 4813SOL    HW115338   1.103   2.374   4.561
 4813SOL    HW215339   1.050   2.420   4.413
 4814SOL     OW15340   5.524   1.288   1.011
 4814SOL    HW115341   5.596   1.219   1.010
 4814SOL    HW215342   5.445   1.255   0.958
 4815SOL     OW15343   6.512   4.456   2.860
 4815SOL    HW115344   6.585   4.420   2.802
 4815SOL    HW215345   6.551   4.484   2.948
 4816SOL     OW15346   2.248   0.288   2.650
 4816SOL    HW115347   2.314   0.307   2.724
 4816SOL    HW215348   2.159   0.266   2.690
 4817SOL     OW15349   3.690   2.619   0.161
 4817SOL    HW115350   3.731   2.597   0.249
 4817SOL    HW215351   3.633   2.700   0.169
 4818SOL     OW15352   4.828   6.714   5.116
 4818SOL    HW115353   4.820   6.712   5.016
 4818SOL    HW215354   4.878   6.796   5.143
 4819SOL     OW15355   3.816   0.746   0.324
 4819SOL    HW115356   3.832   0.696   0.410
 4819SOL    HW215357   3.901   0.789   0.294
 4820SOL     OW15358   0.197   4.778   1.666
 4820SOL    HW115359   0.180   4.740   1.575
 4820SOL    HW215360   0.161   4.871   1.669
 4821SOL     OW15361   0.110   6.409   1.316
 4821SOL    HW115362   0.125   6.487   1.378
 4821SOL    HW215363   0.195   6.357   1.307
 4822SOL     OW15364   0.357   3.991   1.589
 4822SOL    HW115365   0.349   3.946   1.678
 4822SOL    HW215366   0.448   3.974   1.551
 4823SOL     OW15367   0.117   1.998   2.899
 4823SOL    HW115368   0.176   2.003   2.819
 4823SOL    HW215369   0.170   2.016   2.981
 4824SOL     OW15370   5.315   2.618   2.329
 4824SOL    HW115371   5.355   2.645   2.417
 4824SOL    HW215372   5.356   2.532   2.298
 4825SOL     OW15373   1.358   3.024   4.403
 4825SOL    HW115374   1.321   3.034   4.495
 4825SOL    HW215375   1.330   3.101   4.346
 4826SOL     OW15376   0.471   6.588   0.420
 4826SOL    HW115377   0.555   6.590   0.367
 4826SOL    HW215378   0.419   6.505   0.399
 4827SOL     OW15379   5.188   1.438   0.233
 4827SOL    HW115380   5.214   1.534   0.241
 4827SOL    HW215381   5.123   1.427   0.158
 4828SOL     OW15382   5.729   3.265   6.779
 4828SOL    HW115383   5.640   3.311   6.770
 4828SOL    HW215384   5.770   3.253   6.689
 4829SOL     OW15385   2.722   0.170   5.577
 4829SOL    HW115386   2.744   0.263   5.550
 4829SOL    HW215387   2.663   0.172   5.658
 4830SOL     OW15388   4.970   4.846   5.002
 4830SOL    HW115389   5.028   4.867   5.081
 4830SOL    HW215390   4.989   4.911   4.928
 4831SOL     OW15391   6.407   2.317   6.382
 4831SOL    HW115392   6.454   2.357   6.460
 4831SOL    HW215393   6.308   2.318   6.398
 4832SOL     OW15394   1.445   2.875   6.693
 4832SOL    HW115395   1.421   2.826   6.609
 4832SOL    HW215396   1.363   2.919   6.731
 4833SOL     OW15397   6.374   2.518   3.010
 4833SOL    HW115398   6.438   2.463   2.956
 4833SOL    HW215399   6.401   2.614   3.005
 4834SOL     OW15400   5.787   0.325   3.126
 4834SOL    HW115401   5.727   0.346   3.204
 4834SOL    HW215402   5.743   0.354   3.041
 4835SOL     OW15403   2.153   1.360   6.842
 4835SOL    HW115404   2.097   1.383   6.763
 4835SOL    HW215405   2.095   1.329   6.917
 4836SOL     OW15406   5.689   3.992   3.106
 4836SOL    HW115407   5.782   4.011   3.140
 4836SOL    HW215408   5.677   3.894   3.093
 4837SOL     OW15409   0.487   4.858   1.857
 4837SOL    HW115410   0.499   4.892   1.764
 4837SOL    HW215411   0.392   4.832   1.871
 4838SOL     OW15412   2.724   5.770   2.463
 4838SOL    HW115413   2.802   5.747   2.521
 4838SOL    HW215414   2.639   5.744   2.510
 4839SOL     OW15415   1.064   0.301   6.520
 4839SOL    HW115416   1.032   0.339   6.433
 4839SOL    HW215417   1.142   0.240   6.503
 4840SOL     OW15418   6.712   6.011   6.426
 4840SOL    HW115419   6.627   6.035   6.380
 4840SOL    HW215420   6.711   5.913   6.449
 4841SOL     OW15421   1.861   5.894   1.361
 4841SOL    HW115422   1.768   5.908   1.397
 4841SOL    HW215423   1.899   5.809   1.399
 4842SOL     OW15424   3.317   6.314   0.532
 4842SOL    HW115425   3.295   6.407   0.502
 4842SOL    HW215426   3.380   6.319   0.609
 4843SOL     OW15427   1.650   4.068   0.224
 4843SOL    HW115428   1.726   4.084   0.287
 4843SOL    HW215429   1.571   4.123   0.253
 4844SOL     OW15430   0.469   1.605   5.343
 4844SOL    HW115431   0.452   1.629   5.247
 4844SOL    HW215432   0.382   1.598   5.391
 4845SOL     OW15433   5.208   6.435   3.173
 4845SOL    HW115434   5.172   6.473   3.088
 4845SOL    HW215435   5.141   6.447   3.247
 4846SOL     OW15436   6.905   4.994   6.334
 4846SOL    HW115437   6.806   4.980   6.327
 4846SOL    HW215438   6.951   4.905   6.332
 4847SOL     OW15439   4.630   2.567   4.424
 4847SOL    HW115440   4.680   2.588   4.508
 4847SOL    HW215441   4.694   2.558   4.348
 4848SOL     OW15442   2.682   3.089   1.502
 4848SOL    HW115443   2.681   3.185   1.474
 4848SOL    HW215444   2.722   3.034   1.428
 4849SOL     OW15445   2.058   6.316   6.386
 4849SOL    HW115446   1.989   6.249   6.414
 4849SOL    HW215447   2.132   6.318   6.453
 4850SOL     OW15448   3.255   6.618   2.549
 4850SOL    HW115449   3.315   6.698   2.555
 4850SOL    HW215450   3.210   6.618   2.460
 4851SOL     OW15451   5.098   1.082   5.849
 4851SOL    HW115452   5.105   1.011   5.919
 4851SOL    HW215453   5.005   1.085   5.813
 4852SOL     OW15454   1.768   2.009   1.390
 4852SOL    HW115455   1.799   1.984   1.298
 4852SOL    HW215456   1.825   2.084   1.425
 4853SOL     OW15457   3.880   1.448   1.539
 4853SOL    HW115458   3.782   1.426   1.530
 4853SOL    HW215459   3.890   1.533   1.592
 4854SOL     OW15460   4.009   0.022   5.952
 4854SOL    HW115461   4.008   0.072   5.865
 4854SOL    HW215462   3.938   0.057   6.012
 4855SOL     OW15463   0.325   2.735   2.499
 4855SOL    HW115464   0.263   2.669   2.540
 4855SOL    HW215465   0.330   2.817   2.556
 4856SOL     OW15466   0.239   4.436   2.306
 4856SOL    HW115467   0.247   4.339   2.328
 4856SOL    HW215468   0.197   4.485   2.383
 4857SOL     OW15469   0.210   1.059   5.471
 4857SOL    HW115470   0.277   1.069   5.398
 4857SOL    HW215471   0.122   1.096   5.441
 4858SOL     OW15472   1.501   0.325   4.179
 4858SOL    HW115473   1.506   0.265   4.099
 4858SOL    HW215474   1.452   0.408   4.156
 4859SOL     OW15475   3.476   6.162   5.996
 4859SOL    HW115476   3.399   6.220   6.023
 4859SOL    HW215477   3.442   6.087   5.938
 4860SOL     OW15478   3.378   4.878   0.326
 4860SOL    HW115479   3.312   4.863   0.253
 4860SOL    HW215480   3.365   4.810   0.398
 4861SOL     OW15481   4.081   4.162   6.587
 4861SOL    HW115482   4.132   4.170   6.673
 4861SOL    HW215483   3.989   4.126   6.606
 4862SOL     OW15484   2.042   0.121   0.582
 4862SOL    HW115485   2.108   0.146   0.652
 4862SOL    HW215486   2.031   0.197   0.518
 4863SOL     OW15487   5.181   4.121   5.911
 4863SOL    HW115488   5.168   4.207   5.860
 4863SOL    HW215489   5.225   4.054   5.852
 4864SOL     OW15490   3.493   1.318   4.227
 4864SOL    HW115491   3.592   1.330   4.233
 4864SOL    HW215492   3.456   1.376   4.155
 4865SOL     OW15493   1.482   6.172   5.591
 4865SOL    HW115494   1.507   6.081   5.558
 4865SOL    HW215495   1.555   6.208   5.649
 4866SOL     OW15496   0.105   4.323   5.819
 4866SOL    HW115497   0.042   4.397   5.843
 4866SOL    HW215498   0.179   4.319   5.886
 4867SOL     OW15499   3.961   1.129   3.404
 4867SOL    HW115500   4.019   1.058   3.363
 4867SOL    HW215501   3.878   1.140   3.350
 4868SOL     OW15502   0.370   5.180   0.652
 4868SOL    HW115503   0.414   5.206   0.738
 4868SOL    HW215504   0.436   5.188   0.577
 4869SOL     OW15505   0.190   1.489   0.879
 4869SOL    HW115506   0.254   1.565   0.892
 4869SOL    HW215507   0.097   1.519   0.900
 4870SOL     OW15508   0.343   7.015   1.241
 4870SOL    HW115509   0.442   0.005   1.229
 4870SOL    HW215510   0.303   0.087   1.253
 4871SOL     OW15511   0.628   1.760   3.170
 4871SOL    HW115512   0.611   1.838   3.230
 4871SOL    HW215513   0.703   1.705   3.208
 4872SOL     OW15514   5.366   0.046   2.909
 4872SOL    HW115515   5.367   0.132   2.960
 4872SOL    HW215516   5.457   0.005   2.910
 4873SOL     OW15517   0.097   5.773   3.593
 4873SOL    HW115518   0.023   5.706   3.601
 4873SOL    HW215519   0.182   5.732   3.627
 4874SOL     OW15520   5.801   4.316   2.039
 4874SOL    HW115521   5.862   4.255   1.991
 4874SOL    HW215522   5.803   4.296   2.137
 4875SOL     OW15523   6.012   7.005   4.582
 4875SOL    HW115524   5.988   6.930   4.521
 4875SOL    HW215525   6.109   7.001   4.603
 4876SOL     OW15526   6.632   1.516   2.561
 4876SOL    HW115527   6.579   1.440   2.600
 4876SOL    HW215528   6.722   1.518   2.603
 4877SOL     OW15529   0.315   1.530   6.714
 4877SOL    HW115530   0.304   1.591   6.635
 4877SOL    HW215531   0.227   1.518   6.760
 4878SOL     OW15532   6.291   4.450   3.348
 4878SOL    HW115533   6.295   4.370   3.288
 4878SOL    HW215534   6.236   4.428   3.429
 4879SOL     OW15535   5.171   0.518   3.054
 4879SOL    HW115536   5.240   0.446   3.045
 4879SOL    HW215537   5.215   0.604   3.080
 4880SOL     OW15538   0.150   3.088   6.528
 4880SOL    HW115539   0.082   3.099   6.456
 4880SOL    HW215540   0.104   3.079   6.616
 4881SOL     OW15541   0.162   3.683   1.935
 4881SOL    HW115542   0.092   3.695   2.005
 4881SOL    HW215543   0.135   3.610   1.872
 4882SOL     OW15544   5.432   2.014   4.353
 4882SOL    HW115545   5.361   2.042   4.288
 4882SOL    HW215546   5.501   1.959   4.305
 4883SOL     OW15547   6.709   4.215   6.925
 4883SOL    HW115548   6.766   4.257   6.996
 4883SOL    HW215549   6.630   4.172   6.968
 4884SOL     OW15550   2.108   2.062   1.802
 4884SOL    HW115551   2.106   1.989   1.735
 4884SOL    HW215552   2.168   2.136   1.769
 4885SOL     OW15553   1.071   4.997   6.587
 4885SOL    HW115554   1.148   4.933   6.593
 4885SOL    HW215555   1.107   5.091   6.584
 4886SOL     OW15556   2.825   0.833   2.319
 4886SOL    HW115557   2.783   0.743   2.307
 4886SOL    HW215558   2.823   0.859   2.416
 4887SOL     OW15559   4.651   5.329   0.491
 4887SOL    HW115560   4.618   5.415   0.530
 4887SOL    HW215561   4.689   5.345   0.401
 4888SOL     OW15562   4.693   0.869   2.683
 4888SOL    HW115563   4.716   0.774   2.661
 4888SOL    HW215564   4.649   0.873   2.773
 4889SOL     OW15565   5.677   3.488   4.029
 4889SOL    HW115566   5.658   3.576   4.073
 4889SOL    HW215567   5.750   3.500   3.961
 4890SOL     OW15568   6.495   2.097   4.723
 4890SOL    HW115569   6.548   2.099   4.807
 4890SOL    HW215570   6.408   2.145   4.737
 4891SOL     OW15571   2.453   6.200   0.403
 4891SOL    HW115572   2.506   6.285   0.402
 4891SOL    HW215573   2.357   6.220   0.423
 4892SOL     OW15574   5.380   4.937   2.001
 4892SOL    HW115575   5.293   4.899   2.033
 4892SOL    HW215576   5.429   4.977   2.078
 4893SOL     OW15577   1.539   2.761   1.643
 4893SOL    HW115578   1.598   2.680   1.645
 4893SOL    HW215579   1.476   2.759   1.721
 4894SOL     OW15580   4.944   5.949   0.627
 4894SOL    HW115581   4.923   6.007   0.706
 4894SOL    HW215582   4.943   6.004   0.544
 4895SOL     OW15583   6.270   3.567   5.044
 4895SOL    HW115584   6.205   3.618   4.989
 4895SOL    HW215585   6.242   3.471   5.049
 4896SOL     OW15586   2.530   5.268   4.647
 4896SOL    HW115587   2.555   5.171   4.651
 4896SOL    HW215588   2.593   5.315   4.586
 4897SOL     OW15589   2.014   1.582   5.400
 4897SOL    HW115590   2.111   1.577   5.377
 4897SOL    HW215591   1.960   1.541   5.327
 4898SOL     OW15592   4.169   1.945   3.780
 4898SOL    HW115593   4.190   2.039   3.807
 4898SOL    HW215594   4.237   1.883   3.818
 4899SOL     OW15595   6.654   6.518   1.516
 4899SOL    HW115596   6.688   6.452   1.449
 4899SOL    HW215597   6.566   6.554   1.484
 4900SOL     OW15598   3.425   5.827   6.258
 4900SOL    HW115599   3.397   5.780   6.174
 4900SOL    HW215600   3.515   5.793   6.286
 4901SOL     OW15601   2.209   0.477   0.248
 4901SOL    HW115602   2.239   0.456   0.154
 4901SOL    HW215603   2.231   0.572   0.269
 4902SOL     OW15604   2.289   0.153   5.309
 4902SOL    HW115605   2.309   0.116   5.218
 4902SOL    HW215606   2.282   0.078   5.375
 4903SOL     OW15607   4.778   4.061   2.377
 4903SOL    HW115608   4.696   4.113   2.401
 4903SOL    HW215609   4.826   4.108   2.303
 4904SOL     OW15610   1.846   0.935   2.259
 4904SOL    HW115611   1.779   0.954   2.330
 4904SOL    HW215612   1.871   1.019   2.212
 4905SOL     OW15613   2.840   1.267   2.225
 4905SOL    HW115614   2.774   1.277   2.299
 4905SOL    HW215615   2.824   1.339   2.157
 4906SOL     OW15616   5.294   3.096   4.640
 4906SOL    HW115617   5.323   3.145   4.722
 4906SOL    HW215618   5.279   3.162   4.566
 4907SOL     OW15619   3.415   2.375   0.896
 4907SOL    HW115620   3.331   2.332   0.864
 4907SOL    HW215621   3.469   2.405   0.817
 4908SOL     OW15622   3.155   6.628   6.360
 4908SOL    HW115623   3.219   6.645   6.434
 4908SOL    HW215624   3.193   6.662   6.274
 4909SOL     OW15625   5.241   5.376   4.608
 4909SOL    HW115626   5.218   5.336   4.697
 4909SOL    HW215627   5.306   5.450   4.620
 4910SOL     OW15628   4.591   1.707   6.933
 4910SOL    HW115629   4.516   1.723   6.869
 4910SOL    HW215630   4.576   1.760   7.017
 4911SOL     OW15631   6.734   4.433   3.456
 4911SOL    HW115632   6.777   4.447   3.367
 4911SOL    HW215633   6.719   4.335   3.470
 4912SOL     OW15634   5.707   2.652   3.893
 4912SOL    HW115635   5.754   2.564   3.887
 4912SOL    HW215636   5.619   2.639   3.939
 4913SOL     OW15637   0.922   3.640   5.239
 4913SOL    HW115638   0.839   3.695   5.249
 4913SOL    HW215639   0.897   3.548   5.209
 4914SOL     OW15640   3.487   6.931   3.855
 4914SOL    HW115641   3.394   6.930   3.892
 4914SOL    HW215642   3.521   6.837   3.847
 4915SOL     OW15643   4.003   6.056   5.471
 4915SOL    HW115644   4.050   5.978   5.512
 4915SOL    HW215645   3.921   6.077   5.524
 4916SOL     OW15646   5.509   2.279   3.519
 4916SOL    HW115647   5.463   2.324   3.442
 4916SOL    HW215648   5.488   2.328   3.604
 4917SOL     OW15649   4.275   6.467   6.624
 4917SOL    HW115650   4.337   6.514   6.687
 4917SOL    HW215651   4.291   6.369   6.630
 4918SOL     OW15652   5.413   6.101   3.858
 4918SOL    HW115653   5.493   6.160   3.861
 4918SOL    HW215654   5.435   6.011   3.897
 4919SOL     OW15655   3.941   3.997   2.243
 4919SOL    HW115656   4.011   4.069   2.251
 4919SOL    HW215657   3.851   4.037   2.260
 4920SOL     OW15658   6.613   0.882   5.778
 4920SOL    HW115659   6.540   0.824   5.741
 4920SOL    HW215660   6.613   0.970   5.731
 4921SOL     OW15661   6.489   0.170   2.316
 4921SOL    HW115662   6.508   0.097   2.381
 4921SOL    HW215663   6.575   0.198   2.272
 4922SOL     OW15664   3.887   0.784   6.273
 4922SOL    HW115665   3.809   0.732   6.240
 4922SOL    HW215666   3.856   0.853   6.339
 4923SOL     OW15667   4.287   1.402   1.822
 4923SOL    HW115668   4.340   1.433   1.901
 4923SOL    HW215669   4.350   1.374   1.750
 4924SOL     OW15670   2.976   1.551   5.011
 4924SOL    HW115671   2.991   1.615   5.087
 4924SOL    HW215672   3.058   1.497   4.995
 4925SOL     OW15673   4.447   6.922   4.068
 4925SOL    HW115674   4.419   6.893   3.977
 4925SOL    HW215675   4.496   6.847   4.113
 4926SOL     OW15676   4.752   2.486   1.719
 4926SOL    HW115677   4.781   2.439   1.635
 4926SOL    HW215678   4.752   2.422   1.795
 4927SOL     OW15679   2.229   0.745   0.262
 4927SOL    HW115680   2.165   0.750   0.186
 4927SOL    HW215681   2.225   0.830   0.314
 4928SOL     OW15682   0.448   1.358   1.370
 4928SOL    HW115683   0.444   1.400   1.279
 4928SOL    HW215684   0.492   1.269   1.363
 4929SOL     OW15685   6.547   6.927   4.888
 4929SOL    HW115686   6.628   6.982   4.906
 4929SOL    HW215687   6.566   6.865   4.812
 4930SOL     OW15688   4.220   6.001   3.044
 4930SOL    HW115689   4.172   6.055   3.113
 4930SOL    HW215690   4.314   5.985   3.074
 4931SOL     OW15691   5.946   0.279   1.542
 4931SOL    HW115692   5.904   0.275   1.633
 4931SOL    HW215693   5.975   0.188   1.514
 4932SOL     OW15694   3.699   4.049   3.271
 4932SOL    HW115695   3.616   3.994   3.280
 4932SOL    HW215696   3.682   4.123   3.206
 4933SOL     OW15697   1.594   6.662   5.001
 4933SOL    HW115698   1.633   6.600   5.069
 4933SOL    HW215699   1.560   6.608   4.924
 4934SOL     OW15700   2.653   0.093   2.958
 4934SOL    HW115701   2.558   0.075   2.982
 4934SOL    HW215702   2.693   0.010   2.918
 4935SOL     OW15703   5.868   6.934   5.061
 4935SOL    HW115704   5.957   6.958   5.022
 4935SOL    HW215705   5.803   7.008   5.043
 4936SOL     OW15706   4.434   3.289   0.300
 4936SOL    HW115707   4.383   3.207   0.326
 4936SOL    HW215708   4.431   3.301   0.201
 4937SOL     OW15709   3.729   2.671   5.268
 4937SOL    HW115710   3.633   2.655   5.289
 4937SOL    HW215711   3.737   2.703   5.174
 4938SOL     OW15712   3.043   4.583   0.330
 4938SOL    HW115713   3.031   4.677   0.296
 4938SOL    HW215714   2.953   4.539   0.335
 4939SOL     OW15715   4.596   3.481   6.485
 4939SOL    HW115716   4.555   3.466   6.395
 4939SOL    HW215717   4.664   3.555   6.477
 4940SOL     OW15718   1.488   5.889   3.857
 4940SOL    HW115719   1.538   5.835   3.789
 4940SOL    HW215720   1.394   5.856   3.864
 4941SOL     OW15721   5.899   1.155   1.477
 4941SOL    HW115722   5.901   1.184   1.572
 4941SOL    HW215723   5.821   1.094   1.462
 4942SOL     OW15724   5.221   2.219   5.704
 4942SOL    HW115725   5.209   2.147   5.635
 4942SOL    HW215726   5.157   2.203   5.779
 4943SOL     OW15727   5.986   2.907   1.390
 4943SOL    HW115728   5.942   2.909   1.480
 4943SOL    HW215729   5.923   2.869   1.323
 4944SOL     OW15730   1.764   3.371   2.027
 4944SOL    HW115731   1.730   3.284   1.990
 4944SOL    HW215732   1.850   3.355   2.075
 4945SOL     OW15733   7.001   6.116   4.423
 4945SOL    HW115734   0.048   6.098   4.495
 4945SOL    HW215735   0.005   6.064   4.341
 4946SOL     OW15736   0.121   4.380   1.659
 4946SOL    HW115737   0.132   4.365   1.757
 4946SOL    HW215738   0.202   4.346   1.611
 4947SOL     OW15739   6.114   0.724   0.926
 4947SOL    HW115740   6.106   0.736   0.827
 4947SOL    HW215741   6.023   0.727   0.968
 4948SOL     OW15742   2.265   1.519   2.142
 4948SOL    HW115743   2.203   1.577   2.088
 4948SOL    HW215744   2.272   1.429   2.099
 4949SOL     OW15745   5.363   2.065   5.345
 4949SOL    HW115746   5.437   2.000   5.329
 4949SOL    HW215747   5.388   2.154   5.308
 4950SOL     OW15748   3.307   5.534   4.176
 4950SOL    HW115749   3.385   5.597   4.179
 4950SOL    HW215750   3.320   5.467   4.104
 4951SOL     OW15751   4.395   2.397   3.612
 4951SOL    HW115752   4.310   2.346   3.605
 4951SOL    HW215753   4.403   2.436   3.704
 4952SOL     OW15754   6.708   4.326   4.208
 4952SOL    HW115755   6.694   4.424   4.194
 4952SOL    HW215756   6.806   4.305   4.206
 4953SOL     OW15757   1.076   4.614   2.105
 4953SOL    HW115758   1.140   4.682   2.141
 4953SOL    HW215759   1.127   4.539   2.063
 4954SOL     OW15760   6.775   6.316   6.288
 4954SOL    HW115761   6.700   6.329   6.223
 4954SOL    HW215762   6.803   6.220   6.286
 4955SOL     OW15763   1.813   0.199   1.671
 4955SOL    HW115764   1.880   0.271   1.684
 4955SOL    HW215765   1.849   0.130   1.609
 4956SOL     OW15766   5.972   6.544   3.482
 4956SOL    HW115767   5.989   6.621   3.543
 4956SOL    HW215768   5.964   6.577   3.388
 4957SOL     OW15769   1.145   5.637   4.232
 4957SOL    HW115770   1.228   5.681   4.198
 4957SOL    HW215771   1.075   5.706   4.250
 4958SOL     OW15772   6.833   6.825   0.026
 4958SOL    HW115773   6.920   6.869   0.003
 4958SOL    HW215774   6.783   6.883   0.090
 4959SOL     OW15775   0.591   2.249   0.355
 4959SOL    HW115776   0.644   2.328   0.389
 4959SOL    HW215777   0.647   2.197   0.291
 4960SOL     OW15778   3.352   0.242   5.617
 4960SOL    HW115779   3.275   0.252   5.680
 4960SOL    HW215780   3.318   0.245   5.523
 4961SOL     OW15781   4.927   0.320   5.107
 4961SOL    HW115782   4.868   0.331   5.027
 4961SOL    HW215783   4.881   0.357   5.187
 4962SOL     OW15784   6.438   2.209   2.208
 4962SOL    HW115785   6.368   2.182   2.143
 4962SOL    HW215786   6.396   2.257   2.285
 4963SOL     OW15787   0.718   4.064   1.318
 4963SOL    HW115788   0.637   4.080   1.261
 4963SOL    HW215789   0.793   4.029   1.262
 4964SOL     OW15790   2.880   6.580   2.905
 4964SOL    HW115791   2.929   6.520   2.842
 4964SOL    HW215792   2.908   6.561   2.998
 4965SOL     OW15793   0.040   5.963   5.506
 4965SOL    HW115794   0.026   5.867   5.531
 4965SOL    HW215795   0.119   5.999   5.556
 4966SOL     OW15796   5.111   5.561   5.355
 4966SOL    HW115797   5.196   5.613   5.367
 4966SOL    HW215798   5.132   5.471   5.318
 4967SOL     OW15799   5.686   0.903   6.555
 4967SOL    HW115800   5.730   0.821   6.594
 4967SOL    HW215801   5.588   0.888   6.548
 4968SOL     OW15802   5.426   3.924   6.422
 4968SOL    HW115803   5.466   3.833   6.430
 4968SOL    HW215804   5.491   3.992   6.457
 4969SOL     OW15805   1.699   1.310   1.319
 4969SOL    HW115806   1.687   1.342   1.413
 4969SOL    HW215807   1.781   1.253   1.314
 4970SOL     OW15808   1.794   2.066   6.544
 4970SOL    HW115809   1.793   2.141   6.478
 4970SOL    HW215810   1.885   2.058   6.584
 4971SOL     OW15811   6.481   5.616   3.717
 4971SOL    HW115812   6.390   5.647   3.689
 4971SOL    HW215813   6.522   5.563   3.643
 4972SOL     OW15814   1.548   2.134   4.655
 4972SOL    HW115815   1.529   2.196   4.731
 4972SOL    HW215816   1.643   2.103   4.660
 4973SOL     OW15817   4.800   5.928   3.197
 4973SOL    HW115818   4.786   5.963   3.104
 4973SOL    HW215819   4.892   5.890   3.204
 4974SOL     OW15820   3.782   6.434   6.068
 4974SOL    HW115821   3.874   6.404   6.092
 4974SOL    HW215822   3.715   6.385   6.123
 4975SOL     OW15823   4.222   6.157   0.437
 4975SOL    HW115824   4.303   6.179   0.493
 4975SOL    HW215825   4.237   6.071   0.389
 4976SOL     OW15826   2.425   0.883   4.926
 4976SOL    HW115827   2.411   0.977   4.958
 4976SOL    HW215828   2.504   0.880   4.864
 4977SOL     OW15829   3.680   3.633   1.528
 4977SOL    HW115830   3.780   3.629   1.536
 4977SOL    HW215831   3.645   3.544   1.499
 4978SOL     OW15832   6.467   4.063   6.479
 4978SOL    HW115833   6.442   3.972   6.447
 4978SOL    HW215834   6.545   4.056   6.541
 4979SOL     OW15835   2.316   2.461   3.620
 4979SOL    HW115836   2.411   2.438   3.600
 4979SOL    HW215837   2.309   2.558   3.642
 4980SOL     OW15838   2.262   4.833   3.302
 4980SOL    HW115839   2.324   4.827   3.224
 4980SOL    HW215840   2.168   4.822   3.270
 4981SOL     OW15841   5.364   5.675   5.396
 4981SOL    HW115842   5.414   5.758   5.373
 4981SOL    HW215843   5.403   5.635   5.479
 4982SOL     OW15844   2.534   1.221   6.837
 4982SOL    HW115845   2.624   1.261   6.857
 4982SOL    HW215846   2.477   1.289   6.792
 4983SOL     OW15847   6.800   2.322   4.021
 4983SOL    HW115848   6.831   2.342   3.928
 4983SOL    HW215849   6.700   2.314   4.022
 4984SOL     OW15850   5.247   5.162   3.635
 4984SOL    HW115851   5.224   5.171   3.538
 4984SOL    HW215852   5.171   5.196   3.691
 4985SOL     OW15853   5.764   3.637   2.379
 4985SOL    HW115854   5.694   3.652   2.449
 4985SOL    HW215855   5.721   3.606   2.295
 4986SOL     OW15856   4.538   4.967   3.495
 4986SOL    HW115857   4.598   4.887   3.487
 4986SOL    HW215858   4.443   4.937   3.496
 4987SOL     OW15859   1.236   2.794   0.370
 4987SOL    HW115860   1.291   2.742   0.435
 4987SOL    HW215861   1.241   2.891   0.392
 4988SOL     OW15862   2.351   2.067   4.976
 4988SOL    HW115863   2.412   2.094   5.051
 4988SOL    HW215864   2.256   2.083   5.002
 4989SOL     OW15865   0.330   0.880   0.784
 4989SOL    HW115866   0.298   0.872   0.878
 4989SOL    HW215867   0.389   0.960   0.775
 4990SOL     OW15868   1.612   2.153   0.064
 4990SOL    HW115869   1.685   2.175   0.128
 4990SOL    HW215870   1.601   2.053   0.058
 4991SOL     OW15871   2.795   1.782   5.600
 4991SOL    HW115872   2.790   1.682   5.596
 4991SOL    HW215873   2.737   1.816   5.673
 4992SOL     OW15874   4.046   0.039   4.898
 4992SOL    HW115875   4.099   0.121   4.919
 4992SOL    HW215876   3.991   0.054   4.816
 4993SOL     OW15877   1.529   6.524   4.785
 4993SOL    HW115878   1.594   6.451   4.767
 4993SOL    HW215879   1.492   6.557   4.698
 4994SOL     OW15880   0.346   6.020   2.993
 4994SOL    HW115881   0.264   5.969   2.969
 4994SOL    HW215882   0.407   6.025   2.913
 4995SOL     OW15883   5.490   2.833   5.303
 4995SOL    HW115884   5.499   2.807   5.207
 4995SOL    HW215885   5.487   2.750   5.359
 4996SOL     OW15886   0.408   1.830   3.769
 4996SOL    HW115887   0.355   1.819   3.685
 4996SOL    HW215888   0.348   1.821   3.849
 4997SOL     OW15889   6.967   2.533   4.106
 4997SOL    HW115890   6.882   2.482   4.099
 4997SOL    HW215891   0.013   2.498   4.039
 4998SOL     OW15892   1.061   5.828   5.921
 4998SOL    HW115893   1.051   5.886   5.840
 4998SOL    HW215894   1.153   5.791   5.925
 4999SOL     OW15895   5.854   4.778   1.019
 4999SOL    HW115896   5.764   4.786   1.062
 4999SOL    HW215897   5.919   4.837   1.067
 5000SOL     OW15898   6.428   5.353   4.248
 5000SOL    HW115899   6.409   5.335   4.345
 5000SOL    HW215900   6.388   5.441   4.222
 5001SOL     OW15901   4.861   3.452   5.323
 5001SOL    HW115902   4.797   3.377   5.342
 5001SOL    HW215903   4.949   3.414   5.292
 5002SOL     OW15904   1.505   2.440   1.690
 5002SOL    HW115905   1.569   2.392   1.750
 5002SOL    HW215906   1.482   2.382   1.612
 5003SOL     OW15907   6.533   5.526   4.597
 5003SOL    HW115908   6.613   5.467   4.603
 5003SOL    HW215909   6.455   5.474   4.562
 5004SOL     OW15910   1.890   3.941   5.989
 5004SOL    HW115911   1.886   4.023   5.932
 5004SOL    HW215912   1.887   3.967   6.086
 5005SOL     OW15913   4.874   2.395   0.213
 5005SOL    HW115914   4.889   2.318   0.275
 5005SOL    HW215915   4.795   2.449   0.244
 5006SOL     OW15916   4.977   4.928   2.425
 5006SOL    HW115917   4.957   4.998   2.493
 5006SOL    HW215918   5.013   4.846   2.470
 5007SOL     OW15919   4.292   1.183   4.781
 5007SOL    HW115920   4.333   1.210   4.694
 5007SOL    HW215921   4.337   1.100   4.815
 5008SOL     OW15922   6.461   1.783   4.154
 5008SOL    HW115923   6.522   1.806   4.230
 5008SOL    HW215924   6.433   1.687   4.161
 5009SOL     OW15925   2.953   6.446   1.772
 5009SOL    HW115926   2.864   6.491   1.760
 5009SOL    HW215927   3.026   6.511   1.751
 5010SOL     OW15928   3.321   3.156   6.116
 5010SOL    HW115929   3.411   3.134   6.079
 5010SOL    HW215930   3.284   3.077   6.164
 5011SOL     OW15931   1.514   1.340   4.013
 5011SOL    HW115932   1.589   1.402   3.991
 5011SOL    HW215933   1.468   1.372   4.096
 5012SOL     OW15934   6.417   2.426   0.084
 5012SOL    HW115935   6.385   2.489   0.156
 5012SOL    HW215936   6.382   2.457   7.015
 5013SOL     OW15937   5.068   1.581   5.302
 5013SOL    HW115938   5.000   1.650   5.276
 5013SOL    HW215939   5.142   1.625   5.354
 5014SOL     OW15940   6.800   4.584   0.007
 5014SOL    HW115941   6.706   4.617   0.019
 5014SOL    HW215942   6.834   4.613   6.937
 5015SOL     OW15943   5.217   1.805   3.791
 5015SOL    HW115944   5.186   1.712   3.809
 5015SOL    HW215945   5.300   1.824   3.843
 5016SOL     OW15946   2.602   5.780   1.655
 5016SOL    HW115947   2.557   5.759   1.568
 5016SOL    HW215948   2.640   5.873   1.652
 5017SOL     OW15949   0.623   2.177   1.567
 5017SOL    HW115950   0.583   2.092   1.532
 5017SOL    HW215951   0.627   2.174   1.667
 5018SOL     OW15952   6.476   5.184   4.037
 5018SOL    HW115953   6.465   5.236   4.122
 5018SOL    HW215954   6.395   5.197   3.979
 5019SOL     OW15955   2.775   5.623   4.859
 5019SOL    HW115956   2.830   5.670   4.929
 5019SOL    HW215957   2.782   5.524   4.872
 5020SOL     OW15958   4.657   5.034   6.983
 5020SOL    HW115959   4.694   5.100   0.029
 5020SOL    HW215960   4.732   4.985   6.939
 5021SOL     OW15961   2.117   5.093   5.896
 5021SOL    HW115962   2.193   5.107   5.959
 5021SOL    HW215963   2.032   5.125   5.938
 5022SOL     OW15964   1.838   3.460   6.973
 5022SOL    HW115965   1.871   3.378   0.001
 5022SOL    HW215966   1.908   3.532   6.979
 5023SOL     OW15967   6.989   2.849   4.315
 5023SOL    HW115968   0.015   2.778   4.370
 5023SOL    HW215969   6.916   2.891   4.369
 5024SOL     OW15970   4.886   3.886   5.126
 5024SOL    HW115971   4.971   3.918   5.168
 5024SOL    HW215972   4.902   3.860   5.031
 5025SOL     OW15973   5.509   0.799   4.843
 5025SOL    HW115974   5.511   0.884   4.897
 5025SOL    HW215975   5.600   0.758   4.842
 5026SOL     OW15976   1.177   5.546   2.837
 5026SOL    HW115977   1.216   5.620   2.782
 5026SOL    HW215978   1.150   5.583   2.927
 5027SOL     OW15979   1.042   5.505   3.498
 5027SOL    HW115980   1.138   5.511   3.525
 5027SOL    HW215981   0.996   5.435   3.552
 5028SOL     OW15982   1.068   6.172   2.918
 5028SOL    HW115983   1.018   6.221   2.990
 5028SOL    HW215984   1.006   6.111   2.870
 5029SOL     OW15985   5.570   0.725   4.600
 5029SOL    HW115986   5.509   0.678   4.536
 5029SOL    HW215987   5.530   0.725   4.691
 5030SOL     OW15988   1.368   6.008   0.567
 5030SOL    HW115989   1.293   6.004   0.502
 5030SOL    HW215990   1.431   6.081   0.542
 5031SOL     OW15991   5.413   0.275   0.229
 5031SOL    HW115992   5.485   0.319   0.283
 5031SOL    HW215993   5.443   0.267   0.134
 5032SOL     OW15994   1.675   5.126   2.327
 5032SOL    HW115995   1.663   5.107   2.230
 5032SOL    HW215996   1.731   5.208   2.339
 5033SOL     OW15997   0.587   4.543   4.726
 5033SOL    HW115998   0.499   4.519   4.686
 5033SOL    HW215999   0.573   4.588   4.814
 5034SOL     OW16000   0.718   3.076   5.954
 5034SOL    HW116001   0.679   2.992   5.993
 5034SOL    HW216002   0.757   3.131   6.028
 5035SOL     OW16003   6.496   4.426   1.320
 5035SOL    HW116004   6.586   4.394   1.349
 5035SOL    HW216005   6.438   4.437   1.401
 5036SOL     OW16006   1.485   1.976   2.934
 5036SOL    HW116007   1.534   2.020   3.009
 5036SOL    HW216008   1.530   1.890   2.911
 5037SOL     OW16009   4.987   4.532   1.658
 5037SOL    HW116010   4.894   4.495   1.660
 5037SOL    HW216011   5.053   4.457   1.662
 5038SOL     OW16012   3.250   5.827   5.626
 5038SOL    HW116013   3.298   5.889   5.563
 5038SOL    HW216014   3.249   5.735   5.588
 5039SOL     OW16015   1.201   2.559   3.843
 5039SOL    HW116016   1.242   2.595   3.758
 5039SOL    HW216017   1.134   2.624   3.877
 5040SOL     OW16018   2.544   3.469   5.923
 5040SOL    HW116019   2.531   3.546   5.860
 5040SOL    HW216020   2.461   3.456   5.976
 5041SOL     OW16021   0.450   5.526   0.355
 5041SOL    HW116022   0.381   5.463   0.388
 5041SOL    HW216023   0.409   5.587   0.287
 5042SOL     OW16024   6.228   1.318   6.182
 5042SOL    HW116025   6.262   1.407   6.151
 5042SOL    HW216026   6.299   1.249   6.171
 5043SOL     OW16027   5.623   5.667   3.659
 5043SOL    HW116028   5.578   5.581   3.682
 5043SOL    HW216029   5.625   5.678   3.560
 5044SOL     OW16030   6.315   3.951   1.803
 5044SOL    HW116031   6.259   4.024   1.763
 5044SOL    HW216032   6.375   3.989   1.873
 5045SOL     OW16033   4.849   2.874   5.372
 5045SOL    HW116034   4.756   2.871   5.333
 5045SOL    HW216035   4.882   2.968   5.372
 5046SOL     OW16036   4.295   2.693   5.884
 5046SOL    HW116037   4.246   2.677   5.969
 5046SOL    HW216038   4.232   2.728   5.815
 5047SOL     OW16039   0.491   2.030   2.482
 5047SOL    HW116040   0.508   2.053   2.578
 5047SOL    HW216041   0.490   2.114   2.427
 5048SOL     OW16042   6.041   3.678   0.816
 5048SOL    HW116043   6.083   3.730   0.742
 5048SOL    HW216044   6.000   3.595   0.780
 5049SOL     OW16045   0.844   1.098   1.316
 5049SOL    HW116046   0.861   1.020   1.256
 5049SOL    HW216047   0.752   1.134   1.299
 5050SOL     OW16048   1.746   4.284   0.554
 5050SOL    HW116049   1.798   4.214   0.504
 5050SOL    HW216050   1.725   4.360   0.493
 5051SOL     OW16051   2.531   3.751   6.339
 5051SOL    HW116052   2.451   3.735   6.280
 5051SOL    HW216053   2.590   3.820   6.297
 5052SOL     OW16054   5.819   2.755   1.148
 5052SOL    HW116055   5.747   2.765   1.217
 5052SOL    HW216056   5.892   2.697   1.185
 5053SOL     OW16057   1.148   3.832   1.373
 5053SOL    HW116058   1.244   3.817   1.347
 5053SOL    HW216059   1.145   3.884   1.458
 5054SOL     OW16060   3.745   5.896   5.030
 5054SOL    HW116061   3.683   5.878   4.953
 5054SOL    HW216062   3.752   5.995   5.044
 5055SOL     OW16063   0.589   0.523   3.714
 5055SOL    HW116064   0.610   0.438   3.763
 5055SOL    HW216065   0.551   0.590   3.778
 5056SOL     OW16066   3.108   1.662   6.072
 5056SOL    HW116067   3.060   1.682   6.157
 5056SOL    HW216068   3.200   1.700   6.076
 5057SOL     OW16069   0.173   4.189   2.471
 5057SOL    HW116070   0.103   4.160   2.406
 5057SOL    HW216071   0.130   4.229   2.552
 5058SOL     OW16072   4.260   1.888   0.103
 5058SOL    HW116073   4.290   1.795   0.082
 5058SOL    HW216074   4.340   1.944   0.127
 5059SOL     OW16075   5.705   2.782   2.391
 5059SOL    HW116076   5.675   2.749   2.302
 5059SOL    HW216077   5.628   2.781   2.455
 5060SOL     OW16078   5.920   2.952   5.398
 5060SOL    HW116079   5.948   2.939   5.303
 5060SOL    HW216080   6.000   2.950   5.458
 5061SOL     OW16081   3.866   2.537   5.441
 5061SOL    HW116082   3.812   2.594   5.379
 5061SOL    HW216083   3.810   2.461   5.474
 5062SOL     OW16084   5.647   1.028   3.285
 5062SOL    HW116085   5.597   0.966   3.346
 5062SOL    HW216086   5.714   0.975   3.232
 5063SOL     OW16087   0.786   1.643   0.759
 5063SOL    HW116088   0.874   1.624   0.715
 5063SOL    HW216089   0.796   1.638   0.858
 5064SOL     OW16090   6.368   4.905   0.798
 5064SOL    HW116091   6.403   4.875   0.710
 5064SOL    HW216092   6.268   4.906   0.796
 5065SOL     OW16093   2.003   2.186   2.602
 5065SOL    HW116094   2.049   2.239   2.531
 5065SOL    HW216095   2.051   2.100   2.616
 5066SOL     OW16096   1.278   4.701   4.077
 5066SOL    HW116097   1.189   4.690   4.122
 5066SOL    HW216098   1.328   4.776   4.121
 5067SOL     OW16099   4.994   2.838   0.843
 5067SOL    HW116100   4.973   2.771   0.914
 5067SOL    HW216101   5.040   2.917   0.883
 5068SOL     OW16102   1.603   0.242   1.158
 5068SOL    HW116103   1.532   0.207   1.097
 5068SOL    HW216104   1.627   0.171   1.225
 5069SOL     OW16105   4.014   4.387   6.163
 5069SOL    HW116106   4.013   4.335   6.077
 5069SOL    HW216107   3.924   4.381   6.206
 5070SOL     OW16108   0.035   3.446   6.529
 5070SOL    HW116109   0.023   3.417   6.434
 5070SOL    HW216110   0.129   3.477   6.542
 5071SOL     OW16111   2.161   6.743   2.423
 5071SOL    HW116112   2.156   6.675   2.496
 5071SOL    HW216113   2.085   6.807   2.432
 5072SOL     OW16114   0.778   2.003   2.584
 5072SOL    HW116115   0.720   1.925   2.608
 5072SOL    HW216116   0.870   1.970   2.565
 5073SOL     OW16117   1.672   1.154   3.572
 5073SOL    HW116118   1.598   1.157   3.639
 5073SOL    HW216119   1.758   1.134   3.619
 5074SOL     OW16120   3.674   1.956   1.346
 5074SOL    HW116121   3.754   2.015   1.328
 5074SOL    HW216122   3.694   1.896   1.423
 5075SOL     OW16123   6.480   2.141   0.040
 5075SOL    HW116124   6.426   2.225   0.035
 5075SOL    HW216125   6.434   2.069   7.008
 5076SOL     OW16126   0.289   1.330   5.968
 5076SOL    HW116127   0.366   1.380   5.929
 5076SOL    HW216128   0.209   1.341   5.908
 5077SOL     OW16129   0.346   4.496   4.636
 5077SOL    HW116130   0.310   4.496   4.543
 5077SOL    HW216131   0.305   4.421   4.688
 5078SOL     OW16132   6.179   2.026   3.049
 5078SOL    HW116133   6.145   2.016   3.142
 5078SOL    HW216134   6.208   2.121   3.034
 5079SOL     OW16135   1.624   3.877   5.540
 5079SOL    HW116136   1.565   3.902   5.617
 5079SOL    HW216137   1.716   3.859   5.574
 5080SOL     OW16138   6.354   5.649   6.972
 5080SOL    HW116139   6.281   5.612   0.011
 5080SOL    HW216140   6.315   5.710   6.903
 5081SOL     OW16141   3.227   4.786   5.452
 5081SOL    HW116142   3.216   4.702   5.506
 5081SOL    HW216143   3.162   4.784   5.375
 5082SOL     OW16144   5.931   0.104   2.820
 5082SOL    HW116145   6.008   0.050   2.787
 5082SOL    HW216146   5.936   0.197   2.782
 5083SOL     OW16147   0.769   0.527   3.382
 5083SOL    HW116148   0.691   0.470   3.354
 5083SOL    HW216149   0.850   0.499   3.331
 5084SOL     OW16150   3.329   5.572   5.520
 5084SOL    HW116151   3.263   5.497   5.507
 5084SOL    HW216152   3.373   5.594   5.433
 5085SOL     OW16153   0.195   3.912   5.799
 5085SOL    HW116154   0.271   3.888   5.738
 5085SOL    HW216155   0.138   3.832   5.815
 5086SOL     OW16156   1.221   4.367   2.352
 5086SOL    HW116157   1.256   4.309   2.425
 5086SOL    HW216158   1.171   4.312   2.286
 5087SOL     OW16159   6.783   5.658   1.793
 5087SOL    HW116160   6.684   5.647   1.783
 5087SOL    HW216161   6.821   5.693   1.707
 5088SOL     OW16162   4.591   4.693   1.806
 5088SOL    HW116163   4.521   4.627   1.779
 5088SOL    HW216164   4.639   4.660   1.888
 5089SOL     OW16165   5.041   6.140   5.403
 5089SOL    HW116166   5.050   6.240   5.409
 5089SOL    HW216167   4.951   6.113   5.437
 5090SOL     OW16168   2.322   6.783   4.053
 5090SOL    HW116169   2.397   6.848   4.066
 5090SOL    HW216170   2.267   6.779   4.136
 5091SOL     OW16171   6.000   5.987   5.959
 5091SOL    HW116172   5.919   5.936   5.986
 5091SOL    HW216173   6.081   5.932   5.976
 5092SOL     OW16174   3.688   2.866   4.550
 5092SOL    HW116175   3.691   2.781   4.602
 5092SOL    HW216176   3.593   2.887   4.525
 5093SOL     OW16177   3.311   2.156   3.601
 5093SOL    HW116178   3.324   2.067   3.558
 5093SOL    HW216179   3.292   2.224   3.530
 5094SOL     OW16180   2.240   5.718   5.106
 5094SOL    HW116181   2.226   5.628   5.148
 5094SOL    HW216182   2.204   5.789   5.167
 5095SOL     OW16183   6.023   1.932   3.577
 5095SOL    HW116184   5.980   1.908   3.664
 5095SOL    HW216185   5.999   2.025   3.552
 5096SOL     OW16186   5.672   2.596   6.173
 5096SOL    HW116187   5.708   2.687   6.151
 5096SOL    HW216188   5.574   2.594   6.151
 5097SOL     OW16189   1.047   0.860   5.721
 5097SOL    HW116190   0.958   0.886   5.760
 5097SOL    HW216191   1.033   0.797   5.644
 5098SOL     OW16192   3.051   1.954   1.234
 5098SOL    HW116193   3.093   1.925   1.321
 5098SOL    HW216194   2.983   2.025   1.252
 5099SOL     OW16195   2.316   5.321   2.387
 5099SOL    HW116196   2.385   5.366   2.445
 5099SOL    HW216197   2.354   5.303   2.297
 5100SOL     OW16198   5.959   3.582   1.181
 5100SOL    HW116199   5.862   3.558   1.172
 5100SOL    HW216200   5.968   3.681   1.186
 5101SOL     OW16201   3.650   1.622   5.295
 5101SOL    HW116202   3.697   1.535   5.279
 5101SOL    HW216203   3.623   1.628   5.391
 5102SOL     OW16204   5.545   4.288   5.381
 5102SOL    HW116205   5.461   4.263   5.334
 5102SOL    HW216206   5.592   4.361   5.330
 5103SOL     OW16207   0.719   0.287   5.667
 5103SOL    HW116208   0.686   0.242   5.749
 5103SOL    HW216209   0.797   0.236   5.630
 5104SOL     OW16210   4.083   3.159   3.624
 5104SOL    HW116211   4.083   3.258   3.609
 5104SOL    HW216212   4.100   3.141   3.721
 5105SOL     OW16213   4.310   3.190   6.891
 5105SOL    HW116214   4.402   3.227   6.881
 5105SOL    HW216215   4.252   3.258   6.936
 5106SOL     OW16216   4.072   1.245   1.581
 5106SOL    HW116217   4.071   1.203   1.671
 5106SOL    HW216218   4.030   1.336   1.586
 5107SOL     OW16219   6.436   4.909   6.668
 5107SOL    HW116220   6.372   4.861   6.608
 5107SOL    HW216221   6.386   4.960   6.737
 5108SOL     OW16222   3.794   4.291   0.930
 5108SOL    HW116223   3.858   4.214   0.935
 5108SOL    HW216224   3.767   4.317   1.023
 5109SOL     OW16225   2.324   2.613   2.163
 5109SOL    HW116226   2.249   2.574   2.216
 5109SOL    HW216227   2.287   2.683   2.101
 5110SOL     OW16228   3.654   6.511   4.588
 5110SOL    HW116229   3.606   6.423   4.583
 5110SOL    HW216230   3.589   6.585   4.572
 5111SOL     OW16231   2.023   5.457   5.930
 5111SOL    HW116232   2.053   5.552   5.918
 5111SOL    HW216233   2.101   5.401   5.958
 5112SOL     OW16234   1.032   4.387   2.572
 5112SOL    HW116235   1.094   4.377   2.494
 5112SOL    HW216236   1.045   4.477   2.614
 5113SOL     OW16237   2.548   4.259   0.992
 5113SOL    HW116238   2.542   4.159   1.002
 5113SOL    HW216239   2.506   4.285   0.905
 5114SOL     OW16240   4.708   4.886   1.532
 5114SOL    HW116241   4.689   4.795   1.569
 5114SOL    HW216242   4.726   4.949   1.608
 5115SOL     OW16243   1.414   4.515   0.252
 5115SOL    HW116244   1.395   4.549   0.344
 5115SOL    HW216245   1.332   4.528   0.195
 5116SOL     OW16246   0.157   6.704   5.933
 5116SOL    HW116247   0.081   6.650   5.969
 5116SOL    HW216248   0.139   6.728   5.838
 5117SOL     OW16249   6.832   3.642   3.809
 5117SOL    HW116250   6.916   3.622   3.759
 5117SOL    HW216251   6.855   3.680   3.899
 5118SOL     OW16252   4.367   4.856   0.279
 5118SOL    HW116253   4.321   4.942   0.301
 5118SOL    HW216254   4.456   4.854   0.325
 5119SOL     OW16255   4.977   1.524   0.731
 5119SOL    HW116256   4.994   1.560   0.823
 5119SOL    HW216257   4.959   1.426   0.736
 5120SOL     OW16258   5.989   6.535   6.141
 5120SOL    HW116259   5.935   6.485   6.209
 5120SOL    HW216260   6.072   6.570   6.183
 5121SOL     OW16261   1.423   3.497   0.313
 5121SOL    HW116262   1.376   3.517   0.227
 5121SOL    HW216263   1.499   3.433   0.296
 5122SOL     OW16264   5.144   5.092   3.321
 5122SOL    HW116265   5.213   5.069   3.253
 5122SOL    HW216266   5.129   5.191   3.321
 5123SOL     OW16267   5.364   2.552   1.551
 5123SOL    HW116268   5.394   2.647   1.559
 5123SOL    HW216269   5.427   2.502   1.492
 5124SOL     OW16270   0.061   5.523   4.460
 5124SOL    HW116271   0.068   5.465   4.541
 5124SOL    HW216272   0.125   5.491   4.390
 5125SOL     OW16273   5.896   2.134   3.782
 5125SOL    HW116274   5.841   2.164   3.704
 5125SOL    HW216275   5.886   2.035   3.793
 5126SOL     OW16276   1.871   1.237   1.880
 5126SOL    HW116277   1.912   1.301   1.815
 5126SOL    HW216278   1.931   1.157   1.889
 5127SOL     OW16279   1.819   6.889   0.243
 5127SOL    HW116280   1.893   6.887   0.310
 5127SOL    HW216281   1.737   6.850   0.282
 5128SOL     OW16282   4.508   0.009   1.712
 5128SOL    HW116283   4.586   7.016   1.649
 5128SOL    HW216284   4.526   0.087   1.771
 5129SOL     OW16285   6.219   5.731   0.229
 5129SOL    HW116286   6.215   5.695   0.322
 5129SOL    HW216287   6.198   5.658   0.164
 5130SOL     OW16288   6.027   5.250   1.991
 5130SOL    HW116289   6.080   5.328   1.958
 5130SOL    HW216290   5.982   5.274   2.077
 5131SOL     OW16291   2.780   2.292   2.241
 5131SOL    HW116292   2.829   2.331   2.163
 5131SOL    HW216293   2.682   2.308   2.230
 5132SOL     OW16294   2.335   6.305   5.557
 5132SOL    HW116295   2.236   6.310   5.569
 5132SOL    HW216296   2.363   6.366   5.483
 5133SOL     OW16297   3.640   6.581   4.843
 5133SOL    HW116298   3.568   6.649   4.859
 5133SOL    HW216299   3.653   6.569   4.744
 5134SOL     OW16300   0.642   3.192   6.436
 5134SOL    HW116301   0.548   3.197   6.470
 5134SOL    HW216302   0.706   3.208   6.512
 5135SOL     OW16303   6.726   1.835   4.280
 5135SOL    HW116304   6.779   1.919   4.270
 5135SOL    HW216305   6.766   1.764   4.222
 5136SOL     OW16306   3.551   1.868   5.954
 5136SOL    HW116307   3.605   1.784   5.967
 5136SOL    HW216308   3.601   1.931   5.895
 5137SOL     OW16309   3.873   3.371   6.913
 5137SOL    HW116310   3.777   3.343   6.910
 5137SOL    HW216311   3.888   3.432   6.991
 5138SOL     OW16312   2.192   3.201   6.034
 5138SOL    HW116313   2.138   3.175   6.114
 5138SOL    HW216314   2.164   3.146   5.956
 5139SOL     OW16315   0.509   6.866   3.987
 5139SOL    HW116316   0.427   6.914   3.954
 5139SOL    HW216317   0.521   6.781   3.937
 5140SOL     OW16318   3.135   3.413   1.799
 5140SOL    HW116319   3.166   3.334   1.747
 5140SOL    HW216320   3.074   3.383   1.873
 5141SOL     OW16321   1.034   3.457   5.526
 5141SOL    HW116322   1.024   3.553   5.554
 5141SOL    HW216323   0.971   3.438   5.451
 5142SOL     OW16324   5.456   3.449   1.895
 5142SOL    HW116325   5.484   3.354   1.884
 5142SOL    HW216326   5.357   3.456   1.883
 5143SOL     OW16327   6.871   5.012   6.041
 5143SOL    HW116328   6.771   5.009   6.045
 5143SOL    HW216329   6.908   5.018   6.133
 5144SOL     OW16330   1.912   1.643   5.035
 5144SOL    HW116331   1.863   1.623   5.120
 5144SOL    HW216332   2.007   1.665   5.056
 5145SOL     OW16333   3.855   5.611   5.938
 5145SOL    HW116334   3.898   5.521   5.936
 5145SOL    HW216335   3.756   5.601   5.923
 5146SOL     OW16336   3.631   4.897   0.898
 5146SOL    HW116337   3.554   4.838   0.876
 5146SOL    HW216338   3.657   4.884   0.994
 5147SOL     OW16339   0.497   4.990   6.471
 5147SOL    HW116340   0.468   4.979   6.566
 5147SOL    HW216341   0.509   5.087   6.450
 5148SOL     OW16342   0.266   0.719   1.503
 5148SOL    HW116343   0.227   0.638   1.547
 5148SOL    HW216344   0.222   0.801   1.541
 5149SOL     OW16345   6.809   0.556   5.637
 5149SOL    HW116346   6.898   0.590   5.667
 5149SOL    HW216347   6.803   0.564   5.537
 5150SOL     OW16348   2.557   5.856   5.444
 5150SOL    HW116349   2.620   5.867   5.522
 5150SOL    HW216350   2.505   5.941   5.432
 5151SOL     OW16351   4.350   0.195   5.547
 5151SOL    HW116352   4.305   0.278   5.515
 5151SOL    HW216353   4.441   0.188   5.506
 5152SOL     OW16354   6.671   4.925   6.780
 5152SOL    HW116355   6.757   4.917   6.730
 5152SOL    HW216356   6.594   4.929   6.715
 5153SOL     OW16357   2.129   2.480   0.661
 5153SOL    HW116358   2.102   2.447   0.571
 5153SOL    HW216359   2.228   2.493   0.664
 5154SOL     OW16360   1.462   4.542   4.929
 5154SOL    HW116361   1.388   4.479   4.951
 5154SOL    HW216362   1.438   4.634   4.961
 5155SOL     OW16363   4.022   0.640   2.198
 5155SOL    HW116364   3.966   0.639   2.281
 5155SOL    HW216365   4.101   0.580   2.211
 5156SOL     OW16366   5.245   3.335   6.428
 5156SOL    HW116367   5.318   3.382   6.377
 5156SOL    HW216368   5.158   3.347   6.379
 5157SOL     OW16369   6.058   2.206   3.982
 5157SOL    HW116370   6.059   2.132   4.049
 5157SOL    HW216371   6.011   2.175   3.899
 5158SOL     OW16372   3.808   0.538   1.359
 5158SOL    HW116373   3.736   0.468   1.368
 5158SOL    HW216374   3.772   0.615   1.307
 5159SOL     OW16375   2.035   3.354   4.935
 5159SOL    HW116376   1.978   3.427   4.898
 5159SOL    HW216377   2.101   3.393   5.000
 5160SOL     OW16378   2.603   2.534   3.867
 5160SOL    HW116379   2.605   2.476   3.786
 5160SOL    HW216380   2.696   2.553   3.897
 5161SOL     OW16381   2.179   3.289   0.037
 5161SOL    HW116382   2.122   3.215   0.075
 5161SOL    HW216383   2.141   3.377   0.064
 5162SOL     OW16384   6.484   5.632   4.841
 5162SOL    HW116385   6.515   5.612   4.748
 5162SOL    HW216386   6.521   5.564   4.905
 5163SOL     OW16387   5.594   4.309   0.625
 5163SOL    HW116388   5.508   4.294   0.576
 5163SOL    HW216389   5.584   4.280   0.720
 5164SOL     OW16390   6.593   6.155   4.810
 5164SOL    HW116391   6.543   6.170   4.895
 5164SOL    HW216392   6.625   6.243   4.774
 5165SOL     OW16393   5.494   3.993   5.234
 5165SOL    HW116394   5.587   4.017   5.261
 5165SOL    HW216395   5.436   4.075   5.234
 5166SOL     OW16396   0.598   0.025   2.913
 5166SOL    HW116397   0.564   7.000   2.831
 5166SOL    HW216398   0.665   0.095   2.888
 5167SOL     OW16399   1.822   0.258   5.294
 5167SOL    HW116400   1.803   0.198   5.216
 5167SOL    HW216401   1.918   0.285   5.292
 5168SOL     OW16402   3.547   2.099   2.301
 5168SOL    HW116403   3.450   2.072   2.296
 5168SOL    HW216404   3.560   2.186   2.254
 5169SOL     OW16405   3.770   5.251   6.414
 5169SOL    HW116406   3.846   5.196   6.448
 5169SOL    HW216407   3.705   5.267   6.488
 5170SOL     OW16408   4.116   5.500   4.447
 5170SOL    HW116409   4.042   5.543   4.500
 5170SOL    HW216410   4.199   5.497   4.503
 5171SOL     OW16411   2.689   4.806   5.133
 5171SOL    HW116412   2.615   4.753   5.174
 5171SOL    HW216413   2.753   4.743   5.089
 5172SOL     OW16414   1.787   4.001   6.227
 5172SOL    HW116415   1.688   3.997   6.215
 5172SOL    HW216416   1.814   4.094   6.250
 5173SOL     OW16417   7.018   2.587   4.446
 5173SOL    HW116418   6.968   2.504   4.419
 5173SOL    HW216419   6.986   2.618   4.535
 5174SOL     OW16420   2.945   4.974   6.846
 5174SOL    HW116421   3.040   5.004   6.851
 5174SOL    HW216422   2.918   4.938   6.936
 5175SOL     OW16423   0.045   5.221   6.628
 5175SOL    HW116424   7.008   5.138   6.625
 5175SOL    HW216425   0.125   5.205   6.685
 5176SOL     OW16426   5.423   3.503   6.307
 5176SOL    HW116427   5.463   3.584   6.348
 5176SOL    HW216428   5.348   3.529   6.246
 5177SOL     OW16429   5.052   4.615   6.060
 5177SOL    HW116430   4.971   4.593   6.116
 5177SOL    HW216431   5.034   4.592   5.965
 5178SOL     OW16432   3.501   4.180   0.353
 5178SOL    HW116433   3.550   4.235   0.420
 5178SOL    HW216434   3.412   4.154   0.389
 5179SOL     OW16435   3.300   6.515   5.194
 5179SOL    HW116436   3.390   6.556   5.209
 5179SOL    HW216437   3.250   6.510   5.281
 5180SOL     OW16438   4.903   1.507   0.140
 5180SOL    HW116439   4.885   1.603   0.158
 5180SOL    HW216440   4.967   1.498   0.064
 5181SOL     OW16441   2.947   6.049   2.231
 5181SOL    HW116442   2.937   5.954   2.203
 5181SOL    HW216443   2.997   6.054   2.317
 5182SOL     OW16444   4.607   4.082   1.081
 5182SOL    HW116445   4.558   4.095   1.167
 5182SOL    HW216446   4.545   4.095   1.004
 5183SOL     OW16447   3.549   0.435   3.774
 5183SOL    HW116448   3.641   0.472   3.789
 5183SOL    HW216449   3.489   0.464   3.847
 5184SOL     OW16450   0.663   2.473   3.281
 5184SOL    HW116451   0.699   2.383   3.257
 5184SOL    HW216452   0.665   2.532   3.200
 5185SOL     OW16453   4.079   0.162   1.581
 5185SOL    HW116454   4.084   0.105   1.663
 5185SOL    HW216455   3.985   0.161   1.546
 5186SOL     OW16456   5.608   4.060   6.794
 5186SOL    HW116457   5.550   4.139   6.777
 5186SOL    HW216458   5.683   4.086   6.855
 5187SOL     OW16459   4.927   3.291   4.319
 5187SOL    HW116460   4.944   3.348   4.238
 5187SOL    HW216461   4.956   3.341   4.401
 5188SOL     OW16462   0.189   0.870   3.480
 5188SOL    HW116463   0.264   0.808   3.502
 5188SOL    HW216464   0.221   0.965   3.486
 5189SOL     OW16465   4.859   5.138   5.933
 5189SOL    HW116466   4.875   5.199   5.857
 5189SOL    HW216467   4.908   5.171   6.014
 5190SOL     OW16468   2.471   2.363   2.153
 5190SOL    HW116469   2.516   2.369   2.064
 5190SOL    HW216470   2.430   2.452   2.175
 5191SOL     OW16471   4.886   0.518   2.144
 5191SOL    HW116472   4.814   0.528   2.075
 5191SOL    HW216473   4.919   0.424   2.144
 5192SOL     OW16474   6.309   4.242   1.203
 5192SOL    HW116475   6.384   4.307   1.215
 5192SOL    HW216476   6.222   4.290   1.216
 5193SOL     OW16477   4.053   5.051   2.648
 5193SOL    HW116478   4.112   4.997   2.588
 5193SOL    HW216479   4.007   5.122   2.594
 5194SOL     OW16480   5.024   0.966   0.677
 5194SOL    HW116481   5.077   1.045   0.645
 5194SOL    HW216482   5.045   0.887   0.620
 5195SOL     OW16483   0.262   5.744   5.060
 5195SOL    HW116484   0.253   5.720   5.156
 5195SOL    HW216485   0.276   5.843   5.051
 5196SOL     OW16486   0.569   3.626   3.765
 5196SOL    HW116487   0.551   3.530   3.741
 5196SOL    HW216488   0.538   3.685   3.690
 5197SOL     OW16489   3.940   5.864   5.261
 5197SOL    HW116490   3.859   5.848   5.205
 5197SOL    HW216491   3.923   5.940   5.323
 5198SOL     OW16492   4.357   1.117   5.704
 5198SOL    HW116493   4.332   1.209   5.675
 5198SOL    HW216494   4.289   1.052   5.670
 5199SOL     OW16495   0.794   6.154   2.039
 5199SOL    HW116496   0.840   6.234   2.001
 5199SOL    HW216497   0.836   6.071   1.999
 5200SOL     OW16498   5.899   6.560   5.404
 5200SOL    HW116499   5.869   6.646   5.365
 5200SOL    HW216500   5.929   6.575   5.499
 5201SOL     OW16501   6.761   3.934   5.232
 5201SOL    HW116502   6.662   3.917   5.234
 5201SOL    HW216503   6.807   3.866   5.289
 5202SOL     OW16504   3.824   2.142   6.026
 5202SOL    HW116505   3.768   2.134   5.943
 5202SOL    HW216506   3.836   2.052   6.067
 5203SOL     OW16507   0.938   0.431   6.311
 5203SOL    HW116508   0.847   0.417   6.271
 5203SOL    HW216509   0.950   0.527   6.333
 5204SOL     OW16510   1.897   0.521   1.942
 5204SOL    HW116511   1.858   0.601   1.989
 5204SOL    HW216512   1.952   0.552   1.865
 5205SOL     OW16513   6.774   0.138   2.234
 5205SOL    HW116514   6.753   0.057   2.180
 5205SOL    HW216515   6.852   0.118   2.294
 5206SOL     OW16516   1.362   5.031   4.969
 5206SOL    HW116517   1.362   5.040   4.870
 5206SOL    HW216518   1.343   4.936   4.994
 5207SOL     OW16519   4.432   0.954   4.893
 5207SOL    HW116520   4.388   0.911   4.972
 5207SOL    HW216521   4.417   0.897   4.812
 5208SOL     OW16522   6.761   1.539   0.180
 5208SOL    HW116523   6.692   1.471   0.155
 5208SOL    HW216524   6.738   1.577   0.270
 5209SOL     OW16525   4.923   6.362   2.260
 5209SOL    HW116526   4.987   6.395   2.190
 5209SOL    HW216527   4.843   6.322   2.216
 5210SOL     OW16528   6.108   4.238   1.416
 5210SOL    HW116529   6.103   4.304   1.341
 5210SOL    HW216530   6.016   4.219   1.451
 5211SOL     OW16531   4.753   2.896   4.797
 5211SOL    HW116532   4.819   2.827   4.825
 5211SOL    HW216533   4.786   2.944   4.716
 5212SOL     OW16534   6.603   3.665   6.976
 5212SOL    HW116535   6.520   3.706   7.012
 5212SOL    HW216536   6.617   3.575   7.018
 5213SOL     OW16537   3.433   3.270   3.817
 5213SOL    HW116538   3.390   3.341   3.761
 5213SOL    HW216539   3.524   3.301   3.846
 5214SOL     OW16540   5.354   3.166   6.104
 5214SOL    HW116541   5.300   3.112   6.168
 5214SOL    HW216542   5.403   3.104   6.042
 5215SOL     OW16543   0.284   5.008   4.946
 5215SOL    HW116544   0.371   5.046   4.976
 5215SOL    HW216545   0.301   4.937   4.877
 5216SOL     OW16546   6.421   4.413   0.764
 5216SOL    HW116547   6.460   4.496   0.806
 5216SOL    HW216548   6.424   4.338   0.830
 5217SOL     OW16549   3.390   6.851   2.578
 5217SOL    HW116550   3.445   6.908   2.517
 5217SOL    HW216551   3.361   6.905   2.657
 5218SOL     OW16552   6.171   0.430   0.756
 5218SOL    HW116553   6.148   0.409   0.661
 5218SOL    HW216554   6.093   0.407   0.815
 5219SOL     OW16555   4.614   1.906   4.891
 5219SOL    HW116556   4.607   1.989   4.946
 5219SOL    HW216557   4.690   1.914   4.827
 5220SOL     OW16558   1.866   4.400   4.199
 5220SOL    HW116559   1.805   4.459   4.253
 5220SOL    HW216560   1.881   4.314   4.248
 5221SOL     OW16561   4.675   5.931   0.902
 5221SOL    HW116562   4.633   5.946   0.991
 5221SOL    HW216563   4.725   6.013   0.874
 5222SOL     OW16564   6.244   2.995   2.561
 5222SOL    HW116565   6.324   2.999   2.501
 5222SOL    HW216566   6.230   2.901   2.593
 5223SOL     OW16567   0.054   2.382   0.942
 5223SOL    HW116568   0.024   2.286   0.937
 5223SOL    HW216569   0.079   2.403   1.037
 5224SOL     OW16570   1.697   1.293   4.301
 5224SOL    HW116571   1.654   1.253   4.221
 5224SOL    HW216572   1.629   1.307   4.373
 5225SOL     OW16573   0.297   2.627   6.066
 5225SOL    HW116574   0.336   2.536   6.079
 5225SOL    HW216575   0.213   2.619   6.012
 5226SOL     OW16576   6.902   6.955   4.090
 5226SOL    HW116577   6.944   0.019   4.054
 5226SOL    HW216578   6.972   6.886   4.103
 5227SOL     OW16579   1.988   2.787   6.468
 5227SOL    HW116580   2.004   2.721   6.395
 5227SOL    HW216581   2.006   2.743   6.556
 5228SOL     OW16582   0.901   2.161   5.267
 5228SOL    HW116583   0.938   2.241   5.313
 5228SOL    HW216584   0.973   2.094   5.252
 5229SOL     OW16585   4.223   1.600   6.997
 5229SOL    HW116586   4.238   1.568   0.071
 5229SOL    HW216587   4.127   1.590   6.973
 5230SOL     OW16588   6.680   0.397   2.082
 5230SOL    HW116589   6.599   0.394   2.023
 5230SOL    HW216590   6.708   0.304   2.106
 5231SOL     OW16591   6.201   3.718   1.895
 5231SOL    HW116592   6.289   3.764   1.880
 5231SOL    HW216593   6.173   3.731   1.990
 5232SOL     OW16594   1.732   1.559   6.009
 5232SOL    HW116595   1.658   1.550   6.076
 5232SOL    HW216596   1.745   1.656   5.987
 5233SOL     OW16597   2.521   0.048   3.523
 5233SOL    HW116598   2.619   0.066   3.532
 5233SOL    HW216599   2.488   0.002   3.605
 5234SOL     OW16600   3.159   2.113   6.371
 5234SOL    HW116601   3.242   2.157   6.405
 5234SOL    HW216602   3.080   2.149   6.421
 5235SOL     OW16603   2.173   2.964   1.402
 5235SOL    HW116604   2.097   3.028   1.416
 5235SOL    HW216605   2.222   2.987   1.318
 5236SOL     OW16606   3.024   5.063   2.153
 5236SOL    HW116607   3.045   5.114   2.069
 5236SOL    HW216608   3.007   4.967   2.131
 5237SOL     OW16609   1.568   1.625   1.535
 5237SOL    HW116610   1.647   1.684   1.551
 5237SOL    HW216611   1.538   1.635   1.440
 5238SOL     OW16612   5.985   0.874   3.240
 5238SOL    HW116613   5.992   0.779   3.269
 5238SOL    HW216614   5.999   0.934   3.318
 5239SOL     OW16615   2.653   3.746   0.188
 5239SOL    HW116616   2.654   3.650   0.160
 5239SOL    HW216617   2.570   3.789   0.153
 5240SOL     OW16618   1.834   4.126   5.658
 5240SOL    HW116619   1.814   4.221   5.679
 5240SOL    HW216620   1.765   4.067   5.701
 5241SOL     OW16621   2.197   5.604   3.455
 5241SOL    HW116622   2.139   5.669   3.505
 5241SOL    HW216623   2.140   5.534   3.413
 5242SOL     OW16624   3.859   6.203   5.728
 5242SOL    HW116625   3.861   6.200   5.828
 5242SOL    HW216626   3.928   6.267   5.695
 5243SOL     OW16627   1.870   5.811   3.769
 5243SOL    HW116628   1.912   5.784   3.856
 5243SOL    HW216629   1.792   5.752   3.750
 5244SOL     OW16630   5.515   0.856   6.175
 5244SOL    HW116631   5.419   0.852   6.201
 5244SOL    HW216632   5.544   0.952   6.171
 5245SOL     OW16633   3.273   3.958   2.228
 5245SOL    HW116634   3.185   3.939   2.184
 5245SOL    HW216635   3.347   3.941   2.162
 5246SOL     OW16636   6.150   2.986   5.732
 5246SOL    HW116637   6.230   3.034   5.768
 5246SOL    HW216638   6.165   2.964   5.635
 5247SOL     OW16639   4.842   1.081   5.746
 5247SOL    HW116640   4.822   1.058   5.651
 5247SOL    HW216641   4.786   1.159   5.774
 5248SOL     OW16642   4.376   1.383   2.658
 5248SOL    HW116643   4.298   1.368   2.599
 5248SOL    HW216644   4.345   1.412   2.749
 5249SOL     OW16645   0.351   5.760   1.840
 5249SOL    HW116646   0.419   5.816   1.793
 5249SOL    HW216647   0.366   5.664   1.819
 5250SOL     OW16648   1.575   4.888   0.588
 5250SOL    HW116649   1.559   4.874   0.490
 5250SOL    HW216650   1.673   4.895   0.604
 5251SOL     OW16651   1.133   4.626   6.624
 5251SOL    HW116652   1.067   4.615   6.698
 5251SOL    HW216653   1.109   4.564   6.548
 5252SOL     OW16654   4.021   6.200   2.907
 5252SOL    HW116655   4.059   6.129   2.966
 5252SOL    HW216656   4.081   6.281   2.908
 5253SOL     OW16657   0.462   6.020   4.699
 5253SOL    HW116658   0.460   5.921   4.712
 5253SOL    HW216659   0.542   6.044   4.645
 5254SOL     OW16660   4.546   6.169   1.969
 5254SOL    HW116661   4.482   6.233   1.927
 5254SOL    HW216662   4.617   6.143   1.903
 5255SOL     OW16663   0.678   1.462   6.205
 5255SOL    HW116664   0.743   1.434   6.134
 5255SOL    HW216665   0.709   1.429   6.294
 5256SOL     OW16666   4.278   2.215   2.632
 5256SOL    HW116667   4.307   2.134   2.683
 5256SOL    HW216668   4.213   2.188   2.561
 5257SOL     OW16669   5.668   1.212   0.252
 5257SOL    HW116670   5.575   1.235   0.221
 5257SOL    HW216671   5.665   1.130   0.309
 5258SOL     OW16672   5.544   1.813   5.314
 5258SOL    HW116673   5.580   1.835   5.223
 5258SOL    HW216674   5.604   1.746   5.358
 5259SOL     OW16675   4.696   6.070   4.461
 5259SOL    HW116676   4.646   6.096   4.378
 5259SOL    HW216677   4.632   6.058   4.536
 5260SOL     OW16678   1.774   6.639   1.754
 5260SOL    HW116679   1.764   6.567   1.685
 5260SOL    HW216680   1.693   6.697   1.754
 5261SOL     OW16681   6.134   4.674   0.199
 5261SOL    HW116682   6.053   4.726   0.172
 5261SOL    HW216683   6.121   4.638   0.291
 5262SOL     OW16684   2.444   2.027   1.546
 5262SOL    HW116685   2.536   2.060   1.523
 5262SOL    HW216686   2.418   2.062   1.636
 5263SOL     OW16687   0.925   6.026   2.761
 5263SOL    HW116688   0.933   5.936   2.718
 5263SOL    HW216689   0.840   6.069   2.731
 5264SOL     OW16690   6.703   2.168   2.193
 5264SOL    HW116691   6.611   2.204   2.178
 5264SOL    HW216692   6.771   2.240   2.181
 5265SOL     OW16693   0.695   5.502   5.810
 5265SOL    HW116694   0.602   5.473   5.788
 5265SOL    HW216695   0.704   5.600   5.791
 5266SOL     OW16696   1.310   0.153   6.424
 5266SOL    HW116697   1.298   0.093   6.345
 5266SOL    HW216698   1.390   0.211   6.410
 5267SOL     OW16699   6.347   0.916   4.992
 5267SOL    HW116700   6.443   0.944   4.995
 5267SOL    HW216701   6.289   0.997   4.979
 5268SOL     OW16702   5.986   0.251   5.905
 5268SOL    HW116703   5.950   0.205   5.986
 5268SOL    HW216704   5.911   0.297   5.857
 5269SOL     OW16705   1.070   0.391   4.265
 5269SOL    HW116706   1.148   0.336   4.294
 5269SOL    HW216707   1.076   0.481   4.308
 5270SOL     OW16708   1.186   1.382   0.113
 5270SOL    HW116709   1.139   1.358   0.198
 5270SOL    HW216710   1.257   1.451   0.133
 5271SOL     OW16711   1.384   5.997   6.178
 5271SOL    HW116712   1.474   5.956   6.197
 5271SOL    HW216713   1.314   5.950   6.232
 5272SOL     OW16714   4.125   0.240   6.172
 5272SOL    HW116715   4.075   0.154   6.179
 5272SOL    HW216716   4.061   0.313   6.146
 5273SOL     OW16717   2.126   1.423   3.143
 5273SOL    HW116718   2.123   1.476   3.227
 5273SOL    HW216719   2.207   1.363   3.144
 5274SOL     OW16720   5.696   4.022   1.188
 5274SOL    HW116721   5.736   4.014   1.097
 5274SOL    HW216722   5.617   4.084   1.184
 5275SOL     OW16723   6.064   0.626   6.196
 5275SOL    HW116724   6.157   0.632   6.160
 5275SOL    HW216725   6.065   0.575   6.282
 5276SOL     OW16726   3.653   6.813   1.449
 5276SOL    HW116727   3.687   6.771   1.365
 5276SOL    HW216728   3.618   6.741   1.510
 5277SOL     OW16729   1.705   3.685   1.682
 5277SOL    HW116730   1.754   3.771   1.669
 5277SOL    HW216731   1.755   3.610   1.638
 5278SOL     OW16732   4.043   3.755   3.061
 5278SOL    HW116733   4.084   3.709   2.982
 5278SOL    HW216734   3.995   3.837   3.031
 5279SOL     OW16735   1.311   6.303   2.973
 5279SOL    HW116736   1.269   6.353   2.898
 5279SOL    HW216737   1.250   6.229   3.002
 5280SOL     OW16738   4.045   0.487   3.855
 5280SOL    HW116739   4.006   0.546   3.926
 5280SOL    HW216740   4.051   0.393   3.890
 5281SOL     OW16741   6.518   2.737   3.723
 5281SOL    HW116742   6.446   2.800   3.694
 5281SOL    HW216743   6.573   2.780   3.795
 5282SOL     OW16744   4.985   2.610   0.988
 5282SOL    HW116745   4.964   2.517   1.019
 5282SOL    HW216746   5.073   2.610   0.940
 5283SOL     OW16747   4.745   5.130   5.280
 5283SOL    HW116748   4.732   5.057   5.347
 5283SOL    HW216749   4.660   5.181   5.269
 5284SOL     OW16750   5.274   2.564   4.396
 5284SOL    HW116751   5.238   2.647   4.438
 5284SOL    HW216752   5.201   2.519   4.343
 5285SOL     OW16753   4.433   5.910   2.629
 5285SOL    HW116754   4.333   5.919   2.632
 5285SOL    HW216755   4.470   5.969   2.557
 5286SOL     OW16756   1.885   4.644   2.390
 5286SOL    HW116757   1.954   4.574   2.376
 5286SOL    HW216758   1.925   4.722   2.437
 5287SOL     OW16759   0.764   0.629   2.547
 5287SOL    HW116760   0.718   0.559   2.601
 5287SOL    HW216761   0.785   0.594   2.456
 5288SOL     OW16762   3.907   0.444   0.977
 5288SOL    HW116763   3.960   0.474   0.897
 5288SOL    HW216764   3.961   0.458   1.060
 5289SOL     OW16765   2.027   6.715   1.618
 5289SOL    HW116766   2.117   6.679   1.642
 5289SOL    HW216767   1.959   6.680   1.682
 5290SOL     OW16768   6.080   6.719   6.528
 5290SOL    HW116769   6.060   6.669   6.612
 5290SOL    HW216770   6.036   6.809   6.531
 5291SOL     OW16771   0.981   5.720   0.181
 5291SOL    HW116772   0.998   5.729   0.083
 5291SOL    HW216773   0.919   5.793   0.211
 5292SOL     OW16774   5.767   1.764   1.475
 5292SOL    HW116775   5.785   1.756   1.573
 5292SOL    HW216776   5.730   1.678   1.440
 5293SOL     OW16777   1.911   1.369   3.765
 5293SOL    HW116778   1.825   1.399   3.723
 5293SOL    HW216779   1.937   1.433   3.838
 5294SOL     OW16780   3.402   1.914   6.779
 5294SOL    HW116781   3.451   1.890   6.695
 5294SOL    HW216782   3.460   1.973   6.836
 5295SOL     OW16783   6.975   1.789   3.250
 5295SOL    HW116784   0.037   1.833   3.288
 5295SOL    HW216785   6.957   1.704   3.299
 5296SOL     OW16786   0.571   2.864   6.538
 5296SOL    HW116787   0.624   2.948   6.530
 5296SOL    HW216788   0.633   2.785   6.535
 5297SOL     OW16789   0.913   2.154   1.564
 5297SOL    HW116790   0.814   2.167   1.567
 5297SOL    HW216791   0.950   2.198   1.481
 5298SOL     OW16792   1.196   4.128   1.834
 5298SOL    HW116793   1.249   4.085   1.906
 5298SOL    HW216794   1.238   4.214   1.807
 5299SOL     OW16795   3.891   0.081   6.958
 5299SOL    HW116796   3.885   0.166   6.905
 5299SOL    HW216797   3.858   0.005   6.902
 5300SOL     OW16798   6.532   4.782   4.428
 5300SOL    HW116799   6.498   4.840   4.354
 5300SOL    HW216800   6.510   4.824   4.516
 5301SOL     OW16801   5.490   0.032   6.662
 5301SOL    HW116802   5.528   0.104   6.604
 5301SOL    HW216803   5.488   0.063   6.757
 5302SOL     OW16804   6.672   4.111   3.153
 5302SOL    HW116805   6.731   4.032   3.138
 5302SOL    HW216806   6.627   4.101   3.242
 5303SOL     OW16807   2.228   4.796   2.735
 5303SOL    HW116808   2.283   4.860   2.682
 5303SOL    HW216809   2.245   4.810   2.833
 5304SOL     OW16810   4.728   1.645   5.891
 5304SOL    HW116811   4.785   1.588   5.831
 5304SOL    HW216812   4.674   1.708   5.835
 5305SOL     OW16813   4.050   1.743   4.940
 5305SOL    HW116814   4.135   1.692   4.925
 5305SOL    HW216815   4.064   1.812   5.010
 5306SOL     OW16816   2.336   6.833   2.878
 5306SOL    HW116817   2.398   6.804   2.806
 5306SOL    HW216818   2.281   6.755   2.908
 5307SOL     OW16819   5.181   6.363   6.421
 5307SOL    HW116820   5.148   6.270   6.401
 5307SOL    HW216821   5.146   6.426   6.351
 5308SOL     OW16822   0.072   1.251   1.612
 5308SOL    HW116823   0.165   1.286   1.616
 5308SOL    HW216824   0.042   1.225   1.704
 5309SOL     OW16825   3.705   3.579   5.787
 5309SOL    HW116826   3.718   3.482   5.771
 5309SOL    HW216827   3.638   3.615   5.722
 5310SOL     OW16828   4.822   2.815   0.277
 5310SOL    HW116829   4.897   2.823   0.212
 5310SOL    HW216830   4.859   2.807   0.370
 5311SOL     OW16831   0.177   5.995   0.402
 5311SOL    HW116832   0.125   6.077   0.427
 5311SOL    HW216833   0.114   5.925   0.367
 5312SOL     OW16834   0.137   4.037   1.987
 5312SOL    HW116835   0.200   3.986   2.045
 5312SOL    HW216836   0.136   3.996   1.896
 5313SOL     OW16837   0.236   6.328   6.799
 5313SOL    HW116838   0.172   6.305   6.726
 5313SOL    HW216839   0.272   6.420   6.785
 5314SOL     OW16840   3.829   4.873   0.657
 5314SOL    HW116841   3.749   4.923   0.690
 5314SOL    HW216842   3.799   4.794   0.604
 5315SOL     OW16843   5.634   1.498   2.450
 5315SOL    HW116844   5.576   1.549   2.513
 5315SOL    HW216845   5.598   1.507   2.357
 5316SOL     OW16846   5.559   4.980   4.878
 5316SOL    HW116847   5.465   4.949   4.896
 5316SOL    HW216848   5.609   4.985   4.965
 5317SOL     OW16849   6.763   5.019   1.709
 5317SOL    HW116850   6.783   5.107   1.752
 5317SOL    HW216851   6.671   4.989   1.734
 5318SOL     OW16852   6.343   2.540   3.820
 5318SOL    HW116853   6.273   2.487   3.773
 5318SOL    HW216854   6.417   2.561   3.757
 5319SOL     OW16855   3.095   6.504   2.722
 5319SOL    HW116856   3.019   6.457   2.676
 5319SOL    HW216857   3.144   6.561   2.656
 5320SOL     OW16858   6.273   1.977   6.911
 5320SOL    HW116859   6.263   2.016   6.819
 5320SOL    HW216860   6.334   1.899   6.907
 5321SOL     OW16861   3.018   4.468   6.984
 5321SOL    HW116862   3.092   4.509   0.018
 5321SOL    HW216863   2.981   4.536   6.921
 5322SOL     OW16864   2.858   6.701   0.367
 5322SOL    HW116865   2.850   6.618   0.421
 5322SOL    HW216866   2.954   6.730   0.364
 5323SOL     OW16867   6.563   3.202   0.464
 5323SOL    HW116868   6.482   3.144   0.454
 5323SOL    HW216869   6.596   3.197   0.558
 5324SOL     OW16870   4.185   3.506   1.989
 5324SOL    HW116871   4.220   3.563   2.063
 5324SOL    HW216872   4.111   3.448   2.023
 5325SOL     OW16873   3.053   6.535   5.717
 5325SOL    HW116874   3.008   6.492   5.795
 5325SOL    HW216875   3.126   6.595   5.749
 5326SOL     OW16876   6.026   1.010   3.458
 5326SOL    HW116877   6.122   1.035   3.448
 5326SOL    HW216878   6.011   0.971   3.549
 5327SOL     OW16879   6.142   0.121   3.985
 5327SOL    HW116880   6.149   0.084   4.077
 5327SOL    HW216881   6.076   0.067   3.932
 5328SOL     OW16882   2.332   4.599   6.386
 5328SOL    HW116883   2.336   4.686   6.336
 5328SOL    HW216884   2.423   4.559   6.391
 5329SOL     OW16885   0.385   6.846   6.315
 5329SOL    HW116886   0.377   6.747   6.324
 5329SOL    HW216887   0.347   6.874   6.227
 5330SOL     OW16888   4.412   4.396   1.085
 5330SOL    HW116889   4.369   4.485   1.071
 5330SOL    HW216890   4.510   4.409   1.100
 5331SOL     OW16891   5.914   1.224   6.760
 5331SOL    HW116892   5.926   1.245   6.857
 5331SOL    HW216893   5.839   1.159   6.749
 5332SOL     OW16894   6.775   3.257   0.002
 5332SOL    HW116895   6.833   3.185   0.040
 5332SOL    HW216896   6.733   3.224   6.937
 5333SOL     OW16897   0.336   6.577   4.041
 5333SOL    HW116898   0.267   6.648   4.055
 5333SOL    HW216899   0.300   6.508   3.979
 5334SOL     OW16900   3.448   5.888   1.157
 5334SOL    HW116901   3.416   5.860   1.248
 5334SOL    HW216902   3.468   5.807   1.103
 5335SOL     OW16903   0.321   5.334   1.607
 5335SOL    HW116904   0.255   5.269   1.644
 5335SOL    HW216905   0.317   5.333   1.507
 5336SOL     OW16906   1.247   3.220   5.398
 5336SOL    HW116907   1.281   3.300   5.446
 5336SOL    HW216908   1.174   3.177   5.451
 5337SOL     OW16909   6.415   1.814   0.746
 5337SOL    HW116910   6.394   1.765   0.662
 5337SOL    HW216911   6.330   1.834   0.795
 5338SOL     OW16912   0.084   3.222   1.767
 5338SOL    HW116913   0.083   3.283   1.688
 5338SOL    HW216914   7.019   3.168   1.768
 5339SOL     OW16915   4.885   3.750   3.078
 5339SOL    HW116916   4.951   3.789   3.142
 5339SOL    HW216917   4.837   3.674   3.121
 5340SOL     OW16918   5.254   3.834   1.616
 5340SOL    HW116919   5.251   3.892   1.534
 5340SOL    HW216920   5.343   3.845   1.661
 5341SOL     OW16921   4.746   5.381   3.551
 5341SOL    HW116922   4.752   5.306   3.485
 5341SOL    HW216923   4.815   5.450   3.529
 5342SOL     OW16924   6.345   5.175   4.928
 5342SOL    HW116925   6.357   5.150   4.832
 5342SOL    HW216926   6.359   5.095   4.986
 5343SOL     OW16927   3.391   3.669   6.913
 5343SOL    HW116928   3.323   3.673   6.840
 5343SOL    HW216929   3.481   3.651   6.874
 5344SOL     OW16930   6.013   1.463   6.883
 5344SOL    HW116931   5.952   1.448   6.961
 5344SOL    HW216932   6.040   1.559   6.880
 5345SOL     OW16933   3.624   1.440   0.106
 5345SOL    HW116934   3.634   1.376   0.029
 5345SOL    HW216935   3.567   1.398   0.177
 5346SOL     OW16936   2.252   5.920   2.883
 5346SOL    HW116937   2.304   5.835   2.893
 5346SOL    HW216938   2.285   5.987   2.950
 5347SOL     OW16939   6.035   2.305   5.328
 5347SOL    HW116940   5.952   2.287   5.382
 5347SOL    HW216941   6.010   2.325   5.234
 5348SOL     OW16942   4.886   2.495   5.305
 5348SOL    HW116943   4.838   2.580   5.324
 5348SOL    HW216944   4.862   2.462   5.214
 5349SOL     OW16945   0.973   4.056   0.314
 5349SOL    HW116946   1.026   3.971   0.314
 5349SOL    HW216947   0.895   4.047   0.377
 5350SOL     OW16948   1.239   7.007   6.673
 5350SOL    HW116949   1.289   0.061   6.626
 5350SOL    HW216950   1.156   0.026   6.714
 5351SOL     OW16951   0.658   5.619   3.850
 5351SOL    HW116952   0.704   5.662   3.928
 5351SOL    HW216953   0.563   5.602   3.873
 5352SOL     OW16954   0.548   2.818   5.901
 5352SOL    HW116955   0.452   2.834   5.923
 5352SOL    HW216956   0.578   2.734   5.945
 5353SOL     OW16957   2.454   6.989   3.064
 5353SOL    HW116958   2.408   6.945   2.986
 5353SOL    HW216959   2.386   7.015   3.132
 5354SOL     OW16960   3.458   6.137   2.149
 5354SOL    HW116961   3.503   6.080   2.218
 5354SOL    HW216962   3.360   6.121   2.152
 5355SOL     OW16963   5.393   4.582   5.303
 5355SOL    HW116964   5.486   4.561   5.334
 5355SOL    HW216965   5.330   4.576   5.381
 5356SOL     OW16966   6.890   6.974   1.539
 5356SOL    HW116967   6.985   7.005   1.544
 5356SOL    HW216968   6.885   6.877   1.564
 5357SOL     OW16969   6.247   3.451   2.565
 5357SOL    HW116970   6.188   3.513   2.513
 5357SOL    HW216971   6.272   3.373   2.508
 5358SOL     OW16972   5.900   0.252   6.765
 5358SOL    HW116973   5.904   0.197   6.848
 5358SOL    HW216974   5.848   0.336   6.782
 5359SOL     OW16975   3.512   2.196   0.098
 5359SOL    HW116976   3.414   2.205   0.111
 5359SOL    HW216977   3.557   2.282   0.120
 5360SOL     OW16978   5.071   5.883   3.263
 5360SOL    HW116979   5.154   5.867   3.316
 5360SOL    HW216980   5.049   5.981   3.263
 5361SOL     OW16981   1.035   4.010   2.894
 5361SOL    HW116982   1.066   4.052   2.809
 5361SOL    HW216983   1.083   3.923   2.907
 5362SOL     OW16984   5.831   1.551   3.689
 5362SOL    HW116985   5.891   1.606   3.630
 5362SOL    HW216986   5.860   1.455   3.686
 5363SOL     OW16987   6.702   4.722   5.637
 5363SOL    HW116988   6.797   4.711   5.666
 5363SOL    HW216989   6.648   4.646   5.672
 5364SOL     OW16990   4.903   2.440   1.409
 5364SOL    HW116991   4.915   2.341   1.404
 5364SOL    HW216992   4.984   2.481   1.451
 5365SOL     OW16993   3.582   3.061   6.009
 5365SOL    HW116994   3.645   3.037   5.935
 5365SOL    HW216995   3.569   2.982   6.069
 5366SOL     OW16996   0.334   4.138   3.848
 5366SOL    HW116997   0.422   4.136   3.896
 5366SOL    HW216998   0.261   4.116   3.912
 5367SOL     OW16999   6.368   5.935   1.159
 5367SOL    HW117000   6.298   5.877   1.201
 5367SOL    HW217001   6.334   6.029   1.153
 5368SOL     OW17002   0.217   5.673   5.354
 5368SOL    HW117003   0.144   5.693   5.419
 5368SOL    HW217004   0.256   5.583   5.373
 5369SOL     OW17005   3.507   6.762   2.242
 5369SOL    HW117006   3.473   6.701   2.314
 5369SOL    HW217007   3.596   6.731   2.211
 5370SOL     OW17008   2.521   1.967   0.294
 5370SOL    HW117009   2.599   1.905   0.292
 5370SOL    HW217010   2.510   2.003   0.387
 5371SOL     OW17011   6.390   5.165   3.691
 5371SOL    HW117012   6.358   5.071   3.693
 5371SOL    HW217013   6.317   5.226   3.722
 5372SOL     OW17014   0.407   0.361   4.318
 5372SOL    HW117015   0.470   0.372   4.241
 5372SOL    HW217016   0.454   0.386   4.403
 5373SOL     OW17017   4.322   6.955   0.360
 5373SOL    HW117018   4.365   6.877   0.405
 5373SOL    HW217019   4.227   6.963   0.390
 5374SOL     OW17020   1.419   3.777   1.294
 5374SOL    HW117021   1.492   3.768   1.226
 5374SOL    HW217022   1.448   3.841   1.365
 5375SOL     OW17023   2.466   5.459   4.849
 5375SOL    HW117024   2.376   5.421   4.869
 5375SOL    HW217025   2.526   5.386   4.817
 5376SOL     OW17026   0.190   6.749   2.242
 5376SOL    HW117027   0.241   6.683   2.296
 5376SOL    HW217028   0.248   6.786   2.170
 5377SOL     OW17029   0.971   2.802   2.112
 5377SOL    HW117030   0.903   2.741   2.152
 5377SOL    HW217031   0.953   2.811   2.014
 5378SOL     OW17032   4.624   0.084   3.372
 5378SOL    HW117033   4.559   0.017   3.337
 5378SOL    HW217034   4.689   0.110   3.300
 5379SOL     OW17035   2.914   2.233   4.356
 5379SOL    HW117036   2.996   2.235   4.412
 5379SOL    HW217037   2.937   2.199   4.264
 5380SOL     OW17038   4.770   6.603   1.627
 5380SOL    HW117039   4.733   6.638   1.541
 5380SOL    HW217040   4.869   6.592   1.620
 5381SOL     OW17041   2.955   1.835   2.456
 5381SOL    HW117042   2.944   1.766   2.385
 5381SOL    HW217043   2.960   1.926   2.414
 5382SOL     OW17044   4.564   0.586   2.506
 5382SOL    HW117045   4.555   0.639   2.422
 5382SOL    HW217046   4.657   0.595   2.542
 5383SOL     OW17047   2.257   4.121   5.322
 5383SOL    HW117048   2.286   4.065   5.245
 5383SOL    HW217049   2.333   4.131   5.387
 5384SOL     OW17050   5.125   6.414   5.686
 5384SOL    HW117051   5.187   6.344   5.722
 5384SOL    HW217052   5.060   6.441   5.758
 5385SOL     OW17053   3.583   3.928   0.514
 5385SOL    HW117054   3.658   3.908   0.578
 5385SOL    HW217055   3.620   3.962   0.428
 5386SOL     OW17056   4.635   4.955   3.108
 5386SOL    HW117057   4.645   4.948   3.008
 5386SOL    HW217058   4.584   5.037   3.131
 5387SOL     OW17059   0.956   2.508   5.321
 5387SOL    HW117060   0.989   2.565   5.245
 5387SOL    HW217061   0.862   2.532   5.342
 5388SOL     OW17062   6.279   0.065   3.203
 5388SOL    HW117063   6.222   0.076   3.122
 5388SOL    HW217064   6.274   0.148   3.259
 5389SOL     OW17065   6.070   1.427   4.832
 5389SOL    HW117066   6.007   1.354   4.807
 5389SOL    HW217067   6.157   1.413   4.784
 5390SOL     OW17068   5.621   3.577   3.555
 5390SOL    HW117069   5.678   3.502   3.520
 5390SOL    HW217070   5.534   3.577   3.507
 5391SOL     OW17071   4.682   3.276   0.730
 5391SOL    HW117072   4.776   3.273   0.761
 5391SOL    HW217073   4.673   3.343   0.656
 5392SOL     OW17074   5.468   0.963   4.163
 5392SOL    HW117075   5.410   0.978   4.243
 5392SOL    HW217076   5.504   1.050   4.130
 5393SOL     OW17077   4.895   3.225   2.788
 5393SOL    HW117078   4.935   3.316   2.775
 5393SOL    HW217079   4.860   3.191   2.701
 5394SOL     OW17080   0.286   2.911   2.944
 5394SOL    HW117081   0.223   2.868   2.879
 5394SOL    HW217082   0.380   2.889   2.918
 5395SOL     OW17083   0.061   0.836   1.666
 5395SOL    HW117084   0.014   0.911   1.620
 5395SOL    HW217085   0.127   0.872   1.731
 5396SOL     OW17086   3.662   2.640   0.526
 5396SOL    HW117087   3.682   2.568   0.460
 5396SOL    HW217088   3.564   2.662   0.522
 5397SOL     OW17089   0.686   6.817   2.976
 5397SOL    HW117090   0.775   6.824   3.021
 5397SOL    HW217091   0.653   6.909   2.953
 5398SOL     OW17092   5.537   2.511   3.124
 5398SOL    HW117093   5.586   2.437   3.171
 5398SOL    HW217094   5.475   2.472   3.056
 5399SOL     OW17095   2.721   2.697   0.532
 5399SOL    HW117096   2.727   2.787   0.575
 5399SOL    HW217097   2.772   2.698   0.446
 5400SOL     OW17098   5.129   3.004   0.500
 5400SOL    HW117099   5.049   2.960   0.542
 5400SOL    HW217100   5.101   3.048   0.415
 5401SOL     OW17101   5.087   4.163   1.043
 5401SOL    HW117102   4.995   4.203   1.049
 5401SOL    HW217103   5.148   4.211   1.105
 5402SOL     OW17104   2.413   5.778   1.886
 5402SOL    HW117105   2.375   5.869   1.903
 5402SOL    HW217106   2.472   5.781   1.805
 5403SOL     OW17107   6.118   2.720   5.431
 5403SOL    HW117108   6.209   2.759   5.446
 5403SOL    HW217109   6.052   2.793   5.413
 5404SOL     OW17110   4.972   6.436   0.364
 5404SOL    HW117111   4.949   6.507   0.430
 5404SOL    HW217112   4.969   6.474   0.272
 5405SOL     OW17113   6.612   5.058   6.055
 5405SOL    HW117114   6.535   5.021   6.004
 5405SOL    HW217115   6.579   5.121   6.125
 5406SOL     OW17116   1.812   1.058   5.488
 5406SOL    HW117117   1.903   1.017   5.488
 5406SOL    HW217118   1.779   1.067   5.582
 5407SOL     OW17119   1.931   1.505   2.586
 5407SOL    HW117120   1.895   1.594   2.558
 5407SOL    HW217121   1.879   1.471   2.665
 5408SOL     OW17122   2.009   2.430   4.550
 5408SOL    HW117123   2.069   2.507   4.571
 5408SOL    HW217124   1.980   2.434   4.454
 5409SOL     OW17125   6.933   4.719   3.364
 5409SOL    HW117126   6.847   4.745   3.320
 5409SOL    HW217127   6.921   4.722   3.464
 5410SOL     OW17128   5.751   1.661   0.242
 5410SOL    HW117129   5.738   1.756   0.272
 5410SOL    HW217130   5.725   1.599   0.316
 5411SOL     OW17131   3.114   6.421   2.027
 5411SOL    HW117132   3.081   6.448   1.937
 5411SOL    HW217133   3.193   6.361   2.017
 5412SOL     OW17134   2.121   1.897   6.139
 5412SOL    HW117135   2.075   1.869   6.223
 5412SOL    HW217136   2.210   1.938   6.162
 5413SOL     OW17137   0.106   5.430   5.590
 5413SOL    HW117138   0.097   5.351   5.650
 5413SOL    HW217139   0.190   5.421   5.537
 5414SOL     OW17140   5.819   5.862   6.107
 5414SOL    HW117141   5.876   5.797   6.157
 5414SOL    HW217142   5.723   5.851   6.134
 5415SOL     OW17143   1.837   0.879   0.316
 5415SOL    HW117144   1.781   0.799   0.295
 5415SOL    HW217145   1.834   0.896   0.415
 5416SOL     OW17146   3.888   5.253   6.165
 5416SOL    HW117147   3.863   5.288   6.255
 5416SOL    HW217148   3.975   5.293   6.137
 5417SOL     OW17149   5.634   0.244   1.737
 5417SOL    HW117150   5.580   0.171   1.779
 5417SOL    HW217151   5.705   0.273   1.800
 5418SOL     OW17152   0.411   2.836   5.321
 5418SOL    HW117153   0.492   2.869   5.369
 5418SOL    HW217154   0.335   2.829   5.386
 5419SOL     OW17155   3.567   2.005   6.248
 5419SOL    HW117156   3.477   1.983   6.286
 5419SOL    HW217157   3.572   2.102   6.227
 5420SOL     OW17158   2.212   1.652   1.114
 5420SOL    HW117159   2.214   1.637   1.213
 5420SOL    HW217160   2.192   1.565   1.068
 5421SOL     OW17161   3.912   5.529   1.028
 5421SOL    HW117162   3.891   5.434   1.050
 5421SOL    HW217163   3.952   5.574   1.107
 5422SOL     OW17164   2.390   6.566   3.204
 5422SOL    HW117165   2.390   6.661   3.173
 5422SOL    HW217166   2.300   6.542   3.240
 5423SOL     OW17167   4.417   6.645   2.466
 5423SOL    HW117168   4.423   6.562   2.520
 5423SOL    HW217169   4.494   6.705   2.489
 5424SOL     OW17170   3.653   3.487   5.479
 5424SOL    HW117171   3.748   3.459   5.491
 5424SOL    HW217172   3.597   3.448   5.552
 5425SOL     OW17173   1.749   5.424   5.294
 5425SOL    HW117174   1.748   5.379   5.383
 5425SOL    HW217175   1.759   5.523   5.306
 5426SOL     OW17176   1.616   4.086   6.993
 5426SOL    HW117177   1.633   4.069   0.071
 5426SOL    HW217178   1.673   4.025   6.938
 5427SOL     OW17179   4.819   1.994   0.796
 5427SOL    HW117180   4.756   1.917   0.797
 5427SOL    HW217181   4.909   1.964   0.829
 5428SOL     OW17182   4.310   5.714   2.797
 5428SOL    HW117183   4.363   5.696   2.880
 5428SOL    HW217184   4.367   5.761   2.730
 5429SOL     OW17185   2.710   6.499   3.584
 5429SOL    HW117186   2.682   6.573   3.644
 5429SOL    HW217187   2.809   6.485   3.593
 5430SOL     OW17188   1.146   4.380   5.493
 5430SOL    HW117189   1.069   4.445   5.497
 5430SOL    HW217190   1.117   4.292   5.530
 5431SOL     OW17191   5.440   4.133   1.188
 5431SOL    HW117192   5.393   4.218   1.166
 5431SOL    HW217193   5.383   4.077   1.249
 5432SOL     OW17194   1.771   5.146   5.697
 5432SOL    HW117195   1.743   5.066   5.644
 5432SOL    HW217196   1.792   5.118   5.791
 5433SOL     OW17197   2.309   6.671   1.097
 5433SOL    HW117198   2.264   6.611   1.164
 5433SOL    HW217199   2.242   6.736   1.061
 5434SOL     OW17200   5.352   5.595   4.466
 5434SOL    HW117201   5.267   5.602   4.414
 5434SOL    HW217202   5.344   5.647   4.551
 5435SOL     OW17203   0.214   3.411   0.354
 5435SOL    HW117204   0.152   3.383   0.280
 5435SOL    HW217205   0.271   3.334   0.381
 5436SOL     OW17206   1.024   4.578   0.916
 5436SOL    HW117207   0.951   4.646   0.921
 5436SOL    HW217208   0.996   4.495   0.964
 5437SOL     OW17209   3.093   6.336   6.306
 5437SOL    HW117210   3.142   6.421   6.327
 5437SOL    HW217211   3.124   6.264   6.367
 5438SOL     OW17212   5.023   6.581   2.571
 5438SOL    HW117213   5.003   6.554   2.665
 5438SOL    HW217214   4.941   6.618   2.529
 5439SOL     OW17215   0.858   3.795   1.837
 5439SOL    HW117216   0.941   3.783   1.784
 5439SOL    HW217217   0.879   3.791   1.935
 5440SOL     OW17218   5.692   6.335   3.281
 5440SOL    HW117219   5.775   6.385   3.258
 5440SOL    HW217220   5.651   6.373   3.364
 5441SOL     OW17221   5.050   0.474   4.828
 5441SOL    HW117222   5.104   0.444   4.907
 5441SOL    HW217223   4.996   0.554   4.854
 5442SOL     OW17224   2.841   0.014   0.063
 5442SOL    HW117225   2.782   0.088   0.094
 5442SOL    HW217226   2.836   0.007   6.982
 5443SOL     OW17227   5.846   1.198   3.412
 5443SOL    HW117228   5.763   1.158   3.374
 5443SOL    HW217229   5.918   1.128   3.416
 5444SOL     OW17230   1.508   1.637   6.627
 5444SOL    HW117231   1.508   1.735   6.611
 5444SOL    HW217232   1.592   1.597   6.591
 5445SOL     OW17233   5.734   6.116   4.993
 5445SOL    HW117234   5.646   6.158   5.015
 5445SOL    HW217235   5.774   6.163   4.914
 5446SOL     OW17236   2.274   4.095   0.119
 5446SOL    HW117237   2.260   4.165   0.049
 5446SOL    HW217238   2.275   4.005   0.075
 5447SOL     OW17239   5.895   2.518   1.634
 5447SOL    HW117240   5.983   2.518   1.586
 5447SOL    HW217241   5.882   2.430   1.680
 5448SOL     OW17242   5.721   5.119   1.557
 5448SOL    HW117243   5.787   5.170   1.613
 5448SOL    HW217244   5.695   5.035   1.604
 5449SOL     OW17245   2.154   0.250   2.369
 5449SOL    HW117246   2.088   0.176   2.353
 5449SOL    HW217247   2.202   0.233   2.455
 5450SOL     OW17248   4.373   4.800   1.636
 5450SOL    HW117249   4.460   4.770   1.677
 5450SOL    HW217250   4.312   4.721   1.626
 5451SOL     OW17251   0.685   5.453   3.423
 5451SOL    HW117252   0.635   5.492   3.346
 5451SOL    HW217253   0.752   5.386   3.388
 5452SOL     OW17254   2.157   3.842   2.903
 5452SOL    HW117255   2.142   3.750   2.941
 5452SOL    HW217256   2.187   3.834   2.808
 5453SOL     OW17257   5.767   5.390   4.187
 5453SOL    HW117258   5.754   5.292   4.171
 5453SOL    HW217259   5.677   5.433   4.199
 5454SOL     OW17260   6.241   3.374   2.129
 5454SOL    HW117261   6.168   3.308   2.111
 5454SOL    HW217262   6.280   3.405   2.042
 5455SOL     OW17263   2.199   3.006   2.744
 5455SOL    HW117264   2.162   3.000   2.651
 5455SOL    HW217265   2.260   2.928   2.761
 5456SOL     OW17266   5.205   2.656   0.247
 5456SOL    HW117267   5.255   2.570   0.237
 5456SOL    HW217268   5.132   2.661   0.179
 5457SOL     OW17269   6.262   1.183   0.316
 5457SOL    HW117270   6.294   1.147   0.403
 5457SOL    HW217271   6.193   1.254   0.332
 5458SOL     OW17272   6.229   4.378   5.923
 5458SOL    HW117273   6.166   4.451   5.949
 5458SOL    HW217274   6.240   4.377   5.824
 5459SOL     OW17275   2.451   3.503   5.542
 5459SOL    HW117276   2.411   3.589   5.573
 5459SOL    HW217277   2.410   3.477   5.455
 5460SOL     OW17278   0.062   1.060   1.387
 5460SOL    HW117279   0.106   1.096   1.305
 5460SOL    HW217280   0.085   1.118   1.465
 5461SOL     OW17281   5.503   0.624   6.471
 5461SOL    HW117282   5.489   0.718   6.500
 5461SOL    HW217283   5.525   0.622   6.373
 5462SOL     OW17284   5.000   5.011   6.484
 5462SOL    HW117285   4.965   5.104   6.490
 5462SOL    HW217286   5.033   4.982   6.574
 5463SOL     OW17287   2.555   4.625   7.007
 5463SOL    HW117288   2.603   4.704   6.968
 5463SOL    HW217289   2.479   4.599   6.947
 5464SOL     OW17290   2.186   5.832   3.950
 5464SOL    HW117291   2.103   5.797   3.992
 5464SOL    HW217292   2.264   5.815   4.010
 5465SOL     OW17293   0.815   1.035   4.336
 5465SOL    HW117294   0.861   1.010   4.421
 5465SOL    HW217295   0.846   0.976   4.262
 5466SOL     OW17296   5.447   2.397   4.943
 5466SOL    HW117297   5.364   2.445   4.973
 5466SOL    HW217298   5.495   2.452   4.875
 5467SOL     OW17299   5.208   3.933   4.053
 5467SOL    HW117300   5.133   3.996   4.070
 5467SOL    HW217301   5.259   3.963   3.972
 5468SOL     OW17302   0.263   2.884   1.300
 5468SOL    HW117303   0.292   2.838   1.384
 5468SOL    HW217304   0.336   2.876   1.231
 5469SOL     OW17305   4.460   1.334   3.118
 5469SOL    HW117306   4.526   1.267   3.152
 5469SOL    HW217307   4.447   1.406   3.186
 5470SOL     OW17308   2.787   4.756   4.095
 5470SOL    HW117309   2.706   4.697   4.101
 5470SOL    HW217310   2.796   4.789   4.000
 5471SOL     OW17311   5.076   0.375   4.177
 5471SOL    HW117312   5.087   0.281   4.209
 5471SOL    HW217313   5.153   0.430   4.209
 5472SOL     OW17314   2.945   4.071   6.526
 5472SOL    HW117315   2.909   4.134   6.596
 5472SOL    HW217316   3.023   4.114   6.480
 5473SOL     OW17317   2.993   4.800   2.126
 5473SOL    HW117318   2.952   4.721   2.080
 5473SOL    HW217319   3.091   4.784   2.138
 5474SOL     OW17320   1.061   4.912   1.805
 5474SOL    HW117321   1.157   4.888   1.793
 5474SOL    HW217322   1.052   4.977   1.880
 5475SOL     OW17323   0.856   1.229   5.579
 5475SOL    HW117324   0.760   1.259   5.583
 5475SOL    HW217325   0.893   1.227   5.672
 5476SOL     OW17326   2.695   1.207   5.078
 5476SOL    HW117327   2.678   1.234   5.172
 5476SOL    HW217328   2.791   1.183   5.066
 5477SOL     OW17329   2.140   3.948   3.177
 5477SOL    HW117330   2.118   3.872   3.238
 5477SOL    HW217331   2.133   3.918   3.082
 5478SOL     OW17332   6.513   3.492   5.778
 5478SOL    HW117333   6.440   3.441   5.732
 5478SOL    HW217334   6.494   3.495   5.876
 5479SOL     OW17335   5.282   4.052   4.446
 5479SOL    HW117336   5.260   4.138   4.400
 5479SOL    HW217337   5.367   4.015   4.409
 5480SOL     OW17338   1.366   2.883   6.116
 5480SOL    HW117339   1.332   2.939   6.040
 5480SOL    HW217340   1.458   2.913   6.141
 5481SOL     OW17341   4.431   1.514   0.360
 5481SOL    HW117342   4.456   1.478   0.450
 5481SOL    HW217343   4.353   1.461   0.325
 5482SOL     OW17344   5.316   4.501   2.191
 5482SOL    HW117345   5.405   4.541   2.212
 5482SOL    HW217346   5.287   4.530   2.100
 5483SOL     OW17347   5.537   2.286   0.293
 5483SOL    HW117348   5.512   2.379   0.264
 5483SOL    HW217349   5.636   2.277   0.293
 5484SOL     OW17350   6.311   0.652   6.076
 5484SOL    HW117351   6.281   0.748   6.075
 5484SOL    HW217352   6.313   0.617   5.982
 5485SOL     OW17353   2.870   0.737   4.443
 5485SOL    HW117354   2.784   0.786   4.457
 5485SOL    HW217355   2.899   0.748   4.349
 5486SOL     OW17356   0.021   0.468   3.937
 5486SOL    HW117357   0.037   0.514   3.850
 5486SOL    HW217358   6.942   0.459   3.953
 5487SOL     OW17359   4.320   5.230   1.146
 5487SOL    HW117360   4.389   5.245   1.217
 5487SOL    HW217361   4.357   5.258   1.057
 5488SOL     OW17362   5.083   0.450   6.281
 5488SOL    HW117363   4.999   0.438   6.227
 5488SOL    HW217364   5.093   0.373   6.343
 5489SOL     OW17365   6.665   3.821   2.537
 5489SOL    HW117366   6.612   3.807   2.621
 5489SOL    HW217367   6.602   3.835   2.461
 5490SOL     OW17368   3.011   0.880   6.554
 5490SOL    HW117369   2.990   0.879   6.456
 5490SOL    HW217370   2.946   0.939   6.602
 5491SOL     OW17371   6.440   6.292   1.647
 5491SOL    HW117372   6.495   6.292   1.564
 5491SOL    HW217373   6.404   6.384   1.663
 5492SOL     OW17374   0.904   1.379   4.746
 5492SOL    HW117375   0.889   1.285   4.716
 5492SOL    HW217376   1.001   1.402   4.736
 5493SOL     OW17377   4.464   1.437   6.998
 5493SOL    HW117378   4.540   1.422   0.042
 5493SOL    HW217379   4.479   1.523   6.948
 5494SOL     OW17380   5.207   3.238   2.478
 5494SOL    HW117381   5.243   3.316   2.529
 5494SOL    HW217382   5.250   3.235   2.388
 5495SOL     OW17383   3.143   3.080   4.426
 5495SOL    HW117384   3.151   3.153   4.358
 5495SOL    HW217385   3.115   3.118   4.513
 5496SOL     OW17386   4.616   5.119   2.261
 5496SOL    HW117387   4.647   5.053   2.192
 5496SOL    HW217388   4.607   5.073   2.350
 5497SOL     OW17389   5.151   0.171   0.224
 5497SOL    HW117390   5.246   0.201   0.217
 5497SOL    HW217391   5.111   0.163   0.133
 5498SOL     OW17392   4.502   1.566   4.248
 5498SOL    HW117393   4.459   1.542   4.162
 5498SOL    HW217394   4.449   1.528   4.324
 5499SOL     OW17395   0.098   0.838   5.062
 5499SOL    HW117396   0.122   0.750   5.022
 5499SOL    HW217397   0.174   0.870   5.119
 5500SOL     OW17398   1.911   6.217   0.939
 5500SOL    HW117399   1.888   6.289   0.873
 5500SOL    HW217400   1.953   6.141   0.891
 5501SOL     OW17401   2.499   0.703   2.067
 5501SOL    HW117402   2.515   0.694   1.969
 5501SOL    HW217403   2.529   0.793   2.098
 5502SOL     OW17404   4.989   4.262   0.617
 5502SOL    HW117405   4.946   4.345   0.652
 5502SOL    HW217406   4.945   4.181   0.657
 5503SOL     OW17407   6.713   0.145   3.913
 5503SOL    HW117408   6.787   0.094   3.870
 5503SOL    HW217409   6.630   0.090   3.913
 5504SOL     OW17410   2.690   2.389   4.534
 5504SOL    HW117411   2.749   2.342   4.599
 5504SOL    HW217412   2.685   2.337   4.449
 5505SOL     OW17413   3.315   4.962   0.675
 5505SOL    HW117414   3.283   5.031   0.611
 5505SOL    HW217415   3.268   4.875   0.657
 5506SOL     OW17416   0.712   6.739   5.290
 5506SOL    HW117417   0.721   6.775   5.382
 5506SOL    HW217418   0.630   6.682   5.284
 5507SOL     OW17419   2.644   5.757   5.188
 5507SOL    HW117420   2.589   5.795   5.262
 5507SOL    HW217421   2.584   5.719   5.118
 5508SOL     OW17422   1.565   1.268   5.002
 5508SOL    HW117423   1.664   1.274   4.992
 5508SOL    HW217424   1.525   1.358   4.990
 5509SOL     OW17425   6.939   0.250   5.933
 5509SOL    HW117426   6.856   0.218   5.979
 5509SOL    HW217427   6.985   0.172   5.891
 5510SOL     OW17428   0.449   6.969   5.317
 5510SOL    HW117429   0.468   6.984   5.414
 5510SOL    HW217430   0.507   0.010   5.262
 5511SOL     OW17431   0.379   2.487   1.236
 5511SOL    HW117432   0.393   2.507   1.333
 5511SOL    HW217433   0.291   2.440   1.223
 5512SOL     OW17434   6.275   0.358   0.272
 5512SOL    HW117435   6.371   0.331   0.286
 5512SOL    HW217436   6.271   0.456   0.248
 5513SOL     OW17437   2.951   6.068   4.355
 5513SOL    HW117438   2.910   6.125   4.426
 5513SOL    HW217439   2.926   5.972   4.371
 5514SOL     OW17440   5.960   6.121   3.323
 5514SOL    HW117441   5.871   6.158   3.296
 5514SOL    HW217442   6.019   6.196   3.352
 5515SOL     OW17443   0.198   3.537   3.164
 5515SOL    HW117444   0.148   3.620   3.190
 5515SOL    HW217445   0.289   3.539   3.205
 5516SOL     OW17446   1.756   2.654   0.467
 5516SOL    HW117447   1.682   2.671   0.402
 5516SOL    HW217448   1.717   2.627   0.556
 5517SOL     OW17449   2.943   1.069   1.751
 5517SOL    HW117450   2.972   1.086   1.845
 5517SOL    HW217451   2.930   1.156   1.704
 5518SOL     OW17452   5.501   3.691   5.775
 5518SOL    HW117453   5.450   3.773   5.801
 5518SOL    HW217454   5.490   3.674   5.677
 5519SOL     OW17455   5.678   4.868   2.574
 5519SOL    HW117456   5.595   4.874   2.628
 5519SOL    HW217457   5.738   4.798   2.613
 5520SOL     OW17458   1.373   3.042   0.785
 5520SOL    HW117459   1.322   2.957   0.798
 5520SOL    HW217460   1.316   3.120   0.812
 5521SOL     OW17461   5.554   4.425   6.073
 5521SOL    HW117462   5.485   4.484   6.033
 5521SOL    HW217463   5.538   4.330   6.044
 5522SOL     OW17464   1.269   2.259   1.899
 5522SOL    HW117465   1.342   2.225   1.958
 5522SOL    HW217466   1.306   2.327   1.837
 5523SOL     OW17467   3.226   6.745   1.374
 5523SOL    HW117468   3.156   6.708   1.314
 5523SOL    HW217469   3.315   6.706   1.350
 5524SOL     OW17470   6.381   6.891   5.811
 5524SOL    HW117471   6.381   6.987   5.837
 5524SOL    HW217472   6.312   6.875   5.740
 5525SOL     OW17473   6.388   6.448   3.334
 5525SOL    HW117474   6.423   6.534   3.369
 5525SOL    HW217475   6.456   6.406   3.273
 5526SOL     OW17476   5.605   3.322   4.668
 5526SOL    HW117477   5.673   3.389   4.639
 5526SOL    HW217478   5.586   3.258   4.593
 5527SOL     OW17479   2.565   3.208   6.780
 5527SOL    HW117480   2.535   3.221   6.685
 5527SOL    HW217481   2.492   3.237   6.842
 5528SOL     OW17482   6.612   2.668   2.587
 5528SOL    HW117483   6.589   2.597   2.519
 5528SOL    HW217484   6.643   2.750   2.540
 5529SOL     OW17485   1.131   0.918   3.885
 5529SOL    HW117486   1.201   0.909   3.957
 5529SOL    HW217487   1.158   0.991   3.822
 5530SOL     OW17488   7.011   3.071   6.743
 5530SOL    HW117489   6.944   2.998   6.726
 5530SOL    HW217490   0.009   3.078   6.841
 5531SOL     OW17491   2.652   3.111   0.020
 5531SOL    HW117492   2.614   3.125   6.948
 5531SOL    HW217493   2.600   3.040   0.067
 5532SOL     OW17494   2.920   2.680   1.429
 5532SOL    HW117495   2.866   2.598   1.410
 5532SOL    HW217496   3.008   2.654   1.470
 5533SOL     OW17497   3.521   0.452   1.264
 5533SOL    HW117498   3.439   0.499   1.232
 5533SOL    HW217499   3.558   0.396   1.191
 5534SOL     OW17500   0.622   3.157   5.112
 5534SOL    HW117501   0.707   3.161   5.061
 5534SOL    HW217502   0.546   3.142   5.049
 5535SOL     OW17503   4.769   4.455   3.935
 5535SOL    HW117504   4.821   4.538   3.916
 5535SOL    HW217505   4.768   4.437   4.033
 5536SOL     OW17506   2.275   1.120   4.298
 5536SOL    HW117507   2.327   1.046   4.256
 5536SOL    HW217508   2.178   1.110   4.275
 5537SOL     OW17509   3.530   0.978   3.701
 5537SOL    HW117510   3.582   1.016   3.624
 5537SOL    HW217511   3.434   1.003   3.692
 5538SOL     OW17512   5.077   2.448   2.253
 5538SOL    HW117513   5.119   2.514   2.315
 5538SOL    HW217514   5.045   2.495   2.171
 5539SOL     OW17515   1.968   0.440   6.636
 5539SOL    HW117516   1.944   0.366   6.573
 5539SOL    HW217517   1.900   0.444   6.710
 5540SOL     OW17518   5.136   0.029   5.400
 5540SOL    HW117519   5.110   0.054   5.306
 5540SOL    HW217520   5.153   6.949   5.404
 5541SOL     OW17521   4.381   2.480   6.077
 5541SOL    HW117522   4.355   2.384   6.075
 5541SOL    HW217523   4.475   2.489   6.109
 5542SOL     OW17524   4.769   4.200   6.308
 5542SOL    HW117525   4.733   4.273   6.249
 5542SOL    HW217526   4.737   4.112   6.274
 5543SOL     OW17527   0.777   0.239   6.086
 5543SOL    HW117528   0.870   0.274   6.076
 5543SOL    HW217529   0.733   0.233   5.996
 5544SOL     OW17530   3.478   5.352   0.208
 5544SOL    HW117531   3.521   5.278   0.259
 5544SOL    HW217532   3.522   5.439   0.231
 5545SOL     OW17533   6.003   1.789   2.672
 5545SOL    HW117534   6.077   1.749   2.727
 5545SOL    HW217535   5.969   1.721   2.608
 5546SOL     OW17536   0.413   5.784   4.334
 5546SOL    HW117537   0.324   5.754   4.299
 5546SOL    HW217538   0.446   5.860   4.279
 5547SOL     OW17539   5.463   1.506   5.139
 5547SOL    HW117540   5.456   1.556   5.053
 5547SOL    HW217541   5.377   1.458   5.158
 5548SOL     OW17542   0.862   3.376   5.131
 5548SOL    HW117543   0.906   3.295   5.094
 5548SOL    HW217544   0.806   3.350   5.210
 5549SOL     OW17545   3.789   2.929   0.871
 5549SOL    HW117546   3.837   3.009   0.906
 5549SOL    HW217547   3.780   2.937   0.772
 5550SOL     OW17548   2.596   3.787   1.631
 5550SOL    HW117549   2.594   3.878   1.672
 5550SOL    HW217550   2.680   3.740   1.658
 5551SOL     OW17551   1.671   4.467   2.448
 5551SOL    HW117552   1.738   4.540   2.452
 5551SOL    HW217553   1.596   4.494   2.386
 5552SOL     OW17554   0.901   0.370   0.191
 5552SOL    HW117555   0.943   0.280   0.208
 5552SOL    HW217556   0.911   0.392   0.094
 5553SOL     OW17557   5.222   6.760   0.073
 5553SOL    HW117558   5.136   6.802   0.045
 5553SOL    HW217559   5.292   6.830   0.085
 5554SOL     OW17560   6.611   2.328   1.581
 5554SOL    HW117561   6.586   2.370   1.494
 5554SOL    HW217562   6.617   2.398   1.652
 5555SOL     OW17563   1.940   5.092   2.089
 5555SOL    HW117564   1.962   5.187   2.108
 5555SOL    HW217565   1.989   5.033   2.153
 5556SOL     OW17566   6.828   1.417   4.795
 5556SOL    HW117567   6.879   1.457   4.718
 5556SOL    HW217568   6.732   1.443   4.788
 5557SOL     OW17569   3.551   6.262   2.837
 5557SOL    HW117570   3.524   6.359   2.843
 5557SOL    HW217571   3.513   6.223   2.753
 5558SOL     OW17572   4.264   3.258   6.222
 5558SOL    HW117573   4.187   3.262   6.285
 5558SOL    HW217574   4.333   3.194   6.257
 5559SOL     OW17575   3.694   0.538   2.875
 5559SOL    HW117576   3.690   0.495   2.785
 5559SOL    HW217577   3.632   0.492   2.938
 5560SOL     OW17578   0.119   6.018   3.450
 5560SOL    HW117579   0.215   6.021   3.420
 5560SOL    HW217580   0.101   5.929   3.492
 5561SOL     OW17581   3.508   0.486   3.498
 5561SOL    HW117582   3.525   0.584   3.486
 5561SOL    HW217583   3.521   0.461   3.594
 5562SOL     OW17584   4.349   3.245   0.587
 5562SOL    HW117585   4.274   3.310   0.572
 5562SOL    HW217586   4.428   3.273   0.533
 5563SOL     OW17587   2.198   4.885   2.171
 5563SOL    HW117588   2.160   4.796   2.145
 5563SOL    HW217589   2.194   4.947   2.093
 5564SOL     OW17590   4.755   0.178   6.187
 5564SOL    HW117591   4.800   0.147   6.103
 5564SOL    HW217592   4.672   0.124   6.201
 5565SOL     OW17593   3.734   1.206   6.244
 5565SOL    HW117594   3.763   1.215   6.339
 5565SOL    HW217595   3.711   1.110   6.226
 5566SOL     OW17596   1.476   5.337   5.752
 5566SOL    HW117597   1.488   5.414   5.689
 5566SOL    HW217598   1.437   5.259   5.703
 5567SOL     OW17599   0.675   5.042   6.836
 5567SOL    HW117600   0.582   5.064   6.807
 5567SOL    HW217601   0.722   4.993   6.762
 5568SOL     OW17602   4.819   5.402   1.698
 5568SOL    HW117603   4.890   5.396   1.767
 5568SOL    HW217604   4.739   5.449   1.735
 5569SOL     OW17605   2.102   2.149   2.337
 5569SOL    HW117606   2.102   2.103   2.248
 5569SOL    HW217607   2.168   2.224   2.336
 5570SOL     OW17608   6.646   4.043   1.244
 5570SOL    HW117609   6.548   4.057   1.262
 5570SOL    HW217610   6.684   3.982   1.314
 5571SOL     OW17611   6.616   4.623   0.785
 5571SOL    HW117612   6.613   4.610   0.685
 5571SOL    HW217613   6.653   4.714   0.805
 5572SOL     OW17614   1.273   4.339   4.933
 5572SOL    HW117615   1.196   4.275   4.938
 5572SOL    HW217616   1.326   4.333   5.018
 5573SOL     OW17617   3.389   5.128   3.772
 5573SOL    HW117618   3.339   5.043   3.783
 5573SOL    HW217619   3.488   5.110   3.778
 5574SOL     OW17620   1.113   1.526   6.115
 5574SOL    HW117621   1.020   1.493   6.099
 5574SOL    HW217622   1.120   1.564   6.207
 5575SOL     OW17623   6.837   0.886   2.045
 5575SOL    HW117624   6.895   0.910   2.123
 5575SOL    HW217625   6.853   0.791   2.019
 5576SOL     OW17626   1.508   4.883   3.670
 5576SOL    HW117627   1.441   4.821   3.711
 5576SOL    HW217628   1.508   4.871   3.571
 5577SOL     OW17629   2.264   2.820   6.224
 5577SOL    HW117630   2.272   2.831   6.323
 5577SOL    HW217631   2.329   2.881   6.178
 5578SOL     OW17632   3.993   3.911   4.000
 5578SOL    HW117633   3.897   3.893   3.978
 5578SOL    HW217634   4.050   3.838   3.962
 5579SOL     OW17635   5.991   3.420   1.593
 5579SOL    HW117636   5.930   3.411   1.515
 5579SOL    HW217637   6.086   3.427   1.560
 5580SOL     OW17638   5.247   1.929   5.548
 5580SOL    HW117639   5.286   1.996   5.485
 5580SOL    HW217640   5.321   1.880   5.594
 5581SOL     OW17641   1.235   1.329   6.877
 5581SOL    HW117642   1.254   1.416   6.832
 5581SOL    HW217643   1.224   1.344   6.975
 5582SOL     OW17644   3.233   2.464   6.067
 5582SOL    HW117645   3.215   2.425   5.976
 5582SOL    HW217646   3.155   2.444   6.127
 5583SOL     OW17647   6.109   6.884   0.527
 5583SOL    HW117648   6.112   6.785   0.541
 5583SOL    HW217649   6.203   6.919   0.519
 5584SOL     OW17650   1.623   3.108   4.749
 5584SOL    HW117651   1.595   3.180   4.685
 5584SOL    HW217652   1.642   3.149   4.838
 5585SOL     OW17653   5.560   4.770   1.420
 5585SOL    HW117654   5.515   4.837   1.360
 5585SOL    HW217655   5.579   4.813   1.508
 5586SOL     OW17656   0.890   5.402   1.222
 5586SOL    HW117657   0.881   5.306   1.249
 5586SOL    HW217658   0.875   5.461   1.301
 5587SOL     OW17659   6.405   0.641   5.707
 5587SOL    HW117660   6.356   0.575   5.650
 5587SOL    HW217661   6.478   0.594   5.757
 5588SOL     OW17662   3.674   6.852   0.484
 5588SOL    HW117663   3.622   6.835   0.400
 5588SOL    HW217664   3.616   6.899   0.551
 5589SOL     OW17665   6.800   4.181   6.209
 5589SOL    HW117666   6.826   4.089   6.180
 5589SOL    HW217667   6.819   4.246   6.135
 5590SOL     OW17668   6.011   5.384   3.622
 5590SOL    HW117669   5.938   5.412   3.560
 5590SOL    HW217670   6.096   5.372   3.570
 5591SOL     OW17671   5.132   1.407   2.254
 5591SOL    HW117672   5.140   1.351   2.171
 5591SOL    HW217673   5.056   1.471   2.243
 5592SOL     OW17674   0.117   5.289   3.722
 5592SOL    HW117675   0.105   5.280   3.821
 5592SOL    HW217676   0.028   5.283   3.677
 5593SOL     OW17677   1.023   4.186   0.808
 5593SOL    HW117678   0.969   4.105   0.832
 5593SOL    HW217679   1.102   4.158   0.753
 5594SOL     OW17680   5.896   1.566   5.662
 5594SOL    HW117681   5.896   1.468   5.681
 5594SOL    HW217682   5.911   1.617   5.747
 5595SOL     OW17683   0.576   2.184   0.635
 5595SOL    HW117684   0.584   2.203   0.537
 5595SOL    HW217685   0.479   2.190   0.662
 5596SOL     OW17686   3.769   6.120   3.196
 5596SOL    HW117687   3.756   6.022   3.182
 5596SOL    HW217688   3.684   6.168   3.176
 5597SOL     OW17689   5.098   3.171   1.555
 5597SOL    HW117690   5.049   3.204   1.475
 5597SOL    HW217691   5.035   3.124   1.616
 5598SOL     OW17692   4.065   0.897   4.386
 5598SOL    HW117693   4.001   0.828   4.351
 5598SOL    HW217694   4.144   0.851   4.427
 5599SOL     OW17695   0.833   1.306   3.477
 5599SOL    HW117696   0.786   1.386   3.515
 5599SOL    HW217697   0.921   1.334   3.438
 5600SOL     OW17698   2.632   2.888   5.390
 5600SOL    HW117699   2.567   2.933   5.329
 5600SOL    HW217700   2.684   2.958   5.439
 5601SOL     OW17701   2.427   0.602   6.433
 5601SOL    HW117702   2.344   0.644   6.396
 5601SOL    HW217703   2.440   0.512   6.392
 5602SOL     OW17704   2.076   0.802   0.032
 5602SOL    HW117705   2.028   0.889   0.033
 5602SOL    HW217706   2.011   0.728   0.014
 5603SOL     OW17707   6.412   4.126   5.277
 5603SOL    HW117708   6.424   4.039   5.230
 5603SOL    HW217709   6.315   4.142   5.294
 5604SOL     OW17710   5.215   0.673   6.207
 5604SOL    HW117711   5.263   0.653   6.122
 5604SOL    HW217712   5.167   0.592   6.239
 5605SOL     OW17713   0.552   1.973   6.591
 5605SOL    HW117714   0.601   1.942   6.510
 5605SOL    HW217715   0.599   1.941   6.673
 5606SOL     OW17716   5.411   0.321   2.993
 5606SOL    HW117717   5.414   0.315   2.894
 5606SOL    HW217718   5.499   0.353   3.028
 5607SOL     OW17719   5.341   0.502   1.186
 5607SOL    HW117720   5.277   0.498   1.109
 5607SOL    HW217721   5.346   0.412   1.229
 5608SOL     OW17722   3.795   6.154   5.098
 5608SOL    HW117723   3.889   6.144   5.131
 5608SOL    HW217724   3.790   6.230   5.033
 5609SOL     OW17725   1.263   5.670   6.005
 5609SOL    HW117726   1.340   5.649   5.945
 5609SOL    HW217727   1.294   5.676   6.100
 5610SOL     OW17728   4.433   0.083   6.647
 5610SOL    HW117729   4.359   0.106   6.710
 5610SOL    HW217730   4.460   0.165   6.595
 5611SOL     OW17731   1.922   4.167   4.376
 5611SOL    HW117732   1.893   4.144   4.469
 5611SOL    HW217733   1.994   4.104   4.347
 5612SOL     OW17734   3.314   6.484   4.682
 5612SOL    HW117735   3.293   6.491   4.779
 5612SOL    HW217736   3.392   6.544   4.661
 5613SOL     OW17737   3.209   5.558   1.670
 5613SOL    HW117738   3.233   5.560   1.767
 5613SOL    HW217739   3.131   5.497   1.655
 5614SOL     OW17740   5.309   1.707   4.444
 5614SOL    HW117741   5.281   1.803   4.442
 5614SOL    HW217742   5.406   1.701   4.469
 5615SOL     OW17743   1.188   1.787   1.790
 5615SOL    HW117744   1.171   1.884   1.772
 5615SOL    HW217745   1.228   1.744   1.709
 5616SOL     OW17746   1.968   6.430   5.175
 5616SOL    HW117747   2.048   6.407   5.230
 5616SOL    HW217748   1.994   6.496   5.104
 5617SOL     OW17749   0.744   0.858   5.835
 5617SOL    HW117750   0.660   0.808   5.859
 5617SOL    HW217751   0.734   0.897   5.744
 5618SOL     OW17752   6.098   5.167   2.509
 5618SOL    HW117753   6.024   5.123   2.559
 5618SOL    HW217754   6.135   5.243   2.563
 5619SOL     OW17755   2.356   3.720   5.315
 5619SOL    HW117756   2.398   3.790   5.258
 5619SOL    HW217757   2.274   3.685   5.270
 5620SOL     OW17758   5.198   2.331   6.945
 5620SOL    HW117759   5.102   2.324   6.918
 5620SOL    HW217760   5.248   2.250   6.913
 5621SOL     OW17761   2.596   1.918   6.822
 5621SOL    HW117762   2.522   1.979   6.796
 5621SOL    HW217763   2.636   1.877   6.739
 5622SOL     OW17764   5.403   0.049   5.306
 5622SOL    HW117765   5.405   6.999   5.234
 5622SOL    HW217766   5.310   0.061   5.340
 5623SOL     OW17767   6.969   5.963   6.835
 5623SOL    HW117768   6.959   6.029   6.909
 5623SOL    HW217769   6.946   6.006   6.747
 5624SOL     OW17770   0.535   4.195   2.008
 5624SOL    HW117771   0.516   4.292   1.999
 5624SOL    HW217772   0.595   4.165   1.934
 5625SOL     OW17773   6.327   1.704   5.702
 5625SOL    HW117774   6.319   1.724   5.604
 5625SOL    HW217775   6.244   1.658   5.733
 5626SOL     OW17776   5.268   6.675   5.151
 5626SOL    HW117777   5.309   6.766   5.145
 5626SOL    HW217778   5.243   6.642   5.060
 5627SOL     OW17779   1.333   0.481   1.105
 5627SOL    HW117780   1.321   0.577   1.081
 5627SOL    HW217781   1.398   0.438   1.042
 5628SOL     OW17782   1.759   1.519   4.001
 5628SOL    HW117783   1.738   1.599   4.057
 5628SOL    HW217784   1.825   1.461   4.048
 5629SOL     OW17785   3.122   3.028   3.722
 5629SOL    HW117786   3.197   2.993   3.666
 5629SOL    HW217787   3.099   2.961   3.792
 5630SOL     OW17788   6.611   3.928   0.872
 5630SOL    HW117789   6.549   3.989   0.922
 5630SOL    HW217790   6.700   3.928   0.917
 5631SOL     OW17791   5.663   1.130   6.173
 5631SOL    HW117792   5.701   1.159   6.261
 5631SOL    HW217793   5.736   1.122   6.106
 5632SOL     OW17794   3.252   2.179   0.748
 5632SOL    HW117795   3.165   2.210   0.710
 5632SOL    HW217796   3.253   2.079   0.751
 5633SOL     OW17797   6.596   2.735   5.600
 5633SOL    HW117798   6.694   2.752   5.585
 5633SOL    HW217799   6.565   2.788   5.679
 5634SOL     OW17800   4.656   6.437   4.771
 5634SOL    HW117801   4.648   6.365   4.840
 5634SOL    HW217802   4.606   6.410   4.689
 5635SOL     OW17803   3.389   1.448   6.036
 5635SOL    HW117804   3.378   1.497   5.950
 5635SOL    HW217805   3.300   1.415   6.067
 5636SOL     OW17806   4.543   6.755   4.269
 5636SOL    HW117807   4.551   6.823   4.342
 5636SOL    HW217808   4.494   6.675   4.304
 5637SOL     OW17809   5.777   0.046   3.368
 5637SOL    HW117810   5.698   0.101   3.340
 5637SOL    HW217811   5.844   0.043   3.294
 5638SOL     OW17812   0.066   3.879   0.243
 5638SOL    HW117813   7.006   3.903   0.187
 5638SOL    HW217814   0.140   3.847   0.184
 5639SOL     OW17815   4.491   6.699   0.100
 5639SOL    HW117816   4.466   6.795   0.108
 5639SOL    HW217817   4.409   6.642   0.103
 5640SOL     OW17818   1.201   0.273   3.130
 5640SOL    HW117819   1.273   0.229   3.183
 5640SOL    HW217820   1.240   0.348   3.076
 5641SOL     OW17821   6.815   5.215   4.883
 5641SOL    HW117822   6.913   5.197   4.897
 5641SOL    HW217823   6.762   5.137   4.916
 5642SOL     OW17824   1.545   1.295   0.173
 5642SOL    HW117825   1.511   1.218   0.227
 5642SOL    HW217826   1.568   1.263   0.081
 5643SOL     OW17827   5.561   1.772   5.963
 5643SOL    HW117828   5.505   1.852   5.984
 5643SOL    HW217829   5.593   1.778   5.868
 5644SOL     OW17830   2.663   0.504   6.155
 5644SOL    HW117831   2.573   0.463   6.172
 5644SOL    HW217832   2.722   0.487   6.233
 5645SOL     OW17833   5.791   3.810   4.513
 5645SOL    HW117834   5.754   3.719   4.534
 5645SOL    HW217835   5.806   3.817   4.414
 5646SOL     OW17836   0.309   4.410   2.584
 5646SOL    HW117837   0.393   4.446   2.544
 5646SOL    HW217838   0.312   4.310   2.584
 5647SOL     OW17839   5.190   5.818   2.551
 5647SOL    HW117840   5.184   5.914   2.580
 5647SOL    HW217841   5.271   5.806   2.493
 5648SOL     OW17842   5.167   6.149   3.237
 5648SOL    HW117843   5.210   6.239   3.243
 5648SOL    HW217844   5.170   6.116   3.143
 5649SOL     OW17845   0.467   0.150   4.573
 5649SOL    HW117846   0.526   0.162   4.493
 5649SOL    HW217847   0.503   0.075   4.629
 5650SOL     OW17848   0.083   3.723   6.136
 5650SOL    HW117849   0.042   3.725   6.045
 5650SOL    HW217850   0.181   3.743   6.130
 5651SOL     OW17851   2.831   1.113   0.671
 5651SOL    HW117852   2.737   1.145   0.657
 5651SOL    HW217853   2.862   1.140   0.762
 5652SOL     OW17854   0.530   5.662   2.848
 5652SOL    HW117855   0.610   5.668   2.908
 5652SOL    HW217856   0.548   5.713   2.763
 5653SOL     OW17857   6.943   0.579   2.947
 5653SOL    HW117858   6.874   0.512   2.920
 5653SOL    HW217859   6.987   0.550   3.033
 5654SOL     OW17860   3.349   6.019   5.489
 5654SOL    HW117861   3.345   6.025   5.390
 5654SOL    HW217862   3.430   6.067   5.523
 5655SOL     OW17863   5.605   3.145   4.457
 5655SOL    HW117864   5.535   3.150   4.385
 5655SOL    HW217865   5.683   3.202   4.430
 5656SOL     OW17866   0.322   3.870   0.402
 5656SOL    HW117867   0.231   3.906   0.384
 5656SOL    HW217868   0.338   3.868   0.501
 5657SOL     OW17869   5.833   5.870   4.920
 5657SOL    HW117870   5.931   5.866   4.905
 5657SOL    HW217871   5.807   5.961   4.953
 5658SOL     OW17872   2.810   2.637   6.191
 5658SOL    HW117873   2.789   2.727   6.230
 5658SOL    HW217874   2.732   2.606   6.136
 5659SOL     OW17875   2.579   4.475   6.374
 5659SOL    HW117876   2.577   4.390   6.426
 5659SOL    HW217877   2.661   4.527   6.397
 5660SOL     OW17878   3.547   0.135   4.574
 5660SOL    HW117879   3.498   0.054   4.608
 5660SOL    HW217880   3.490   0.182   4.507
 5661SOL     OW17881   0.686   5.841   6.419
 5661SOL    HW117882   0.718   5.800   6.334
 5661SOL    HW217883   0.655   5.934   6.402
 5662SOL     OW17884   2.821   6.488   0.661
 5662SOL    HW117885   2.764   6.422   0.612
 5662SOL    HW217886   2.892   6.439   0.713
 5663SOL     OW17887   2.504   2.576   6.372
 5663SOL    HW117888   2.577   2.643   6.389
 5663SOL    HW217889   2.497   2.559   6.274
 5664SOL     OW17890   4.814   4.890   4.280
 5664SOL    HW117891   4.865   4.807   4.259
 5664SOL    HW217892   4.800   4.897   4.379
 5665SOL     OW17893   1.751   1.081   0.997
 5665SOL    HW117894   1.684   1.083   1.072
 5665SOL    HW217895   1.797   0.992   0.996
 5666SOL     OW17896   5.686   3.020   4.770
 5666SOL    HW117897   5.659   2.951   4.703
 5666SOL    HW217898   5.644   3.108   4.747
 5667SOL     OW17899   3.032   4.883   4.241
 5667SOL    HW117900   2.990   4.795   4.219
 5667SOL    HW217901   3.042   4.891   4.340
 5668SOL     OW17902   4.325   4.717   4.005
 5668SOL    HW117903   4.403   4.676   3.957
 5668SOL    HW217904   4.267   4.765   3.940
 5669SOL     OW17905   5.689   4.445   5.713
 5669SOL    HW117906   5.597   4.414   5.739
 5669SOL    HW217907   5.733   4.487   5.793
 5670SOL     OW17908   1.438   2.609   4.387
 5670SOL    HW117909   1.530   2.575   4.408
 5670SOL    HW217910   1.371   2.561   4.443
 5671SOL     OW17911   6.462   5.912   2.801
 5671SOL    HW117912   6.552   5.880   2.829
 5671SOL    HW217913   6.463   5.936   2.704
 5672SOL     OW17914   5.326   3.387   4.397
 5672SOL    HW117915   5.371   3.306   4.357
 5672SOL    HW217916   5.396   3.456   4.419
 5673SOL     OW17917   0.433   2.422   0.224
 5673SOL    HW117918   0.431   2.393   0.128
 5673SOL    HW217919   0.507   2.375   0.272
 5674SOL     OW17920   2.826   5.383   5.365
 5674SOL    HW117921   2.852   5.316   5.296
 5674SOL    HW217922   2.844   5.475   5.332
 5675SOL     OW17923   3.208   2.022   1.053
 5675SOL    HW117924   3.305   2.015   1.075
 5675SOL    HW217925   3.153   1.990   1.130
 5676SOL     OW17926   4.041   1.659   1.677
 5676SOL    HW117927   4.126   1.649   1.625
 5676SOL    HW217928   4.044   1.598   1.756
 5677SOL     OW17929   0.878   1.674   5.932
 5677SOL    HW117930   0.847   1.764   5.963
 5677SOL    HW217931   0.978   1.674   5.928
 5678SOL     OW17932   3.951   1.892   2.270
 5678SOL    HW117933   4.045   1.878   2.300
 5678SOL    HW217934   3.896   1.925   2.347
 5679SOL     OW17935   6.915   3.758   5.601
 5679SOL    HW117936   6.975   3.732   5.526
 5679SOL    HW217937   6.825   3.716   5.589
 5680SOL     OW17938   0.480   5.603   4.964
 5680SOL    HW117939   0.479   5.623   4.866
 5680SOL    HW217940   0.398   5.643   5.007
 5681SOL     OW17941   1.387   3.482   3.184
 5681SOL    HW117942   1.453   3.414   3.218
 5681SOL    HW217943   1.413   3.511   3.092
 5682SOL     OW17944   1.784   4.646   0.938
 5682SOL    HW117945   1.684   4.648   0.948
 5682SOL    HW217946   1.827   4.651   1.028
 5683SOL     OW17947   0.006   0.245   5.644
 5683SOL    HW117948   0.007   0.172   5.713
 5683SOL    HW217949   6.943   0.237   5.588
 5684SOL     OW17950   1.931   2.943   4.895
 5684SOL    HW117951   1.943   2.871   4.963
 5684SOL    HW217952   1.917   2.902   4.805
 5685SOL     OW17953   2.109   1.820   1.676
 5685SOL    HW117954   2.175   1.797   1.604
 5685SOL    HW217955   2.017   1.794   1.646
 5686SOL     OW17956   5.614   6.229   5.727
 5686SOL    HW117957   5.595   6.219   5.630
 5686SOL    HW217958   5.657   6.145   5.761
 5687SOL     OW17959   1.512   6.813   6.431
 5687SOL    HW117960   1.440   6.850   6.373
 5687SOL    HW217961   1.571   6.753   6.376
 5688SOL     OW17962   1.656   2.054   3.119
 5688SOL    HW117963   1.726   2.120   3.146
 5688SOL    HW217964   1.686   1.962   3.144
 5689SOL     OW17965   0.148   2.353   1.201
 5689SOL    HW117966   0.087   2.397   1.268
 5689SOL    HW217967   0.161   2.257   1.225
 5690SOL     OW17968   3.024   5.254   0.076
 5690SOL    HW117969   3.074   5.298   0.151
 5690SOL    HW217970   2.932   5.230   0.108
 5691SOL     OW17971   4.564   2.615   3.476
 5691SOL    HW117972   4.611   2.602   3.564
 5691SOL    HW217973   4.479   2.563   3.476
 5692SOL     OW17974   6.340   4.886   1.651
 5692SOL    HW117975   6.253   4.872   1.698
 5692SOL    HW217976   6.357   4.810   1.589
 5693SOL     OW17977   3.401   0.638   2.595
 5693SOL    HW117978   3.435   0.548   2.566
 5693SOL    HW217979   3.419   0.649   2.693
 5694SOL     OW17980   0.277   0.327   1.039
 5694SOL    HW117981   0.212   0.259   1.007
 5694SOL    HW217982   0.369   0.301   1.011
 5695SOL     OW17983   2.139   1.010   2.250
 5695SOL    HW117984   2.135   0.917   2.214
 5695SOL    HW217985   2.056   1.060   2.223
 5696SOL     OW17986   0.273   0.269   3.665
 5696SOL    HW117987   0.286   0.173   3.639
 5696SOL    HW217988   0.180   0.297   3.640
 5697SOL     OW17989   6.418   1.530   0.233
 5697SOL    HW117990   6.481   1.474   0.179
 5697SOL    HW217991   6.432   1.510   0.330
 5698SOL     OW17992   2.917   2.193   3.255
 5698SOL    HW117993   3.005   2.149   3.275
 5698SOL    HW217994   2.898   2.186   3.158
 5699SOL     OW17995   2.438   2.598   2.422
 5699SOL    HW117996   2.520   2.557   2.463
 5699SOL    HW217997   2.453   2.610   2.323
 5700SOL     OW17998   5.544   6.987   2.578
 5700SOL    HW117999   5.519   6.891   2.594
 5700SOL    HW218000   5.643   6.995   2.565
 5701SOL     OW18001   1.746   0.588   1.025
 5701SOL    HW118002   1.715   0.587   1.119
 5701SOL    HW218003   1.784   0.498   1.001
 5702SOL     OW18004   1.331   6.235   5.126
 5702SOL    HW118005   1.391   6.183   5.065
 5702SOL    HW218006   1.265   6.173   5.169
 5703SOL     OW18007   0.797   2.816   6.150
 5703SOL    HW118008   0.745   2.895   6.183
 5703SOL    HW218009   0.737   2.737   6.142
 5704SOL     OW18010   4.175   5.721   4.291
 5704SOL    HW118011   4.216   5.749   4.378
 5704SOL    HW218012   4.119   5.640   4.306
 5705SOL     OW18013   5.723   0.910   5.255
 5705SOL    HW118014   5.804   0.851   5.255
 5705SOL    HW218015   5.747   1.000   5.291
 5706SOL     OW18016   5.616   1.803   1.002
 5706SOL    HW118017   5.638   1.748   0.922
 5706SOL    HW218018   5.667   1.769   1.081
 5707SOL     OW18019   5.974   5.481   1.025
 5707SOL    HW118020   5.983   5.456   1.122
 5707SOL    HW218021   6.060   5.464   0.978
 5708SOL     OW18022   5.146   6.422   2.123
 5708SOL    HW118023   5.136   6.329   2.088
 5708SOL    HW218024   5.235   6.430   2.168
 5709SOL     OW18025   0.492   3.230   2.428
 5709SOL    HW118026   0.514   3.291   2.352
 5709SOL    HW218027   0.462   3.141   2.392
 5710SOL     OW18028   5.030   1.605   0.986
 5710SOL    HW118029   5.042   1.704   0.976
 5710SOL    HW218030   5.095   1.570   1.053
 5711SOL     OW18031   4.428   1.688   1.801
 5711SOL    HW118032   4.522   1.718   1.813
 5711SOL    HW218033   4.415   1.653   1.708
 5712SOL     OW18034   6.415   6.218   6.804
 5712SOL    HW118035   6.463   6.301   6.780
 5712SOL    HW218036   6.392   6.220   6.902
 5713SOL     OW18037   1.279   1.489   0.990
 5713SOL    HW118038   1.373   1.466   0.968
 5713SOL    HW218039   1.264   1.476   1.088
 5714SOL     OW18040   5.832   0.498   1.058
 5714SOL    HW118041   5.825   0.483   0.959
 5714SOL    HW218042   5.879   0.585   1.075
 5715SOL     OW18043   0.106   6.554   1.069
 5715SOL    HW118044   0.111   6.504   1.155
 5715SOL    HW218045   0.184   6.617   1.062
 5716SOL     OW18046   0.894   4.513   5.440
 5716SOL    HW118047   0.814   4.573   5.442
 5716SOL    HW218048   0.904   4.474   5.348
 5717SOL     OW18049   0.221   5.540   3.316
 5717SOL    HW118050   0.186   5.543   3.410
 5717SOL    HW218051   0.203   5.449   3.278
 5718SOL     OW18052   1.093   4.302   0.241
 5718SOL    HW118053   1.131   4.274   0.153
 5718SOL    HW218054   1.045   4.226   0.283
 5719SOL     OW18055   3.022   3.082   0.513
 5719SOL    HW118056   3.054   3.161   0.460
 5719SOL    HW218057   2.951   3.034   0.462
 5720SOL     OW18058   2.893   4.916   6.440
 5720SOL    HW118059   2.984   4.933   6.476
 5720SOL    HW218060   2.890   4.940   6.343
 5721SOL     OW18061   1.060   3.173   0.594
 5721SOL    HW118062   0.978   3.130   0.557
 5721SOL    HW218063   1.085   3.129   0.680
 5722SOL     OW18064   1.648   0.407   5.703
 5722SOL    HW118065   1.727   0.466   5.716
 5722SOL    HW218066   1.627   0.401   5.605
 5723SOL     OW18067   4.158   3.422   0.242
 5723SOL    HW118068   4.085   3.355   0.258
 5723SOL    HW218069   4.240   3.393   0.292
 5724SOL     OW18070   5.971   1.905   5.757
 5724SOL    HW118071   5.910   1.984   5.749
 5724SOL    HW218072   5.965   1.867   5.850
 5725SOL     OW18073   0.048   4.497   4.903
 5725SOL    HW118074   7.003   4.499   4.979
 5725SOL    HW218075   0.000   4.521   4.818
 5726SOL     OW18076   4.530   4.546   2.090
 5726SOL    HW118077   4.505   4.457   2.053
 5726SOL    HW218078   4.628   4.559   2.082
 5727SOL     OW18079   1.299   3.077   5.927
 5727SOL    HW118080   1.209   3.106   5.962
 5727SOL    HW218081   1.337   3.150   5.870
 5728SOL     OW18082   2.981   6.974   4.636
 5728SOL    HW118083   2.947   6.923   4.558
 5728SOL    HW218084   3.052   6.921   4.682
 5729SOL     OW18085   2.930   1.987   4.552
 5729SOL    HW118086   2.977   1.904   4.522
 5729SOL    HW218087   2.987   2.067   4.533
 5730SOL     OW18088   6.390   4.308   5.078
 5730SOL    HW118089   6.407   4.402   5.109
 5730SOL    HW218090   6.404   4.244   5.153
 5731SOL     OW18091   0.688   6.553   2.312
 5731SOL    HW118092   0.701   6.609   2.230
 5731SOL    HW218093   0.597   6.571   2.351
 5732SOL     OW18094   5.259   0.236   3.539
 5732SOL    HW118095   5.225   0.217   3.447
 5732SOL    HW218096   5.185   0.270   3.596
 5733SOL     OW18097   2.947   1.122   5.030
 5733SOL    HW118098   2.937   1.047   5.095
 5733SOL    HW218099   3.043   1.146   5.021
 5734SOL     OW18100   1.482   6.674   4.008
 5734SOL    HW118101   1.405   6.676   3.944
 5734SOL    HW218102   1.447   6.675   4.102
 5735SOL     OW18103   2.941   1.079   1.140
 5735SOL    HW118104   3.034   1.043   1.146
 5735SOL    HW218105   2.876   1.003   1.140
 5736SOL     OW18106   1.826   4.928   0.614
 5736SOL    HW118107   1.865   4.955   0.527
 5736SOL    HW218108   1.864   4.839   0.641
 5737SOL     OW18109   6.047   4.151   0.075
 5737SOL    HW118110   6.074   4.211   0.150
 5737SOL    HW218111   6.121   4.144   0.008
 5738SOL     OW18112   0.400   5.161   4.368
 5738SOL    HW118113   0.463   5.116   4.431
 5738SOL    HW218114   0.453   5.214   4.301
 5739SOL     OW18115   0.673   2.905   0.836
 5739SOL    HW118116   0.715   2.939   0.920
 5739SOL    HW218117   0.597   2.844   0.859
 5740SOL     OW18118   4.324   5.144   7.007
 5740SOL    HW118119   4.346   5.187   0.076
 5740SOL    HW218120   4.364   5.053   7.003
 5741SOL     OW18121   0.381   2.999   2.310
 5741SOL    HW118122   0.369   3.048   2.224
 5741SOL    HW218123   0.354   2.903   2.299
 5742SOL     OW18124   0.680   5.385   3.686
 5742SOL    HW118125   0.653   5.463   3.744
 5742SOL    HW218126   0.673   5.412   3.590
 5743SOL     OW18127   0.883   6.635   5.510
 5743SOL    HW118128   0.796   6.590   5.492
 5743SOL    HW218129   0.942   6.627   5.429
 5744SOL     OW18130   6.467   0.417   1.897
 5744SOL    HW118131   6.460   0.450   1.803
 5744SOL    HW218132   6.408   0.472   1.956
 5745SOL     OW18133   6.818   3.445   2.737
 5745SOL    HW118134   6.847   3.491   2.821
 5745SOL    HW218135   6.728   3.404   2.751
 5746SOL     OW18136   6.992   4.487   6.175
 5746SOL    HW118137   6.977   4.472   6.273
 5746SOL    HW218138   6.904   4.483   6.127
 5747SOL     OW18139   0.088   6.314   3.599
 5747SOL    HW118140   0.055   6.256   3.673
 5747SOL    HW218141   0.133   6.258   3.530
 5748SOL     OW18142   1.384   0.600   4.094
 5748SOL    HW118143   1.401   0.630   4.000
 5748SOL    HW218144   1.365   0.679   4.151
 5749SOL     OW18145   0.591   0.772   3.121
 5749SOL    HW118146   0.612   0.778   3.219
 5749SOL    HW218147   0.599   0.863   3.080
 5750SOL     OW18148   5.850   6.751   2.289
 5750SOL    HW118149   5.895   6.725   2.374
 5750SOL    HW218150   5.910   6.731   2.212
 5751SOL     OW18151   1.001   2.510   6.412
 5751SOL    HW118152   1.052   2.594   6.391
 5751SOL    HW218153   1.050   2.457   6.480
 5752SOL     OW18154   1.526   1.264   6.915
 5752SOL    HW118155   1.428   1.279   6.904
 5752SOL    HW218156   1.576   1.347   6.891
 5753SOL     OW18157   4.756   1.271   0.019
 5753SOL    HW118158   4.704   1.307   0.097
 5753SOL    HW218159   4.824   1.339   7.010
 5754SOL     OW18160   6.205   5.694   0.833
 5754SOL    HW118161   6.262   5.705   0.752
 5754SOL    HW218162   6.251   5.635   0.899
 5755SOL     OW18163   3.173   3.728   1.778
 5755SOL    HW118164   3.253   3.671   1.759
 5755SOL    HW218165   3.187   3.819   1.739
 5756SOL     OW18166   6.149   0.023   4.255
 5756SOL    HW118167   6.246   0.020   4.279
 5756SOL    HW218168   6.105   6.957   4.284
 5757SOL     OW18169   6.401   6.002   1.597
 5757SOL    HW118170   6.485   5.955   1.569
 5757SOL    HW218171   6.424   6.086   1.646
 5758SOL     OW18172   2.844   0.839   5.762
 5758SOL    HW118173   2.802   0.901   5.696
 5758SOL    HW218174   2.776   0.774   5.795
 5759SOL     OW18175   0.781   0.967   6.089
 5759SOL    HW118176   0.782   0.905   6.168
 5759SOL    HW218177   0.788   0.912   6.005
 5760SOL     OW18178   6.953   5.751   1.259
 5760SOL    HW118179   6.899   5.762   1.342
 5760SOL    HW218180   6.892   5.733   1.182
 5761SOL     OW18181   4.207   0.719   4.045
 5761SOL    HW118182   4.196   0.657   3.967
 5761SOL    HW218183   4.295   0.767   4.036
 5762SOL     OW18184   4.915   6.461   1.315
 5762SOL    HW118185   4.948   6.509   1.234
 5762SOL    HW218186   4.982   6.469   1.389
 5763SOL     OW18187   3.589   0.926   0.343
 5763SOL    HW118188   3.505   0.873   0.334
 5763SOL    HW218189   3.668   0.864   0.333
 5764SOL     OW18190   3.661   2.925   6.464
 5764SOL    HW118191   3.760   2.940   6.462
 5764SOL    HW218192   3.617   3.003   6.508
 5765SOL     OW18193   6.614   5.527   6.668
 5765SOL    HW118194   6.695   5.469   6.655
 5765SOL    HW218195   6.609   5.555   6.764
 5766SOL     OW18196   2.141   1.510   2.886
 5766SOL    HW118197   2.129   1.432   2.825
 5766SOL    HW218198   2.131   1.480   2.981
 5767SOL     OW18199   5.385   6.254   0.029
 5767SOL    HW118200   5.332   6.184   7.000
 5767SOL    HW218201   5.434   6.310   6.982
 5768SOL     OW18202   6.286   6.555   1.961
 5768SOL    HW118203   6.222   6.495   1.914
 5768SOL    HW218204   6.352   6.591   1.895
 5769SOL     OW18205   0.265   4.263   3.038
 5769SOL    HW118206   0.234   4.221   3.123
 5769SOL    HW218207   0.326   4.339   3.058
 5770SOL     OW18208   5.353   2.447   2.003
 5770SOL    HW118209   5.399   2.515   1.946
 5770SOL    HW218210   5.261   2.431   1.968
 5771SOL     OW18211   0.997   0.979   1.862
 5771SOL    HW118212   1.069   0.970   1.793
 5771SOL    HW218213   1.000   1.070   1.902
 5772SOL     OW18214   6.443   5.622   5.712
 5772SOL    HW118215   6.455   5.527   5.681
 5772SOL    HW218216   6.489   5.635   5.800
 5773SOL     OW18217   5.177   6.035   4.581
 5773SOL    HW118218   5.133   6.123   4.598
 5773SOL    HW218219   5.194   6.025   4.483
 5774SOL     OW18220   1.623   5.065   2.062
 5774SOL    HW118221   1.532   5.023   2.062
 5774SOL    HW218222   1.689   5.000   2.023
 5775SOL     OW18223   1.020   0.774   0.900
 5775SOL    HW118224   1.054   0.714   0.972
 5775SOL    HW218225   1.088   0.782   0.828
 5776SOL     OW18226   5.071   0.914   6.062
 5776SOL    HW118227   5.151   0.856   6.078
 5776SOL    HW218228   4.988   0.862   6.081
 5777SOL     OW18229   5.746   6.382   4.456
 5777SOL    HW118230   5.658   6.407   4.414
 5777SOL    HW218231   5.732   6.362   4.553
 5778SOL     OW18232   2.817   0.034   3.833
 5778SOL    HW118233   2.760   0.111   3.804
 5778SOL    HW218234   2.806   6.977   3.770
 5779SOL     OW18235   4.113   0.248   2.181
 5779SOL    HW118236   4.193   0.306   2.195
 5779SOL    HW218237   4.033   0.291   2.224
 5780SOL     OW18238   6.582   4.572   0.501
 5780SOL    HW118239   6.625   4.483   0.486
 5780SOL    HW218240   6.591   4.628   0.418
 5781SOL     OW18241   3.968   3.977   5.497
 5781SOL    HW118242   4.054   4.026   5.515
 5781SOL    HW218243   3.966   3.893   5.551
 5782SOL     OW18244   4.849   2.144   2.957
 5782SOL    HW118245   4.831   2.127   2.860
 5782SOL    HW218246   4.854   2.243   2.973
 5783SOL     OW18247   3.522   6.200   3.138
 5783SOL    HW118248   3.484   6.252   3.213
 5783SOL    HW218249   3.475   6.112   3.130
 5784SOL     OW18250   1.291   5.995   1.425
 5784SOL    HW118251   1.386   6.024   1.432
 5784SOL    HW218252   1.231   6.064   1.466
 5785SOL     OW18253   2.433   1.666   6.391
 5785SOL    HW118254   2.494   1.605   6.441
 5785SOL    HW218255   2.357   1.694   6.451
 5786SOL     OW18256   2.103   1.680   6.783
 5786SOL    HW118257   2.123   1.694   6.880
 5786SOL    HW218258   2.173   1.725   6.728
 5787SOL     OW18259   1.085   2.235   5.487
 5787SOL    HW118260   1.125   2.160   5.434
 5787SOL    HW218261   1.153   2.309   5.496
 5788SOL     OW18262   0.613   2.520   2.056
 5788SOL    HW118263   0.679   2.458   2.015
 5788SOL    HW218264   0.611   2.606   2.004
 5789SOL     OW18265   3.176   0.107   0.493
 5789SOL    HW118266   3.159   0.116   0.395
 5789SOL    HW218267   3.089   0.106   0.542
 5790SOL     OW18268   6.558   6.422   2.506
 5790SOL    HW118269   6.621   6.350   2.534
 5790SOL    HW218270   6.464   6.387   2.506
 5791SOL     OW18271   4.318   0.826   1.180
 5791SOL    HW118272   4.387   0.870   1.237
 5791SOL    HW218273   4.284   0.744   1.226
 5792SOL     OW18274   4.453   2.385   2.546
 5792SOL    HW118275   4.505   2.416   2.626
 5792SOL    HW218276   4.382   2.322   2.576
 5793SOL     OW18277   4.186   2.331   0.420
 5793SOL    HW118278   4.202   2.239   0.454
 5793SOL    HW218279   4.098   2.364   0.453
 5794SOL     OW18280   3.083   6.441   6.734
 5794SOL    HW118281   3.007   6.400   6.785
 5794SOL    HW218282   3.107   6.382   6.657
 5795SOL     OW18283   1.437   1.157   1.551
 5795SOL    HW118284   1.363   1.191   1.610
 5795SOL    HW218285   1.518   1.213   1.564
 5796SOL     OW18286   4.466   0.527   5.972
 5796SOL    HW118287   4.428   0.443   5.934
 5796SOL    HW218288   4.543   0.557   5.915
 5797SOL     OW18289   6.203   1.633   0.105
 5797SOL    HW118290   6.286   1.586   0.134
 5797SOL    HW218291   6.173   1.695   0.178
 5798SOL     OW18292   1.925   2.368   4.799
 5798SOL    HW118293   1.825   2.369   4.801
 5798SOL    HW218294   1.956   2.355   4.705
 5799SOL     OW18295   2.985   0.324   4.234
 5799SOL    HW118296   2.945   0.389   4.169
 5799SOL    HW218297   2.947   0.339   4.325
 5800SOL     OW18298   1.722   6.160   1.475
 5800SOL    HW118299   1.669   6.170   1.390
 5800SOL    HW218300   1.706   6.070   1.514
 5801SOL     OW18301   1.706   2.560   3.122
 5801SOL    HW118302   1.777   2.537   3.189
 5801SOL    HW218303   1.731   2.522   3.033
 5802SOL     OW18304   6.933   0.069   3.016
 5802SOL    HW118305   6.918   0.004   2.942
 5802SOL    HW218306   7.018   0.120   2.999
 5803SOL     OW18307   0.335   6.358   4.437
 5803SOL    HW118308   0.253   6.333   4.489
 5803SOL    HW218309   0.319   6.443   4.387
 5804SOL     OW18310   5.985   2.204   3.467
 5804SOL    HW118311   6.020   2.297   3.482
 5804SOL    HW218312   5.887   2.201   3.489
 5805SOL     OW18313   0.612   2.660   1.190
 5805SOL    HW118314   0.526   2.608   1.196
 5805SOL    HW218315   0.643   2.684   1.282
 5806SOL     OW18316   6.339   4.426   1.603
 5806SOL    HW118317   6.437   4.427   1.620
 5806SOL    HW218318   6.299   4.344   1.643
 5807SOL     OW18319   0.867   0.907   2.636
 5807SOL    HW118320   0.917   0.901   2.722
 5807SOL    HW218321   0.804   0.830   2.628
 5808SOL     OW18322   6.473   6.022   5.897
 5808SOL    HW118323   6.437   6.084   5.966
 5808SOL    HW218324   6.460   6.061   5.806
 5809SOL     OW18325   6.915   3.486   4.684
 5809SOL    HW118326   6.918   3.425   4.605
 5809SOL    HW218327   6.978   3.562   4.670
 5810SOL     OW18328   0.799   6.662   5.040
 5810SOL    HW118329   0.830   6.724   4.968
 5810SOL    HW218330   0.767   6.715   5.119
 5811SOL     OW18331   3.233   4.782   0.123
 5811SOL    HW118332   3.183   4.696   0.126
 5811SOL    HW218333   3.191   4.842   0.055
 5812SOL     OW18334   6.587   2.409   6.183
 5812SOL    HW118335   6.547   2.376   6.268
 5812SOL    HW218336   6.675   2.453   6.201
 5813SOL     OW18337   6.329   5.576   1.047
 5813SOL    HW118338   6.282   5.499   1.089
 5813SOL    HW218339   6.428   5.562   1.054
 5814SOL     OW18340   5.178   2.130   2.708
 5814SOL    HW118341   5.211   2.172   2.624
 5814SOL    HW218342   5.089   2.087   2.691
 5815SOL     OW18343   6.543   3.990   4.932
 5815SOL    HW118344   6.483   3.940   4.869
 5815SOL    HW218345   6.567   4.078   4.893
 5816SOL     OW18346   0.321   4.483   1.230
 5816SOL    HW118347   0.354   4.484   1.135
 5816SOL    HW218348   0.247   4.417   1.239
 5817SOL     OW18349   6.107   2.766   4.131
 5817SOL    HW118350   6.029   2.820   4.101
 5817SOL    HW218351   6.099   2.747   4.229
 5818SOL     OW18352   2.549   0.411   4.275
 5818SOL    HW118353   2.614   0.409   4.352
 5818SOL    HW218354   2.502   0.499   4.273
 5819SOL     OW18355   3.869   3.993   1.257
 5819SOL    HW118356   3.867   3.900   1.292
 5819SOL    HW218357   3.945   4.004   1.194
 5820SOL     OW18358   1.001   6.603   2.120
 5820SOL    HW118359   1.091   6.585   2.161
 5820SOL    HW218360   0.968   6.692   2.151
 5821SOL     OW18361   5.466   6.069   1.997
 5821SOL    HW118362   5.485   6.134   1.924
 5821SOL    HW218363   5.547   6.012   2.013
 5822SOL     OW18364   0.696   4.118   3.109
 5822SOL    HW118365   0.735   4.208   3.128
 5822SOL    HW218366   0.708   4.096   3.012
 5823SOL     OW18367   2.696   6.740   5.326
 5823SOL    HW118368   2.727   6.822   5.375
 5823SOL    HW218369   2.656   6.675   5.391
 5824SOL     OW18370   2.715   5.432   2.498
 5824SOL    HW118371   2.725   5.456   2.402
 5824SOL    HW218372   2.634   5.477   2.535
 5825SOL     OW18373   3.703   1.987   4.156
 5825SOL    HW118374   3.695   1.891   4.128
 5825SOL    HW218375   3.713   1.992   4.255
 5826SOL     OW18376   1.110   6.066   5.237
 5826SOL    HW118377   1.074   6.143   5.289
 5826SOL    HW218378   1.037   6.026   5.182
 5827SOL     OW18379   2.160   4.117   3.921
 5827SOL    HW118380   2.084   4.168   3.960
 5827SOL    HW218381   2.172   4.032   3.970
 5828SOL     OW18382   4.504   0.532   5.049
 5828SOL    HW118383   4.406   0.524   5.069
 5828SOL    HW218384   4.538   0.619   5.084
 5829SOL     OW18385   1.792   1.414   2.786
 5829SOL    HW118386   1.836   1.339   2.835
 5829SOL    HW218387   1.733   1.466   2.849
 5830SOL     OW18388   5.018   4.990   4.773
 5830SOL    HW118389   4.943   5.016   4.711
 5830SOL    HW218390   5.085   5.064   4.778
 5831SOL     OW18391   2.496   1.978   4.576
 5831SOL    HW118392   2.425   2.012   4.514
 5831SOL    HW218393   2.574   1.946   4.522
 5832SOL     OW18394   2.651   4.717   3.343
 5832SOL    HW118395   2.612   4.670   3.264
 5832SOL    HW218396   2.608   4.807   3.353
 5833SOL     OW18397   2.661   4.541   1.350
 5833SOL    HW118398   2.685   4.556   1.445
 5833SOL    HW218399   2.578   4.593   1.328
 5834SOL     OW18400   5.884   1.634   5.944
 5834SOL    HW118401   5.790   1.613   5.918
 5834SOL    HW218402   5.891   1.636   6.044
 5835SOL     OW18403   3.680   0.942   3.928
 5835SOL    HW118404   3.623   0.930   3.847
 5835SOL    HW218405   3.646   1.020   3.981
 5836SOL     OW18406   5.165   4.659   1.171
 5836SOL    HW118407   5.222   4.742   1.174
 5836SOL    HW218408   5.154   4.623   1.263
 5837SOL     OW18409   1.967   4.144   0.065
 5837SOL    HW118410   1.966   4.211   0.139
 5837SOL    HW218411   1.991   4.189   6.998
 5838SOL     OW18412   2.947   3.346   0.383
 5838SOL    HW118413   2.954   3.426   0.442
 5838SOL    HW218414   2.915   3.374   0.292
 5839SOL     OW18415   2.566   1.116   0.945
 5839SOL    HW118416   2.542   1.020   0.930
 5839SOL    HW218417   2.661   1.131   0.917
 5840SOL     OW18418   6.383   3.760   2.287
 5840SOL    HW118419   6.285   3.754   2.269
 5840SOL    HW218420   6.399   3.812   2.370
 5841SOL     OW18421   5.112   2.244   0.883
 5841SOL    HW118422   5.099   2.273   0.788
 5841SOL    HW218423   5.047   2.291   0.942
 5842SOL     OW18424   3.865   2.133   2.403
 5842SOL    HW118425   3.836   2.153   2.309
 5842SOL    HW218426   3.964   2.141   2.410
 5843SOL     OW18427   3.120   2.304   1.039
 5843SOL    HW118428   3.131   2.207   1.020
 5843SOL    HW218429   3.177   2.330   1.117
 5844SOL     OW18430   6.688   5.338   5.478
 5844SOL    HW118431   6.652   5.319   5.387
 5844SOL    HW218432   6.764   5.404   5.471
 5845SOL     OW18433   2.058   6.221   3.056
 5845SOL    HW118434   2.083   6.255   3.147
 5845SOL    HW218435   2.058   6.121   3.057
 5846SOL     OW18436   0.761   4.309   4.835
 5846SOL    HW118437   0.752   4.395   4.784
 5846SOL    HW218438   0.672   4.283   4.871
 5847SOL     OW18439   2.144   4.205   5.824
 5847SOL    HW118440   2.148   4.223   5.726
 5847SOL    HW218441   2.183   4.115   5.843
 5848SOL     OW18442   3.039   6.637   1.207
 5848SOL    HW118443   2.968   6.573   1.177
 5848SOL    HW218444   3.117   6.632   1.143
 5849SOL     OW18445   2.952   5.844   6.836
 5849SOL    HW118446   2.925   5.768   6.778
 5849SOL    HW218447   3.001   5.810   6.917
 5850SOL     OW18448   5.095   2.228   1.317
 5850SOL    HW118449   5.131   2.269   1.402
 5850SOL    HW218450   5.162   2.242   1.244
 5851SOL     OW18451   1.405   2.826   5.469
 5851SOL    HW118452   1.438   2.739   5.505
 5851SOL    HW218453   1.350   2.872   5.539
 5852SOL     OW18454   4.177   4.962   3.248
 5852SOL    HW118455   4.173   4.864   3.230
 5852SOL    HW218456   4.215   4.978   3.339
 5853SOL     OW18457   4.588   4.552   0.169
 5853SOL    HW118458   4.551   4.461   0.188
 5853SOL    HW218459   4.679   4.561   0.210
 5854SOL     OW18460   2.713   4.401   5.319
 5854SOL    HW118461   2.751   4.338   5.387
 5854SOL    HW218462   2.787   4.449   5.273
 5855SOL     OW18463   1.663   1.736   4.540
 5855SOL    HW118464   1.613   1.808   4.589
 5855SOL    HW218465   1.615   1.715   4.454
 5856SOL     OW18466   0.521   0.752   2.129
 5856SOL    HW118467   0.573   0.688   2.073
 5856SOL    HW218468   0.570   0.769   2.215
 5857SOL     OW18469   6.184   5.477   6.740
 5857SOL    HW118470   6.236   5.541   6.683
 5857SOL    HW218471   6.088   5.477   6.711
 5858SOL     OW18472   3.306   1.530   1.863
 5858SOL    HW118473   3.387   1.556   1.916
 5858SOL    HW218474   3.277   1.607   1.806
 5859SOL     OW18475   6.025   5.050   1.496
 5859SOL    HW118476   5.961   5.123   1.470
 5859SOL    HW218477   6.067   5.073   1.584
 5860SOL     OW18478   1.619   3.148   1.897
 5860SOL    HW118479   1.650   3.056   1.921
 5860SOL    HW218480   1.521   3.156   1.916
 5861SOL     OW18481   5.146   7.007   4.886
 5861SOL    HW118482   5.239   6.996   4.850
 5861SOL    HW218483   5.081   6.967   4.822
 5862SOL     OW18484   6.909   4.683   1.790
 5862SOL    HW118485   6.979   4.683   1.720
 5862SOL    HW218486   6.927   4.755   1.856
 5863SOL     OW18487   4.185   6.391   6.389
 5863SOL    HW118488   4.213   6.420   6.480
 5863SOL    HW218489   4.166   6.471   6.332
 5864SOL     OW18490   3.254   2.959   3.975
 5864SOL    HW118491   3.349   2.947   3.945
 5864SOL    HW218492   3.236   3.056   3.992
 5865SOL     OW18493   6.722   6.341   1.224
 5865SOL    HW118494   6.692   6.328   1.130
 5865SOL    HW218495   6.763   6.432   1.234
 5866SOL     OW18496   3.191   3.439   4.175
 5866SOL    HW118497   3.267   3.472   4.119
 5866SOL    HW218498   3.193   3.487   4.263
 5867SOL     OW18499   4.844   1.030   1.069
 5867SOL    HW118500   4.748   1.012   1.046
 5867SOL    HW218501   4.867   0.985   1.155
 5868SOL     OW18502   1.594   0.827   1.180
 5868SOL    HW118503   1.576   0.924   1.191
 5868SOL    HW218504   1.607   0.784   1.270
 5869SOL     OW18505   1.709   5.239   3.727
 5869SOL    HW118506   1.646   5.253   3.651
 5869SOL    HW218507   1.802   5.260   3.697
 5870SOL     OW18508   3.877   6.313   3.639
 5870SOL    HW118509   3.867   6.402   3.684
 5870SOL    HW218510   3.834   6.316   3.549
 5871SOL     OW18511   3.460   3.006   3.744
 5871SOL    HW118512   3.422   3.089   3.783
 5871SOL    HW218513   3.484   3.021   3.648
 5872SOL     OW18514   3.569   5.186   1.251
 5872SOL    HW118515   3.500   5.113   1.246
 5872SOL    HW218516   3.628   5.181   1.171
 5873SOL     OW18517   4.234   6.780   2.309
 5873SOL    HW118518   4.231   6.879   2.321
 5873SOL    HW218519   4.317   6.744   2.352
 5874SOL     OW18520   0.188   4.068   4.962
 5874SOL    HW118521   0.230   4.033   5.046
 5874SOL    HW218522   0.153   3.992   4.908
 5875SOL     OW18523   4.336   2.855   0.924
 5875SOL    HW118524   4.389   2.927   0.879
 5875SOL    HW218525   4.265   2.822   0.862
 5876SOL     OW18526   3.197   3.339   3.249
 5876SOL    HW118527   3.140   3.408   3.205
 5876SOL    HW218528   3.234   3.375   3.334
 5877SOL     OW18529   5.024   4.016   1.745
 5877SOL    HW118530   4.935   3.976   1.769
 5877SOL    HW218531   5.096   3.949   1.761
 5878SOL     OW18532   0.496   3.664   1.515
 5878SOL    HW118533   0.547   3.748   1.534
 5878SOL    HW218534   0.538   3.588   1.565
 5879SOL     OW18535   1.730   4.464   4.920
 5879SOL    HW118536   1.637   4.498   4.934
 5879SOL    HW218537   1.757   4.406   4.998
 5880SOL     OW18538   2.446   4.923   7.010
 5880SOL    HW118539   2.407   4.986   0.058
 5880SOL    HW218540   2.401   4.937   6.922
 5881SOL     OW18541   1.674   6.505   3.889
 5881SOL    HW118542   1.643   6.420   3.932
 5881SOL    HW218543   1.611   6.579   3.914
 5882SOL     OW18544   4.679   0.690   2.884
 5882SOL    HW118545   4.770   0.655   2.907
 5882SOL    HW218546   4.662   0.775   2.935
 5883SOL     OW18547   1.521   3.090   5.567
 5883SOL    HW118548   1.536   3.170   5.509
 5883SOL    HW218549   1.560   3.009   5.523
 5884SOL     OW18550   0.049   0.523   3.206
 5884SOL    HW118551   0.139   0.484   3.225
 5884SOL    HW218552   0.050   0.620   3.228
 5885SOL     OW18553   5.621   6.311   0.149
 5885SOL    HW118554   5.531   6.350   0.129
 5885SOL    HW218555   5.636   6.231   0.091
 5886SOL     OW18556   5.834   1.307   5.658
 5886SOL    HW118557   5.738   1.324   5.682
 5886SOL    HW218558   5.877   1.254   5.731
 5887SOL     OW18559   3.060   6.653   2.354
 5887SOL    HW118560   3.035   6.558   2.336
 5887SOL    HW218561   2.981   6.701   2.393
 5888SOL     OW18562   6.908   5.771   1.563
 5888SOL    HW118563   6.830   5.833   1.567
 5888SOL    HW218564   6.988   5.816   1.602
 5889SOL     OW18565   3.234   6.784   0.714
 5889SOL    HW118566   3.292   6.845   0.660
 5889SOL    HW218567   3.216   6.826   0.803
 5890SOL     OW18568   4.092   5.378   5.969
 5890SOL    HW118569   4.083   5.294   5.915
 5890SOL    HW218570   4.183   5.417   5.955
 5891SOL     OW18571   1.755   2.926   6.402
 5891SOL    HW118572   1.851   2.897   6.405
 5891SOL    HW218573   1.726   2.956   6.493
 5892SOL     OW18574   3.349   5.937   1.760
 5892SOL    HW118575   3.270   5.927   1.821
 5892SOL    HW218576   3.363   5.852   1.710
 5893SOL     OW18577   1.388   3.198   2.642
 5893SOL    HW118578   1.411   3.202   2.739
 5893SOL    HW218579   1.362   3.289   2.610
 5894SOL     OW18580   1.246   3.887   3.480
 5894SOL    HW118581   1.259   3.804   3.425
 5894SOL    HW218582   1.292   3.876   3.568
 5895SOL     OW18583   5.400   5.095   2.970
 5895SOL    HW118584   5.455   5.080   3.053
 5895SOL    HW218585   5.329   5.163   2.989
 5896SOL     OW18586   4.998   1.574   5.767
 5896SOL    HW118587   5.089   1.615   5.770
 5896SOL    HW218588   5.006   1.475   5.754
 5897SOL     OW18589   4.412   4.171   0.915
 5897SOL    HW118590   4.405   4.246   0.981
 5897SOL    HW218591   4.325   4.161   0.867
 5898SOL     OW18592   1.815   6.244   2.860
 5898SOL    HW118593   1.726   6.284   2.881
 5898SOL    HW218594   1.876   6.256   2.939
 5899SOL     OW18595   5.109   0.556   3.460
 5899SOL    HW118596   5.070   0.572   3.551
 5899SOL    HW218597   5.207   0.573   3.462
 5900SOL     OW18598   3.841   4.963   1.726
 5900SOL    HW118599   3.902   4.972   1.647
 5900SOL    HW218600   3.885   5.000   1.808
 5901SOL     OW18601   3.111   6.017   3.839
 5901SOL    HW118602   3.176   6.065   3.898
 5901SOL    HW218603   3.051   6.084   3.795
 5902SOL     OW18604   6.092   2.682   0.459
 5902SOL    HW118605   6.076   2.758   0.523
 5902SOL    HW218606   6.020   2.614   0.471
 5903SOL     OW18607   0.682   2.216   6.429
 5903SOL    HW118608   0.694   2.121   6.400
 5903SOL    HW218609   0.682   2.221   6.529
 5904SOL     OW18610   1.207   3.362   1.877
 5904SOL    HW118611   1.238   3.448   1.917
 5904SOL    HW218612   1.273   3.290   1.897
 5905SOL     OW18613   6.835   3.381   2.060
 5905SOL    HW118614   6.796   3.315   1.995
 5905SOL    HW218615   6.816   3.350   2.153
 5906SOL     OW18616   6.503   1.189   3.510
 5906SOL    HW118617   6.547   1.260   3.564
 5906SOL    HW218618   6.563   1.162   3.435
 5907SOL     OW18619   1.638   1.100   2.909
 5907SOL    HW118620   1.561   1.165   2.913
 5907SOL    HW218621   1.691   1.117   2.826
 5908SOL     OW18622   1.063   2.971   5.529
 5908SOL    HW118623   1.014   2.887   5.551
 5908SOL    HW218624   1.147   2.975   5.583
 5909SOL     OW18625   6.754   4.712   6.553
 5909SOL    HW118626   6.725   4.621   6.523
 5909SOL    HW218627   6.797   4.706   6.642
 5910SOL     OW18628   1.399   1.339   3.252
 5910SOL    HW118629   1.456   1.401   3.306
 5910SOL    HW218630   1.424   1.245   3.273
 5911SOL     OW18631   6.349   5.785   6.718
 5911SOL    HW118632   6.444   5.768   6.693
 5911SOL    HW218633   6.300   5.825   6.640
 5912SOL     OW18634   0.910   1.287   2.934
 5912SOL    HW118635   0.844   1.242   2.874
 5912SOL    HW218636   0.861   1.341   3.003
 5913SOL     OW18637   6.539   3.118   1.429
 5913SOL    HW118638   6.488   3.128   1.344
 5913SOL    HW218639   6.636   3.133   1.411
 5914SOL     OW18640   1.734   7.008   0.692
 5914SOL    HW118641   1.726   0.049   0.613
 5914SOL    HW218642   1.826   7.014   0.730
 5915SOL     OW18643   4.014   0.358   5.503
 5915SOL    HW118644   4.011   0.309   5.416
 5915SOL    HW218645   3.956   0.439   5.498
 5916SOL     OW18646   0.979   0.318   2.387
 5916SOL    HW118647   0.956   0.384   2.315
 5916SOL    HW218648   0.953   0.356   2.476
 5917SOL     OW18649   3.380   3.717   0.519
 5917SOL    HW118650   3.291   3.731   0.561
 5917SOL    HW218651   3.433   3.801   0.522
 5918SOL     OW18652   3.413   6.951   4.735
 5918SOL    HW118653   3.450   6.981   4.823
 5918SOL    HW218654   3.428   6.853   4.724
 5919SOL     OW18655   3.233   4.153   5.120
 5919SOL    HW118656   3.220   4.247   5.154
 5919SOL    HW218657   3.329   4.139   5.097
 5920SOL     OW18658   1.202   0.409   5.751
 5920SOL    HW118659   1.160   0.352   5.822
 5920SOL    HW218660   1.206   0.504   5.782
 5921SOL     OW18661   2.556   4.973   0.557
 5921SOL    HW118662   2.618   4.911   0.605
 5921SOL    HW218663   2.462   4.959   0.590
 5922SOL     OW18664   4.702   2.502   2.418
 5922SOL    HW118665   4.603   2.495   2.434
 5922SOL    HW218666   4.718   2.535   2.325
 5923SOL     OW18667   5.872   1.247   2.847
 5923SOL    HW118668   5.872   1.245   2.947
 5923SOL    HW218669   5.780   1.268   2.815
 5924SOL     OW18670   0.042   6.654   3.247
 5924SOL    HW118671   0.081   6.745   3.233
 5924SOL    HW218672   0.029   6.609   3.158
 5925SOL     OW18673   5.014   0.797   1.335
 5925SOL    HW118674   5.095   0.833   1.289
 5925SOL    HW218675   5.036   0.778   1.431
 5926SOL     OW18676   5.310   3.153   3.568
 5926SOL    HW118677   5.333   3.145   3.471
 5926SOL    HW218678   5.289   3.062   3.604
 5927SOL     OW18679   0.870   7.003   1.623
 5927SOL    HW118680   0.826   0.056   1.569
 5927SOL    HW218681   0.905   6.933   1.562
 5928SOL     OW18682   3.078   7.006   0.250
 5928SOL    HW118683   3.088   6.907   0.237
 5928SOL    HW218684   2.995   0.018   0.202
 5929SOL     OW18685   1.108   0.961   1.600
 5929SOL    HW118686   1.078   1.041   1.548
 5929SOL    HW218687   1.183   0.916   1.551
 5930SOL     OW18688   1.221   4.393   2.022
 5930SOL    HW118689   1.292   4.381   1.953
 5930SOL    HW218690   1.201   4.306   2.066
 5931SOL     OW18691   5.120   6.495   4.358
 5931SOL    HW118692   5.182   6.459   4.288
 5931SOL    HW218693   5.081   6.419   4.410
 5932SOL     OW18694   3.442   5.818   0.256
 5932SOL    HW118695   3.466   5.878   0.332
 5932SOL    HW218696   3.442   5.870   0.171
 5933SOL     OW18697   6.636   5.696   4.367
 5933SOL    HW118698   6.588   5.648   4.441
 5933SOL    HW218699   6.735   5.684   4.378
 5934SOL     OW18700   3.521   4.437   6.921
 5934SOL    HW118701   3.615   4.407   6.930
 5934SOL    HW218702   3.459   4.368   6.959
 5935SOL     OW18703   1.410   0.522   5.281
 5935SOL    HW118704   1.324   0.516   5.331
 5935SOL    HW218705   1.392   0.521   5.182
 5936SOL     OW18706   3.820   2.935   2.443
 5936SOL    HW118707   3.837   2.837   2.433
 5936SOL    HW218708   3.860   2.984   2.365
 5937SOL     OW18709   0.678   2.983   0.407
 5937SOL    HW118710   0.616   3.020   0.339
 5937SOL    HW218711   0.767   2.964   0.364
 5938SOL     OW18712   1.283   3.162   4.635
 5938SOL    HW118713   1.359   3.223   4.611
 5938SOL    HW218714   1.196   3.208   4.615
 5939SOL     OW18715   4.840   0.442   6.155
 5939SOL    HW118716   4.776   0.516   6.135
 5939SOL    HW218717   4.792   0.354   6.152
 5940SOL     OW18718   5.159   5.288   0.885
 5940SOL    HW118719   5.110   5.375   0.891
 5940SOL    HW218720   5.150   5.252   0.792
 5941SOL     OW18721   1.051   1.456   3.393
 5941SOL    HW118722   1.066   1.548   3.359
 5941SOL    HW218723   1.082   1.449   3.488
 5942SOL     OW18724   5.045   2.161   6.279
 5942SOL    HW118725   5.132   2.146   6.326
 5942SOL    HW218726   4.971   2.171   6.346
 5943SOL     OW18727   2.142   4.599   2.061
 5943SOL    HW118728   2.239   4.612   2.044
 5943SOL    HW218729   2.125   4.503   2.087
 5944SOL     OW18730   6.830   3.932   6.156
 5944SOL    HW118731   6.762   3.864   6.127
 5944SOL    HW218732   6.921   3.892   6.151
 5945SOL     OW18733   6.925   6.686   3.916
 5945SOL    HW118734   6.908   6.649   3.825
 5945SOL    HW218735   6.849   6.744   3.944
 5946SOL     OW18736   3.274   2.908   6.242
 5946SOL    HW118737   3.374   2.902   6.234
 5946SOL    HW218738   3.231   2.849   6.174
 5947SOL     OW18739   3.480   3.529   5.073
 5947SOL    HW118740   3.455   3.534   5.169
 5947SOL    HW218741   3.404   3.489   5.021
 5948SOL     OW18742   4.736   3.893   1.826
 5948SOL    HW118743   4.763   3.816   1.768
 5948SOL    HW218744   4.669   3.950   1.778
 5949SOL     OW18745   1.266   4.062   3.848
 5949SOL    HW118746   1.195   4.128   3.872
 5949SOL    HW218747   1.272   3.993   3.920
 5950SOL     OW18748   2.367   0.043   4.831
 5950SOL    HW118749   2.454   0.077   4.794
 5950SOL    HW218750   2.325   7.001   4.765
 5951SOL     OW18751   0.371   2.862   6.187
 5951SOL    HW118752   0.357   2.781   6.130
 5951SOL    HW218753   0.334   2.845   6.278
 5952SOL     OW18754   3.580   4.148   1.989
 5952SOL    HW118755   3.664   4.093   1.982
 5952SOL    HW218756   3.592   4.233   1.937
 5953SOL     OW18757   6.816   2.829   6.807
 5953SOL    HW118758   6.807   2.885   6.890
 5953SOL    HW218759   6.874   2.750   6.827
 5954SOL     OW18760   2.171   5.031   3.720
 5954SOL    HW118761   2.122   4.951   3.754
 5954SOL    HW218762   2.267   5.007   3.705
 5955SOL     OW18763   4.000   2.996   0.459
 5955SOL    HW118764   3.960   3.087   0.449
 5955SOL    HW218765   4.064   2.996   0.536
 5956SOL     OW18766   4.200   2.390   6.838
 5956SOL    HW118767   4.296   2.392   6.812
 5956SOL    HW218768   4.143   2.392   6.756
 5957SOL     OW18769   6.794   2.300   3.415
 5957SOL    HW118770   6.769   2.297   3.512
 5957SOL    HW218771   6.715   2.332   3.362
 5958SOL     OW18772   2.637   6.325   2.530
 5958SOL    HW118773   2.642   6.260   2.454
 5958SOL    HW218774   2.559   6.304   2.588
 5959SOL     OW18775   5.095   4.376   2.847
 5959SOL    HW118776   5.007   4.329   2.840
 5959SOL    HW218777   5.162   4.329   2.789
 5960SOL     OW18778   5.885   0.206   6.366
 5960SOL    HW118779   5.960   0.269   6.344
 5960SOL    HW218780   5.837   0.181   6.282
 5961SOL     OW18781   2.307   2.054   3.886
 5961SOL    HW118782   2.296   1.961   3.853
 5961SOL    HW218783   2.405   2.076   3.893
 5962SOL     OW18784   5.349   4.668   6.851
 5962SOL    HW118785   5.338   4.694   6.947
 5962SOL    HW218786   5.430   4.610   6.840
 5963SOL     OW18787   1.855   3.850   0.530
 5963SOL    HW118788   1.801   3.855   0.614
 5963SOL    HW218789   1.812   3.785   0.467
 5964SOL     OW18790   1.472   6.903   3.354
 5964SOL    HW118791   1.488   6.874   3.449
 5964SOL    HW218792   1.457   6.823   3.297
 5965SOL     OW18793   2.313   0.448   1.103
 5965SOL    HW118794   2.216   0.467   1.120
 5965SOL    HW218795   2.344   0.501   1.024
 5966SOL     OW18796   2.943   1.828   5.150
 5966SOL    HW118797   2.894   1.916   5.148
 5966SOL    HW218798   3.034   1.839   5.111
 5967SOL     OW18799   4.725   2.310   5.477
 5967SOL    HW118800   4.694   2.397   5.437
 5967SOL    HW218801   4.660   2.281   5.547
 5968SOL     OW18802   6.161   1.944   3.297
 5968SOL    HW118803   6.079   1.964   3.351
 5968SOL    HW218804   6.177   1.845   3.296
 5969SOL     OW18805   5.376   6.637   1.437
 5969SOL    HW118806   5.445   6.705   1.460
 5969SOL    HW218807   5.350   6.646   1.341
 5970SOL     OW18808   6.083   2.071   0.395
 5970SOL    HW118809   6.139   2.122   0.329
 5970SOL    HW218810   6.108   2.099   0.488
 5971SOL     OW18811   6.642   5.243   3.821
 5971SOL    HW118812   6.591   5.248   3.907
 5971SOL    HW218813   6.579   5.257   3.744
 5972SOL     OW18814   6.051   5.225   0.631
 5972SOL    HW118815   6.125   5.161   0.651
 5972SOL    HW218816   5.976   5.209   0.695
 5973SOL     OW18817   3.523   0.855   2.448
 5973SOL    HW118818   3.430   0.883   2.424
 5973SOL    HW218819   3.519   0.777   2.512
 5974SOL     OW18820   5.605   1.278   4.431
 5974SOL    HW118821   5.646   1.326   4.509
 5974SOL    HW218822   5.551   1.201   4.465
 5975SOL     OW18823   3.587   5.125   0.351
 5975SOL    HW118824   3.590   5.099   0.448
 5975SOL    HW218825   3.601   5.044   0.295
 5976SOL     OW18826   1.250   2.619   6.183
 5976SOL    HW118827   1.296   2.570   6.258
 5976SOL    HW218828   1.306   2.696   6.155
 5977SOL     OW18829   0.636   5.668   1.766
 5977SOL    HW118830   0.599   5.577   1.750
 5977SOL    HW218831   0.600   5.732   1.698
 5978SOL     OW18832   3.099   3.659   6.141
 5978SOL    HW118833   3.086   3.567   6.105
 5978SOL    HW218834   3.061   3.665   6.233
 5979SOL     OW18835   5.854   0.239   1.116
 5979SOL    HW118836   5.837   0.338   1.111
 5979SOL    HW218837   5.887   0.216   1.207
 5980SOL     OW18838   3.124   2.541   0.908
 5980SOL    HW118839   3.050   2.590   0.955
 5980SOL    HW218840   3.139   2.453   0.954
 5981SOL     OW18841   3.302   2.657   0.746
 5981SOL    HW118842   3.383   2.662   0.806
 5981SOL    HW218843   3.231   2.603   0.791
 5982SOL     OW18844   5.646   2.742   1.334
 5982SOL    HW118845   5.641   2.834   1.373
 5982SOL    HW218846   5.647   2.675   1.408
 5983SOL     OW18847   6.681   1.385   3.604
 5983SOL    HW118848   6.745   1.370   3.529
 5983SOL    HW218849   6.628   1.468   3.587
 5984SOL     OW18850   5.885   6.396   2.042
 5984SOL    HW118851   5.786   6.408   2.049
 5984SOL    HW218852   5.909   6.301   2.061
 5985SOL     OW18853   6.322   5.013   2.726
 5985SOL    HW118854   6.249   5.070   2.762
 5985SOL    HW218855   6.311   5.003   2.627
 5986SOL     OW18856   3.836   2.909   3.341
 5986SOL    HW118857   3.884   2.827   3.374
 5986SOL    HW218858   3.898   2.987   3.341
 5987SOL     OW18859   6.846   6.311   4.203
 5987SOL    HW118860   6.826   6.404   4.234
 5987SOL    HW218861   6.835   6.247   4.279
 5988SOL     OW18862   1.805   2.154   0.268
 5988SOL    HW118863   1.815   2.251   0.290
 5988SOL    HW218864   1.815   2.100   0.352
 5989SOL     OW18865   2.395   6.507   5.357
 5989SOL    HW118866   2.349   6.596   5.355
 5989SOL    HW218867   2.478   6.514   5.412
 5990SOL     OW18868   2.348   3.791   1.748
 5990SOL    HW118869   2.317   3.880   1.714
 5990SOL    HW218870   2.441   3.775   1.716
 5991SOL     OW18871   5.623   1.512   0.867
 5991SOL    HW118872   5.580   1.515   0.777
 5991SOL    HW218873   5.571   1.449   0.926
 5992SOL     OW18874   2.827   4.750   3.583
 5992SOL    HW118875   2.886   4.672   3.567
 5992SOL    HW218876   2.778   4.774   3.499
 5993SOL     OW18877   5.797   2.151   0.261
 5993SOL    HW118878   5.823   2.157   0.165
 5993SOL    HW218879   5.877   2.126   0.316
 5994SOL     OW18880   0.245   4.491   0.765
 5994SOL    HW118881   0.313   4.517   0.696
 5994SOL    HW218882   0.222   4.394   0.753
 5995SOL     OW18883   5.274   3.619   0.708
 5995SOL    HW118884   5.203   3.556   0.675
 5995SOL    HW218885   5.281   3.696   0.644
 5996SOL     OW18886   1.821   0.320   2.158
 5996SOL    HW118887   1.724   0.296   2.171
 5996SOL    HW218888   1.827   0.409   2.114
 5997SOL     OW18889   6.345   0.325   4.538
 5997SOL    HW118890   6.267   0.292   4.484
 5997SOL    HW218891   6.429   0.316   4.484
 5998SOL     OW18892   6.165   6.315   6.370
 5998SOL    HW118893   6.087   6.253   6.362
 5998SOL    HW218894   6.250   6.263   6.357
 5999SOL     OW18895   5.316   3.540   0.973
 5999SOL    HW118896   5.373   3.597   1.032
 5999SOL    HW218897   5.313   3.579   0.881
 6000SOL     OW18898   1.158   4.562   1.621
 6000SOL    HW118899   1.130   4.523   1.709
 6000SOL    HW218900   1.090   4.630   1.592
 6001SOL     OW18901   6.963   6.172   5.767
 6001SOL    HW118902   6.931   6.143   5.858
 6001SOL    HW218903   0.034   6.132   5.749
 6002SOL     OW18904   5.757   4.293   5.083
 6002SOL    HW118905   5.666   4.295   5.042
 6002SOL    HW218906   5.824   4.262   5.015
 6003SOL     OW18907   2.882   1.419   5.350
 6003SOL    HW118908   2.942   1.497   5.359
 6003SOL    HW218909   2.794   1.449   5.311
 6004SOL     OW18910   5.502   3.076   5.128
 6004SOL    HW118911   5.501   2.980   5.103
 6004SOL    HW218912   5.526   3.086   5.225
 6005SOL     OW18913   4.042   4.209   0.417
 6005SOL    HW118914   4.026   4.240   0.323
 6005SOL    HW218915   4.141   4.200   0.432
 6006SOL     OW18916   2.948   6.046   6.343
 6006SOL    HW118917   2.880   6.024   6.274
 6006SOL    HW218918   3.033   5.996   6.324
 6007SOL     OW18919   2.693   6.586   4.515
 6007SOL    HW118920   2.623   6.515   4.526
 6007SOL    HW218921   2.649   6.671   4.488
 6008SOL     OW18922   2.379   3.901   6.757
 6008SOL    HW118923   2.284   3.928   6.772
 6008SOL    HW218924   2.411   3.846   6.834
 6009SOL     OW18925   2.882   5.266   2.658
 6009SOL    HW118926   2.977   5.265   2.624
 6009SOL    HW218927   2.828   5.328   2.602
 6010SOL     OW18928   0.277   5.093   5.740
 6010SOL    HW118929   0.308   5.105   5.834
 6010SOL    HW218930   0.182   5.122   5.732
 6011SOL     OW18931   5.740   1.705   3.010
 6011SOL    HW118932   5.774   1.799   3.007
 6011SOL    HW218933   5.791   1.653   3.078
 6012SOL     OW18934   6.883   0.822   6.124
 6012SOL    HW118935   6.844   0.731   6.140
 6012SOL    HW218936   6.947   0.844   6.197
 6013SOL     OW18937   5.864   1.694   2.421
 6013SOL    HW118938   5.936   1.624   2.427
 6013SOL    HW218939   5.775   1.652   2.436
 6014SOL     OW18940   4.077   3.164   4.319
 6014SOL    HW118941   3.992   3.112   4.333
 6014SOL    HW218942   4.155   3.106   4.340
 6015SOL     OW18943   6.371   0.377   3.271
 6015SOL    HW118944   6.459   0.344   3.306
 6015SOL    HW218945   6.297   0.343   3.329
 6016SOL     OW18946   4.377   1.811   4.668
 6016SOL    HW118947   4.281   1.807   4.640
 6016SOL    HW218948   4.385   1.861   4.754
 6017SOL     OW18949   1.298   1.766   5.399
 6017SOL    HW118950   1.355   1.730   5.473
 6017SOL    HW218951   1.214   1.804   5.438
 6018SOL     OW18952   2.653   1.140   3.963
 6018SOL    HW118953   2.576   1.098   3.915
 6018SOL    HW218954   2.680   1.081   4.040
 6019SOL     OW18955   6.986   3.693   6.374
 6019SOL    HW118956   0.010   3.688   6.284
 6019SOL    HW218957   0.009   3.626   6.435
 6020SOL     OW18958   0.746   5.567   4.930
 6020SOL    HW118959   0.807   5.604   5.000
 6020SOL    HW218960   0.651   5.572   4.962
 6021SOL     OW18961   4.427   0.275   3.433
 6021SOL    HW118962   4.354   0.275   3.364
 6021SOL    HW218963   4.454   0.181   3.453
 6022SOL     OW18964   6.703   3.291   1.220
 6022SOL    HW118965   6.742   3.239   1.296
 6022SOL    HW218966   6.714   3.389   1.238
 6023SOL     OW18967   4.272   6.624   2.899
 6023SOL    HW118968   4.355   6.662   2.856
 6023SOL    HW218969   4.196   6.686   2.884
 6024SOL     OW18970   0.718   6.567   0.302
 6024SOL    HW118971   0.778   6.633   0.258
 6024SOL    HW218972   0.681   6.504   0.234
 6025SOL     OW18973   3.553   0.280   5.994
 6025SOL    HW118974   3.639   0.287   5.943
 6025SOL    HW218975   3.479   0.321   5.940
 6026SOL     OW18976   5.609   6.285   3.775
 6026SOL    HW118977   5.676   6.219   3.741
 6026SOL    HW218978   5.593   6.355   3.705
 6027SOL     OW18979   6.244   4.346   5.579
 6027SOL    HW118980   6.152   4.316   5.604
 6027SOL    HW218981   6.250   4.445   5.588
 6028SOL     OW18982   5.690   5.672   6.728
 6028SOL    HW118983   5.595   5.642   6.735
 6028SOL    HW218984   5.699   5.737   6.654
 6029SOL     OW18985   2.543   1.732   2.543
 6029SOL    HW118986   2.635   1.761   2.570
 6029SOL    HW218987   2.503   1.677   2.616
 6030SOL     OW18988   6.084   3.427   4.653
 6030SOL    HW118989   6.082   3.355   4.722
 6030SOL    HW218990   6.171   3.423   4.603
 6031SOL     OW18991   6.991   0.300   3.594
 6031SOL    HW118992   6.968   0.395   3.572
 6031SOL    HW218993   6.962   0.240   3.518
 6032SOL     OW18994   2.981   0.351   3.419
 6032SOL    HW118995   3.040   0.284   3.373
 6032SOL    HW218996   2.990   0.440   3.374
 6033SOL     OW18997   0.888   1.629   2.920
 6033SOL    HW118998   0.926   1.704   2.865
 6033SOL    HW218999   0.955   1.600   2.988
 6034SOL     OW19000   0.810   1.121   1.008
 6034SOL    HW119001   0.841   1.091   0.918
 6034SOL    HW219002   0.711   1.135   1.005
 6035SOL     OW19003   1.532   0.999   2.357
 6035SOL    HW119004   1.434   1.010   2.374
 6035SOL    HW219005   1.546   0.972   2.262
 6036SOL     OW19006   6.959   3.329   0.469
 6036SOL    HW119007   0.015   3.283   0.517
 6036SOL    HW219008   6.901   3.377   0.536
 6037SOL     OW19009   4.457   0.343   6.542
 6037SOL    HW119010   4.530   0.329   6.475
 6037SOL    HW219011   4.407   0.426   6.519
 6038SOL     OW19012   1.945   1.248   7.005
 6038SOL    HW119013   1.947   1.173   0.052
 6038SOL    HW219014   1.879   1.226   6.932
 6039SOL     OW19015   3.440   2.931   4.491
 6039SOL    HW119016   3.472   3.026   4.490
 6039SOL    HW219017   3.369   2.920   4.422
 6040SOL     OW19018   0.048   1.507   0.372
 6040SOL    HW119019   0.114   1.525   0.446
 6040SOL    HW219020   7.002   1.437   0.402
 6041SOL     OW19021   0.778   2.808   4.737
 6041SOL    HW119022   0.780   2.908   4.741
 6041SOL    HW219023   0.704   2.774   4.796
 6042SOL     OW19024   2.677   6.144   3.962
 6042SOL    HW119025   2.602   6.113   3.903
 6042SOL    HW219026   2.719   6.066   4.007
 6043SOL     OW19027   2.374   5.541   2.029
 6043SOL    HW119028   2.374   5.626   1.975
 6043SOL    HW219029   2.375   5.564   2.127
 6044SOL     OW19030   0.120   3.187   0.617
 6044SOL    HW119031   0.103   3.209   0.713
 6044SOL    HW219032   0.219   3.185   0.601
 6045SOL     OW19033   5.229   1.430   4.509
 6045SOL    HW119034   5.215   1.523   4.474
 6045SOL    HW219035   5.146   1.400   4.557
 6046SOL     OW19036   3.417   4.141   2.533
 6046SOL    HW119037   3.461   4.136   2.443
 6046SOL    HW219038   3.320   4.161   2.522
 6047SOL     OW19039   0.165   1.388   6.913
 6047SOL    HW119040   0.099   1.431   6.976
 6047SOL    HW219041   0.256   1.390   6.955
 6048SOL     OW19042   6.126   5.602   3.265
 6048SOL    HW119043   6.119   5.692   3.223
 6048SOL    HW219044   6.050   5.589   3.328
 6049SOL     OW19045   4.743   4.887   6.454
 6049SOL    HW119046   4.700   4.977   6.461
 6049SOL    HW219047   4.842   4.896   6.465
 6050SOL     OW19048   2.671   5.361   2.966
 6050SOL    HW119049   2.642   5.277   2.922
 6050SOL    HW219050   2.771   5.365   2.970
 6051SOL     OW19051   0.911   1.332   2.265
 6051SOL    HW119052   0.998   1.381   2.261
 6051SOL    HW219053   0.866   1.351   2.351
 6052SOL     OW19054   5.723   6.014   6.391
 6052SOL    HW119055   5.658   6.083   6.358
 6052SOL    HW219056   5.733   6.022   6.490
 6053SOL     OW19057   3.928   2.141   5.491
 6053SOL    HW119058   3.960   2.134   5.397
 6053SOL    HW219059   3.860   2.069   5.508
 6054SOL     OW19060   4.327   3.702   6.936
 6054SOL    HW119061   4.293   3.769   7.001
 6054SOL    HW219062   4.250   3.659   6.888
 6055SOL     OW19063   3.134   4.600   1.639
 6055SOL    HW119064   3.099   4.651   1.560
 6055SOL    HW219065   3.079   4.517   1.651
 6056SOL     OW19066   5.009   6.459   2.822
 6056SOL    HW119067   4.977   6.513   2.899
 6056SOL    HW219068   4.961   6.371   2.821
 6057SOL     OW19069   5.906   1.086   3.958
 6057SOL    HW119070   5.822   1.108   3.908
 6057SOL    HW219071   5.882   1.028   4.037
 6058SOL     OW19072   0.252   2.921   5.880
 6058SOL    HW119073   0.177   2.895   5.940
 6058SOL    HW219074   0.273   2.845   5.818
 6059SOL     OW19075   4.096   2.124   6.631
 6059SOL    HW119076   4.131   2.098   6.541
 6059SOL    HW219077   4.154   2.085   6.702
 6060SOL     OW19078   1.750   2.421   0.893
 6060SOL    HW119079   1.770   2.323   0.892
 6060SOL    HW219080   1.667   2.437   0.947
 6061SOL     OW19081   2.289   4.475   6.744
 6061SOL    HW119082   2.339   4.413   6.804
 6061SOL    HW219083   2.277   4.563   6.790
 6062SOL     OW19084   1.902   1.775   5.980
 6062SOL    HW119085   1.925   1.857   6.031
 6062SOL    HW219086   1.985   1.735   5.939
 6063SOL     OW19087   4.638   3.991   6.220
 6063SOL    HW119088   4.546   4.027   6.204
 6063SOL    HW219089   4.666   3.936   6.142
 6064SOL     OW19090   5.953   5.982   0.436
 6064SOL    HW119091   5.944   6.081   0.450
 6064SOL    HW219092   5.938   5.960   0.340
 6065SOL     OW19093   2.269   5.701   1.599
 6065SOL    HW119094   2.279   5.795   1.569
 6065SOL    HW219095   2.320   5.640   1.538
 6066SOL     OW19096   6.028   5.648   1.933
 6066SOL    HW119097   6.006   5.695   1.847
 6066SOL    HW219098   6.095   5.575   1.915
 6067SOL     OW19099   0.385   4.860   5.692
 6067SOL    HW119100   0.363   4.782   5.751
 6067SOL    HW219101   0.332   4.939   5.721
 6068SOL     OW19102   4.122   1.591   3.696
 6068SOL    HW119103   4.117   1.545   3.785
 6068SOL    HW219104   4.196   1.550   3.642
 6069SOL     OW19105   0.500   5.050   5.330
 6069SOL    HW119106   0.552   5.136   5.326
 6069SOL    HW219107   0.542   4.989   5.397
 6070SOL     OW19108   2.581   0.847   0.902
 6070SOL    HW119109   2.633   0.836   0.817
 6070SOL    HW219110   2.531   0.763   0.922
 6071SOL     OW19111   5.762   0.495   6.407
 6071SOL    HW119112   5.697   0.524   6.476
 6071SOL    HW219113   5.845   0.551   6.413
 6072SOL     OW19114   6.831   2.739   0.274
 6072SOL    HW119115   6.916   2.785   0.250
 6072SOL    HW219116   6.799   2.773   0.363
 6073SOL     OW19117   4.641   3.884   0.237
 6073SOL    HW119118   4.659   3.981   0.249
 6073SOL    HW219119   4.707   3.830   0.289
 6074SOL     OW19120   1.253   6.203   2.708
 6074SOL    HW119121   1.197   6.182   2.788
 6074SOL    HW219122   1.201   6.259   2.644
 6075SOL     OW19123   6.469   6.748   6.781
 6075SOL    HW119124   6.447   6.808   6.858
 6075SOL    HW219125   6.568   6.737   6.774
 6076SOL     OW19126   0.177   6.889   3.030
 6076SOL    HW119127   0.152   6.897   3.127
 6076SOL    HW219128   0.275   6.906   3.020
 6077SOL     OW19129   4.857   6.145   2.498
 6077SOL    HW119130   4.860   6.070   2.433
 6077SOL    HW219131   4.950   6.175   2.520
 6078SOL     OW19132   5.408   4.442   0.052
 6078SOL    HW119133   5.469   4.408   0.124
 6078SOL    HW219134   5.459   4.448   6.985
 6079SOL     OW19135   3.456   1.704   0.404
 6079SOL    HW119136   3.539   1.664   0.366
 6079SOL    HW219137   3.376   1.654   0.371
 6080SOL     OW19138   6.755   3.392   5.460
 6080SOL    HW119139   6.838   3.447   5.464
 6080SOL    HW219140   6.749   3.348   5.370
 6081SOL     OW19141   2.112   3.976   4.316
 6081SOL    HW119142   2.176   4.051   4.302
 6081SOL    HW219143   2.108   3.919   4.234
 6082SOL     OW19144   5.196   1.197   1.141
 6082SOL    HW119145   5.129   1.233   1.205
 6082SOL    HW219146   5.286   1.193   1.185
 6083SOL     OW19147   4.922   6.964   6.260
 6083SOL    HW119148   4.824   6.961   6.282
 6083SOL    HW219149   4.964   0.022   6.309
 6084SOL     OW19150   6.497   4.889   3.325
 6084SOL    HW119151   6.528   4.793   3.325
 6084SOL    HW219152   6.398   4.892   3.315
 6085SOL     OW19153   0.783   6.321   0.990
 6085SOL    HW119154   0.848   6.344   1.063
 6085SOL    HW219155   0.735   6.404   0.961
 6086SOL     OW19156   4.065   3.550   0.850
 6086SOL    HW119157   4.002   3.609   0.799
 6086SOL    HW219158   4.040   3.454   0.836
 6087SOL     OW19159   3.738   0.654   0.588
 6087SOL    HW119160   3.722   0.574   0.531
 6087SOL    HW219161   3.749   0.625   0.683
 6088SOL     OW19162   3.687   5.770   1.827
 6088SOL    HW119163   3.781   5.783   1.859
 6088SOL    HW219164   3.675   5.675   1.797
 6089SOL     OW19165   6.253   5.298   3.482
 6089SOL    HW119166   6.297   5.225   3.534
 6089SOL    HW219167   6.322   5.361   3.446
 6090SOL     OW19168   3.568   5.852   4.819
 6090SOL    HW119169   3.510   5.934   4.811
 6090SOL    HW219170   3.550   5.791   4.742
 6091SOL     OW19171   1.001   2.795   2.723
 6091SOL    HW119172   0.918   2.827   2.677
 6091SOL    HW219173   1.049   2.730   2.664
 6092SOL     OW19174   2.140   6.549   1.320
 6092SOL    HW119175   2.135   6.589   1.411
 6092SOL    HW219176   2.070   6.477   1.312
 6093SOL     OW19177   3.218   3.167   1.998
 6093SOL    HW119178   3.171   3.176   2.086
 6093SOL    HW219179   3.168   3.103   1.940
 6094SOL     OW19180   1.182   0.262   5.531
 6094SOL    HW119181   1.195   0.321   5.610
 6094SOL    HW219182   1.261   0.203   5.520
 6095SOL     OW19183   5.099   5.181   2.319
 6095SOL    HW119184   5.020   5.217   2.270
 6095SOL    HW219185   5.080   5.087   2.348
 6096SOL     OW19186   4.627   5.731   2.661
 6096SOL    HW119187   4.715   5.774   2.680
 6096SOL    HW219188   4.562   5.799   2.626
 6097SOL     OW19189   2.496   5.137   1.732
 6097SOL    HW119190   2.481   5.202   1.658
 6097SOL    HW219191   2.454   5.172   1.816
 6098SOL     OW19192   6.103   1.470   5.195
 6098SOL    HW119193   6.045   1.418   5.258
 6098SOL    HW219194   6.051   1.547   5.157
 6099SOL     OW19195   3.558   6.619   5.249
 6099SOL    HW119196   3.585   6.523   5.254
 6099SOL    HW219197   3.631   6.672   5.205
 6100SOL     OW19198   0.442   5.428   5.747
 6100SOL    HW119199   0.382   5.387   5.816
 6100SOL    HW219200   0.386   5.462   5.671
 6101SOL     OW19201   0.665   2.964   1.347
 6101SOL    HW119202   0.693   2.966   1.443
 6101SOL    HW219203   0.616   3.048   1.324
 6102SOL     OW19204   3.201   0.450   2.980
 6102SOL    HW119205   3.112   0.409   2.962
 6102SOL    HW219206   3.238   0.414   3.066
 6103SOL     OW19207   5.576   1.059   2.360
 6103SOL    HW119208   5.524   1.139   2.390
 6103SOL    HW219209   5.525   0.976   2.384
 6104SOL     OW19210   6.485   0.618   5.120
 6104SOL    HW119211   6.475   0.584   5.026
 6104SOL    HW219212   6.571   0.668   5.129
 6105SOL     OW19213   3.717   4.810   5.911
 6105SOL    HW119214   3.703   4.853   6.000
 6105SOL    HW219215   3.813   4.816   5.886
 6106SOL     OW19216   6.491   3.879   5.164
 6106SOL    HW119217   6.530   3.900   5.074
 6106SOL    HW219218   6.398   3.845   5.153
 6107SOL     OW19219   6.094   4.961   5.336
 6107SOL    HW119220   6.067   4.877   5.288
 6107SOL    HW219221   6.187   4.949   5.372
 6108SOL     OW19222   3.457   0.683   6.378
 6108SOL    HW119223   3.478   0.626   6.457
 6108SOL    HW219224   3.532   0.747   6.362
 6109SOL     OW19225   6.970   6.899   3.513
 6109SOL    HW119226   0.004   6.815   3.529
 6109SOL    HW219227   6.976   6.958   3.593
 6110SOL     OW19228   1.320   2.089   3.745
 6110SOL    HW119229   1.280   2.171   3.787
 6110SOL    HW219230   1.368   2.036   3.814
 6111SOL     OW19231   2.593   2.598   0.731
 6111SOL    HW119232   2.652   2.631   0.658
 6111SOL    HW219233   2.637   2.615   0.820
 6112SOL     OW19234   4.916   6.768   3.349
 6112SOL    HW119235   4.850   6.813   3.289
 6112SOL    HW219236   4.958   6.835   3.410
 6113SOL     OW19237   3.038   5.554   1.269
 6113SOL    HW119238   2.984   5.502   1.203
 6113SOL    HW219239   2.989   5.559   1.356
 6114SOL     OW19240   4.897   3.542   1.939
 6114SOL    HW119241   4.878   3.444   1.933
 6114SOL    HW219242   4.815   3.594   1.916
 6115SOL     OW19243   6.673   0.891   5.142
 6115SOL    HW119244   6.755   0.896   5.198
 6115SOL    HW219245   6.608   0.962   5.170
 6116SOL     OW19246   6.807   3.121   0.364
 6116SOL    HW119247   6.728   3.144   0.421
 6116SOL    HW219248   6.872   3.197   0.366
 6117SOL     OW19249   2.226   2.452   1.168
 6117SOL    HW119250   2.253   2.384   1.099
 6117SOL    HW219251   2.161   2.517   1.127
 6118SOL     OW19252   5.743   0.796   1.548
 6118SOL    HW119253   5.831   0.748   1.546
 6118SOL    HW219254   5.745   0.866   1.620
 6119SOL     OW19255   0.394   1.133   6.367
 6119SOL    HW119256   0.471   1.191   6.394
 6119SOL    HW219257   0.428   1.054   6.316
 6120SOL     OW19258   3.040   1.224   4.125
 6120SOL    HW119259   3.061   1.289   4.052
 6120SOL    HW219260   3.010   1.138   4.086
 6121SOL     OW19261   3.252   1.375   5.275
 6121SOL    HW119262   3.238   1.402   5.180
 6121SOL    HW219263   3.182   1.309   5.302
 6122SOL     OW19264   4.686   4.895   4.986
 6122SOL    HW119265   4.785   4.891   4.998
 6122SOL    HW219266   4.647   4.804   5.001
 6123SOL     OW19267   6.636   1.699   4.948
 6123SOL    HW119268   6.711   1.653   4.996
 6123SOL    HW219269   6.600   1.772   5.006
 6124SOL     OW19270   2.482   6.410   4.124
 6124SOL    HW119271   2.459   6.335   4.186
 6124SOL    HW219272   2.574   6.443   4.144
 6125SOL     OW19273   3.898   1.283   5.469
 6125SOL    HW119274   3.814   1.229   5.476
 6125SOL    HW219275   3.919   1.323   5.558
 6126SOL     OW19276   5.968   2.649   6.753
 6126SOL    HW119277   5.963   2.556   6.788
 6126SOL    HW219278   5.895   2.704   6.793
 6127SOL     OW19279   5.332   2.444   2.604
 6127SOL    HW119280   5.283   2.529   2.624
 6127SOL    HW219281   5.268   2.377   2.565
 6128SOL     OW19282   5.771   5.931   5.458
 6128SOL    HW119283   5.838   5.973   5.397
 6128SOL    HW219284   5.818   5.873   5.525
 6129SOL     OW19285   2.637   5.656   2.908
 6129SOL    HW119286   2.730   5.681   2.934
 6129SOL    HW219287   2.626   5.557   2.912
 6130SOL     OW19288   6.104   3.041   0.173
 6130SOL    HW119289   6.021   3.076   0.217
 6130SOL    HW219290   6.086   2.948   0.139
 6131SOL     OW19291   6.341   2.866   2.932
 6131SOL    HW119292   6.413   2.813   2.888
 6131SOL    HW219293   6.252   2.827   2.910
 6132SOL     OW19294   4.542   6.227   6.285
 6132SOL    HW119295   4.444   6.206   6.288
 6132SOL    HW219296   4.583   6.202   6.373
 6133SOL     OW19297   0.546   2.278   3.724
 6133SOL    HW119298   0.609   2.345   3.762
 6133SOL    HW219299   0.555   2.277   3.624
 6134SOL     OW19300   0.133   6.486   5.403
 6134SOL    HW119301   0.108   6.567   5.349
 6134SOL    HW219302   0.179   6.419   5.344
 6135SOL     OW19303   6.087   6.608   0.345
 6135SOL    HW119304   6.122   6.606   0.439
 6135SOL    HW219305   6.053   6.517   0.321
 6136SOL     OW19306   1.185   2.301   3.533
 6136SOL    HW119307   1.237   2.384   3.551
 6136SOL    HW219308   1.194   2.238   3.610
 6137SOL     OW19309   6.885   5.051   1.268
 6137SOL    HW119310   6.899   4.986   1.193
 6137SOL    HW219311   6.799   5.030   1.314
 6138SOL     OW19312   5.545   0.980   1.995
 6138SOL    HW119313   5.505   1.058   2.043
 6138SOL    HW219314   5.508   0.895   2.033
 6139SOL     OW19315   1.836   2.088   5.409
 6139SOL    HW119316   1.892   2.167   5.434
 6139SOL    HW219317   1.772   2.067   5.482
 6140SOL     OW19318   2.401   0.301   3.495
 6140SOL    HW119319   2.332   0.302   3.423
 6140SOL    HW219320   2.440   0.209   3.502
 6141SOL     OW19321   1.171   0.835   0.449
 6141SOL    HW119322   1.077   0.809   0.428
 6141SOL    HW219323   1.192   0.924   0.409
 6142SOL     OW19324   0.311   7.016   1.797
 6142SOL    HW119325   0.335   0.094   1.796
 6142SOL    HW219326   0.383   6.964   1.752
 6143SOL     OW19327   0.852   3.031   5.358
 6143SOL    HW119328   0.943   2.996   5.381
 6143SOL    HW219329   0.855   3.078   5.270
 6144SOL     OW19330   3.385   5.904   2.779
 6144SOL    HW119331   3.427   5.858   2.701
 6144SOL    HW219332   3.443   5.980   2.808
 6145SOL     OW19333   5.085   2.997   4.182
 6145SOL    HW119334   5.112   3.025   4.090
 6145SOL    HW219335   5.124   2.908   4.203
 6146SOL     OW19336   5.951   0.775   5.305
 6146SOL    HW119337   5.961   0.677   5.321
 6146SOL    HW219338   6.037   0.812   5.269
 6147SOL     OW19339   1.294   1.859   6.081
 6147SOL    HW119340   1.326   1.808   6.002
 6147SOL    HW219341   1.206   1.901   6.060
 6148SOL     OW19342   3.950   4.946   6.826
 6148SOL    HW119343   3.865   4.906   6.861
 6148SOL    HW219344   3.996   4.996   6.899
 6149SOL     OW19345   3.989   2.062   1.499
 6149SOL    HW119346   3.945   2.031   1.583
 6149SOL    HW219347   3.996   2.162   1.500
 6150SOL     OW19348   0.623   5.025   4.466
 6150SOL    HW119349   0.645   5.018   4.369
 6150SOL    HW219350   0.681   5.094   4.509
 6151SOL     OW19351   3.787   5.323   3.242
 6151SOL    HW119352   3.864   5.367   3.196
 6151SOL    HW219353   3.742   5.260   3.178
 6152SOL     OW19354   0.540   3.872   3.014
 6152SOL    HW119355   0.478   3.929   2.961
 6152SOL    HW219356   0.599   3.930   3.070
 6153SOL     OW19357   5.172   6.236   0.655
 6153SOL    HW119358   5.204   6.323   0.617
 6153SOL    HW219359   5.073   6.239   0.666
 6154SOL     OW19360   4.454   4.548   3.003
 6154SOL    HW119361   4.438   4.479   3.073
 6154SOL    HW219362   4.382   4.617   3.006
 6155SOL     OW19363   2.163   1.430   3.651
 6155SOL    HW119364   2.079   1.382   3.674
 6155SOL    HW219365   2.202   1.471   3.734
 6156SOL     OW19366   4.621   4.334   2.291
 6156SOL    HW119367   4.696   4.352   2.227
 6156SOL    HW219368   4.535   4.367   2.252
 6157SOL     OW19369   0.731   3.069   1.074
 6157SOL    HW119370   0.673   3.128   1.018
 6157SOL    HW219371   0.679   3.033   1.151
 6158SOL     OW19372   2.970   1.009   5.977
 6158SOL    HW119373   2.928   0.941   5.916
 6158SOL    HW219374   2.934   1.100   5.955
 6159SOL     OW19375   5.875   2.436   0.500
 6159SOL    HW119376   5.813   2.370   0.543
 6159SOL    HW219377   5.969   2.418   0.531
 6160SOL     OW19378   0.869   6.716   1.204
 6160SOL    HW119379   0.865   6.617   1.215
 6160SOL    HW219380   0.791   6.748   1.151
 6161SOL     OW19381   5.182   3.914   6.545
 6161SOL    HW119382   5.184   3.965   6.630
 6161SOL    HW219383   5.257   3.943   6.486
 6162SOL     OW19384   5.992   5.743   0.983
 6162SOL    HW119385   5.976   5.651   1.017
 6162SOL    HW219386   6.072   5.743   0.922
 6163SOL     OW19387   6.036   6.186   3.029
 6163SOL    HW119388   6.097   6.247   3.080
 6163SOL    HW219389   5.948   6.181   3.075
 6164SOL     OW19390   3.326   3.390   4.566
 6164SOL    HW119391   3.269   3.455   4.516
 6164SOL    HW219392   3.375   3.332   4.501
 6165SOL     OW19393   3.898   0.802   6.979
 6165SOL    HW119394   3.971   0.827   0.024
 6165SOL    HW219395   3.846   0.883   6.954
 6166SOL     OW19396   3.505   1.051   5.976
 6166SOL    HW119397   3.464   1.136   5.943
 6166SOL    HW219398   3.598   1.043   5.941
 6167SOL     OW19399   1.628   3.452   2.705
 6167SOL    HW119400   1.622   3.549   2.685
 6167SOL    HW219401   1.692   3.408   2.641
 6168SOL     OW19402   0.781   3.704   4.330
 6168SOL    HW119403   0.712   3.651   4.379
 6168SOL    HW219404   0.752   3.716   4.235
 6169SOL     OW19405   2.933   0.740   0.454
 6169SOL    HW119406   3.018   0.725   0.505
 6169SOL    HW219407   2.949   0.805   0.380
 6170SOL     OW19408   3.022   4.764   1.464
 6170SOL    HW119409   3.074   4.845   1.436
 6170SOL    HW219410   2.944   4.793   1.520
 6171SOL     OW19411   2.160   4.517   1.474
 6171SOL    HW119412   2.208   4.431   1.459
 6171SOL    HW219413   2.226   4.588   1.500
 6172SOL     OW19414   2.891   5.153   1.560
 6172SOL    HW119415   2.973   5.104   1.591
 6172SOL    HW219416   2.810   5.102   1.587
 6173SOL     OW19417   1.388   5.274   2.371
 6173SOL    HW119418   1.463   5.337   2.352
 6173SOL    HW219419   1.397   5.239   2.464
 6174SOL     OW19420   5.648   4.347   1.797
 6174SOL    HW119421   5.696   4.347   1.884
 6174SOL    HW219422   5.600   4.260   1.785
 6175SOL     OW19423   4.767   0.265   3.655
 6175SOL    HW119424   4.794   0.170   3.639
 6175SOL    HW219425   4.673   0.268   3.690
 6176SOL     OW19426   5.441   3.166   0.033
 6176SOL    HW119427   5.537   3.185   0.051
 6176SOL    HW219428   5.389   3.251   0.035
 6177SOL     OW19429   6.154   2.658   2.708
 6177SOL    HW119430   6.120   2.568   2.737
 6177SOL    HW219431   6.112   2.729   2.764
 6178SOL     OW19432   6.201   3.604   1.035
 6178SOL    HW119433   6.125   3.589   1.099
 6178SOL    HW219434   6.164   3.623   0.944
 6179SOL     OW19435   0.254   2.097   4.956
 6179SOL    HW119436   0.265   2.166   5.027
 6179SOL    HW219437   0.179   2.124   4.895
 6180SOL     OW19438   3.628   6.865   5.993
 6180SOL    HW119439   3.566   6.814   5.934
 6180SOL    HW219440   3.675   6.936   5.940
 6181SOL     OW19441   4.429   6.002   6.931
 6181SOL    HW119442   4.369   6.030   7.006
 6181SOL    HW219443   4.377   6.001   6.845
 6182SOL     OW19444   5.167   0.119   5.653
 6182SOL    HW119445   5.217   0.045   5.700
 6182SOL    HW219446   5.151   0.092   5.558
 6183SOL     OW19447   3.217   0.318   2.512
 6183SOL    HW119448   3.163   0.236   2.498
 6183SOL    HW219449   3.247   0.323   2.607
 6184SOL     OW19450   6.727   0.177   6.088
 6184SOL    HW119451   6.648   0.237   6.071
 6184SOL    HW219452   6.707   0.116   6.165
 6185SOL     OW19453   2.244   2.605   6.867
 6185SOL    HW119454   2.262   2.585   6.964
 6185SOL    HW219455   2.327   2.587   6.814
 6186SOL     OW19456   4.919   0.714   4.134
 6186SOL    HW119457   4.998   0.765   4.167
 6186SOL    HW219458   4.950   0.643   4.070
 6187SOL     OW19459   3.119   5.221   4.435
 6187SOL    HW119460   3.210   5.250   4.465
 6187SOL    HW219461   3.106   5.124   4.454
 6188SOL     OW19462   3.010   6.784   1.822
 6188SOL    HW119463   3.013   6.791   1.921
 6188SOL    HW219464   3.097   6.747   1.789
 6189SOL     OW19465   5.142   4.699   3.190
 6189SOL    HW119466   5.165   4.654   3.104
 6189SOL    HW219467   5.214   4.764   3.214
 6190SOL     OW19468   5.211   2.791   5.904
 6190SOL    HW119469   5.151   2.775   5.983
 6190SOL    HW219470   5.249   2.704   5.873
 6191SOL     OW19471   7.007   1.887   6.278
 6191SOL    HW119472   6.912   1.913   6.262
 6191SOL    HW219473   0.002   1.871   6.376
 6192SOL     OW19474   3.462   2.259   0.600
 6192SOL    HW119475   3.542   2.292   0.651
 6192SOL    HW219476   3.394   2.223   0.663
 6193SOL     OW19477   6.729   0.333   1.636
 6193SOL    HW119478   6.661   0.405   1.648
 6193SOL    HW219479   6.710   0.282   1.553
 6194SOL     OW19480   2.369   0.340   0.592
 6194SOL    HW119481   2.379   0.370   0.497
 6194SOL    HW219482   2.298   0.396   0.636
 6195SOL     OW19483   2.299   6.794   5.343
 6195SOL    HW119484   2.301   6.871   5.407
 6195SOL    HW219485   2.377   6.801   5.280
 6196SOL     OW19486   0.776   1.983   5.716
 6196SOL    HW119487   0.736   1.950   5.630
 6196SOL    HW219488   0.803   2.079   5.706
 6197SOL     OW19489   2.371   2.769   1.014
 6197SOL    HW119490   2.439   2.821   0.962
 6197SOL    HW219491   2.284   2.818   1.013
 6198SOL     OW19492   3.707   5.330   2.691
 6198SOL    HW119493   3.656   5.415   2.678
 6198SOL    HW219494   3.665   5.258   2.636
 6199SOL     OW19495   0.410   0.602   6.576
 6199SOL    HW119496   0.378   0.631   6.486
 6199SOL    HW219497   0.344   0.630   6.646
 6200SOL     OW19498   3.991   0.530   5.845
 6200SOL    HW119499   3.979   0.519   5.943
 6200SOL    HW219500   4.057   0.603   5.827
 6201SOL     OW19501   1.968   4.845   4.304
 6201SOL    HW119502   1.902   4.817   4.235
 6201SOL    HW219503   2.015   4.765   4.341
 6202SOL     OW19504   2.457   2.375   1.301
 6202SOL    HW119505   2.364   2.407   1.281
 6202SOL    HW219506   2.488   2.315   1.228
 6203SOL     OW19507   5.948   1.788   4.369
 6203SOL    HW119508   5.996   1.710   4.408
 6203SOL    HW219509   5.933   1.773   4.272
 6204SOL     OW19510   1.107   6.464   5.701
 6204SOL    HW119511   1.147   6.428   5.785
 6204SOL    HW219512   1.008   6.467   5.710
 6205SOL     OW19513   5.347   6.265   6.608
 6205SOL    HW119514   5.305   6.316   6.533
 6205SOL    HW219515   5.292   6.183   6.627
 6206SOL     OW19516   5.251   7.011   3.305
 6206SOL    HW119517   5.283   6.931   3.253
 6206SOL    HW219518   5.166   6.987   3.353
 6207SOL     OW19519   2.297   4.163   4.219
 6207SOL    HW119520   2.267   4.107   4.142
 6207SOL    HW219521   2.358   4.235   4.186
 6208SOL     OW19522   5.696   5.486   5.259
 6208SOL    HW119523   5.698   5.469   5.357
 6208SOL    HW219524   5.604   5.472   5.224
 6209SOL     OW19525   2.408   4.954   1.208
 6209SOL    HW119526   2.452   4.873   1.169
 6209SOL    HW219527   2.344   4.993   1.142
 6210SOL     OW19528   6.583   5.061   2.822
 6210SOL    HW119529   6.484   5.057   2.813
 6210SOL    HW219530   6.624   4.987   2.768
 6211SOL     OW19531   2.313   0.770   5.210
 6211SOL    HW119532   2.230   0.748   5.263
 6211SOL    HW219533   2.289   0.780   5.114
 6212SOL     OW19534   6.443   0.552   3.551
 6212SOL    HW119535   6.477   0.458   3.546
 6212SOL    HW219536   6.408   0.579   3.462
 6213SOL     OW19537   6.897   0.144   0.354
 6213SOL    HW119538   6.971   0.092   0.395
 6213SOL    HW219539   6.862   0.211   0.419
 6214SOL     OW19540   5.157   4.831   2.088
 6214SOL    HW119541   5.114   4.805   2.001
 6214SOL    HW219542   5.101   4.796   2.163
 6215SOL     OW19543   2.834   4.872   1.596
 6215SOL    HW119544   2.865   4.865   1.691
 6215SOL    HW219545   2.734   4.874   1.595
 6216SOL     OW19546   6.579   2.406   2.812
 6216SOL    HW119547   6.502   2.353   2.778
 6216SOL    HW219548   6.650   2.411   2.742
 6217SOL     OW19549   4.716   1.637   1.264
 6217SOL    HW119550   4.640   1.702   1.268
 6217SOL    HW219551   4.720   1.597   1.172
 6218SOL     OW19552   4.411   5.273   4.123
 6218SOL    HW119553   4.395   5.208   4.048
 6218SOL    HW219554   4.343   5.346   4.118
 6219SOL     OW19555   0.169   1.277   4.200
 6219SOL    HW119556   0.087   1.297   4.255
 6219SOL    HW219557   0.161   1.325   4.112
 6220SOL     OW19558   1.382   3.515   5.339
 6220SOL    HW119559   1.367   3.609   5.370
 6220SOL    HW219560   1.321   3.495   5.262
 6221SOL     OW19561   4.383   4.876   4.599
 6221SOL    HW119562   4.385   4.831   4.688
 6221SOL    HW219563   4.344   4.968   4.610
 6222SOL     OW19564   0.318   1.684   1.301
 6222SOL    HW119565   0.381   1.621   1.257
 6222SOL    HW219566   0.315   1.666   1.399
 6223SOL     OW19567   5.180   4.294   4.318
 6223SOL    HW119568   5.138   4.365   4.375
 6223SOL    HW219569   5.236   4.337   4.248
 6224SOL     OW19570   2.645   0.404   4.984
 6224SOL    HW119571   2.588   0.422   5.064
 6224SOL    HW219572   2.638   0.480   4.920
 6225SOL     OW19573   3.676   2.267   6.564
 6225SOL    HW119574   3.592   2.256   6.618
 6225SOL    HW219575   3.751   2.296   6.625
 6226SOL     OW19576   6.713   6.581   4.302
 6226SOL    HW119577   6.788   6.646   4.291
 6226SOL    HW219578   6.641   6.602   4.235
 6227SOL     OW19579   2.776   4.389   6.701
 6227SOL    HW119580   2.708   4.330   6.658
 6227SOL    HW219581   2.753   4.403   6.797
 6228SOL     OW19582   6.929   2.148   3.031
 6228SOL    HW119583   6.914   2.118   3.126
 6228SOL    HW219584   7.000   2.091   2.989
 6229SOL     OW19585   1.845   2.161   1.594
 6229SOL    HW119586   1.749   2.155   1.625
 6229SOL    HW219587   1.897   2.218   1.657
 6230SOL     OW19588   2.647   1.900   4.196
 6230SOL    HW119589   2.582   1.835   4.156
 6230SOL    HW219590   2.707   1.935   4.125
 6231SOL     OW19591   6.779   5.272   1.807
 6231SOL    HW119592   6.688   5.277   1.766
 6231SOL    HW219593   6.785   5.336   1.884
 6232SOL     OW19594   0.818   1.066   0.018
 6232SOL    HW119595   0.727   1.026   0.018
 6232SOL    HW219596   0.823   1.138   6.968
 6233SOL     OW19597   4.581   0.919   6.659
 6233SOL    HW119598   4.603   0.893   6.565
 6233SOL    HW219599   4.482   0.914   6.672
 6234SOL     OW19600   2.282   2.342   3.880
 6234SOL    HW119601   2.304   2.385   3.792
 6234SOL    HW219602   2.279   2.243   3.868
 6235SOL     OW19603   2.307   5.989   2.329
 6235SOL    HW119604   2.315   5.890   2.345
 6235SOL    HW219605   2.358   6.038   2.399
 6236SOL     OW19606   6.977   4.136   6.771
 6236SOL    HW119607   0.046   4.091   6.758
 6236SOL    HW219608   6.958   4.146   6.868
 6237SOL     OW19609   4.058   5.968   6.241
 6237SOL    HW119610   3.980   5.916   6.206
 6237SOL    HW219611   4.110   5.912   6.306
 6238SOL     OW19612   5.421   3.762   0.480
 6238SOL    HW119613   5.462   3.823   0.548
 6238SOL    HW219614   5.463   3.779   0.391
 6239SOL     OW19615   3.088   6.672   3.563
 6239SOL    HW119616   3.186   6.670   3.584
 6239SOL    HW219617   3.051   6.579   3.568
 6240SOL     OW19618   2.996   3.575   0.549
 6240SOL    HW119619   2.922   3.566   0.614
 6240SOL    HW219620   2.966   3.631   0.471
 6241SOL     OW19621   4.795   0.230   1.733
 6241SOL    HW119622   4.870   0.187   1.785
 6241SOL    HW219623   4.710   0.221   1.785
 6242SOL     OW19624   3.802   2.165   3.043
 6242SOL    HW119625   3.748   2.163   2.958
 6242SOL    HW219626   3.740   2.158   3.121
 6243SOL     OW19627   6.218   5.956   2.970
 6243SOL    HW119628   6.297   5.985   2.916
 6243SOL    HW219629   6.162   6.036   2.992
 6244SOL     OW19630   1.739   2.103   2.088
 6244SOL    HW119631   1.805   2.097   2.163
 6244SOL    HW219632   1.735   2.015   2.040
 6245SOL     OW19633   2.121   3.922   0.571
 6245SOL    HW119634   2.031   3.882   0.553
 6245SOL    HW219635   2.153   3.891   0.661
 6246SOL     OW19636   4.525   7.013   0.167
 6246SOL    HW119637   4.617   0.027   0.188
 6246SOL    HW219638   4.466   0.006   0.247
 6247SOL     OW19639   6.845   6.659   2.822
 6247SOL    HW119640   6.767   6.661   2.884
 6247SOL    HW219641   6.877   6.753   2.806
 6248SOL     OW19642   0.862   5.697   0.555
 6248SOL    HW119643   0.857   5.602   0.588
 6248SOL    HW219644   0.775   5.722   0.513
 6249SOL     OW19645   6.496   3.713   6.497
 6249SOL    HW119646   6.589   3.687   6.469
 6249SOL    HW219647   6.430   3.665   6.440
 6250SOL     OW19648   0.024   4.613   5.827
 6250SOL    HW119649   7.008   4.608   5.734
 6250SOL    HW219650   0.029   4.709   5.856
 6251SOL     OW19651   4.747   1.272   1.125
 6251SOL    HW119652   4.816   1.342   1.106
 6251SOL    HW219653   4.791   1.182   1.123
 6252SOL     OW19654   1.985   6.377   4.827
 6252SOL    HW119655   2.063   6.369   4.889
 6252SOL    HW219656   1.973   6.292   4.777
 6253SOL     OW19657   2.785   3.568   1.308
 6253SOL    HW119658   2.802   3.638   1.377
 6253SOL    HW219659   2.730   3.607   1.234
 6254SOL     OW19660   5.295   0.181   0.645
 6254SOL    HW119661   5.284   0.085   0.671
 6254SOL    HW219662   5.381   0.216   0.682
 6255SOL     OW19663   0.034   3.129   3.434
 6255SOL    HW119664   0.091   3.095   3.509
 6255SOL    HW219665   0.091   3.152   3.356
 6256SOL     OW19666   3.977   5.101   4.243
 6256SOL    HW119667   4.056   5.057   4.287
 6256SOL    HW219668   4.006   5.190   4.205
 6257SOL     OW19669   4.169   2.832   6.712
 6257SOL    HW119670   4.255   2.788   6.737
 6257SOL    HW219671   4.147   2.811   6.617
 6258SOL     OW19672   4.253   2.336   2.910
 6258SOL    HW119673   4.185   2.276   2.953
 6258SOL    HW219674   4.227   2.353   2.815
 6259SOL     OW19675   3.274   2.174   1.803
 6259SOL    HW119676   3.177   2.179   1.780
 6259SOL    HW219677   3.285   2.182   1.902
 6260SOL     OW19678   3.141   4.295   1.167
 6260SOL    HW119679   3.117   4.220   1.229
 6260SOL    HW219680   3.073   4.368   1.176
 6261SOL     OW19681   4.820   6.615   6.174
 6261SOL    HW119682   4.795   6.682   6.105
 6261SOL    HW219683   4.870   6.659   6.248
 6262SOL     OW19684   0.917   5.659   5.172
 6262SOL    HW119685   0.831   5.659   5.222
 6262SOL    HW219686   0.947   5.753   5.157
 6263SOL     OW19687   5.952   1.300   1.231
 6263SOL    HW119688   5.922   1.268   1.321
 6263SOL    HW219689   5.995   1.225   1.181
 6264SOL     OW19690   2.612   1.601   0.171
 6264SOL    HW119691   2.556   1.639   0.244
 6264SOL    HW219692   2.709   1.609   0.196
 6265SOL     OW19693   5.918   3.424   0.299
 6265SOL    HW119694   5.971   3.450   0.380
 6265SOL    HW219695   5.862   3.344   0.321
 6266SOL     OW19696   2.476   0.289   2.448
 6266SOL    HW119697   2.501   0.250   2.537
 6266SOL    HW219698   2.556   0.332   2.407
 6267SOL     OW19699   2.760   6.764   0.132
 6267SOL    HW119700   2.790   6.859   0.117
 6267SOL    HW219701   2.804   6.728   0.214
 6268SOL     OW19702   1.981   5.627   2.447
 6268SOL    HW119703   2.005   5.532   2.426
 6268SOL    HW219704   1.903   5.629   2.509
 6269SOL     OW19705   6.166   4.741   6.794
 6269SOL    HW119706   6.236   4.709   6.858
 6269SOL    HW219707   6.202   4.738   6.701
 6270SOL     OW19708   0.603   1.158   3.779
 6270SOL    HW119709   0.598   1.099   3.698
 6270SOL    HW219710   0.616   1.101   3.861
 6271SOL     OW19711   6.302   1.910   1.243
 6271SOL    HW119712   6.332   1.974   1.314
 6271SOL    HW219713   6.382   1.876   1.193
 6272SOL     OW19714   2.372   2.839   3.517
 6272SOL    HW119715   2.417   2.928   3.519
 6272SOL    HW219716   2.393   2.789   3.601
 6273SOL     OW19717   4.255   0.848   2.305
 6273SOL    HW119718   4.207   0.761   2.304
 6273SOL    HW219719   4.329   0.845   2.372
 6274SOL     OW19720   2.748   5.995   6.963
 6274SOL    HW119721   2.817   5.947   6.908
 6274SOL    HW219722   2.683   5.929   6.999
 6275SOL     OW19723   3.207   1.080   4.939
 6275SOL    HW119724   3.287   1.025   4.963
 6275SOL    HW219725   3.197   1.083   4.840
 6276SOL     OW19726   1.315   5.480   3.537
 6276SOL    HW119727   1.374   5.559   3.553
 6276SOL    HW219728   1.352   5.426   3.461
 6277SOL     OW19729   5.984   3.380   4.190
 6277SOL    HW119730   5.986   3.282   4.210
 6277SOL    HW219731   6.029   3.397   4.102
 6278SOL     OW19732   4.542   0.962   3.492
 6278SOL    HW119733   4.556   0.867   3.465
 6278SOL    HW219734   4.580   1.023   3.422
 6279SOL     OW19735   4.833   2.176   6.474
 6279SOL    HW119736   4.885   2.147   6.554
 6279SOL    HW219737   4.777   2.256   6.498
 6280SOL     OW19738   1.088   5.416   5.980
 6280SOL    HW119739   1.139   5.498   5.955
 6280SOL    HW219740   1.149   5.353   6.029
 6281SOL     OW19741   3.117   6.470   4.507
 6281SOL    HW119742   3.197   6.464   4.567
 6281SOL    HW219743   3.127   6.549   4.446
 6282SOL     OW19744   0.914   6.843   3.916
 6282SOL    HW119745   0.968   6.896   3.851
 6282SOL    HW219746   0.835   6.803   3.870
 6283SOL     OW19747   1.104   2.974   4.834
 6283SOL    HW119748   1.174   2.930   4.890
 6283SOL    HW219749   1.081   2.915   4.757
 6284SOL     OW19750   2.499   4.717   6.655
 6284SOL    HW119751   2.521   4.621   6.638
 6284SOL    HW219752   2.404   4.734   6.629
 6285SOL     OW19753   1.871   4.068   2.565
 6285SOL    HW119754   1.930   4.069   2.485
 6285SOL    HW219755   1.874   4.158   2.609
 6286SOL     OW19756   6.443   6.221   4.569
 6286SOL    HW119757   6.456   6.308   4.520
 6286SOL    HW219758   6.531   6.188   4.602
 6287SOL     OW19759   3.802   4.921   2.610
 6287SOL    HW119760   3.877   4.986   2.626
 6287SOL    HW219761   3.717   4.959   2.647
 6288SOL     OW19762   5.734   3.105   0.748
 6288SOL    HW119763   5.659   3.170   0.743
 6288SOL    HW219764   5.709   3.030   0.811
 6289SOL     OW19765   1.050   6.563   2.768
 6289SOL    HW119766   1.033   6.632   2.698
 6289SOL    HW219767   1.117   6.598   2.834
 6290SOL     OW19768   6.080   4.460   3.565
 6290SOL    HW119769   6.011   4.493   3.629
 6290SOL    HW219770   6.126   4.380   3.603
 6291SOL     OW19771   3.928   3.932   3.328
 6291SOL    HW119772   3.975   3.929   3.240
 6291SOL    HW219773   3.860   4.005   3.327
 6292SOL     OW19774   6.792   1.098   1.886
 6292SOL    HW119775   6.838   1.110   1.797
 6292SOL    HW219776   6.813   1.007   1.921
 6293SOL     OW19777   5.952   5.299   6.512
 6293SOL    HW119778   6.023   5.353   6.466
 6293SOL    HW219779   5.865   5.312   6.465
 6294SOL     OW19780   3.419   6.194   1.839
 6294SOL    HW119781   3.424   6.199   1.939
 6294SOL    HW219782   3.388   6.103   1.812
 6295SOL     OW19783   0.026   5.697   5.590
 6295SOL    HW119784   0.053   5.601   5.593
 6295SOL    HW219785   6.946   5.703   5.580
 6296SOL     OW19786   6.171   1.275   3.145
 6296SOL    HW119787   6.163   1.353   3.083
 6296SOL    HW219788   6.117   1.199   3.110
 6297SOL     OW19789   5.667   0.891   5.632
 6297SOL    HW119790   5.765   0.896   5.613
 6297SOL    HW219791   5.626   0.818   5.578
 6298SOL     OW19792   6.628   2.122   4.466
 6298SOL    HW119793   6.584   2.093   4.381
 6298SOL    HW219794   6.568   2.104   4.544
 6299SOL     OW19795   6.824   3.066   0.911
 6299SOL    HW119796   6.888   3.120   0.967
 6299SOL    HW219797   6.876   3.010   0.846
 6300SOL     OW19798   5.351   1.352   3.315
 6300SOL    HW119799   5.419   1.374   3.385
 6300SOL    HW219800   5.332   1.434   3.260
 6301SOL     OW19801   3.941   0.814   0.856
 6301SOL    HW119802   3.842   0.824   0.869
 6301SOL    HW219803   3.976   0.893   0.806
 6302SOL     OW19804   6.245   0.541   2.801
 6302SOL    HW119805   6.297   0.606   2.746
 6302SOL    HW219806   6.151   0.536   2.769
 6303SOL     OW19807   2.493   5.624   4.611
 6303SOL    HW119808   2.399   5.642   4.642
 6303SOL    HW219809   2.536   5.558   4.672
 6304SOL     OW19810   3.749   1.150   4.676
 6304SOL    HW119811   3.781   1.090   4.749
 6304SOL    HW219812   3.699   1.096   4.608
 6305SOL     OW19813   5.501   0.806   2.506
 6305SOL    HW119814   5.523   0.774   2.414
 6305SOL    HW219815   5.418   0.759   2.538
 6306SOL     OW19816   5.993   2.583   3.918
 6306SOL    HW119817   6.079   2.608   3.962
 6306SOL    HW219818   5.983   2.635   3.833
 6307SOL     OW19819   1.763   4.437   0.268
 6307SOL    HW119820   1.767   4.487   0.354
 6307SOL    HW219821   1.854   4.402   0.245
 6308SOL     OW19822   4.167   2.019   6.375
 6308SOL    HW119823   4.106   2.071   6.315
 6308SOL    HW219824   4.182   1.928   6.337
 6309SOL     OW19825   5.778   2.051   5.176
 6309SOL    HW119826   5.714   2.128   5.168
 6309SOL    HW219827   5.821   2.054   5.266
 6310SOL     OW19828   6.857   5.623   4.790
 6310SOL    HW119829   6.894   5.713   4.765
 6310SOL    HW219830   6.926   5.572   4.842
 6311SOL     OW19831   5.711   0.277   4.455
 6311SOL    HW119832   5.682   0.246   4.364
 6311SOL    HW219833   5.631   0.304   4.508
 6312SOL     OW19834   5.558   4.114   5.581
 6312SOL    HW119835   5.623   4.045   5.550
 6312SOL    HW219836   5.548   4.185   5.511
 6313SOL     OW19837   2.124   5.385   3.993
 6313SOL    HW119838   2.121   5.330   3.909
 6313SOL    HW219839   2.166   5.473   3.973
 6314SOL     OW19840   1.364   0.595   3.806
 6314SOL    HW119841   1.312   0.517   3.838
 6314SOL    HW219842   1.371   0.592   3.706
 6315SOL     OW19843   2.143   3.628   0.329
 6315SOL    HW119844   2.211   3.688   0.371
 6315SOL    HW219845   2.151   3.632   0.230
 6316SOL     OW19846   4.247   1.340   4.987
 6316SOL    HW119847   4.210   1.431   4.966
 6316SOL    HW219848   4.269   1.292   4.903
 6317SOL     OW19849   6.515   5.192   4.647
 6317SOL    HW119850   6.610   5.221   4.662
 6317SOL    HW219851   6.504   5.097   4.675
 6318SOL     OW19852   1.745   1.806   4.187
 6318SOL    HW119853   1.721   1.901   4.208
 6318SOL    HW219854   1.669   1.747   4.214
 6319SOL     OW19855   1.055   2.138   2.827
 6319SOL    HW119856   1.108   2.222   2.843
 6319SOL    HW219857   0.997   2.119   2.906
 6320SOL     OW19858   0.459   2.338   2.426
 6320SOL    HW119859   0.452   2.435   2.402
 6320SOL    HW219860   0.368   2.298   2.432
 6321SOL     OW19861   2.361   3.795   6.119
 6321SOL    HW119862   2.365   3.737   6.038
 6321SOL    HW219863   2.266   3.807   6.148
 6322SOL     OW19864   2.647   0.231   0.022
 6322SOL    HW119865   2.605   0.322   0.025
 6322SOL    HW219866   2.575   0.161   0.023
 6323SOL     OW19867   4.262   1.618   1.518
 6323SOL    HW119868   4.197   1.562   1.467
 6323SOL    HW219869   4.309   1.681   1.456
 6324SOL     OW19870   3.111   1.799   0.355
 6324SOL    HW119871   3.086   1.889   0.321
 6324SOL    HW219872   3.046   1.771   0.426
 6325SOL     OW19873   1.481   3.207   2.907
 6325SOL    HW119874   1.566   3.161   2.932
 6325SOL    HW219875   1.491   3.305   2.920
 6326SOL     OW19876   4.422   6.864   1.348
 6326SOL    HW119877   4.361   6.878   1.271
 6326SOL    HW219878   4.397   6.926   1.423
 6327SOL     OW19879   3.761   5.330   5.504
 6327SOL    HW119880   3.731   5.424   5.522
 6327SOL    HW219881   3.731   5.270   5.579
 6328SOL     OW19882   2.224   4.508   0.132
 6328SOL    HW119883   2.213   4.570   0.054
 6328SOL    HW219884   2.295   4.545   0.193
 6329SOL     OW19885   0.638   1.486   2.928
 6329SOL    HW119886   0.717   1.538   2.898
 6329SOL    HW219887   0.655   1.446   3.018
 6330SOL     OW19888   3.698   0.617   0.124
 6330SOL    HW119889   3.735   0.526   0.109
 6330SOL    HW219890   3.756   0.666   0.189
 6331SOL     OW19891   4.869   3.262   1.875
 6331SOL    HW119892   4.824   3.290   1.790
 6331SOL    HW219893   4.821   3.183   1.913
 6332SOL     OW19894   4.706   6.348   2.111
 6332SOL    HW119895   4.728   6.418   2.043
 6332SOL    HW219896   4.648   6.278   2.069
 6333SOL     OW19897   2.396   5.259   3.078
 6333SOL    HW119898   2.419   5.275   2.982
 6333SOL    HW219899   2.303   5.222   3.084
 6334SOL     OW19900   2.412   1.525   2.421
 6334SOL    HW119901   2.351   1.540   2.342
 6334SOL    HW219902   2.466   1.607   2.437
 6335SOL     OW19903   6.999   1.179   6.926
 6335SOL    HW119904   0.030   1.239   6.988
 6335SOL    HW219905   0.043   1.115   6.882
 6336SOL     OW19906   1.385   2.917   4.708
 6336SOL    HW119907   1.325   2.840   4.686
 6336SOL    HW219908   1.340   3.002   4.683
 6337SOL     OW19909   0.528   4.678   4.963
 6337SOL    HW119910   0.432   4.656   4.979
 6337SOL    HW219911   0.570   4.712   5.047
 6338SOL     OW19912   3.925   1.556   4.360
 6338SOL    HW119913   3.839   1.606   4.370
 6338SOL    HW219914   3.994   1.617   4.319
 6339SOL     OW19915   0.236   2.669   4.290
 6339SOL    HW119916   0.195   2.707   4.207
 6339SOL    HW219917   0.169   2.613   4.338
 6340SOL     OW19918   2.910   5.978   4.035
 6340SOL    HW119919   2.983   5.979   3.967
 6340SOL    HW219920   2.940   6.026   4.117
 6341SOL     OW19921   6.120   5.596   2.283
 6341SOL    HW119922   6.051   5.667   2.268
 6341SOL    HW219923   6.195   5.632   2.338
 6342SOL     OW19924   1.347   3.710   0.773
 6342SOL    HW119925   1.368   3.722   0.676
 6342SOL    HW219926   1.412   3.762   0.828
 6343SOL     OW19927   4.572   1.363   0.571
 6343SOL    HW119928   4.627   1.289   0.532
 6343SOL    HW219929   4.499   1.324   0.627
 6344SOL     OW19930   6.081   4.579   4.550
 6344SOL    HW119931   6.037   4.647   4.491
 6344SOL    HW219932   6.013   4.539   4.611
 6345SOL     OW19933   2.135   2.324   1.381
 6345SOL    HW119934   2.119   2.238   1.332
 6345SOL    HW219935   2.186   2.387   1.322
 6346SOL     OW19936   0.670   5.242   3.911
 6346SOL    HW119937   0.650   5.144   3.901
 6346SOL    HW219938   0.682   5.282   3.820
 6347SOL     OW19939   3.354   0.338   0.607
 6347SOL    HW119940   3.298   0.419   0.589
 6347SOL    HW219941   3.305   0.256   0.577
 6348SOL     OW19942   0.398   2.549   3.623
 6348SOL    HW119943   0.452   2.582   3.701
 6348SOL    HW219944   0.347   2.468   3.650
 6349SOL     OW19945   1.223   0.806   0.715
 6349SOL    HW119946   1.211   0.800   0.616
 6349SOL    HW219947   1.294   0.873   0.736
 6350SOL     OW19948   0.015   6.111   3.183
 6350SOL    HW119949   0.061   6.089   3.268
 6350SOL    HW219950   0.039   6.043   3.113
 6351SOL     OW19951   0.139   2.350   2.998
 6351SOL    HW119952   0.161   2.435   2.949
 6351SOL    HW219953   0.087   2.289   2.938
 6352SOL     OW19954   6.992   4.982   2.517
 6352SOL    HW119955   6.931   4.903   2.509
 6352SOL    HW219956   0.064   4.956   2.487
 6353SOL     OW19957   6.891   6.740   1.882
 6353SOL    HW119958   6.954   6.697   1.948
 6353SOL    HW219959   6.839   6.669   1.835
 6354SOL     OW19960   0.038   6.829   4.481
 6354SOL    HW119961   0.108   6.888   4.522
 6354SOL    HW219962   7.001   6.789   4.553
 6355SOL     OW19963   1.368   2.282   1.462
 6355SOL    HW119964   1.312   2.363   1.479
 6355SOL    HW219965   1.309   2.207   1.431
 6356SOL     OW19966   3.440   3.911   1.026
 6356SOL    HW119967   3.537   3.902   1.045
 6356SOL    HW219968   3.404   3.824   0.993
 6357SOL     OW19969   5.403   1.990   1.265
 6357SOL    HW119970   5.368   2.075   1.227
 6357SOL    HW219971   5.453   1.940   1.195
 6358SOL     OW19972   1.306   2.921   5.233
 6358SOL    HW119973   1.289   3.018   5.247
 6358SOL    HW219974   1.335   2.879   5.319
 6359SOL     OW19975   6.983   1.103   6.501
 6359SOL    HW119976   6.998   1.136   6.408
 6359SOL    HW219977   0.004   1.167   6.566
 6360SOL     OW19978   2.434   5.123   4.085
 6360SOL    HW119979   2.491   5.158   4.160
 6360SOL    HW219980   2.337   5.138   4.107
 6361SOL     OW19981   2.974   6.663   5.279
 6361SOL    HW119982   2.878   6.672   5.304
 6361SOL    HW219983   3.026   6.630   5.358
 6362SOL     OW19984   6.524   5.285   6.200
 6362SOL    HW119985   6.470   5.289   6.284
 6362SOL    HW219986   6.554   5.377   6.175
 6363SOL     OW19987   1.036   5.416   3.773
 6363SOL    HW119988   1.032   5.331   3.721
 6363SOL    HW219989   0.970   5.411   3.849
 6364SOL     OW19990   2.746   2.152   6.287
 6364SOL    HW119991   2.823   2.216   6.289
 6364SOL    HW219992   2.712   2.143   6.194
 6365SOL     OW19993   4.031   5.440   2.329
 6365SOL    HW119994   4.053   5.449   2.232
 6365SOL    HW219995   3.945   5.487   2.348
 6366SOL     OW19996   0.489   4.169   5.586
 6366SOL    HW119997   0.485   4.179   5.686
 6366SOL    HW219998   0.402   4.197   5.546
 6367SOL     OW19999   5.294   5.897   2.082
 6367SOL    HW120000   5.230   5.940   2.146
 6367SOL    HW220001   5.347   5.967   2.035
 6368SOL     OW20002   2.756   1.640   2.781
 6368SOL    HW120003   2.659   1.645   2.806
 6368SOL    HW220004   2.812   1.632   2.863
 6369SOL     OW20005   2.287   6.270   5.006
 6369SOL    HW120006   2.357   6.321   4.955
 6369SOL    HW220007   2.283   6.177   4.971
 6370SOL     OW20008   5.317   3.098   2.044
 6370SOL    HW120009   5.322   3.043   2.128
 6370SOL    HW220010   5.224   3.133   2.033
 6371SOL     OW20011   4.287   1.036   3.981
 6371SOL    HW120012   4.231   1.081   4.051
 6371SOL    HW220013   4.315   1.103   3.913
 6372SOL     OW20014   2.869   0.228   2.656
 6372SOL    HW120015   2.879   0.321   2.622
 6372SOL    HW220016   2.919   0.164   2.597
 6373SOL     OW20017   3.422   4.652   0.501
 6373SOL    HW120018   3.479   4.697   0.570
 6373SOL    HW220019   3.479   4.623   0.424
 6374SOL     OW20020   3.053   3.481   3.474
 6374SOL    HW120021   3.143   3.472   3.515
 6374SOL    HW220022   3.037   3.404   3.412
 6375SOL     OW20023   2.716   5.762   1.997
 6375SOL    HW120024   2.623   5.774   1.962
 6375SOL    HW220025   2.781   5.806   1.935
 6376SOL     OW20026   1.085   1.478   5.308
 6376SOL    HW120027   1.026   1.551   5.342
 6376SOL    HW220028   1.118   1.502   5.217
 6377SOL     OW20029   1.123   1.881   3.995
 6377SOL    HW120030   1.189   1.948   3.964
 6377SOL    HW220031   1.149   1.848   4.086
 6378SOL     OW20032   4.333   5.372   3.760
 6378SOL    HW120033   4.256   5.320   3.722
 6378SOL    HW220034   4.419   5.324   3.741
 6379SOL     OW20035   2.750   4.898   2.005
 6379SOL    HW120036   2.809   4.834   2.053
 6379SOL    HW220037   2.684   4.847   1.950
 6380SOL     OW20038   1.348   0.903   6.088
 6380SOL    HW120039   1.428   0.960   6.105
 6380SOL    HW220040   1.372   0.807   6.098
 6381SOL     OW20041   3.428   3.186   2.639
 6381SOL    HW120042   3.333   3.172   2.612
 6381SOL    HW220043   3.433   3.205   2.737
 6382SOL     OW20044   1.627   4.827   4.377
 6382SOL    HW120045   1.624   4.739   4.330
 6382SOL    HW220046   1.709   4.832   4.435
 6383SOL     OW20047   3.838   1.531   4.015
 6383SOL    HW120048   3.840   1.458   4.083
 6383SOL    HW220049   3.777   1.605   4.047
 6384SOL     OW20050   6.505   4.103   1.969
 6384SOL    HW120051   6.460   4.177   2.020
 6384SOL    HW220052   6.581   4.141   1.915
 6385SOL     OW20053   1.052   6.014   5.726
 6385SOL    HW120054   0.991   6.001   5.648
 6385SOL    HW220055   1.133   6.066   5.697
 6386SOL     OW20056   2.380   5.267   2.752
 6386SOL    HW120057   2.395   5.366   2.744
 6386SOL    HW220058   2.469   5.221   2.757
 6387SOL     OW20059   6.149   0.715   4.957
 6387SOL    HW120060   6.231   0.768   4.978
 6387SOL    HW220061   6.151   0.628   5.007
 6388SOL     OW20062   1.798   4.751   3.111
 6388SOL    HW120063   1.724   4.791   3.165
 6388SOL    HW220064   1.779   4.763   3.014
 6389SOL     OW20065   1.420   4.247   1.074
 6389SOL    HW120066   1.517   4.233   1.051
 6389SOL    HW220067   1.374   4.158   1.080
 6390SOL     OW20068   0.661   2.770   4.462
 6390SOL    HW120069   0.691   2.802   4.552
 6390SOL    HW220070   0.731   2.792   4.394
 6391SOL     OW20071   4.010   0.588   0.173
 6391SOL    HW120072   3.977   0.645   0.098
 6391SOL    HW220073   4.035   0.498   0.138
 6392SOL     OW20074   1.407   5.931   4.391
 6392SOL    HW120075   1.497   5.965   4.415
 6392SOL    HW220076   1.369   5.880   4.468
 6393SOL     OW20077   4.936   1.056   0.010
 6393SOL    HW120078   4.880   1.136   7.007
 6393SOL    HW220079   5.033   1.080   0.006
 6394SOL     OW20080   3.414   5.329   1.847
 6394SOL    HW120081   3.355   5.344   1.767
 6394SOL    HW220082   3.475   5.252   1.828
 6395SOL     OW20083   5.973   2.137   0.039
 6395SOL    HW120084   6.063   2.119   0.078
 6395SOL    HW220085   5.954   2.069   6.987
 6396SOL     OW20086   6.306   3.421   6.739
 6396SOL    HW120087   6.391   3.470   6.721
 6396SOL    HW220088   6.251   3.473   6.803
 6397SOL     OW20089   6.237   1.110   0.971
 6397SOL    HW120090   6.309   1.087   1.037
 6397SOL    HW220091   6.263   1.192   0.921
 6398SOL     OW20092   3.875   0.796   1.545
 6398SOL    HW120093   3.862   0.712   1.492
 6398SOL    HW220094   3.936   0.858   1.494
 6399SOL     OW20095   1.333   6.389   6.611
 6399SOL    HW120096   1.304   6.351   6.699
 6399SOL    HW220097   1.308   6.486   6.607
 6400SOL     OW20098   2.914   5.027   4.787
 6400SOL    HW120099   2.901   5.116   4.743
 6400SOL    HW220100   2.834   4.969   4.769
 6401SOL     OW20101   0.871   4.902   5.331
 6401SOL    HW120102   0.968   4.897   5.356
 6401SOL    HW220103   0.828   4.979   5.376
 6402SOL     OW20104   1.780   3.133   3.412
 6402SOL    HW120105   1.801   3.200   3.340
 6402SOL    HW220106   1.844   3.057   3.406
 6403SOL     OW20107   0.769   6.329   1.773
 6403SOL    HW120108   0.714   6.355   1.694
 6403SOL    HW220109   0.813   6.241   1.756
 6404SOL     OW20110   5.232   0.901   2.336
 6404SOL    HW120111   5.250   0.937   2.244
 6404SOL    HW220112   5.133   0.892   2.349
 6405SOL     OW20113   3.454   0.171   1.748
 6405SOL    HW120114   3.462   0.073   1.731
 6405SOL    HW220115   3.508   0.221   1.680
 6406SOL     OW20116   2.788   1.855   3.077
 6406SOL    HW120117   2.830   1.769   3.049
 6406SOL    HW220118   2.840   1.932   3.038
 6407SOL     OW20119   4.877   6.140   6.848
 6407SOL    HW120120   4.902   6.235   6.864
 6407SOL    HW220121   4.799   6.115   6.905
 6408SOL     OW20122   5.540   2.327   0.843
 6408SOL    HW120123   5.551   2.426   0.833
 6408SOL    HW220124   5.460   2.308   0.900
 6409SOL     OW20125   1.021   5.086   2.007
 6409SOL    HW120126   1.022   5.104   2.106
 6409SOL    HW220127   0.927   5.075   1.976
 6410SOL     OW20128   0.330   0.472   1.639
 6410SOL    HW120129   0.332   0.409   1.562
 6410SOL    HW220130   0.238   0.475   1.678
 6411SOL     OW20131   1.613   1.784   3.466
 6411SOL    HW120132   1.609   1.778   3.367
 6411SOL    HW220133   1.546   1.851   3.499
 6412SOL     OW20134   5.796   2.726   4.228
 6412SOL    HW120135   5.717   2.669   4.207
 6412SOL    HW220136   5.826   2.773   4.145
 6413SOL     OW20137   0.531   5.078   0.911
 6413SOL    HW120138   0.623   5.045   0.934
 6413SOL    HW220139   0.527   5.177   0.930
 6414SOL     OW20140   6.004   0.601   3.300
 6414SOL    HW120141   6.058   0.552   3.232
 6414SOL    HW220142   6.038   0.579   3.392
 6415SOL     OW20143   1.580   1.835   1.966
 6415SOL    HW120144   1.580   1.888   1.881
 6415SOL    HW220145   1.490   1.840   2.008
 6416SOL     OW20146   2.591   6.113   6.628
 6416SOL    HW120147   2.514   6.106   6.692
 6416SOL    HW220148   2.600   6.026   6.578
 6417SOL     OW20149   6.993   5.929   4.214
 6417SOL    HW120150   6.918   5.962   4.158
 6417SOL    HW220151   0.026   5.861   4.163
 6418SOL     OW20152   6.922   5.155   2.172
 6418SOL    HW120153   6.983   5.209   2.230
 6418SOL    HW220154   6.914   5.062   2.208
 6419SOL     OW20155   2.799   3.087   0.366
 6419SOL    HW120156   2.701   3.105   0.374
 6419SOL    HW220157   2.840   3.153   0.304
 6420SOL     OW20158   0.533   2.672   0.065
 6420SOL    HW120159   0.551   2.631   6.995
 6420SOL    HW220160   0.575   2.616   0.136
 6421SOL     OW20161   5.454   2.030   0.283
 6421SOL    HW120162   5.484   2.125   0.286
 6421SOL    HW220163   5.455   1.997   0.188
 6422SOL     OW20164   5.778   2.964   2.741
 6422SOL    HW120165   5.876   2.975   2.723
 6422SOL    HW220166   5.759   2.871   2.770
 6423SOL     OW20167   5.408   4.197   0.414
 6423SOL    HW120168   5.397   4.166   0.320
 6423SOL    HW220169   5.399   4.119   0.476
 6424SOL     OW20170   6.197   3.926   5.128
 6424SOL    HW120171   6.176   3.997   5.195
 6424SOL    HW220172   6.114   3.876   5.104
 6425SOL     OW20173   0.591   5.332   1.145
 6425SOL    HW120174   0.549   5.362   1.059
 6425SOL    HW220175   0.584   5.405   1.213
 6426SOL     OW20176   6.098   3.033   3.120
 6426SOL    HW120177   6.143   3.102   3.176
 6426SOL    HW220178   6.036   3.077   3.056
 6427SOL     OW20179   0.686   3.297   5.785
 6427SOL    HW120180   0.668   3.218   5.843
 6427SOL    HW220181   0.744   3.268   5.708
 6428SOL     OW20182   6.187   3.815   4.425
 6428SOL    HW120183   6.174   3.814   4.524
 6428SOL    HW220184   6.144   3.733   4.385
 6429SOL     OW20185   0.735   1.616   5.229
 6429SOL    HW120186   0.740   1.576   5.137
 6429SOL    HW220187   0.639   1.618   5.258
 6430SOL     OW20188   6.343   3.017   0.344
 6430SOL    HW120189   6.257   3.035   0.296
 6430SOL    HW220190   6.335   2.930   0.394
 6431SOL     OW20191   6.143   1.541   2.462
 6431SOL    HW120192   6.147   1.446   2.495
 6431SOL    HW220193   6.227   1.589   2.488
 6432SOL     OW20194   6.539   3.890   0.400
 6432SOL    HW120195   6.603   3.821   0.367
 6432SOL    HW220196   6.498   3.860   0.485
 6433SOL     OW20197   2.143   3.585   1.533
 6433SOL    HW120198   2.179   3.602   1.441
 6433SOL    HW220199   2.086   3.503   1.532
 6434SOL     OW20200   1.286   5.553   0.805
 6434SOL    HW120201   1.278   5.454   0.813
 6434SOL    HW220202   1.273   5.596   0.894
 6435SOL     OW20203   5.099   3.443   0.559
 6435SOL    HW120204   5.022   3.427   0.621
 6435SOL    HW220205   5.074   3.514   0.493
 6436SOL     OW20206   1.802   2.349   1.412
 6436SOL    HW120207   1.874   2.346   1.342
 6436SOL    HW220208   1.821   2.279   1.482
 6437SOL     OW20209   0.100   0.912   1.001
 6437SOL    HW120210   0.075   0.833   0.944
 6437SOL    HW220211   0.029   0.982   0.994
 6438SOL     OW20212   0.852   3.097   4.654
 6438SOL    HW120213   0.936   3.151   4.653
 6438SOL    HW220214   0.782   3.145   4.601
 6439SOL     OW20215   0.273   6.237   2.598
 6439SOL    HW120216   0.319   6.275   2.517
 6439SOL    HW220217   0.335   6.176   2.646
 6440SOL     OW20218   0.688   0.620   1.921
 6440SOL    HW120219   0.769   0.561   1.933
 6440SOL    HW220220   0.622   0.575   1.862
 6441SOL     OW20221   4.541   1.855   2.919
 6441SOL    HW120222   4.639   1.838   2.920
 6441SOL    HW220223   4.509   1.871   3.012
 6442SOL     OW20224   2.290   1.277   3.447
 6442SOL    HW120225   2.260   1.340   3.519
 6442SOL    HW220226   2.214   1.261   3.384
 6443SOL     OW20227   2.058   0.536   1.096
 6443SOL    HW120228   2.004   0.594   1.157
 6443SOL    HW220229   2.001   0.509   1.017
 6444SOL     OW20230   1.219   1.921   3.064
 6444SOL    HW120231   1.178   1.998   3.016
 6444SOL    HW220232   1.318   1.924   3.053
 6445SOL     OW20233   3.079   4.384   5.760
 6445SOL    HW120234   3.000   4.445   5.758
 6445SOL    HW220235   3.119   4.378   5.668
 6446SOL     OW20236   0.143   1.067   0.572
 6446SOL    HW120237   0.148   1.163   0.598
 6446SOL    HW220238   0.226   1.020   0.603
 6447SOL     OW20239   1.436   0.863   3.787
 6447SOL    HW120240   1.533   0.863   3.811
 6447SOL    HW220241   1.396   0.775   3.812
 6448SOL     OW20242   6.718   2.335   3.098
 6448SOL    HW120243   6.764   2.252   3.068
 6448SOL    HW220244   6.681   2.383   3.019
 6449SOL     OW20245   3.797   2.895   0.597
 6449SOL    HW120246   3.870   2.936   0.542
 6449SOL    HW220247   3.771   2.806   0.557
 6450SOL     OW20248   6.616   2.628   0.512
 6450SOL    HW120249   6.631   2.569   0.433
 6450SOL    HW220250   6.701   2.677   0.533
 6451SOL     OW20251   2.611   6.690   4.102
 6451SOL    HW120252   2.635   6.782   4.070
 6451SOL    HW220253   2.523   6.663   4.061
 6452SOL     OW20254   3.494   6.243   4.204
 6452SOL    HW120255   3.536   6.243   4.113
 6452SOL    HW220256   3.551   6.190   4.267
 6453SOL     OW20257   1.966   5.096   6.665
 6453SOL    HW120258   2.056   5.111   6.708
 6453SOL    HW220259   1.974   5.105   6.566
 6454SOL     OW20260   3.607   0.848   4.802
 6454SOL    HW120261   3.575   0.828   4.710
 6454SOL    HW220262   3.706   0.840   4.806
 6455SOL     OW20263   6.576   3.392   0.128
 6455SOL    HW120264   6.614   3.406   0.219
 6455SOL    HW220265   6.636   3.332   0.075
 6456SOL     OW20266   6.859   1.891   4.812
 6456SOL    HW120267   6.815   1.808   4.847
 6456SOL    HW220268   6.834   1.903   4.715
 6457SOL     OW20269   5.650   3.361   2.226
 6457SOL    HW120270   5.716   3.291   2.200
 6457SOL    HW220271   5.628   3.351   2.323
 6458SOL     OW20272   0.904   5.936   3.496
 6458SOL    HW120273   0.891   5.997   3.574
 6458SOL    HW220274   0.834   5.954   3.428
 6459SOL     OW20275   5.567   4.567   0.457
 6459SOL    HW120276   5.622   4.517   0.524
 6459SOL    HW220277   5.610   4.654   0.437
 6460SOL     OW20278   3.748   4.623   1.493
 6460SOL    HW120279   3.752   4.523   1.485
 6460SOL    HW220280   3.686   4.659   1.422
 6461SOL     OW20281   3.191   5.905   5.226
 6461SOL    HW120282   3.247   5.884   5.146
 6461SOL    HW220283   3.156   5.998   5.219
 6462SOL     OW20284   1.895   3.819   2.683
 6462SOL    HW120285   1.904   3.910   2.642
 6462SOL    HW220286   1.986   3.781   2.700
 6463SOL     OW20287   1.392   3.573   5.776
 6463SOL    HW120288   1.316   3.638   5.762
 6463SOL    HW220289   1.457   3.582   5.701
 6464SOL     OW20290   1.587   4.782   1.924
 6464SOL    HW120291   1.620   4.737   2.007
 6464SOL    HW220292   1.509   4.730   1.887
 6465SOL     OW20293   5.970   0.433   2.618
 6465SOL    HW120294   5.921   0.416   2.703
 6465SOL    HW220295   5.948   0.525   2.585
 6466SOL     OW20296   6.509   2.399   4.529
 6466SOL    HW120297   6.581   2.406   4.599
 6466SOL    HW220298   6.487   2.303   4.513
 6467SOL     OW20299   3.306   6.931   6.282
 6467SOL    HW120300   3.393   6.978   6.298
 6467SOL    HW220301   3.245   6.946   6.359
 6468SOL     OW20302   6.007   4.426   2.241
 6468SOL    HW120303   6.072   4.372   2.295
 6468SOL    HW220304   5.914   4.400   2.266
 6469SOL     OW20305   6.143   1.528   5.903
 6469SOL    HW120306   6.220   1.531   5.966
 6469SOL    HW220307   6.064   1.574   5.944
 6470SOL     OW20308   6.594   5.849   4.640
 6470SOL    HW120309   6.498   5.844   4.612
 6470SOL    HW220310   6.651   5.798   4.575
 6471SOL     OW20311   6.416   6.121   5.028
 6471SOL    HW120312   6.475   6.040   5.034
 6471SOL    HW220313   6.417   6.170   5.115
 6472SOL     OW20314   2.244   6.253   1.657
 6472SOL    HW120315   2.277   6.293   1.742
 6472SOL    HW220316   2.161   6.201   1.674
 6473SOL     OW20317   1.917   0.748   5.210
 6473SOL    HW120318   1.839   0.711   5.261
 6473SOL    HW220319   2.000   0.700   5.238
 6474SOL     OW20320   1.766   3.396   6.551
 6474SOL    HW120321   1.788   3.471   6.613
 6474SOL    HW220322   1.831   3.396   6.475
 6475SOL     OW20323   4.374   5.593   3.906
 6475SOL    HW120324   4.469   5.622   3.910
 6475SOL    HW220325   4.368   5.505   3.858
 6476SOL     OW20326   4.869   5.882   2.705
 6476SOL    HW120327   4.904   5.948   2.638
 6476SOL    HW220328   4.943   5.819   2.731
 6477SOL     OW20329   6.723   6.342   0.262
 6477SOL    HW120330   6.626   6.318   0.251
 6477SOL    HW220331   6.744   6.421   0.205
 6478SOL     OW20332   4.495   5.726   1.202
 6478SOL    HW120333   4.470   5.738   1.106
 6478SOL    HW220334   4.470   5.808   1.253
 6479SOL     OW20335   3.194   6.084   2.877
 6479SOL    HW120336   3.117   6.050   2.932
 6479SOL    HW220337   3.236   6.008   2.828
 6480SOL     OW20338   2.733   0.910   1.118
 6480SOL    HW120339   2.703   0.848   1.192
 6480SOL    HW220340   2.671   0.900   1.040
 6481SOL     OW20341   4.850   0.639   0.942
 6481SOL    HW120342   4.794   0.693   1.004
 6481SOL    HW220343   4.818   0.653   0.848
 6482SOL     OW20344   0.182   0.201   6.071
 6482SOL    HW120345   0.128   0.226   5.991
 6482SOL    HW220346   0.274   0.240   6.063
 6483SOL     OW20347   2.047   4.982   1.465
 6483SOL    HW120348   1.998   4.921   1.527
 6483SOL    HW220349   1.990   5.060   1.441
 6484SOL     OW20350   4.811   6.741   2.864
 6484SOL    HW120351   4.895   6.714   2.911
 6484SOL    HW220352   4.826   6.828   2.817
 6485SOL     OW20353   0.531   2.841   3.124
 6485SOL    HW120354   0.578   2.854   3.036
 6485SOL    HW220355   0.598   2.842   3.198
 6486SOL     OW20356   1.524   2.715   3.326
 6486SOL    HW120357   1.547   2.673   3.414
 6486SOL    HW220358   1.587   2.681   3.256
 6487SOL     OW20359   5.883   5.539   3.428
 6487SOL    HW120360   5.832   5.494   3.354
 6487SOL    HW220361   5.842   5.628   3.447
 6488SOL     OW20362   3.354   5.199   4.595
 6488SOL    HW120363   3.299   5.153   4.665
 6488SOL    HW220364   3.447   5.212   4.630
 6489SOL     OW20365   2.605   1.500   6.531
 6489SOL    HW120366   2.654   1.413   6.531
 6489SOL    HW220367   2.541   1.502   6.607
 6490SOL     OW20368   5.062   1.973   0.223
 6490SOL    HW120369   5.094   1.991   0.129
 6490SOL    HW220370   5.137   1.934   0.276
 6491SOL     OW20371   5.362   0.537   5.534
 6491SOL    HW120372   5.312   0.467   5.484
 6491SOL    HW220373   5.426   0.493   5.597
 6492SOL     OW20374   6.270   5.846   6.001
 6492SOL    HW120375   6.332   5.906   5.950
 6492SOL    HW220376   6.304   5.752   5.998
 6493SOL     OW20377   0.720   0.032   5.121
 6493SOL    HW120378   0.813   0.044   5.087
 6493SOL    HW220379   0.722   0.019   5.220
 6494SOL     OW20380   0.362   2.014   3.416
 6494SOL    HW120381   0.395   1.926   3.451
 6494SOL    HW220382   0.424   2.086   3.445
 6495SOL     OW20383   5.612   4.728   1.903
 6495SOL    HW120384   5.551   4.657   1.868
 6495SOL    HW220385   5.561   4.789   1.964
 6496SOL     OW20386   0.357   6.246   3.193
 6496SOL    HW120387   0.307   6.322   3.153
 6496SOL    HW220388   0.343   6.164   3.137
 6497SOL     OW20389   0.714   6.812   0.984
 6497SOL    HW120390   0.668   6.874   0.921
 6497SOL    HW220391   0.678   6.719   0.972
 6498SOL     OW20392   1.275   3.727   4.323
 6498SOL    HW120393   1.231   3.816   4.327
 6498SOL    HW220394   1.359   3.728   4.377
 6499SOL     OW20395   6.242   1.417   3.365
 6499SOL    HW120396   6.187   1.363   3.302
 6499SOL    HW220397   6.230   1.383   3.458
 6500SOL     OW20398   5.743   4.858   2.291
 6500SOL    HW120399   5.807   4.790   2.255
 6500SOL    HW220400   5.730   4.842   2.388
 6501SOL     OW20401   6.964   3.816   0.467
 6501SOL    HW120402   6.896   3.889   0.473
 6501SOL    HW220403   0.007   3.834   0.392
 6502SOL     OW20404   0.891   5.139   1.329
 6502SOL    HW120405   0.989   5.133   1.306
 6502SOL    HW220406   0.879   5.130   1.428
 6503SOL     OW20407   4.360   0.404   4.129
 6503SOL    HW120408   4.451   0.372   4.154
 6503SOL    HW220409   4.367   0.467   4.052
 6504SOL     OW20410   2.188   1.727   0.839
 6504SOL    HW120411   2.211   1.715   0.936
 6504SOL    HW220412   2.123   1.655   0.812
 6505SOL     OW20413   5.866   5.151   0.408
 6505SOL    HW120414   5.940   5.099   0.449
 6505SOL    HW220415   5.841   5.228   0.467
 6506SOL     OW20416   2.172   1.207   1.225
 6506SOL    HW120417   2.238   1.139   1.255
 6506SOL    HW220418   2.132   1.178   1.138
 6507SOL     OW20419   2.783   0.878   1.621
 6507SOL    HW120420   2.843   0.935   1.678
 6507SOL    HW220421   2.811   0.782   1.630
 6508SOL     OW20422   1.945   2.314   1.773
 6508SOL    HW120423   2.016   2.272   1.830
 6508SOL    HW220424   1.971   2.408   1.752
 6509SOL     OW20425   1.166   2.972   4.065
 6509SOL    HW120426   1.252   2.939   4.026
 6509SOL    HW220427   1.167   2.960   4.165
 6510SOL     OW20428   5.957   4.552   6.554
 6510SOL    HW120429   5.944   4.625   6.620
 6510SOL    HW220430   6.048   4.512   6.565
 6511SOL     OW20431   0.297   6.944   6.100
 6511SOL    HW120432   0.270   6.891   6.020
 6511SOL    HW220433   0.233   0.001   6.113
 6512SOL     OW20434   5.222   5.780   3.701
 6512SOL    HW120435   5.303   5.778   3.760
 6512SOL    HW220436   5.171   5.696   3.712
 6513SOL     OW20437   1.148   6.731   3.232
 6513SOL    HW120438   1.051   6.733   3.209
 6513SOL    HW220439   1.172   6.815   3.280
 6514SOL     OW20440   2.984   0.592   3.312
 6514SOL    HW120441   2.954   0.657   3.383
 6514SOL    HW220442   3.071   0.623   3.274
 6515SOL     OW20443   0.633   0.769   3.401
 6515SOL    HW120444   0.547   0.741   3.445
 6515SOL    HW220445   0.689   0.688   3.384
 6516SOL     OW20446   1.401   0.836   5.656
 6516SOL    HW120447   1.318   0.801   5.614
 6516SOL    HW220448   1.413   0.932   5.634
 6517SOL     OW20449   2.511   2.153   1.131
 6517SOL    HW120450   2.569   2.073   1.150
 6517SOL    HW220451   2.447   2.131   1.058
 6518SOL     OW20452   5.693   6.207   0.644
 6518SOL    HW120453   5.755   6.211   0.722
 6518SOL    HW220454   5.604   6.243   0.671
 6519SOL     OW20455   0.893   2.075   3.968
 6519SOL    HW120456   0.956   2.000   3.949
 6519SOL    HW220457   0.805   2.057   3.924
 6520SOL     OW20458   5.820   5.158   1.291
 6520SOL    HW120459   5.778   5.190   1.206
 6520SOL    HW220460   5.749   5.148   1.361
 6521SOL     OW20461   1.458   2.094   5.846
 6521SOL    HW120462   1.476   2.000   5.876
 6521SOL    HW220463   1.361   2.103   5.825
 6522SOL     OW20464   2.375   5.002   4.399
 6522SOL    HW120465   2.401   4.910   4.369
 6522SOL    HW220466   2.288   4.998   4.448
 6523SOL     OW20467   1.822   2.076   0.553
 6523SOL    HW120468   1.772   1.991   0.567
 6523SOL    HW220469   1.756   2.150   0.536
 6524SOL     OW20470   4.097   2.393   5.452
 6524SOL    HW120471   4.027   2.463   5.443
 6524SOL    HW220472   4.095   2.355   5.545
 6525SOL     OW20473   0.434   2.523   4.175
 6525SOL    HW120474   0.359   2.557   4.232
 6525SOL    HW220475   0.515   2.508   4.231
 6526SOL     OW20476   1.629   5.689   3.701
 6526SOL    HW120477   1.557   5.694   3.632
 6526SOL    HW220478   1.627   5.600   3.745
 6527SOL     OW20479   2.368   1.342   4.132
 6527SOL    HW120480   2.351   1.271   4.200
 6527SOL    HW220481   2.313   1.423   4.152
 6528SOL     OW20482   0.425   0.025   3.102
 6528SOL    HW120483   0.504   0.010   3.042
 6528SOL    HW220484   0.351   0.068   3.050
 6529SOL     OW20485   6.687   2.949   2.379
 6529SOL    HW120486   6.695   2.989   2.470
 6529SOL    HW220487   6.778   2.938   2.339
 6530SOL     OW20488   0.169   1.818   0.278
 6530SOL    HW120489   0.128   1.859   0.359
 6530SOL    HW220490   0.194   1.723   0.297
 6531SOL     OW20491   4.909   2.213   5.652
 6531SOL    HW120492   4.905   2.114   5.640
 6531SOL    HW220493   4.855   2.257   5.580
 6532SOL     OW20494   1.269   1.932   0.032
 6532SOL    HW120495   1.189   1.976   0.071
 6532SOL    HW220496   1.344   1.935   0.098
 6533SOL     OW20497   4.680   0.117   1.185
 6533SOL    HW120498   4.686   0.211   1.152
 6533SOL    HW220499   4.708   0.113   1.281
 6534SOL     OW20500   3.163   2.822   6.656
 6534SOL    HW120501   3.218   2.739   6.650
 6534SOL    HW220502   3.078   2.803   6.705
 6535SOL     OW20503   2.306   3.377   5.340
 6535SOL    HW120504   2.305   3.279   5.320
 6535SOL    HW220505   2.303   3.428   5.255
 6536SOL     OW20506   0.193   2.044   6.866
 6536SOL    HW120507   0.129   1.967   6.857
 6536SOL    HW220508   0.212   2.083   6.777
 6537SOL     OW20509   1.058   0.609   6.667
 6537SOL    HW120510   1.001   0.527   6.655
 6537SOL    HW220511   1.077   0.649   6.578
 6538SOL     OW20512   2.570   2.770   5.812
 6538SOL    HW120513   2.537   2.715   5.735
 6538SOL    HW220514   2.510   2.756   5.891
 6539SOL     OW20515   3.674   1.775   6.951
 6539SOL    HW120516   3.591   1.733   6.985
 6539SOL    HW220517   3.655   1.870   6.924
 6540SOL     OW20518   3.707   1.915   3.556
 6540SOL    HW120519   3.623   1.951   3.597
 6540SOL    HW220520   3.769   1.886   3.629
 6541SOL     OW20521   2.531   2.494   5.314
 6541SOL    HW120522   2.621   2.535   5.295
 6541SOL    HW220523   2.478   2.492   5.229
 6542SOL     OW20524   5.392   4.487   2.577
 6542SOL    HW120525   5.413   4.577   2.617
 6542SOL    HW220526   5.467   4.460   2.517
 6543SOL     OW20527   1.148   6.338   5.960
 6543SOL    HW120528   1.163   6.249   6.003
 6543SOL    HW220529   1.079   6.388   6.011
 6544SOL     OW20530   0.177   5.893   2.599
 6544SOL    HW120531   0.209   5.830   2.527
 6544SOL    HW220532   0.154   5.981   2.558
 6545SOL     OW20533   5.963   2.965   6.791
 6545SOL    HW120534   5.878   2.920   6.761
 6545SOL    HW220535   5.941   3.032   6.862
 6546SOL     OW20536   3.325   4.544   5.984
 6546SOL    HW120537   3.282   4.454   5.980
 6546SOL    HW220538   3.336   4.580   5.891
 6547SOL     OW20539   4.979   0.927   6.376
 6547SOL    HW120540   5.073   0.942   6.347
 6547SOL    HW220541   4.926   0.890   6.299
 6548SOL     OW20542   4.972   3.898   5.686
 6548SOL    HW120543   5.003   3.991   5.708
 6548SOL    HW220544   5.051   3.840   5.669
 6549SOL     OW20545   2.581   2.352   2.501
 6549SOL    HW120546   2.673   2.312   2.499
 6549SOL    HW220547   2.516   2.289   2.459
 6550SOL     OW20548   1.054   5.719   2.505
 6550SOL    HW120549   0.992   5.756   2.574
 6550SOL    HW220550   1.131   5.783   2.492
 6551SOL     OW20551   3.440   5.358   2.129
 6551SOL    HW120552   3.536   5.368   2.104
 6551SOL    HW220553   3.389   5.322   2.051
 6552SOL     OW20554   4.415   4.665   5.826
 6552SOL    HW120555   4.400   4.730   5.901
 6552SOL    HW220556   4.473   4.590   5.859
 6553SOL     OW20557   6.990   3.216   3.126
 6553SOL    HW120558   0.040   3.152   3.156
 6553SOL    HW220559   6.992   3.223   3.026
 6554SOL     OW20560   0.137   3.864   4.781
 6554SOL    HW120561   0.101   3.843   4.690
 6554SOL    HW220562   0.187   3.786   4.816
 6555SOL     OW20563   0.714   1.450   1.239
 6555SOL    HW120564   0.729   1.440   1.337
 6555SOL    HW220565   0.793   1.416   1.189
 6556SOL     OW20566   3.775   0.305   3.584
 6556SOL    HW120567   3.707   0.335   3.517
 6556SOL    HW220568   3.797   0.381   3.645
 6557SOL     OW20569   5.521   5.767   0.672
 6557SOL    HW120570   5.496   5.864   0.671
 6557SOL    HW220571   5.451   5.714   0.626
 6558SOL     OW20572   6.980   6.486   5.618
 6558SOL    HW120573   0.035   6.483   5.552
 6558SOL    HW220574   6.995   6.417   5.689
 6559SOL     OW20575   3.114   3.672   1.115
 6559SOL    HW120576   3.154   3.679   1.024
 6559SOL    HW220577   3.081   3.579   1.130
 6560SOL     OW20578   4.419   2.051   1.037
 6560SOL    HW120579   4.325   2.040   1.005
 6560SOL    HW220580   4.451   2.143   1.018
 6561SOL     OW20581   3.871   4.036   4.535
 6561SOL    HW120582   3.938   4.018   4.607
 6561SOL    HW220583   3.908   4.006   4.447
 6562SOL     OW20584   0.247   4.658   5.007
 6562SOL    HW120585   0.192   4.586   4.963
 6562SOL    HW220586   0.233   4.654   5.106
 6563SOL     OW20587   0.448   5.385   2.490
 6563SOL    HW120588   0.542   5.414   2.476
 6563SOL    HW220589   0.390   5.420   2.416
 6564SOL     OW20590   1.499   4.833   3.201
 6564SOL    HW120591   1.483   4.869   3.294
 6564SOL    HW220592   1.440   4.881   3.137
 6565SOL     OW20593   6.658   3.505   4.763
 6565SOL    HW120594   6.757   3.502   4.748
 6565SOL    HW220595   6.639   3.523   4.859
 6566SOL     OW20596   4.094   1.246   0.558
 6566SOL    HW120597   4.138   1.202   0.480
 6566SOL    HW220598   4.128   1.339   0.568
 6567SOL     OW20599   6.585   2.476   0.762
 6567SOL    HW120600   6.578   2.523   0.675
 6567SOL    HW220601   6.679   2.478   0.794
 6568SOL     OW20602   4.968   3.553   1.280
 6568SOL    HW120603   4.961   3.464   1.236
 6568SOL    HW220604   5.039   3.549   1.351
 6569SOL     OW20605   1.635   4.353   5.524
 6569SOL    HW120606   1.728   4.386   5.505
 6569SOL    HW220607   1.638   4.254   5.537
 6570SOL     OW20608   6.706   3.623   1.921
 6570SOL    HW120609   6.631   3.669   1.967
 6570SOL    HW220610   6.728   3.538   1.970
 6571SOL     OW20611   1.762   6.112   4.138
 6571SOL    HW120612   1.814   6.112   4.052
 6571SOL    HW220613   1.770   6.022   4.181
 6572SOL     OW20614   2.090   3.702   5.586
 6572SOL    HW120615   2.160   3.704   5.657
 6572SOL    HW220616   2.046   3.613   5.585
 6573SOL     OW20617   1.815   1.802   1.561
 6573SOL    HW120618   1.813   1.874   1.491
 6573SOL    HW220619   1.772   1.836   1.644
 6574SOL     OW20620   2.340   4.255   4.473
 6574SOL    HW120621   2.341   4.233   4.376
 6574SOL    HW220622   2.431   4.289   4.500
 6575SOL     OW20623   1.782   2.104   2.697
 6575SOL    HW120624   1.866   2.147   2.666
 6575SOL    HW220625   1.803   2.028   2.759
 6576SOL     OW20626   0.159   6.695   3.851
 6576SOL    HW120627   0.068   6.688   3.893
 6576SOL    HW220628   0.200   6.605   3.844
 6577SOL     OW20629   0.093   3.759   5.344
 6577SOL    HW120630   0.188   3.727   5.348
 6577SOL    HW220631   0.089   3.845   5.292
 6578SOL     OW20632   6.316   5.989   3.755
 6578SOL    HW120633   6.295   5.892   3.757
 6578SOL    HW220634   6.387   6.007   3.686
 6579SOL     OW20635   0.077   4.085   3.997
 6579SOL    HW120636   0.074   4.029   4.079
 6579SOL    HW220637   0.001   4.060   3.937
 6580SOL     OW20638   5.379   2.522   0.499
 6580SOL    HW120639   5.454   2.551   0.557
 6580SOL    HW220640   5.360   2.592   0.430
 6581SOL     OW20641   2.506   2.102   5.504
 6581SOL    HW120642   2.575   2.162   5.463
 6581SOL    HW220643   2.441   2.158   5.556
 6582SOL     OW20644   6.602   0.548   2.617
 6582SOL    HW120645   6.546   0.622   2.654
 6582SOL    HW220646   6.544   0.482   2.570
 6583SOL     OW20647   6.866   1.224   6.150
 6583SOL    HW120648   6.820   1.136   6.152
 6583SOL    HW220649   6.964   1.211   6.168
 6584SOL     OW20650   5.622   2.716   0.546
 6584SOL    HW120651   5.713   2.715   0.589
 6584SOL    HW220652   5.606   2.806   0.505
 6585SOL     OW20653   2.805   0.864   1.989
 6585SOL    HW120654   2.867   0.786   1.983
 6585SOL    HW220655   2.849   0.945   1.951
 6586SOL     OW20656   6.110   1.743   6.890
 6586SOL    HW120657   6.144   1.837   6.888
 6586SOL    HW220658   6.150   1.694   6.968
 6587SOL     OW20659   1.798   5.891   1.751
 6587SOL    HW120660   1.853   5.821   1.798
 6587SOL    HW220661   1.742   5.940   1.819
 6588SOL     OW20662   3.134   2.440   0.296
 6588SOL    HW120663   3.190   2.362   0.322
 6588SOL    HW220664   3.168   2.479   0.211
 6589SOL     OW20665   4.883   1.802   6.029
 6589SOL    HW120666   4.979   1.779   6.017
 6589SOL    HW220667   4.826   1.735   5.982
 6590SOL     OW20668   6.250   1.788   5.477
 6590SOL    HW120669   6.211   1.871   5.517
 6590SOL    HW220670   6.234   1.788   5.379
 6591SOL     OW20671   4.899   0.355   2.746
 6591SOL    HW120672   4.935   0.447   2.731
 6591SOL    HW220673   4.958   0.289   2.699
 6592SOL     OW20674   6.447   5.160   5.287
 6592SOL    HW120675   6.379   5.210   5.234
 6592SOL    HW220676   6.401   5.100   5.353
 6593SOL     OW20677   5.092   0.880   2.808
 6593SOL    HW120678   5.078   0.893   2.906
 6593SOL    HW220679   5.188   0.899   2.785
 6594SOL     OW20680   5.224   1.054   0.066
 6594SOL    HW120681   5.276   0.990   0.009
 6594SOL    HW220682   5.172   1.003   0.134
 6595SOL     OW20683   3.375   2.305   6.353
 6595SOL    HW120684   3.424   2.298   6.266
 6595SOL    HW220685   3.291   2.357   6.339
 6596SOL     OW20686   2.911   6.652   4.775
 6596SOL    HW120687   2.988   6.715   4.786
 6596SOL    HW220688   2.934   6.564   4.815
 6597SOL     OW20689   0.190   4.214   6.582
 6597SOL    HW120690   0.188   4.208   6.482
 6597SOL    HW220691   0.112   4.268   6.614
 6598SOL     OW20692   2.746   5.973   4.692
 6598SOL    HW120693   2.784   6.058   4.655
 6598SOL    HW220694   2.786   5.895   4.645
 6599SOL     OW20695   4.468   3.450   6.256
 6599SOL    HW120696   4.394   3.388   6.232
 6599SOL    HW220697   4.497   3.500   6.175
 6600SOL     OW20698   4.055   4.963   4.892
 6600SOL    HW120699   4.055   5.063   4.892
 6600SOL    HW220700   3.979   4.931   4.836
 6601SOL     OW20701   0.509   1.029   1.940
 6601SOL    HW120702   0.494   1.096   1.867
 6601SOL    HW220703   0.580   0.964   1.911
 6602SOL     OW20704   6.588   1.545   1.201
 6602SOL    HW120705   6.536   1.576   1.280
 6602SOL    HW220706   6.630   1.457   1.220
 6603SOL     OW20707   2.688   1.467   1.729
 6603SOL    HW120708   2.696   1.558   1.688
 6603SOL    HW220709   2.774   1.417   1.717
 6604SOL     OW20710   4.061   5.995   4.525
 6604SOL    HW120711   4.032   6.064   4.592
 6604SOL    HW220712   3.983   5.969   4.468
 6605SOL     OW20713   5.062   6.493   0.075
 6605SOL    HW120714   5.124   6.543   0.015
 6605SOL    HW220715   5.090   6.397   0.081
 6606SOL     OW20716   0.643   2.220   2.990
 6606SOL    HW120717   0.673   2.280   2.917
 6606SOL    HW220718   0.545   2.232   3.005
 6607SOL     OW20719   1.272   3.421   2.523
 6607SOL    HW120720   1.208   3.471   2.581
 6607SOL    HW220721   1.223   3.381   2.446
 6608SOL     OW20722   4.999   4.552   4.969
 6608SOL    HW120723   4.922   4.530   4.909
 6608SOL    HW220724   4.987   4.644   5.007
 6609SOL     OW20725   5.338   2.117   6.879
 6609SOL    HW120726   5.264   2.076   6.825
 6609SOL    HW220727   5.384   2.045   6.932
 6610SOL     OW20728   3.761   1.436   0.743
 6610SOL    HW120729   3.668   1.468   0.761
 6610SOL    HW220730   3.807   1.500   0.681
 6611SOL     OW20731   5.313   3.775   2.929
 6611SOL    HW120732   5.280   3.856   2.978
 6611SOL    HW220733   5.333   3.702   2.995
 6612SOL     OW20734   0.877   6.262   6.636
 6612SOL    HW120735   0.852   6.190   6.701
 6612SOL    HW220736   0.949   6.228   6.576
 6613SOL     OW20737   5.826   4.945   0.793
 6613SOL    HW120738   5.844   4.892   0.876
 6613SOL    HW220739   5.732   4.930   0.763
 6614SOL     OW20740   6.076   4.579   6.003
 6614SOL    HW120741   6.100   4.570   6.100
 6614SOL    HW220742   5.976   4.580   5.994
 6615SOL     OW20743   6.925   3.322   5.020
 6615SOL    HW120744   6.984   3.243   5.037
 6615SOL    HW220745   6.981   3.405   5.018
 6616SOL     OW20746   4.856   1.232   4.246
 6616SOL    HW120747   4.795   1.303   4.283
 6616SOL    HW220748   4.842   1.225   4.147
 6617SOL     OW20749   4.192   0.281   4.927
 6617SOL    HW120750   4.281   0.261   4.969
 6617SOL    HW220751   4.166   0.375   4.946
 6618SOL     OW20752   0.163   4.745   1.195
 6618SOL    HW120753   0.126   4.764   1.286
 6618SOL    HW220754   0.196   4.651   1.192
 6619SOL     OW20755   6.891   6.287   1.685
 6619SOL    HW120756   6.980   6.331   1.694
 6619SOL    HW220757   6.891   6.199   1.732
 6620SOL     OW20758   4.432   3.007   5.311
 6620SOL    HW120759   4.363   3.077   5.297
 6620SOL    HW220760   4.508   3.021   5.248
 6621SOL     OW20761   2.883   2.945   0.118
 6621SOL    HW120762   2.978   2.973   0.135
 6621SOL    HW220763   2.824   3.026   0.120
 6622SOL     OW20764   6.214   5.614   0.485
 6622SOL    HW120765   6.130   5.586   0.532
 6622SOL    HW220766   6.267   5.533   0.460
 6623SOL     OW20767   3.867   3.987   2.722
 6623SOL    HW120768   3.768   3.991   2.703
 6623SOL    HW220769   3.909   3.918   2.662
 6624SOL     OW20770   4.523   5.116   4.498
 6624SOL    HW120771   4.433   5.144   4.531
 6624SOL    HW220772   4.517   5.084   4.404
 6625SOL     OW20773   5.821   6.819   7.016
 6625SOL    HW120774   5.846   6.902   6.965
 6625SOL    HW220775   5.905   6.771   0.025
 6626SOL     OW20776   2.748   4.799   3.834
 6626SOL    HW120777   2.689   4.879   3.832
 6626SOL    HW220778   2.777   4.775   3.741
 6627SOL     OW20779   1.569   0.126   1.769
 6627SOL    HW120780   1.542   0.162   1.680
 6627SOL    HW220781   1.668   0.136   1.780
 6628SOL     OW20782   3.877   6.125   3.841
 6628SOL    HW120783   3.926   6.042   3.812
 6628SOL    HW220784   3.865   6.186   3.763
 6629SOL     OW20785   3.257   4.108   0.417
 6629SOL    HW120786   3.161   4.116   0.444
 6629SOL    HW220787   3.263   4.051   0.335
 6630SOL     OW20788   3.773   0.969   6.453
 6630SOL    HW120789   3.828   1.028   6.510
 6630SOL    HW220790   3.677   0.972   6.483
 6631SOL     OW20791   4.300   0.174   1.268
 6631SOL    HW120792   4.353   0.201   1.349
 6631SOL    HW220793   4.282   0.255   1.213
 6632SOL     OW20794   6.019   3.307   2.376
 6632SOL    HW120795   6.032   3.305   2.276
 6632SOL    HW220796   6.043   3.398   2.410
 6633SOL     OW20797   0.422   6.309   2.391
 6633SOL    HW120798   0.497   6.263   2.438
 6633SOL    HW220799   0.415   6.275   2.298
 6634SOL     OW20800   6.776   2.266   5.978
 6634SOL    HW120801   6.744   2.289   6.069
 6634SOL    HW220802   6.713   2.202   5.935
 6635SOL     OW20803   4.276   5.061   3.490
 6635SOL    HW120804   4.335   5.126   3.440
 6635SOL    HW220805   4.208   5.112   3.542
 6636SOL     OW20806   1.699   3.484   3.368
 6636SOL    HW120807   1.670   3.409   3.427
 6636SOL    HW220808   1.782   3.525   3.404
 6637SOL     OW20809   6.520   2.872   1.574
 6637SOL    HW120810   6.468   2.846   1.656
 6637SOL    HW220811   6.501   2.967   1.551
 6638SOL     OW20812   1.911   0.882   6.724
 6638SOL    HW120813   1.858   0.963   6.749
 6638SOL    HW220814   1.848   0.806   6.707
 6639SOL     OW20815   4.140   5.487   6.222
 6639SOL    HW120816   4.204   5.420   6.258
 6639SOL    HW220817   4.104   5.455   6.134
 6640SOL     OW20818   5.658   3.740   3.022
 6640SOL    HW120819   5.677   3.754   2.925
 6640SOL    HW220820   5.603   3.658   3.034
 6641SOL     OW20821   2.154   5.213   6.959
 6641SOL    HW120822   2.199   5.300   6.980
 6641SOL    HW220823   2.079   5.198   0.003
 6642SOL     OW20824   6.715   5.883   5.893
 6642SOL    HW120825   6.695   5.785   5.885
 6642SOL    HW220826   6.629   5.933   5.904
 6643SOL     OW20827   3.845   5.430   7.001
 6643SOL    HW120828   3.843   5.414   6.903
 6643SOL    HW220829   3.911   5.368   0.024
 6644SOL     OW20830   0.600   3.870   1.908
 6644SOL    HW120831   0.593   3.958   1.860
 6644SOL    HW220832   0.677   3.818   1.870
 6645SOL     OW20833   6.990   4.649   5.565
 6645SOL    HW120834   6.941   4.595   5.496
 6645SOL    HW220835   0.031   4.715   5.520
 6646SOL     OW20836   1.595   5.277   3.491
 6646SOL    HW120837   1.615   5.375   3.492
 6646SOL    HW220838   1.574   5.249   3.397
 6647SOL     OW20839   4.302   1.988   2.049
 6647SOL    HW120840   4.370   1.942   2.108
 6647SOL    HW220841   4.238   1.920   2.014
 6648SOL     OW20842   4.107   5.439   2.075
 6648SOL    HW120843   4.166   5.518   2.058
 6648SOL    HW220844   4.136   5.363   2.017
 6649SOL     OW20845   4.551   1.305   6.447
 6649SOL    HW120846   4.620   1.276   6.513
 6649SOL    HW220847   4.494   1.227   6.421
 6650SOL     OW20848   3.363   1.363   3.847
 6650SOL    HW120849   3.399   1.456   3.851
 6650SOL    HW220850   3.434   1.301   3.814
 6651SOL     OW20851   0.502   1.893   0.597
 6651SOL    HW120852   0.406   1.918   0.581
 6651SOL    HW220853   0.553   1.898   0.511
 6652SOL     OW20854   0.929   5.221   2.868
 6652SOL    HW120855   0.841   5.185   2.835
 6652SOL    HW220856   0.912   5.297   2.930
 6653SOL     OW20857   3.775   3.678   3.313
 6653SOL    HW120858   3.693   3.707   3.362
 6653SOL    HW220859   3.839   3.755   3.308
 6654SOL     OW20860   1.518   3.957   1.477
 6654SOL    HW120861   1.613   3.971   1.448
 6654SOL    HW220862   1.476   4.045   1.499
 6655SOL     OW20863   1.597   0.631   6.970
 6655SOL    HW120864   1.498   0.616   6.976
 6655SOL    HW220865   1.615   0.706   6.906
 6656SOL     OW20866   6.584   2.319   1.906
 6656SOL    HW120867   6.662   2.369   1.945
 6656SOL    HW220868   6.505   2.380   1.899
 6657SOL     OW20869   2.988   5.116   5.451
 6657SOL    HW120870   2.922   5.144   5.520
 6657SOL    HW220871   2.940   5.085   5.369
 6658SOL     OW20872   6.919   6.849   5.993
 6658SOL    HW120873   6.931   6.757   5.956
 6658SOL    HW220874   6.821   6.866   6.008
 6659SOL     OW20875   1.782   2.795   6.758
 6659SOL    HW120876   1.799   2.723   6.690
 6659SOL    HW220877   1.721   2.864   6.719
 6660SOL     OW20878   0.711   6.152   2.671
 6660SOL    HW120879   0.708   6.213   2.592
 6660SOL    HW220880   0.737   6.204   2.752
 6661SOL     OW20881   6.676   6.818   3.967
 6661SOL    HW120882   6.712   6.881   4.035
 6661SOL    HW220883   6.593   6.857   3.927
 6662SOL     OW20884   0.969   3.684   5.705
 6662SOL    HW120885   0.934   3.613   5.766
 6662SOL    HW220886   1.038   3.738   5.752
 6663SOL     OW20887   0.623   4.978   2.176
 6663SOL    HW120888   0.649   4.922   2.097
 6663SOL    HW220889   0.527   5.005   2.169
 6664SOL     OW20890   7.002   2.334   1.917
 6664SOL    HW120891   7.013   2.282   2.001
 6664SOL    HW220892   6.915   2.384   1.920
 6665SOL     OW20893   1.910   0.003   2.736
 6665SOL    HW120894   1.950   6.984   2.820
 6665SOL    HW220895   1.926   0.101   2.733
 6666SOL     OW20896   5.121   1.208   0.459
 6666SOL    HW120897   5.202   1.244   0.505
 6666SOL    HW220898   5.104   1.261   0.375
 6667SOL     OW20899   6.012   4.754   5.181
 6667SOL    HW120900   5.928   4.705   5.201
 6667SOL    HW220901   6.015   4.778   5.084
 6668SOL     OW20902   6.670   6.308   0.964
 6668SOL    HW120903   6.690   6.404   0.980
 6668SOL    HW220904   6.583   6.299   0.916
 6669SOL     OW20905   0.906   4.788   2.783
 6669SOL    HW120906   0.942   4.807   2.875
 6669SOL    HW220907   0.849   4.864   2.753
 6670SOL     OW20908   4.719   4.530   6.956
 6670SOL    HW120909   4.662   4.559   0.013
 6670SOL    HW220910   4.701   4.589   6.877
 6671SOL     OW20911   0.691   2.598   5.413
 6671SOL    HW120912   0.702   2.669   5.344
 6671SOL    HW220913   0.611   2.619   5.470
 6672SOL     OW20914   6.931   0.925   5.251
 6672SOL    HW120915   7.009   0.879   5.210
 6672SOL    HW220916   6.962   1.006   5.300
 6673SOL     OW20917   4.431   6.075   1.530
 6673SOL    HW120918   4.524   6.062   1.566
 6673SOL    HW220919   4.390   6.156   1.573
 6674SOL     OW20920   0.678   6.463   5.514
 6674SOL    HW120921   0.652   6.457   5.418
 6674SOL    HW220922   0.680   6.372   5.554
 6675SOL     OW20923   6.651   6.003   6.772
 6675SOL    HW120924   6.587   6.072   6.740
 6675SOL    HW220925   6.740   6.017   6.727
 6676SOL     OW20926   0.200   1.825   0.579
 6676SOL    HW120927   0.160   1.837   0.670
 6676SOL    HW220928   0.236   1.732   0.571
 6677SOL     OW20929   0.420   4.611   0.614
 6677SOL    HW120930   0.516   4.584   0.613
 6677SOL    HW220931   0.414   4.711   0.625
 6678SOL     OW20932   0.874   2.776   4.283
 6678SOL    HW120933   0.853   2.755   4.187
 6678SOL    HW220934   0.949   2.718   4.314
 6679SOL     OW20935   1.810   1.069   4.833
 6679SOL    HW120936   1.864   1.152   4.841
 6679SOL    HW220937   1.779   1.039   4.923
 6680SOL     OW20938   3.056   0.571   6.354
 6680SOL    HW120939   3.061   0.643   6.285
 6680SOL    HW220940   3.105   0.490   6.320
 6681SOL     OW20941   5.435   5.639   6.397
 6681SOL    HW120942   5.389   5.579   6.463
 6681SOL    HW220943   5.431   5.733   6.428
 6682SOL     OW20944   6.503   5.257   2.356
 6682SOL    HW120945   6.441   5.179   2.358
 6682SOL    HW220946   6.562   5.251   2.275
 6683SOL     OW20947   4.365   2.478   4.519
 6683SOL    HW120948   4.421   2.523   4.450
 6683SOL    HW220949   4.300   2.416   4.475
 6684SOL     OW20950   1.626   1.559   2.338
 6684SOL    HW120951   1.621   1.659   2.338
 6684SOL    HW220952   1.603   1.524   2.429
 6685SOL     OW20953   5.733   2.806   6.841
 6685SOL    HW120954   5.683   2.844   6.918
 6685SOL    HW220955   5.676   2.810   6.759
 6686SOL     OW20956   5.830   4.019   3.974
 6686SOL    HW120957   5.780   3.946   3.928
 6686SOL    HW220958   5.890   4.065   3.908
 6687SOL     OW20959   0.639   0.347   0.239
 6687SOL    HW120960   0.737   0.341   0.221
 6687SOL    HW220961   0.603   0.430   0.196
 6688SOL     OW20962   0.737   4.987   2.677
 6688SOL    HW120963   0.653   5.012   2.724
 6688SOL    HW220964   0.781   5.069   2.642
 6689SOL     OW20965   4.769   4.038   0.024
 6689SOL    HW120966   4.676   4.033   7.007
 6689SOL    HW220967   4.834   4.041   6.967
 6690SOL     OW20968   0.323   1.587   0.526
 6690SOL    HW120969   0.392   1.549   0.586
 6690SOL    HW220970   0.350   1.575   0.431
 6691SOL     OW20971   1.258   5.278   0.854
 6691SOL    HW120972   1.232   5.196   0.803
 6691SOL    HW220973   1.217   5.276   0.945
 6692SOL     OW20974   4.466   3.719   6.650
 6692SOL    HW120975   4.546   3.709   6.709
 6692SOL    HW220976   4.493   3.702   6.555
 6693SOL     OW20977   4.281   3.935   6.058
 6693SOL    HW120978   4.241   3.858   6.107
 6693SOL    HW220979   4.368   3.907   6.018
 6694SOL     OW20980   3.042   6.120   6.890
 6694SOL    HW120981   2.989   6.053   6.838
 6694SOL    HW220982   2.998   6.210   6.884
 6695SOL     OW20983   1.316   1.626   0.082
 6695SOL    HW120984   1.402   1.610   0.130
 6695SOL    HW220985   1.335   1.650   7.006
 6696SOL     OW20986   1.466   2.684   1.350
 6696SOL    HW120987   1.479   2.620   1.274
 6696SOL    HW220988   1.529   2.660   1.424
 6697SOL     OW20989   5.414   3.177   4.252
 6697SOL    HW120990   5.337   3.113   4.254
 6697SOL    HW220991   5.432   3.205   4.158
 6698SOL     OW20992   2.488   4.056   6.251
 6698SOL    HW120993   2.505   4.030   6.346
 6698SOL    HW220994   2.389   4.056   6.233
 6699SOL     OW20995   1.784   3.064   6.950
 6699SOL    HW120996   1.693   3.104   6.961
 6699SOL    HW220997   1.779   2.965   6.962
 6700SOL     OW20998   0.354   6.562   6.374
 6700SOL    HW120999   0.427   6.512   6.328
 6700SOL    HW221000   0.266   6.532   6.338
 6701SOL     OW21001   1.176   2.333   0.675
 6701SOL    HW121002   1.227   2.250   0.697
 6701SOL    HW221003   1.162   2.386   0.759
 6702SOL     OW21004   2.505   3.130   0.313
 6702SOL    HW121005   2.484   3.181   0.396
 6702SOL    HW221006   2.463   3.039   0.318
 6703SOL     OW21007   0.320   2.553   6.675
 6703SOL    HW121008   0.269   2.504   6.745
 6703SOL    HW221009   0.277   2.642   6.658
 6704SOL     OW21010   5.189   3.422   3.263
 6704SOL    HW121011   5.117   3.365   3.302
 6704SOL    HW221012   5.174   3.517   3.288
 6705SOL     OW21013   5.484   1.181   1.323
 6705SOL    HW121014   5.538   1.203   1.404
 6705SOL    HW221015   5.412   1.115   1.347
 6706SOL     OW21016   1.272   6.163   0.204
 6706SOL    HW121017   1.259   6.093   0.133
 6706SOL    HW221018   1.212   6.145   0.281
 6707SOL     OW21019   1.386   5.303   3.046
 6707SOL    HW121020   1.316   5.253   2.995
 6707SOL    HW221021   1.368   5.401   3.040
 6708SOL     OW21022   2.309   6.202   1.399
 6708SOL    HW121023   2.213   6.175   1.385
 6708SOL    HW221024   2.319   6.240   1.491
 6709SOL     OW21025   5.158   1.556   3.507
 6709SOL    HW121026   5.181   1.580   3.413
 6709SOL    HW221027   5.121   1.463   3.511
 6710SOL     OW21028   1.890   1.757   0.676
 6710SOL    HW121029   1.948   1.722   0.602
 6710SOL    HW221030   1.801   1.784   0.639
 6711SOL     OW21031   5.592   3.597   6.820
 6711SOL    HW121032   5.626   3.660   6.750
 6711SOL    HW221033   5.553   3.517   6.776
 6712SOL     OW21034   3.441   6.605   1.291
 6712SOL    HW121035   3.432   6.505   1.296
 6712SOL    HW221036   3.535   6.628   1.266
 6713SOL     OW21037   1.571   2.187   3.375
 6713SOL    HW121038   1.598   2.144   3.289
 6713SOL    HW221039   1.508   2.261   3.357
 6714SOL     OW21040   6.651   0.307   5.086
 6714SOL    HW121041   6.732   0.347   5.129
 6714SOL    HW221042   6.572   0.317   5.147
 6715SOL     OW21043   5.522   2.610   0.832
 6715SOL    HW121044   5.537   2.605   0.931
 6715SOL    HW221045   5.430   2.647   0.814
 6716SOL     OW21046   3.780   6.123   1.055
 6716SOL    HW121047   3.808   6.027   1.065
 6716SOL    HW221048   3.680   6.127   1.044
 6717SOL     OW21049   4.138   1.293   6.707
 6717SOL    HW121050   4.134   1.249   6.797
 6717SOL    HW221051   4.111   1.226   6.637
 6718SOL     OW21052   3.837   0.310   6.806
 6718SOL    HW121053   3.821   0.278   6.713
 6718SOL    HW221054   3.812   0.407   6.813
 6719SOL     OW21055   0.314   2.251   5.219
 6719SOL    HW121056   0.320   2.350   5.202
 6719SOL    HW221057   0.326   2.233   5.317
 6720SOL     OW21058   1.291   4.694   0.969
 6720SOL    HW121059   1.306   4.766   1.036
 6720SOL    HW221060   1.193   4.680   0.957
 6721SOL     OW21061   6.366   6.455   2.968
 6721SOL    HW121062   6.400   6.388   2.902
 6721SOL    HW221063   6.430   6.532   2.972
 6722SOL     OW21064   4.299   4.541   0.106
 6722SOL    HW121065   4.263   4.616   0.161
 6722SOL    HW221066   4.389   4.565   0.070
 6723SOL     OW21067   3.896   1.362   2.552
 6723SOL    HW121068   3.830   1.341   2.481
 6723SOL    HW221069   3.909   1.462   2.558
 6724SOL     OW21070   3.568   4.488   5.468
 6724SOL    HW121071   3.559   4.427   5.389
 6724SOL    HW221072   3.646   4.459   5.524
 6725SOL     OW21073   0.693   5.403   1.552
 6725SOL    HW121074   0.684   5.375   1.648
 6725SOL    HW221075   0.790   5.407   1.528
 6726SOL     OW21076   2.370   2.883   1.780
 6726SOL    HW121077   2.438   2.812   1.759
 6726SOL    HW221078   2.413   2.973   1.774
 6727SOL     OW21079   2.810   4.385   0.809
 6727SOL    HW121080   2.823   4.352   0.903
 6727SOL    HW221081   2.840   4.315   0.745
 6728SOL     OW21082   4.609   1.322   4.381
 6728SOL    HW121083   4.551   1.390   4.425
 6728SOL    HW221084   4.557   1.238   4.367
 6729SOL     OW21085   4.899   6.233   3.441
 6729SOL    HW121086   4.820   6.206   3.495
 6729SOL    HW221087   4.975   6.169   3.457
 6730SOL     OW21088   1.238   6.890   2.445
 6730SOL    HW121089   1.229   6.979   2.400
 6730SOL    HW221090   1.156   6.873   2.500
 6731SOL     OW21091   1.844   3.952   1.677
 6731SOL    HW121092   1.830   4.023   1.747
 6731SOL    HW221093   1.847   3.995   1.587
 6732SOL     OW21094   3.028   5.505   0.621
 6732SOL    HW121095   3.115   5.541   0.656
 6732SOL    HW221096   2.959   5.509   0.693
 6733SOL     OW21097   6.323   5.878   4.548
 6733SOL    HW121098   6.269   5.936   4.608
 6733SOL    HW221099   6.315   5.910   4.453
 6734SOL     OW21100   2.238   3.720   6.456
 6734SOL    HW121101   2.216   3.656   6.383
 6734SOL    HW221102   2.318   3.687   6.507
 6735SOL     OW21103   0.621   6.559   6.172
 6735SOL    HW121104   0.643   6.650   6.208
 6735SOL    HW221105   0.537   6.564   6.118
 6736SOL     OW21106   2.457   4.379   1.681
 6736SOL    HW121107   2.453   4.472   1.716
 6736SOL    HW221108   2.371   4.332   1.701
 6737SOL     OW21109   1.604   6.580   1.101
 6737SOL    HW121110   1.592   6.619   1.193
 6737SOL    HW221111   1.675   6.509   1.105
 6738SOL     OW21112   4.934   1.761   1.382
 6738SOL    HW121113   4.964   1.848   1.343
 6738SOL    HW221114   4.863   1.722   1.324
 6739SOL     OW21115   3.960   6.664   5.540
 6739SOL    HW121116   3.976   6.646   5.637
 6739SOL    HW221117   4.001   6.591   5.485
 6740SOL     OW21118   5.477   2.053   5.975
 6740SOL    HW121119   5.461   2.116   6.052
 6740SOL    HW221120   5.469   2.103   5.889
 6741SOL     OW21121   0.237   0.795   5.563
 6741SOL    HW121122   0.208   0.891   5.563
 6741SOL    HW221123   0.282   0.774   5.477
 6742SOL     OW21124   6.239   5.704   4.736
 6742SOL    HW121125   6.318   5.694   4.796
 6742SOL    HW221126   6.268   5.744   4.649
 6743SOL     OW21127   5.743   2.419   1.338
 6743SOL    HW121128   5.684   2.478   1.394
 6743SOL    HW221129   5.829   2.466   1.321
 6744SOL     OW21130   4.619   0.321   4.208
 6744SOL    HW121131   4.644   0.336   4.303
 6744SOL    HW221132   4.644   0.228   4.181
 6745SOL     OW21133   0.532   3.434   3.360
 6745SOL    HW121134   0.527   3.498   3.284
 6745SOL    HW221135   0.539   3.340   3.325
 6746SOL     OW21136   6.325   1.030   0.530
 6746SOL    HW121137   6.227   1.012   0.524
 6746SOL    HW221138   6.374   0.943   0.541
 6747SOL     OW21139   4.564   5.420   6.864
 6747SOL    HW121140   4.595   5.462   6.779
 6747SOL    HW221141   4.506   5.485   6.914
 6748SOL     OW21142   6.761   6.527   2.179
 6748SOL    HW121143   6.763   6.432   2.209
 6748SOL    HW221144   6.670   6.550   2.145
 6749SOL     OW21145   2.655   5.328   1.179
 6749SOL    HW121146   2.743   5.357   1.142
 6749SOL    HW221147   2.669   5.253   1.244
 6750SOL     OW21148   2.280   3.101   5.342
 6750SOL    HW121149   2.189   3.083   5.304
 6750SOL    HW221150   2.349   3.053   5.288
 6751SOL     OW21151   4.299   2.104   5.814
 6751SOL    HW121152   4.305   2.121   5.913
 6751SOL    HW221153   4.207   2.074   5.791
 6752SOL     OW21154   0.047   1.488   0.105
 6752SOL    HW121155   0.067   1.475   0.202
 6752SOL    HW221156   7.010   1.570   0.093
 6753SOL     OW21157   6.504   1.078   6.835
 6753SOL    HW121158   6.576   1.148   6.834
 6753SOL    HW221159   6.545   0.989   6.815
 6754SOL     OW21160   4.633   0.776   6.878
 6754SOL    HW121161   4.731   0.755   6.876
 6754SOL    HW221162   4.606   0.815   6.790
 6755SOL     OW21163   5.220   1.571   3.221
 6755SOL    HW121164   5.166   1.654   3.202
 6755SOL    HW221165   5.304   1.574   3.168
 6756SOL     OW21166   4.706   4.789   3.665
 6756SOL    HW121167   4.748   4.704   3.632
 6756SOL    HW221168   4.777   4.853   3.692
 6757SOL     OW21169   6.087   4.422   1.210
 6757SOL    HW121170   5.998   4.393   1.174
 6757SOL    HW221171   6.099   4.520   1.195
 6758SOL     OW21172   6.701   2.314   2.529
 6758SOL    HW121173   6.626   2.364   2.487
 6758SOL    HW221174   6.669   2.224   2.559
 6759SOL     OW21175   0.894   5.231   3.616
 6759SOL    HW121176   0.857   5.142   3.589
 6759SOL    HW221177   0.818   5.291   3.643
 6760SOL     OW21178   0.062   3.534   4.968
 6760SOL    HW121179   7.005   3.598   4.959
 6760SOL    HW221180   0.139   3.579   5.013
 6761SOL     OW21181   6.087   3.005   6.522
 6761SOL    HW121182   6.106   2.929   6.460
 6761SOL    HW221183   6.054   2.969   6.610
 6762SOL     OW21184   0.536   3.229   4.246
 6762SOL    HW121185   0.455   3.183   4.209
 6762SOL    HW221186   0.528   3.327   4.230
 6763SOL     OW21187   6.303   6.468   5.680
 6763SOL    HW121188   6.259   6.555   5.701
 6763SOL    HW221189   6.258   6.425   5.602
 6764SOL     OW21190   1.579   3.798   0.138
 6764SOL    HW121191   1.629   3.880   0.165
 6764SOL    HW221192   1.567   3.739   0.218
 6765SOL     OW21193   4.830   4.943   2.181
 6765SOL    HW121194   4.886   4.973   2.103
 6765SOL    HW221195   4.889   4.922   2.258
 6766SOL     OW21196   2.850   2.614   5.582
 6766SOL    HW121197   2.906   2.635   5.502
 6766SOL    HW221198   2.761   2.659   5.574
 6767SOL     OW21199   0.716   2.926   5.729
 6767SOL    HW121200   0.728   3.024   5.745
 6767SOL    HW221201   0.654   2.888   5.797
 6768SOL     OW21202   6.968   0.872   5.879
 6768SOL    HW121203   7.006   0.964   5.873
 6768SOL    HW221204   6.934   0.856   5.972
 6769SOL     OW21205   1.252   2.367   6.089
 6769SOL    HW121206   1.165   2.317   6.079
 6769SOL    HW221207   1.237   2.449   6.144
 6770SOL     OW21208   0.424   1.547   3.369
 6770SOL    HW121209   0.392   1.557   3.275
 6770SOL    HW221210   0.503   1.485   3.371
 6771SOL     OW21211   5.568   2.329   2.568
 6771SOL    HW121212   5.644   2.393   2.568
 6771SOL    HW221213   5.483   2.378   2.586
 6772SOL     OW21214   0.985   0.657   1.866
 6772SOL    HW121215   1.084   0.665   1.855
 6772SOL    HW221216   0.939   0.701   1.789
 6773SOL     OW21217   1.658   0.918   3.107
 6773SOL    HW121218   1.697   0.973   3.181
 6773SOL    HW221219   1.644   0.975   3.027
 6774SOL     OW21220   3.923   1.394   5.222
 6774SOL    HW121221   3.832   1.383   5.182
 6774SOL    HW221222   3.922   1.360   5.316
 6775SOL     OW21223   1.651   2.389   4.825
 6775SOL    HW121224   1.573   2.448   4.805
 6775SOL    HW221225   1.661   2.380   4.924
 6776SOL     OW21226   3.510   3.905   3.957
 6776SOL    HW121227   3.445   3.940   3.890
 6776SOL    HW221228   3.526   3.975   4.027
 6777SOL     OW21229   0.248   0.449   5.709
 6777SOL    HW121230   0.188   0.370   5.700
 6777SOL    HW221231   0.196   0.533   5.693
 6778SOL     OW21232   6.292   5.732   2.029
 6778SOL    HW121233   6.221   5.673   2.068
 6778SOL    HW221234   6.273   5.748   1.932
 6779SOL     OW21235   5.305   3.989   6.176
 6779SOL    HW121236   5.245   3.910   6.186
 6779SOL    HW221237   5.382   3.981   6.239
 6780SOL     OW21238   4.934   0.970   2.606
 6780SOL    HW121239   5.004   0.960   2.677
 6780SOL    HW221240   4.845   0.946   2.645
 6781SOL     OW21241   5.934   4.061   3.209
 6781SOL    HW121242   6.012   4.003   3.232
 6781SOL    HW221243   5.923   4.132   3.278
 6782SOL     OW21244   0.479   1.632   2.768
 6782SOL    HW121245   0.381   1.618   2.779
 6782SOL    HW221246   0.529   1.566   2.823
 6783SOL     OW21247   0.517   6.166   6.799
 6783SOL    HW121248   0.446   6.158   6.868
 6783SOL    HW221249   0.485   6.226   6.725
 6784SOL     OW21250   1.600   4.872   6.441
 6784SOL    HW121251   1.675   4.927   6.403
 6784SOL    HW221252   1.577   4.906   6.531
 6785SOL     OW21253   5.333   4.118   2.176
 6785SOL    HW121254   5.430   4.103   2.199
 6785SOL    HW221255   5.291   4.176   2.246
 6786SOL     OW21256   6.362   1.352   5.598
 6786SOL    HW121257   6.342   1.326   5.692
 6786SOL    HW221258   6.387   1.449   5.595
 6787SOL     OW21259   4.035   2.612   1.066
 6787SOL    HW121260   4.028   2.513   1.083
 6787SOL    HW221261   3.986   2.635   0.981
 6788SOL     OW21262   1.423   4.453   0.893
 6788SOL    HW121263   1.388   4.545   0.908
 6788SOL    HW221264   1.418   4.400   0.978
 6789SOL     OW21265   6.236   2.714   2.451
 6789SOL    HW121266   6.149   2.746   2.413
 6789SOL    HW221267   6.226   2.696   2.548
 6790SOL     OW21268   0.610   5.734   0.492
 6790SOL    HW121269   0.540   5.788   0.447
 6790SOL    HW221270   0.587   5.636   0.486
 6791SOL     OW21271   1.873   6.072   3.873
 6791SOL    HW121272   1.831   6.124   3.799
 6791SOL    HW221273   1.867   5.975   3.853
 6792SOL     OW21274   3.492   5.976   0.043
 6792SOL    HW121275   3.445   6.003   6.978
 6792SOL    HW221276   3.590   5.970   0.026
 6793SOL     OW21277   1.846   3.614   6.699
 6793SOL    HW121278   1.802   3.611   6.789
 6793SOL    HW221279   1.945   3.628   6.711
 6794SOL     OW21280   4.748   2.462   4.173
 6794SOL    HW121281   4.723   2.523   4.098
 6794SOL    HW221282   4.684   2.385   4.175
 6795SOL     OW21283   0.868   0.713   2.155
 6795SOL    HW121284   0.819   0.799   2.166
 6795SOL    HW221285   0.899   0.704   2.061
 6796SOL     OW21286   6.803   2.866   1.961
 6796SOL    HW121287   6.866   2.897   2.033
 6796SOL    HW221288   6.735   2.804   2.001
 6797SOL     OW21289   1.651   3.460   0.564
 6797SOL    HW121290   1.672   3.363   0.550
 6797SOL    HW221291   1.593   3.470   0.645
 6798SOL     OW21292   5.143   2.020   1.542
 6798SOL    HW121293   5.053   1.977   1.540
 6798SOL    HW221294   5.192   1.999   1.457
 6799SOL     OW21295   4.920   0.008   2.796
 6799SOL    HW121296   5.020   0.005   2.787
 6799SOL    HW221297   4.895   0.067   2.873
 6800SOL     OW21298   6.416   2.951   2.351
 6800SOL    HW121299   6.375   2.862   2.371
 6800SOL    HW221300   6.515   2.941   2.342
 6801SOL     OW21301   1.997   5.167   5.362
 6801SOL    HW121302   2.082   5.118   5.344
 6801SOL    HW221303   1.983   5.237   5.291
 6802SOL     OW21304   2.773   4.508   1.605
 6802SOL    HW121305   2.795   4.419   1.565
 6802SOL    HW221306   2.790   4.506   1.703
 6803SOL     OW21307   6.134   5.469   6.398
 6803SOL    HW121308   6.215   5.498   6.449
 6803SOL    HW221309   6.161   5.406   6.325
 6804SOL     OW21310   3.366   4.936   1.809
 6804SOL    HW121311   3.441   4.876   1.782
 6804SOL    HW221312   3.378   4.963   1.904
 6805SOL     OW21313   0.381   3.833   4.286
 6805SOL    HW121314   0.347   3.837   4.192
 6805SOL    HW221315   0.343   3.910   4.338
 6806SOL     OW21316   6.079   3.604   2.162
 6806SOL    HW121317   6.125   3.518   2.187
 6806SOL    HW221318   5.994   3.583   2.115
 6807SOL     OW21319   4.119   3.211   2.608
 6807SOL    HW121320   4.047   3.227   2.541
 6807SOL    HW221321   4.202   3.182   2.562
 6808SOL     OW21322   3.279   6.116   4.051
 6808SOL    HW121323   3.238   6.123   4.142
 6808SOL    HW221324   3.367   6.163   4.050
 6809SOL     OW21325   5.997   2.839   0.685
 6809SOL    HW121326   5.919   2.793   0.727
 6809SOL    HW221327   6.077   2.831   0.745
 6810SOL     OW21328   3.234   0.132   4.654
 6810SOL    HW121329   3.190   0.117   4.565
 6810SOL    HW221330   3.295   0.056   4.674
 6811SOL     OW21331   6.520   1.794   1.090
 6811SOL    HW121332   6.541   1.697   1.108
 6811SOL    HW221333   6.546   1.817   0.997
 6812SOL     OW21334   3.258   4.519   5.474
 6812SOL    HW121335   3.198   4.489   5.400
 6812SOL    HW221336   3.345   4.472   5.468
 6813SOL     OW21337   6.981   4.145   2.295
 6813SOL    HW121338   6.953   4.187   2.208
 6813SOL    HW221339   6.997   4.048   2.281
 6814SOL     OW21340   4.426   2.449   1.454
 6814SOL    HW121341   4.436   2.476   1.549
 6814SOL    HW221342   4.509   2.473   1.403
 6815SOL     OW21343   1.506   5.671   0.939
 6815SOL    HW121344   1.473   5.733   0.868
 6815SOL    HW221345   1.600   5.697   0.964
 6816SOL     OW21346   5.675   6.969   3.625
 6816SOL    HW121347   5.714   0.001   3.548
 6816SOL    HW221348   5.578   6.952   3.608
 6817SOL     OW21349   6.088   0.484   1.419
 6817SOL    HW121350   6.003   0.431   1.426
 6817SOL    HW221351   6.148   0.460   1.496
 6818SOL     OW21352   6.858   0.217   5.430
 6818SOL    HW121353   6.872   0.284   5.357
 6818SOL    HW221354   6.775   0.165   5.412
 6819SOL     OW21355   5.784   3.578   0.568
 6819SOL    HW121356   5.756   3.600   0.661
 6819SOL    HW221357   5.816   3.662   0.523
 6820SOL     OW21358   2.186   4.668   0.716
 6820SOL    HW121359   2.246   4.615   0.655
 6820SOL    HW221360   2.231   4.680   0.804
 6821SOL     OW21361   2.674   3.227   5.976
 6821SOL    HW121362   2.635   3.314   5.948
 6821SOL    HW221363   2.622   3.190   6.054
 6822SOL     OW21364   7.016   4.096   5.178
 6822SOL    HW121365   7.012   4.139   5.087
 6822SOL    HW221366   6.931   4.047   5.195
 6823SOL     OW21367   6.434   3.204   5.703
 6823SOL    HW121368   6.398   3.245   5.619
 6823SOL    HW221369   6.505   3.138   5.679
 6824SOL     OW21370   0.525   0.284   3.855
 6824SOL    HW121371   0.447   0.287   3.792
 6824SOL    HW221372   0.589   0.214   3.825
 6825SOL     OW21373   5.020   4.732   1.871
 6825SOL    HW121374   5.013   4.663   1.799
 6825SOL    HW221375   4.995   4.822   1.834
 6826SOL     OW21376   5.679   0.867   3.907
 6826SOL    HW121377   5.585   0.837   3.927
 6826SOL    HW221378   5.684   0.899   3.813
 6827SOL     OW21379   5.174   4.879   5.199
 6827SOL    HW121380   5.153   4.943   5.274
 6827SOL    HW221381   5.178   4.786   5.235
 6828SOL     OW21382   2.412   2.176   2.348
 6828SOL    HW121383   2.430   2.207   2.255
 6828SOL    HW221384   2.406   2.076   2.350
 6829SOL     OW21385   5.502   0.148   4.263
 6829SOL    HW121386   5.460   0.174   4.350
 6829SOL    HW221387   5.463   0.204   4.190
 6830SOL     OW21388   3.741   6.305   2.274
 6830SOL    HW121389   3.685   6.224   2.255
 6830SOL    HW221390   3.687   6.387   2.260
 6831SOL     OW21391   2.455   0.423   0.339
 6831SOL    HW121392   2.364   0.452   0.308
 6831SOL    HW221393   2.522   0.494   0.316
 6832SOL     OW21394   3.506   3.306   0.464
 6832SOL    HW121395   3.470   3.252   0.540
 6832SOL    HW221396   3.528   3.398   0.496
 6833SOL     OW21397   4.695   5.161   0.210
 6833SOL    HW121398   4.733   5.082   0.257
 6833SOL    HW221399   4.764   5.234   0.207
 6834SOL     OW21400   6.394   5.577   5.337
 6834SOL    HW121401   6.455   5.510   5.295
 6834SOL    HW221402   6.307   5.533   5.361
 6835SOL     OW21403   4.274   0.268   2.855
 6835SOL    HW121404   4.299   0.261   2.758
 6835SOL    HW221405   4.256   0.177   2.891
 6836SOL     OW21406   0.836   4.874   6.643
 6836SOL    HW121407   0.797   4.881   6.552
 6836SOL    HW221408   0.912   4.939   6.652
 6837SOL     OW21409   6.399   2.517   1.780
 6837SOL    HW121410   6.372   2.446   1.715
 6837SOL    HW221411   6.320   2.572   1.804
 6838SOL     OW21412   1.972   3.870   0.030
 6838SOL    HW121413   1.985   3.963   0.064
 6838SOL    HW221414   1.898   3.869   6.981
 6839SOL     OW21415   6.127   2.064   5.602
 6839SOL    HW121416   6.101   2.074   5.506
 6839SOL    HW221417   6.071   1.992   5.644
 6840SOL     OW21418   3.315   0.548   4.311
 6840SOL    HW121419   3.261   0.545   4.227
 6840SOL    HW221420   3.272   0.491   4.381
 6841SOL     OW21421   4.709   5.678   0.809
 6841SOL    HW121422   4.694   5.774   0.833
 6841SOL    HW221423   4.728   5.625   0.892
 6842SOL     OW21424   1.013   3.462   3.401
 6842SOL    HW121425   0.954   3.482   3.323
 6842SOL    HW221426   0.960   3.467   3.485
 6843SOL     OW21427   4.632   3.001   1.661
 6843SOL    HW121428   4.650   2.989   1.758
 6843SOL    HW221429   4.701   2.950   1.609
 6844SOL     OW21430   3.446   6.722   4.518
 6844SOL    HW121431   3.357   6.748   4.479
 6844SOL    HW221432   3.514   6.792   4.494
 6845SOL     OW21433   3.365   3.941   6.953
 6845SOL    HW121434   3.369   3.842   6.938
 6845SOL    HW221435   3.439   3.968   7.016
 6846SOL     OW21436   3.631   2.962   4.158
 6846SOL    HW121437   3.689   2.950   4.238
 6846SOL    HW221438   3.536   2.938   4.181
 6847SOL     OW21439   5.378   3.762   2.287
 6847SOL    HW121440   5.365   3.787   2.191
 6847SOL    HW221441   5.293   3.725   2.324
 6848SOL     OW21442   0.777   5.825   4.609
 6848SOL    HW121443   0.839   5.778   4.671
 6848SOL    HW221444   0.690   5.777   4.604
 6849SOL     OW21445   3.218   0.358   5.096
 6849SOL    HW121446   3.274   0.312   5.027
 6849SOL    HW221447   3.128   0.314   5.100
 6850SOL     OW21448   6.614   3.253   1.873
 6850SOL    HW121449   6.543   3.276   1.807
 6850SOL    HW221450   6.580   3.270   1.966
 6851SOL     OW21451   1.862   5.631   0.603
 6851SOL    HW121452   1.916   5.550   0.583
 6851SOL    HW221453   1.791   5.607   0.670
 6852SOL     OW21454   5.491   4.697   2.300
 6852SOL    HW121455   5.538   4.763   2.241
 6852SOL    HW221456   5.402   4.734   2.328
 6853SOL     OW21457   6.546   4.174   4.496
 6853SOL    HW121458   6.477   4.247   4.499
 6853SOL    HW221459   6.507   4.091   4.535
 6854SOL     OW21460   6.120   1.090   6.628
 6854SOL    HW121461   6.195   1.155   6.639
 6854SOL    HW221462   6.033   1.136   6.645
 6855SOL     OW21463   2.995   6.857   2.075
 6855SOL    HW121464   2.912   6.902   2.110
 6855SOL    HW221465   3.075   6.911   2.101
 6856SOL     OW21466   0.784   5.137   5.456
 6856SOL    HW121467   0.697   5.175   5.488
 6856SOL    HW221468   0.833   5.206   5.403
 6857SOL     OW21469   4.699   0.768   0.232
 6857SOL    HW121470   4.634   0.751   0.306
 6857SOL    HW221471   4.736   0.860   0.240
 6858SOL     OW21472   3.448   2.598   6.197
 6858SOL    HW121473   3.505   2.582   6.117
 6858SOL    HW221474   3.363   2.547   6.189
 6859SOL     OW21475   4.441   0.705   0.965
 6859SOL    HW121476   4.432   0.740   0.872
 6859SOL    HW221477   4.376   0.750   1.026
 6860SOL     OW21478   4.669   3.180   0.003
 6860SOL    HW121479   4.668   3.131   0.090
 6860SOL    HW221480   4.655   3.116   6.947
 6861SOL     OW21481   6.179   3.574   6.915
 6861SOL    HW121482   6.269   3.613   6.936
 6861SOL    HW221483   6.125   3.570   6.999
 6862SOL     OW21484   2.440   4.639   4.921
 6862SOL    HW121485   2.364   4.700   4.901
 6862SOL    HW221486   2.416   4.545   4.898
 6863SOL     OW21487   0.999   3.701   4.016
 6863SOL    HW121488   0.986   3.613   4.062
 6863SOL    HW221489   0.957   3.697   3.925
 6864SOL     OW21490   3.052   5.565   5.953
 6864SOL    HW121491   2.979   5.576   5.886
 6864SOL    HW221492   3.108   5.486   5.929
 6865SOL     OW21493   1.326   2.623   5.262
 6865SOL    HW121494   1.359   2.702   5.314
 6865SOL    HW221495   1.270   2.565   5.322
 6866SOL     OW21496   0.818   3.858   2.368
 6866SOL    HW121497   0.764   3.854   2.453
 6866SOL    HW221498   0.760   3.833   2.291
 6867SOL     OW21499   2.544   5.204   3.499
 6867SOL    HW121500   2.462   5.239   3.544
 6867SOL    HW221501   2.624   5.254   3.531
 6868SOL     OW21502   2.030   5.779   4.879
 6868SOL    HW121503   2.015   5.789   4.978
 6868SOL    HW221504   2.127   5.792   4.858
 6869SOL     OW21505   0.534   2.720   4.855
 6869SOL    HW121506   0.494   2.811   4.842
 6869SOL    HW221507   0.488   2.674   4.930
 6870SOL     OW21508   5.705   4.266   2.966
 6870SOL    HW121509   5.711   4.170   2.992
 6870SOL    HW221510   5.761   4.322   3.027
 6871SOL     OW21511   4.089   5.810   1.663
 6871SOL    HW121512   4.030   5.798   1.743
 6871SOL    HW221513   4.124   5.903   1.661
 6872SOL     OW21514   3.368   4.380   0.671
 6872SOL    HW121515   3.301   4.416   0.606
 6872SOL    HW221516   3.380   4.282   0.657
 6873SOL     OW21517   5.576   5.007   5.426
 6873SOL    HW121518   5.592   5.042   5.334
 6873SOL    HW221519   5.637   4.929   5.443
 6874SOL     OW21520   1.004   1.959   6.385
 6874SOL    HW121521   1.046   2.010   6.460
 6874SOL    HW221522   1.041   1.867   6.382
 6875SOL     OW21523   3.923   0.482   5.087
 6875SOL    HW121524   3.927   0.553   5.157
 6875SOL    HW221525   3.835   0.487   5.040
 6876SOL     OW21526   3.190   6.197   4.330
 6876SOL    HW121527   3.106   6.142   4.335
 6876SOL    HW221528   3.208   6.238   4.419
 6877SOL     OW21529   2.344   3.576   6.967
 6877SOL    HW121530   2.351   3.549   6.872
 6877SOL    HW221531   2.392   3.510   0.006
 6878SOL     OW21532   1.434   1.530   5.002
 6878SOL    HW121533   1.437   1.503   5.098
 6878SOL    HW221534   1.488   1.613   4.988
 6879SOL     OW21535   6.367   1.267   5.318
 6879SOL    HW121536   6.376   1.261   5.417
 6879SOL    HW221537   6.351   1.362   5.291
 6880SOL     OW21538   1.178   4.708   4.531
 6880SOL    HW121539   1.267   4.740   4.564
 6880SOL    HW221540   1.141   4.774   4.465
 6881SOL     OW21541   5.207   5.815   1.264
 6881SOL    HW121542   5.150   5.750   1.315
 6881SOL    HW221543   5.169   5.907   1.273
 6882SOL     OW21544   2.417   6.088   5.387
 6882SOL    HW121545   2.481   6.107   5.313
 6882SOL    HW221546   2.407   6.169   5.444
 6883SOL     OW21547   2.778   6.147   2.017
 6883SOL    HW121548   2.850   6.152   1.948
 6883SOL    HW221549   2.819   6.119   2.105
 6884SOL     OW21550   2.031   4.567   2.708
 6884SOL    HW121551   2.091   4.645   2.692
 6884SOL    HW221552   2.044   4.534   2.802
 6885SOL     OW21553   4.281   4.776   4.861
 6885SOL    HW121554   4.183   4.797   4.860
 6885SOL    HW221555   4.301   4.712   4.936
 6886SOL     OW21556   5.366   0.313   1.391
 6886SOL    HW121557   5.452   0.328   1.439
 6886SOL    HW221558   5.290   0.321   1.456
 6887SOL     OW21559   6.160   1.088   4.782
 6887SOL    HW121560   6.239   1.136   4.820
 6887SOL    HW221561   6.192   1.012   4.725
 6888SOL     OW21562   6.301   0.241   3.712
 6888SOL    HW121563   6.314   0.335   3.743
 6888SOL    HW221564   6.225   0.199   3.761
 6889SOL     OW21565   2.010   3.965   6.374
 6889SOL    HW121566   1.926   3.942   6.324
 6889SOL    HW221567   2.064   3.882   6.387
 6890SOL     OW21568   1.136   0.472   1.296
 6890SOL    HW121569   1.069   0.399   1.283
 6890SOL    HW221570   1.208   0.464   1.227
 6891SOL     OW21571   4.123   4.549   5.847
 6891SOL    HW121572   4.153   4.513   5.936
 6891SOL    HW221573   4.201   4.588   5.799
 6892SOL     OW21574   3.301   2.044   4.159
 6892SOL    HW121575   3.354   2.044   4.244
 6892SOL    HW221576   3.362   2.029   4.081
 6893SOL     OW21577   5.034   6.958   1.611
 6893SOL    HW121578   5.024   0.037   1.624
 6893SOL    HW221579   5.108   6.924   1.669
 6894SOL     OW21580   6.060   4.779   5.725
 6894SOL    HW121581   6.077   4.867   5.769
 6894SOL    HW221582   6.030   4.713   5.794
 6895SOL     OW21583   4.416   5.152   5.459
 6895SOL    HW121584   4.467   5.172   5.542
 6895SOL    HW221585   4.438   5.221   5.389
 6896SOL     OW21586   5.311   2.037   1.909
 6896SOL    HW121587   5.259   1.954   1.930
 6896SOL    HW221588   5.304   2.101   1.986
 6897SOL     OW21589   4.020   1.006   1.441
 6897SOL    HW121590   4.044   1.093   1.485
 6897SOL    HW221591   4.074   0.995   1.357
 6898SOL     OW21592   3.413   1.192   1.948
 6898SOL    HW121593   3.496   1.139   1.932
 6898SOL    HW221594   3.397   1.254   1.871
 6899SOL     OW21595   5.819   4.816   5.997
 6899SOL    HW121596   5.778   4.874   5.928
 6899SOL    HW221597   5.822   4.864   6.085
 6900SOL     OW21598   4.068   6.983   6.325
 6900SOL    HW121599   4.046   6.919   6.252
 6900SOL    HW221600   4.137   6.942   6.386
 6901SOL     OW21601   1.993   0.302   0.326
 6901SOL    HW121602   2.070   0.360   0.299
 6901SOL    HW221603   1.978   0.232   0.257
 6902SOL     OW21604   6.838   5.815   2.513
 6902SOL    HW121605   6.858   5.825   2.610
 6902SOL    HW221606   6.849   5.903   2.467
 6903SOL     OW21607   5.834   4.478   0.176
 6903SOL    HW121608   5.914   4.441   0.223
 6903SOL    HW221609   5.753   4.425   0.200
 6904SOL     OW21610   0.454   1.118   3.108
 6904SOL    HW121611   0.365   1.079   3.085
 6904SOL    HW221612   0.451   1.217   3.094
 6905SOL     OW21613   3.794   5.366   0.621
 6905SOL    HW121614   3.789   5.346   0.523
 6905SOL    HW221615   3.885   5.342   0.655
 6906SOL     OW21616   5.987   6.344   2.531
 6906SOL    HW121617   6.000   6.289   2.613
 6906SOL    HW221618   5.907   6.404   2.542
 6907SOL     OW21619   3.502   0.383   1.538
 6907SOL    HW121620   3.454   0.449   1.596
 6907SOL    HW221621   3.493   0.409   1.442
 6908SOL     OW21622   5.232   6.578   6.890
 6908SOL    HW121623   5.278   6.649   6.943
 6908SOL    HW221624   5.301   6.521   6.844
 6909SOL     OW21625   2.349   1.757   0.243
 6909SOL    HW121626   2.404   1.840   0.247
 6909SOL    HW221627   2.371   1.698   0.321
 6910SOL     OW21628   5.045   1.150   0.930
 6910SOL    HW121629   4.971   1.091   0.962
 6910SOL    HW221630   5.107   1.169   1.006
 6911SOL     OW21631   3.828   0.121   4.721
 6911SOL    HW121632   3.729   0.129   4.713
 6911SOL    HW221633   3.869   0.212   4.719
 6912SOL     OW21634   3.972   5.295   1.699
 6912SOL    HW121635   3.941   5.280   1.793
 6912SOL    HW221636   3.897   5.272   1.636
 6913SOL     OW21637   4.976   5.558   5.605
 6913SOL    HW121638   4.909   5.605   5.548
 6913SOL    HW221639   5.068   5.575   5.570
 6914SOL     OW21640   6.841   4.837   0.310
 6914SOL    HW121641   6.866   4.932   0.331
 6914SOL    HW221642   6.903   4.801   0.240
 6915SOL     OW21643   0.602   6.731   0.651
 6915SOL    HW121644   0.570   6.819   0.687
 6915SOL    HW221645   0.573   6.721   0.556
 6916SOL     OW21646   5.971   1.304   5.419
 6916SOL    HW121647   5.927   1.316   5.508
 6916SOL    HW221648   6.040   1.231   5.426
 6917SOL     OW21649   4.516   6.503   5.663
 6917SOL    HW121650   4.446   6.554   5.611
 6917SOL    HW221651   4.473   6.457   5.740
 6918SOL     OW21652   2.010   2.675   3.377
 6918SOL    HW121653   2.087   2.644   3.432
 6918SOL    HW221654   2.017   2.637   3.285
 6919SOL     OW21655   1.485   5.978   3.209
 6919SOL    HW121656   1.512   6.046   3.276
 6919SOL    HW221657   1.417   5.916   3.250
 6920SOL     OW21658   5.513   5.540   4.239
 6920SOL    HW121659   5.495   5.526   4.337
 6920SOL    HW221660   5.427   5.554   4.191
 6921SOL     OW21661   1.517   5.181   3.241
 6921SOL    HW121662   1.457   5.226   3.174
 6921SOL    HW221663   1.470   5.102   3.281
 6922SOL     OW21664   2.459   6.515   1.499
 6922SOL    HW121665   2.376   6.487   1.547
 6922SOL    HW221666   2.451   6.609   1.468
 6923SOL     OW21667   5.049   5.298   3.781
 6923SOL    HW121668   4.950   5.287   3.781
 6923SOL    HW221669   5.083   5.295   3.875
 6924SOL     OW21670   5.760   5.703   1.948
 6924SOL    HW121671   5.846   5.653   1.960
 6924SOL    HW221672   5.687   5.657   1.998
 6925SOL     OW21673   4.993   5.398   2.593
 6925SOL    HW121674   4.983   5.475   2.529
 6925SOL    HW221675   4.977   5.312   2.544
 6926SOL     OW21676   2.711   3.820   5.587
 6926SOL    HW121677   2.791   3.880   5.595
 6926SOL    HW221678   2.650   3.856   5.517
 6927SOL     OW21679   3.810   3.880   0.679
 6927SOL    HW121680   3.886   3.915   0.624
 6927SOL    HW221681   3.788   3.945   0.752
 6928SOL     OW21682   6.661   0.563   6.955
 6928SOL    HW121683   6.637   0.622   6.878
 6928SOL    HW221684   6.595   0.488   6.961
 6929SOL     OW21685   3.632   5.504   1.752
 6929SOL    HW121686   3.621   5.462   1.661
 6929SOL    HW221687   3.572   5.458   1.817
 6930SOL     OW21688   0.388   0.545   2.765
 6930SOL    HW121689   0.296   0.510   2.780
 6930SOL    HW221690   0.453   0.469   2.761
 6931SOL     OW21691   2.947   0.077   0.625
 6931SOL    HW121692   2.881   0.010   0.592
 6931SOL    HW221693   2.945   0.079   0.725
 6932SOL     OW21694   2.921   2.037   0.467
 6932SOL    HW121695   2.968   2.098   0.530
 6932SOL    HW221696   2.951   2.056   0.373
 6933SOL     OW21697   3.005   6.431   5.130
 6933SOL    HW121698   2.987   6.517   5.177
 6933SOL    HW221699   2.930   6.367   5.149
 6934SOL     OW21700   5.279   4.759   6.360
 6934SOL    HW121701   5.360   4.702   6.346
 6934SOL    HW221702   5.287   4.806   6.448
 6935SOL     OW21703   4.172   5.716   3.204
 6935SOL    HW121704   4.204   5.625   3.179
 6935SOL    HW221705   4.250   5.771   3.234
 6936SOL     OW21706   0.641   4.585   0.939
 6936SOL    HW121707   0.681   4.640   1.012
 6936SOL    HW221708   0.542   4.584   0.948
 6937SOL     OW21709   4.270   5.902   6.030
 6937SOL    HW121710   4.204   5.929   6.100
 6937SOL    HW221711   4.248   5.810   5.997
 6938SOL     OW21712   6.388   2.521   5.648
 6938SOL    HW121713   6.459   2.589   5.633
 6938SOL    HW221714   6.357   2.485   5.560
 6939SOL     OW21715   6.704   4.997   1.453
 6939SOL    HW121716   6.726   5.006   1.550
 6939SOL    HW221717   6.683   4.902   1.432
 6940SOL     OW21718   4.319   0.792   4.493
 6940SOL    HW121719   4.376   0.821   4.570
 6940SOL    HW221720   4.377   0.767   4.416
 6941SOL     OW21721   3.533   2.906   5.026
 6941SOL    HW121722   3.486   2.903   4.938
 6941SOL    HW221723   3.506   2.988   5.076
 6942SOL     OW21724   6.335   1.687   6.644
 6942SOL    HW121725   6.252   1.731   6.608
 6942SOL    HW221726   6.308   1.611   6.703
 6943SOL     OW21727   6.316   5.243   6.750
 6943SOL    HW121728   6.253   5.320   6.760
 6943SOL    HW221729   6.263   5.160   6.732
 6944SOL     OW21730   1.278   6.861   0.552
 6944SOL    HW121731   1.344   6.924   0.512
 6944SOL    HW221732   1.233   6.808   0.480
 6945SOL     OW21733   4.283   1.507   6.463
 6945SOL    HW121734   4.336   1.454   6.529
 6945SOL    HW221735   4.238   1.583   6.510
 6946SOL     OW21736   6.227   4.094   2.634
 6946SOL    HW121737   6.284   4.151   2.692
 6946SOL    HW221738   6.136   4.134   2.625
 6947SOL     OW21739   4.008   6.444   1.007
 6947SOL    HW121740   4.051   6.521   0.961
 6947SOL    HW221741   3.952   6.393   0.942
 6948SOL     OW21742   3.520   1.688   5.525
 6948SOL    HW121743   3.529   1.782   5.559
 6948SOL    HW221744   3.428   1.655   5.543
 6949SOL     OW21745   5.042   0.627   2.308
 6949SOL    HW121746   4.980   0.579   2.246
 6949SOL    HW221747   5.022   0.725   2.308
 6950SOL     OW21748   3.593   1.654   3.152
 6950SOL    HW121749   3.660   1.648   3.079
 6950SOL    HW221750   3.615   1.587   3.224
 6951SOL     OW21751   5.089   4.135   5.611
 6951SOL    HW121752   5.037   4.144   5.526
 6951SOL    HW221753   5.120   4.225   5.641
 6952SOL     OW21754   0.224   3.854   6.446
 6952SOL    HW121755   0.186   3.912   6.374
 6952SOL    HW221756   0.165   3.858   6.526
 6953SOL     OW21757   5.531   2.468   4.697
 6953SOL    HW121758   5.564   2.468   4.603
 6953SOL    HW221759   5.446   2.415   4.702
 6954SOL     OW21760   6.959   4.531   2.314
 6954SOL    HW121761   6.939   4.433   2.313
 6954SOL    HW221762   7.015   4.554   2.234
 6955SOL     OW21763   6.726   0.278   3.652
 6955SOL    HW121764   6.711   0.307   3.747
 6955SOL    HW221765   6.824   0.275   3.633
 6956SOL     OW21766   3.013   4.027   1.400
 6956SOL    HW121767   3.007   3.930   1.375
 6956SOL    HW221768   3.000   4.037   1.499
 6957SOL     OW21769   0.691   4.965   0.112
 6957SOL    HW121770   0.775   4.918   0.138
 6957SOL    HW221771   0.697   4.996   0.017
 6958SOL     OW21772   2.377   3.872   5.561
 6958SOL    HW121773   2.349   3.836   5.472
 6958SOL    HW221774   2.297   3.912   5.607
 6959SOL     OW21775   3.788   1.022   5.236
 6959SOL    HW121776   3.786   1.089   5.162
 6959SOL    HW221777   3.868   1.037   5.293
 6960SOL     OW21778   0.957   6.065   0.039
 6960SOL    HW121779   0.961   6.157   0.080
 6960SOL    HW221780   0.906   6.004   0.100
 6961SOL     OW21781   6.161   1.326   3.605
 6961SOL    HW121782   6.188   1.246   3.659
 6961SOL    HW221783   6.179   1.409   3.657
 6962SOL     OW21784   2.934   3.885   1.049
 6962SOL    HW121785   3.005   3.947   1.018
 6962SOL    HW221786   2.975   3.805   1.092
 6963SOL     OW21787   5.990   5.797   1.683
 6963SOL    HW121788   5.968   5.893   1.665
 6963SOL    HW221789   5.959   5.742   1.605
 6964SOL     OW21790   3.498   5.463   5.753
 6964SOL    HW121791   3.496   5.364   5.749
 6964SOL    HW221792   3.415   5.500   5.712
 6965SOL     OW21793   6.244   1.925   5.946
 6965SOL    HW121794   6.267   1.872   5.864
 6965SOL    HW221795   6.149   1.909   5.970
 6966SOL     OW21796   4.939   1.645   3.970
 6966SOL    HW121797   4.988   1.578   3.914
 6966SOL    HW221798   4.994   1.668   4.051
 6967SOL     OW21799   3.179   2.725   6.062
 6967SOL    HW121800   3.090   2.691   6.032
 6967SOL    HW221801   3.252   2.669   6.023
 6968SOL     OW21802   4.179   0.140   4.174
 6968SOL    HW121803   4.251   0.208   4.185
 6968SOL    HW221804   4.124   0.162   4.093
 6969SOL     OW21805   3.292   3.313   0.946
 6969SOL    HW121806   3.375   3.365   0.964
 6969SOL    HW221807   3.313   3.215   0.951
 6970SOL     OW21808   5.255   4.315   0.615
 6970SOL    HW121809   5.297   4.280   0.532
 6970SOL    HW221810   5.160   4.285   0.620
 6971SOL     OW21811   6.362   1.687   2.547
 6971SOL    HW121812   6.360   1.786   2.533
 6971SOL    HW221813   6.456   1.659   2.569
 6972SOL     OW21814   4.896   5.184   4.228
 6972SOL    HW121815   4.915   5.231   4.314
 6972SOL    HW221816   4.866   5.091   4.247
 6973SOL     OW21817   0.968   4.404   4.198
 6973SOL    HW121818   0.977   4.305   4.194
 6973SOL    HW221819   1.055   4.444   4.227
 6974SOL     OW21820   3.785   4.156   5.351
 6974SOL    HW121821   3.689   4.131   5.364
 6974SOL    HW221822   3.838   4.124   5.429
 6975SOL     OW21823   2.321   0.071   6.155
 6975SOL    HW121824   2.264   0.133   6.208
 6975SOL    HW221825   2.293   6.996   6.172
 6976SOL     OW21826   0.938   5.865   0.782
 6976SOL    HW121827   0.943   5.961   0.756
 6976SOL    HW221828   0.923   5.809   0.701
 6977SOL     OW21829   5.011   3.010   1.976
 6977SOL    HW121830   4.924   3.053   2.001
 6977SOL    HW221831   5.037   2.943   2.047
 6978SOL     OW21832   4.418   2.134   3.487
 6978SOL    HW121833   4.405   2.203   3.558
 6978SOL    HW221834   4.469   2.174   3.411
 6979SOL     OW21835   0.170   3.518   4.672
 6979SOL    HW121836   0.136   3.430   4.706
 6979SOL    HW221837   0.156   3.523   4.573
 6980SOL     OW21838   5.066   1.565   4.833
 6980SOL    HW121839   5.001   1.577   4.909
 6980SOL    HW221840   5.158   1.587   4.865
 6981SOL     OW21841   2.867   4.004   6.808
 6981SOL    HW121842   2.964   3.994   6.786
 6981SOL    HW221843   2.812   3.943   6.751
 6982SOL     OW21844   0.215   6.925   4.824
 6982SOL    HW121845   0.246   6.938   4.729
 6982SOL    HW221846   0.245   7.002   4.879
 6983SOL     OW21847   6.060   1.039   3.031
 6983SOL    HW121848   6.013   0.977   3.093
 6983SOL    HW221849   6.115   0.987   2.967
 6984SOL     OW21850   1.590   1.319   6.336
 6984SOL    HW121851   1.676   1.287   6.296
 6984SOL    HW221852   1.537   1.240   6.368
 6985SOL     OW21853   5.212   6.481   3.853
 6985SOL    HW121854   5.136   6.416   3.850
 6985SOL    HW221855   5.251   6.491   3.761
 6986SOL     OW21856   1.553   6.255   5.322
 6986SOL    HW121857   1.468   6.267   5.270
 6986SOL    HW221858   1.531   6.225   5.415
 6987SOL     OW21859   6.902   3.809   6.609
 6987SOL    HW121860   6.909   3.770   6.517
 6987SOL    HW221861   6.994   3.825   6.644
 6988SOL     OW21862   5.865   1.157   5.906
 6988SOL    HW121863   5.900   1.083   5.963
 6988SOL    HW221864   5.781   1.127   5.860
 6989SOL     OW21865   1.526   3.299   4.562
 6989SOL    HW121866   1.472   3.382   4.579
 6989SOL    HW221867   1.560   3.301   4.468
 6990SOL     OW21868   4.177   3.465   1.546
 6990SOL    HW121869   4.214   3.441   1.636
 6990SOL    HW221870   4.225   3.414   1.475
 6991SOL     OW21871   4.192   4.847   5.172
 6991SOL    HW121872   4.121   4.888   5.229
 6991SOL    HW221873   4.181   4.878   5.078
 6992SOL     OW21874   6.104   6.306   4.991
 6992SOL    HW121875   6.180   6.241   4.984
 6992SOL    HW221876   6.122   6.370   5.065
 6993SOL     OW21877   0.288   0.060   2.770
 6993SOL    HW121878   0.337   6.993   2.755
 6993SOL    HW221879   0.240   0.086   2.686
 6994SOL     OW21880   1.367   2.484   0.293
 6994SOL    HW121881   1.276   2.446   0.273
 6994SOL    HW221882   1.434   2.447   0.228
 6995SOL     OW21883   0.945   5.702   3.945
 6995SOL    HW121884   0.923   5.605   3.934
 6995SOL    HW221885   0.958   5.744   3.855
 6996SOL     OW21886   1.781   6.955   5.882
 6996SOL    HW121887   1.778   6.910   5.793
 6996SOL    HW221888   1.707   0.003   5.888
 6997SOL     OW21889   4.731   5.421   4.616
 6997SOL    HW121890   4.642   5.400   4.576
 6997SOL    HW221891   4.749   5.519   4.608
 6998SOL     OW21892   2.561   1.880   2.114
 6998SOL    HW121893   2.549   1.942   2.036
 6998SOL    HW221894   2.478   1.881   2.170
 6999SOL     OW21895   5.414   1.747   6.826
 6999SOL    HW121896   5.413   1.808   6.746
 6999SOL    HW221897   5.321   1.735   6.859
 7000SOL     OW21898   6.997   0.317   1.703
 7000SOL    HW121899   0.009   0.407   1.732
 7000SOL    HW221900   6.897   0.318   1.694
 7001SOL     OW21901   2.850   1.361   6.531
 7001SOL    HW121902   2.869   1.456   6.558
 7001SOL    HW221903   2.936   1.312   6.519
 7002SOL     OW21904   2.345   4.709   2.420
 7002SOL    HW121905   2.402   4.763   2.359
 7002SOL    HW221906   2.282   4.769   2.469
 7003SOL     OW21907   2.133   6.691   5.799
 7003SOL    HW121908   2.207   6.625   5.785
 7003SOL    HW221909   2.170   6.775   5.838
 7004SOL     OW21910   1.733   3.868   6.860
 7004SOL    HW121911   1.758   3.870   6.763
 7004SOL    HW221912   1.679   3.786   6.879
 7005SOL     OW21913   6.641   6.831   5.586
 7005SOL    HW121914   6.572   6.761   5.602
 7005SOL    HW221915   6.732   6.792   5.597
 7006SOL     OW21916   4.525   5.039   4.235
 7006SOL    HW121917   4.564   4.972   4.172
 7006SOL    HW221918   4.488   5.116   4.184
 7007SOL     OW21919   4.956   4.987   1.835
 7007SOL    HW121920   4.878   5.029   1.789
 7007SOL    HW221921   4.999   5.054   1.896
 7008SOL     OW21922   0.678   5.716   4.161
 7008SOL    HW121923   0.603   5.769   4.201
 7008SOL    HW221924   0.752   5.777   4.134
 7009SOL     OW21925   6.893   4.253   1.598
 7009SOL    HW121926   6.917   4.159   1.574
 7009SOL    HW221927   6.971   4.296   1.644
 7010SOL     OW21928   5.441   4.298   5.788
 7010SOL    HW121929   5.483   4.252   5.711
 7010SOL    HW221930   5.461   4.249   5.873
 7011SOL     OW21931   0.820   0.689   5.493
 7011SOL    HW121932   0.889   0.617   5.485
 7011SOL    HW221933   0.801   0.727   5.403
 7012SOL     OW21934   1.059   1.168   1.441
 7012SOL    HW121935   0.975   1.150   1.389
 7012SOL    HW221936   1.049   1.254   1.492
 7013SOL     OW21937   6.294   2.305   1.673
 7013SOL    HW121938   6.354   2.239   1.628
 7013SOL    HW221939   6.207   2.262   1.693
 7014SOL     OW21940   2.402   5.224   1.038
 7014SOL    HW121941   2.492   5.246   1.077
 7014SOL    HW221942   2.414   5.182   0.949
 7015SOL     OW21943   4.479   1.854   2.205
 7015SOL    HW121944   4.514   1.772   2.160
 7015SOL    HW221945   4.551   1.895   2.261
 7016SOL     OW21946   4.219   4.183   1.377
 7016SOL    HW121947   4.143   4.121   1.359
 7016SOL    HW221948   4.214   4.215   1.472
 7017SOL     OW21949   5.250   1.775   5.167
 7017SOL    HW121950   5.344   1.792   5.196
 7017SOL    HW221951   5.200   1.862   5.166
 7018SOL     OW21952   0.477   3.146   3.309
 7018SOL    HW121953   0.412   3.075   3.335
 7018SOL    HW221954   0.568   3.122   3.343
 7019SOL     OW21955   0.087   6.448   1.839
 7019SOL    HW121956   0.070   6.494   1.926
 7019SOL    HW221957   0.170   6.393   1.845
 7020SOL     OW21958   0.306   5.499   6.689
 7020SOL    HW121959   0.306   5.484   6.788
 7020SOL    HW221960   0.359   5.581   6.668
 7021SOL     OW21961   3.291   6.670   5.743
 7021SOL    HW121962   3.367   6.642   5.684
 7021SOL    HW221963   3.326   6.704   5.830
 7022SOL     OW21964   4.130   5.335   5.681
 7022SOL    HW121965   4.166   5.255   5.730
 7022SOL    HW221966   4.071   5.305   5.606
 7023SOL     OW21967   4.480   4.868   2.610
 7023SOL    HW121968   4.507   4.963   2.599
 7023SOL    HW221969   4.435   4.856   2.699
 7024SOL     OW21970   5.962   6.584   1.832
 7024SOL    HW121971   5.897   6.598   1.757
 7024SOL    HW221972   5.933   6.506   1.887
 7025SOL     OW21973   2.630   0.424   0.969
 7025SOL    HW121974   2.645   0.371   1.052
 7025SOL    HW221975   2.616   0.363   0.892
 7026SOL     OW21976   4.049   2.348   1.118
 7026SOL    HW121977   3.997   2.263   1.122
 7026SOL    HW221978   4.121   2.346   1.187
 7027SOL     OW21979   5.450   5.827   4.323
 7027SOL    HW121980   5.517   5.752   4.316
 7027SOL    HW221981   5.415   5.832   4.416
 7028SOL     OW21982   2.926   0.981   4.777
 7028SOL    HW121983   2.948   1.035   4.858
 7028SOL    HW221984   3.003   0.922   4.753
 7029SOL     OW21985   3.848   1.116   4.373
 7029SOL    HW121986   3.764   1.076   4.407
 7029SOL    HW221987   3.916   1.045   4.358
 7030SOL     OW21988   1.505   3.494   3.767
 7030SOL    HW121989   1.473   3.442   3.846
 7030SOL    HW221990   1.515   3.433   3.689
 7031SOL     OW21991   1.000   1.095   4.596
 7031SOL    HW121992   1.065   1.138   4.533
 7031SOL    HW221993   1.033   1.107   4.690
 7032SOL     OW21994   5.822   2.591   3.393
 7032SOL    HW121995   5.754   2.529   3.354
 7032SOL    HW221996   5.807   2.684   3.359
 7033SOL     OW21997   0.591   0.654   5.094
 7033SOL    HW121998   0.552   0.744   5.079
 7033SOL    HW221999   0.541   0.586   5.041
 7034SOL     OW22000   0.400   5.185   3.604
 7034SOL    HW122001   0.309   5.193   3.644
 7034SOL    HW222002   0.399   5.114   3.533
 7035SOL     OW22003   6.519   4.580   1.998
 7035SOL    HW122004   6.433   4.582   1.946
 7035SOL    HW222005   6.591   4.540   1.942
 7036SOL     OW22006   6.086   4.474   0.816
 7036SOL    HW122007   6.083   4.376   0.795
 7036SOL    HW222008   6.181   4.504   0.820
 7037SOL     OW22009   1.395   0.481   6.717
 7037SOL    HW122010   1.407   0.472   6.816
 7037SOL    HW222011   1.300   0.506   6.697
 7038SOL     OW22012   2.157   3.309   4.431
 7038SOL    HW122013   2.154   3.277   4.526
 7038SOL    HW222014   2.088   3.380   4.417
 7039SOL     OW22015   3.616   2.055   6.909
 7039SOL    HW122016   3.574   2.100   6.988
 7039SOL    HW222017   3.699   2.104   6.884
 7040SOL     OW22018   5.714   2.435   6.740
 7040SOL    HW122019   5.799   2.398   6.778
 7040SOL    HW222020   5.675   2.501   6.804
 7041SOL     OW22021   2.098   1.621   3.329
 7041SOL    HW122022   2.134   1.701   3.282
 7041SOL    HW222023   2.123   1.624   3.426
 7042SOL     OW22024   1.780   1.138   6.772
 7042SOL    HW122025   1.766   1.113   6.676
 7042SOL    HW222026   1.693   1.166   6.812
 7043SOL     OW22027   1.279   2.686   2.124
 7043SOL    HW122028   1.367   2.698   2.172
 7043SOL    HW222029   1.208   2.739   2.171
 7044SOL     OW22030   6.643   5.964   1.166
 7044SOL    HW122031   6.671   6.001   1.078
 7044SOL    HW222032   6.544   5.971   1.176
 7045SOL     OW22033   0.333   4.769   0.320
 7045SOL    HW122034   0.358   4.672   0.314
 7045SOL    HW222035   0.277   4.783   0.402
 7046SOL     OW22036   2.970   1.896   3.668
 7046SOL    HW122037   3.000   1.804   3.647
 7046SOL    HW222038   2.929   1.898   3.759
 7047SOL     OW22039   1.492   0.236   3.178
 7047SOL    HW122040   1.552   0.313   3.155
 7047SOL    HW222041   1.463   0.244   3.273
 7048SOL     OW22042   6.617   5.677   6.896
 7048SOL    HW122043   6.533   5.671   6.949
 7048SOL    HW222044   6.638   5.773   6.878
 7049SOL     OW22045   2.295   0.949   6.680
 7049SOL    HW122046   2.385   0.913   6.706
 7049SOL    HW222047   2.236   0.873   6.651
 7050SOL     OW22048   4.247   3.460   5.322
 7050SOL    HW122049   4.345   3.467   5.338
 7050SOL    HW222050   4.199   3.527   5.379
 7051SOL     OW22051   5.817   6.304   2.800
 7051SOL    HW122052   5.799   6.208   2.778
 7051SOL    HW222053   5.895   6.310   2.863
 7052SOL     OW22054   6.778   6.917   5.295
 7052SOL    HW122055   6.705   6.946   5.356
 7052SOL    HW222056   6.742   6.852   5.228
 7053SOL     OW22057   6.728   3.603   6.370
 7053SOL    HW122058   6.750   3.506   6.379
 7053SOL    HW222059   6.810   3.657   6.388
 7054SOL     OW22060   6.323   2.290   2.427
 7054SOL    HW122061   6.237   2.316   2.471
 7054SOL    HW222062   6.350   2.198   2.456
 7055SOL     OW22063   4.766   1.713   3.754
 7055SOL    HW122064   4.834   1.679   3.819
 7055SOL    HW222065   4.800   1.702   3.660
 7056SOL     OW22066   4.759   5.538   4.295
 7056SOL    HW122067   4.781   5.600   4.370
 7056SOL    HW222068   4.684   5.477   4.323
 7057SOL     OW22069   5.844   6.026   2.679
 7057SOL    HW122070   5.933   6.019   2.724
 7057SOL    HW222071   5.800   5.936   2.678
 7058SOL     OW22072   0.218   4.468   4.381
 7058SOL    HW122073   0.272   4.459   4.297
 7058SOL    HW222074   0.178   4.379   4.404
 7059SOL     OW22075   1.695   1.161   2.536
 7059SOL    HW122076   1.722   1.232   2.470
 7059SOL    HW222077   1.645   1.089   2.489
 7060SOL     OW22078   2.962   6.755   0.727
 7060SOL    HW122079   3.056   6.772   0.696
 7060SOL    HW222080   2.941   6.657   0.717
 7061SOL     OW22081   0.249   0.922   3.005
 7061SOL    HW122082   0.191   0.950   3.081
 7061SOL    HW222083   0.288   0.832   3.024
 7062SOL     OW22084   6.455   1.312   5.889
 7062SOL    HW122085   6.507   1.395   5.905
 7062SOL    HW222086   6.434   1.267   5.976
 7063SOL     OW22087   2.012   6.363   2.391
 7063SOL    HW122088   2.068   6.444   2.406
 7063SOL    HW222089   2.064   6.297   2.336
 7064SOL     OW22090   3.692   2.365   0.367
 7064SOL    HW122091   3.754   2.303   0.319
 7064SOL    HW222092   3.667   2.326   0.455
 7065SOL     OW22093   3.375   3.557   2.642
 7065SOL    HW122094   3.463   3.516   2.614
 7065SOL    HW222095   3.370   3.650   2.605
 7066SOL     OW22096   2.309   4.809   1.527
 7066SOL    HW122097   2.239   4.862   1.480
 7066SOL    HW222098   2.309   4.832   1.625
 7067SOL     OW22099   1.036   4.202   4.969
 7067SOL    HW122100   1.007   4.109   4.992
 7067SOL    HW222101   0.964   4.248   4.917
 7068SOL     OW22102   0.281   0.848   2.711
 7068SOL    HW122103   0.361   0.792   2.735
 7068SOL    HW222104   0.280   0.930   2.769
 7069SOL     OW22105   1.959   4.918   4.976
 7069SOL    HW122106   1.877   4.974   4.984
 7069SOL    HW222107   1.937   4.833   4.928
 7070SOL     OW22108   5.526   5.176   3.624
 7070SOL    HW122109   5.427   5.169   3.633
 7070SOL    HW222110   5.567   5.085   3.633
 7071SOL     OW22111   1.694   6.505   5.202
 7071SOL    HW122112   1.790   6.486   5.180
 7071SOL    HW222113   1.656   6.428   5.254
 7072SOL     OW22114   0.598   0.192   6.315
 7072SOL    HW122115   0.650   0.215   6.233
 7072SOL    HW222116   0.605   0.267   6.381
 7073SOL     OW22117   2.273   2.066   6.592
 7073SOL    HW122118   2.358   2.091   6.639
 7073SOL    HW222119   2.250   2.136   6.525
 7074SOL     OW22120   3.677   1.260   6.944
 7074SOL    HW122121   3.732   1.321   6.887
 7074SOL    HW222122   3.669   1.171   6.899
 7075SOL     OW22123   0.685   6.081   3.090
 7075SOL    HW122124   0.781   6.109   3.096
 7075SOL    HW222125   0.633   6.150   3.039
 7076SOL     OW22126   3.661   1.337   6.000
 7076SOL    HW122127   3.695   1.297   6.086
 7076SOL    HW222128   3.571   1.378   6.016
 7077SOL     OW22129   1.511   5.590   6.487
 7077SOL    HW122130   1.442   5.638   6.540
 7077SOL    HW222131   1.483   5.495   6.473
 7078SOL     OW22132   0.201   1.086   2.090
 7078SOL    HW122133   0.244   0.996   2.089
 7078SOL    HW222134   0.196   1.122   1.997
 7079SOL     OW22135   5.424   6.219   4.552
 7079SOL    HW122136   5.509   6.226   4.500
 7079SOL    HW222137   5.436   6.152   4.625
 7080SOL     OW22138   5.715   0.430   4.097
 7080SOL    HW122139   5.678   0.425   4.004
 7080SOL    HW222140   5.679   0.512   4.142
 7081SOL     OW22141   4.830   0.826   5.208
 7081SOL    HW122142   4.780   0.886   5.146
 7081SOL    HW222143   4.927   0.824   5.181
 7082SOL     OW22144   6.066   1.430   0.286
 7082SOL    HW122145   6.140   1.488   0.252
 7082SOL    HW222146   5.978   1.467   0.255
 7083SOL     OW22147   4.356   0.182   5.168
 7083SOL    HW122148   4.454   0.161   5.175
 7083SOL    HW222149   4.303   0.104   5.199
 7084SOL     OW22150   6.198   5.974   0.605
 7084SOL    HW122151   6.160   5.956   0.514
 7084SOL    HW222152   6.263   5.903   0.629
 7085SOL     OW22153   4.464   1.271   1.648
 7085SOL    HW122154   4.406   1.251   1.570
 7085SOL    HW222155   4.554   1.230   1.635
 7086SOL     OW22156   1.150   0.977   6.259
 7086SOL    HW122157   1.230   0.954   6.205
 7086SOL    HW222158   1.115   1.066   6.231
 7087SOL     OW22159   2.330   2.783   5.240
 7087SOL    HW122160   2.339   2.847   5.163
 7087SOL    HW222161   2.363   2.693   5.212
 7088SOL     OW22162   6.706   2.490   4.692
 7088SOL    HW122163   6.765   2.568   4.712
 7088SOL    HW222164   6.613   2.508   4.726
 7089SOL     OW22165   3.256   1.808   1.687
 7089SOL    HW122166   3.266   1.857   1.600
 7089SOL    HW222167   3.189   1.855   1.744
 7090SOL     OW22168   2.618   1.874   5.018
 7090SOL    HW122169   2.567   1.907   4.938
 7090SOL    HW222170   2.683   1.943   5.048
 7091SOL     OW22171   6.801   6.487   0.737
 7091SOL    HW122172   6.879   6.433   0.768
 7091SOL    HW222173   6.742   6.510   0.815
 7092SOL     OW22174   3.533   1.842   0.905
 7092SOL    HW122175   3.494   1.795   0.826
 7092SOL    HW222176   3.593   1.915   0.873
 7093SOL     OW22177   4.038   3.070   6.215
 7093SOL    HW122178   3.967   3.029   6.157
 7093SOL    HW222179   3.996   3.134   6.279
 7094SOL     OW22180   6.493   1.185   6.444
 7094SOL    HW122181   6.426   1.179   6.518
 7094SOL    HW222182   6.581   1.153   6.477
 7095SOL     OW22183   0.460   3.926   0.705
 7095SOL    HW122184   0.396   3.849   0.711
 7095SOL    HW222185   0.499   3.944   0.795
 7096SOL     OW22186   4.067   6.758   2.727
 7096SOL    HW122187   4.104   6.839   2.680
 7096SOL    HW222188   3.971   6.774   2.750
 7097SOL     OW22189   2.095   1.047   1.553
 7097SOL    HW122190   2.045   1.132   1.562
 7097SOL    HW222191   2.186   1.065   1.515
 7098SOL     OW22192   1.221   0.588   6.212
 7098SOL    HW122193   1.136   0.599   6.161
 7098SOL    HW222194   1.296   0.570   6.148
 7099SOL     OW22195   6.870   1.343   5.242
 7099SOL    HW122196   6.870   1.314   5.146
 7099SOL    HW222197   6.780   1.381   5.265
 7100SOL     OW22198   5.322   1.630   1.019
 7100SOL    HW122199   5.284   1.717   1.051
 7100SOL    HW222200   5.369   1.584   1.095
 7101SOL     OW22201   1.243   0.249   4.048
 7101SOL    HW122202   1.263   0.153   4.029
 7101SOL    HW222203   1.199   0.256   4.137
 7102SOL     OW22204   4.432   3.086   0.798
 7102SOL    HW122205   4.408   3.143   0.720
 7102SOL    HW222206   4.530   3.095   0.818
 7103SOL     OW22207   2.393   6.988   5.800
 7103SOL    HW122208   2.390   6.927   5.880
 7103SOL    HW222209   2.481   6.980   5.755
 7104SOL     OW22210   1.028   2.871   1.770
 7104SOL    HW122211   1.034   2.780   1.810
 7104SOL    HW222212   0.952   2.921   1.811
 7105SOL     OW22213   1.851   2.963   5.368
 7105SOL    HW122214   1.795   2.923   5.295
 7105SOL    HW222215   1.889   3.050   5.337
 7106SOL     OW22216   3.054   2.669   5.387
 7106SOL    HW122217   3.075   2.760   5.352
 7106SOL    HW222218   3.135   2.610   5.377
 7107SOL     OW22219   1.260   1.328   0.580
 7107SOL    HW122220   1.246   1.274   0.663
 7107SOL    HW222221   1.352   1.311   0.545
 7108SOL     OW22222   4.584   6.840   1.918
 7108SOL    HW122223   4.531   6.825   2.001
 7108SOL    HW222224   4.526   6.825   1.838
 7109SOL     OW22225   4.435   5.871   6.394
 7109SOL    HW122226   4.482   5.943   6.446
 7109SOL    HW222227   4.477   5.864   6.303
 7110SOL     OW22228   3.947   4.946   4.591
 7110SOL    HW122229   4.009   4.868   4.578
 7110SOL    HW222230   3.857   4.911   4.619
 7111SOL     OW22231   1.611   2.547   3.494
 7111SOL    HW122232   1.671   2.468   3.481
 7111SOL    HW222233   1.656   2.615   3.552
 7112SOL     OW22234   1.607   6.361   3.029
 7112SOL    HW122235   1.529   6.406   2.987
 7112SOL    HW222236   1.589   6.347   3.126
 7113SOL     OW22237   3.917   3.357   5.549
 7113SOL    HW122238   3.905   3.334   5.452
 7113SOL    HW222239   4.001   3.316   5.583
 7114SOL     OW22240   3.717   6.523   0.776
 7114SOL    HW122241   3.761   6.438   0.803
 7114SOL    HW222242   3.773   6.571   0.709
 7115SOL     OW22243   3.821   2.530   1.335
 7115SOL    HW122244   3.879   2.458   1.373
 7115SOL    HW222245   3.876   2.611   1.316
 7116SOL     OW22246   6.124   4.322   3.048
 7116SOL    HW122247   6.041   4.346   3.100
 7116SOL    HW222248   6.179   4.258   3.101
 7117SOL     OW22249   5.737   6.500   2.501
 7117SOL    HW122250   5.741   6.566   2.425
 7117SOL    HW222251   5.652   6.449   2.497
 7118SOL     OW22252   6.533   3.266   3.182
 7118SOL    HW122253   6.491   3.248   3.271
 7118SOL    HW222254   6.462   3.278   3.113
 7119SOL     OW22255   1.368   2.328   3.225
 7119SOL    HW122256   1.351   2.426   3.216
 7119SOL    HW222257   1.405   2.292   3.139
 7120SOL     OW22258   4.338   6.502   3.300
 7120SOL    HW122259   4.281   6.433   3.255
 7120SOL    HW222260   4.283   6.580   3.327
 7121SOL     OW22261   2.445   6.458   0.964
 7121SOL    HW122262   2.392   6.532   1.006
 7121SOL    HW222263   2.417   6.371   1.003
 7122SOL     OW22264   0.049   6.217   0.512
 7122SOL    HW122265   0.027   6.178   0.601
 7122SOL    HW222266   0.041   6.317   0.516
 7123SOL     OW22267   2.815   5.516   0.795
 7123SOL    HW122268   2.748   5.582   0.763
 7123SOL    HW222269   2.790   5.425   0.762
 7124SOL     OW22270   0.120   6.218   6.547
 7124SOL    HW122271   0.032   6.171   6.544
 7124SOL    HW222272   0.123   6.288   6.476
 7125SOL     OW22273   0.687   5.955   3.329
 7125SOL    HW122274   0.621   5.880   3.330
 7125SOL    HW222275   0.688   5.998   3.239
 7126SOL     OW22276   1.354   3.728   1.637
 7126SOL    HW122277   1.427   3.703   1.700
 7126SOL    HW222278   1.380   3.811   1.588
 7127SOL     OW22279   2.348   0.486   4.975
 7127SOL    HW122280   2.304   0.404   4.939
 7127SOL    HW222281   2.296   0.567   4.948
 7128SOL     OW22282   2.936   3.643   2.273
 7128SOL    HW122283   2.958   3.741   2.269
 7128SOL    HW222284   2.963   3.600   2.187
 7129SOL     OW22285   2.675   1.699   0.874
 7129SOL    HW122286   2.721   1.779   0.836
 7129SOL    HW222287   2.583   1.691   0.834
 7130SOL     OW22288   1.710   0.427   3.164
 7130SOL    HW122289   1.662   0.514   3.175
 7130SOL    HW222290   1.782   0.419   3.233
 7131SOL     OW22291   2.782   1.430   3.586
 7131SOL    HW122292   2.782   1.411   3.684
 7131SOL    HW222293   2.688   1.449   3.556
 7132SOL     OW22294   3.021   3.902   2.147
 7132SOL    HW122295   3.008   3.873   2.052
 7132SOL    HW222296   2.949   3.968   2.171
 7133SOL     OW22297   6.208   4.167   1.658
 7133SOL    HW122298   6.132   4.181   1.721
 7133SOL    HW222299   6.182   4.197   1.567
 7134SOL     OW22300   5.299   4.856   2.453
 7134SOL    HW122301   5.244   4.773   2.464
 7134SOL    HW222302   5.256   4.931   2.504
 7135SOL     OW22303   0.420   2.381   6.168
 7135SOL    HW122304   0.392   2.392   6.264
 7135SOL    HW222305   0.498   2.318   6.165
 7136SOL     OW22306   1.714   1.831   6.801
 7136SOL    HW122307   1.805   1.854   6.767
 7136SOL    HW222308   1.645   1.885   6.753
 7137SOL     OW22309   4.805   2.187   4.910
 7137SOL    HW122310   4.786   2.184   4.812
 7137SOL    HW222311   4.867   2.112   4.934
 7138SOL     OW22312   2.390   2.301   6.909
 7138SOL    HW122313   2.326   2.295   6.985
 7138SOL    HW222314   2.447   2.382   6.919
 7139SOL     OW22315   2.754   1.370   0.395
 7139SOL    HW122316   2.730   1.273   0.384
 7139SOL    HW222317   2.761   1.412   0.304
 7140SOL     OW22318   6.874   4.482   4.705
 7140SOL    HW122319   6.842   4.402   4.654
 7140SOL    HW222320   6.867   4.564   4.647
 7141SOL     OW22321   0.606   0.065   1.936
 7141SOL    HW122322   0.516   0.025   1.917
 7141SOL    HW222323   0.677   0.000   1.910
 7142SOL     OW22324   3.480   6.647   3.830
 7142SOL    HW122325   3.386   6.623   3.855
 7142SOL    HW222326   3.544   6.582   3.872
 7143SOL     OW22327   2.143   2.243   3.487
 7143SOL    HW122328   2.169   2.339   3.472
 7143SOL    HW222329   2.074   2.239   3.559
 7144SOL     OW22330   1.308   3.600   3.407
 7144SOL    HW122331   1.223   3.559   3.440
 7144SOL    HW222332   1.344   3.546   3.332
 7145SOL     OW22333   4.167   5.668   5.955
 7145SOL    HW122334   4.098   5.625   6.013
 7145SOL    HW222335   4.243   5.604   5.941
 7146SOL     OW22336   3.535   4.883   1.584
 7146SOL    HW122337   3.454   4.938   1.603
 7146SOL    HW222338   3.521   4.830   1.500
 7147SOL     OW22339   6.874   0.890   3.521
 7147SOL    HW122340   6.898   0.961   3.587
 7147SOL    HW222341   6.953   0.868   3.465
 7148SOL     OW22342   6.880   1.833   1.018
 7148SOL    HW122343   6.792   1.803   0.982
 7148SOL    HW222344   6.879   1.932   1.033
 7149SOL     OW22345   0.687   0.520   4.539
 7149SOL    HW122346   0.735   0.553   4.457
 7149SOL    HW222347   0.744   0.452   4.585
 7150SOL     OW22348   5.693   3.407   6.040
 7150SOL    HW122349   5.656   3.382   6.130
 7150SOL    HW222350   5.690   3.328   5.979
 7151SOL     OW22351   2.065   6.636   0.195
 7151SOL    HW122352   2.010   6.614   0.115
 7151SOL    HW222353   2.162   6.639   0.169
 7152SOL     OW22354   1.160   2.422   4.755
 7152SOL    HW122355   1.209   2.348   4.801
 7152SOL    HW222356   1.067   2.427   4.791
 7153SOL     OW22357   3.881   1.909   2.948
 7153SOL    HW122358   3.832   1.996   2.954
 7153SOL    HW222359   3.939   1.910   2.867
 7154SOL     OW22360   3.342   0.240   4.913
 7154SOL    HW122361   3.393   0.165   4.956
 7154SOL    HW222362   3.342   0.229   4.814
 7155SOL     OW22363   2.505   1.463   3.528
 7155SOL    HW122364   2.430   1.398   3.511
 7155SOL    HW222365   2.493   1.543   3.469
 7156SOL     OW22366   1.902   5.900   5.760
 7156SOL    HW122367   1.960   5.933   5.834
 7156SOL    HW222368   1.806   5.922   5.780
 7157SOL     OW22369   4.870   4.293   0.367
 7157SOL    HW122370   4.927   4.291   0.449
 7157SOL    HW222371   4.894   4.216   0.308
 7158SOL     OW22372   4.255   0.179   3.679
 7158SOL    HW122373   4.218   0.245   3.615
 7158SOL    HW222374   4.306   0.109   3.629
 7159SOL     OW22375   1.115   6.053   6.834
 7159SOL    HW122376   1.140   6.149   6.838
 7159SOL    HW222377   1.045   6.033   6.902
 7160SOL     OW22378   6.629   0.891   1.629
 7160SOL    HW122379   6.571   0.949   1.686
 7160SOL    HW222380   6.576   0.853   1.553
 7161SOL     OW22381   3.805   4.226   5.072
 7161SOL    HW122382   3.840   4.319   5.073
 7161SOL    HW222383   3.806   4.189   5.165
 7162SOL     OW22384   3.570   4.918   3.991
 7162SOL    HW122385   3.488   4.976   3.989
 7162SOL    HW222386   3.595   4.892   3.898
 7163SOL     OW22387   1.215   6.537   3.396
 7163SOL    HW122388   1.268   6.462   3.357
 7163SOL    HW222389   1.208   6.611   3.330
 7164SOL     OW22390   2.374   1.847   4.776
 7164SOL    HW122391   2.420   1.880   4.693
 7164SOL    HW222392   2.334   1.924   4.825
 7165SOL     OW22393   4.835   5.269   2.188
 7165SOL    HW122394   4.777   5.206   2.240
 7165SOL    HW222395   4.827   5.361   2.227
 7166SOL     OW22396   3.972   5.936   2.233
 7166SOL    HW122397   4.028   5.853   2.242
 7166SOL    HW222398   3.983   5.993   2.314
 7167SOL     OW22399   5.038   3.421   6.920
 7167SOL    HW122400   5.007   3.331   6.889
 7167SOL    HW222401   5.026   3.487   6.846
 7168SOL     OW22402   0.297   1.576   3.952
 7168SOL    HW122403   0.281   1.672   3.978
 7168SOL    HW222404   0.344   1.529   4.026
 7169SOL     OW22405   2.438   2.531   6.660
 7169SOL    HW122406   2.457   2.554   6.564
 7169SOL    HW222407   2.524   2.504   6.705
 7170SOL     OW22408   5.332   4.357   4.099
 7170SOL    HW122409   5.296   4.390   4.012
 7170SOL    HW222410   5.411   4.298   4.082
 7171SOL     OW22411   3.897   3.761   5.669
 7171SOL    HW122412   3.815   3.711   5.695
 7171SOL    HW222413   3.943   3.795   5.750
 7172SOL     OW22414   0.067   6.072   1.056
 7172SOL    HW122415   0.008   6.136   1.105
 7172SOL    HW222416   0.086   5.993   1.114
 7173SOL     OW22417   6.319   6.541   4.685
 7173SOL    HW122418   6.339   6.472   4.754
 7173SOL    HW222419   6.258   6.502   4.616
 7174SOL     OW22420   1.150   6.077   6.084
 7174SOL    HW122421   1.226   6.063   6.147
 7174SOL    HW222422   1.129   5.993   6.035
 7175SOL     OW22423   5.909   3.521   5.767
 7175SOL    HW122424   5.851   3.501   5.846
 7175SOL    HW222425   5.983   3.454   5.762
 7176SOL     OW22426   0.803   2.993   1.565
 7176SOL    HW122427   0.858   3.056   1.509
 7176SOL    HW222428   0.844   2.984   1.655
 7177SOL     OW22429   0.950   4.665   1.850
 7177SOL    HW122430   0.981   4.760   1.838
 7177SOL    HW222431   0.996   4.625   1.929
 7178SOL     OW22432   6.258   0.924   6.823
 7178SOL    HW122433   6.332   0.987   6.846
 7178SOL    HW222434   6.207   0.959   6.744
 7179SOL     OW22435   0.824   3.929   5.849
 7179SOL    HW122436   0.792   3.891   5.936
 7179SOL    HW222437   0.846   3.855   5.786
 7180SOL     OW22438   6.942   0.064   2.434
 7180SOL    HW122439   6.937   6.989   2.400
 7180SOL    HW222440   6.916   0.067   2.530
 7181SOL     OW22441   5.373   5.781   2.324
 7181SOL    HW122442   5.468   5.774   2.352
 7181SOL    HW222443   5.368   5.815   2.230
 7182SOL     OW22444   4.522   3.617   6.047
 7182SOL    HW122445   4.546   3.540   5.987
 7182SOL    HW222446   4.525   3.702   5.994
 7183SOL     OW22447   2.180   3.087   3.217
 7183SOL    HW122448   2.138   3.045   3.297
 7183SOL    HW222449   2.202   3.182   3.236
 7184SOL     OW22450   2.457   5.654   3.484
 7184SOL    HW122451   2.491   5.591   3.554
 7184SOL    HW222452   2.366   5.626   3.454
 7185SOL     OW22453   4.845   2.300   6.985
 7185SOL    HW122454   4.760   2.248   6.975
 7185SOL    HW222455   4.860   2.323   0.062
 7186SOL     OW22456   0.731   6.258   4.759
 7186SOL    HW122457   0.812   6.313   4.737
 7186SOL    HW222458   0.654   6.286   4.702
 7187SOL     OW22459   1.729   5.350   1.242
 7187SOL    HW122460   1.780   5.391   1.167
 7187SOL    HW222461   1.640   5.319   1.209
 7188SOL     OW22462   5.465   0.033   1.863
 7188SOL    HW122463   5.420   0.031   1.953
 7188SOL    HW222464   5.524   6.973   1.854
 7189SOL     OW22465   6.345   0.784   5.451
 7189SOL    HW122466   6.265   0.806   5.395
 7189SOL    HW222467   6.314   0.746   5.539
 7190SOL     OW22468   4.299   5.469   3.120
 7190SOL    HW122469   4.322   5.372   3.111
 7190SOL    HW222470   4.369   5.524   3.074
 7191SOL     OW22471   0.827   3.042   1.830
 7191SOL    HW122472   0.730   3.056   1.846
 7191SOL    HW222473   0.878   3.125   1.856
 7192SOL     OW22474   3.206   3.879   6.330
 7192SOL    HW122475   3.168   3.971   6.322
 7192SOL    HW222476   3.223   3.841   6.239
 7193SOL     OW22477   5.808   2.349   4.907
 7193SOL    HW122478   5.730   2.302   4.866
 7193SOL    HW222479   5.891   2.296   4.892
 7194SOL     OW22480   2.993   1.118   2.048
 7194SOL    HW122481   3.015   1.034   2.098
 7194SOL    HW222482   2.929   1.174   2.102
 7195SOL     OW22483   0.411   7.008   2.415
 7195SOL    HW122484   0.366   6.998   2.326
 7195SOL    HW222485   0.343   0.004   2.486
 7196SOL     OW22486   3.714   3.534   1.778
 7196SOL    HW122487   3.688   3.604   1.712
 7196SOL    HW222488   3.656   3.453   1.766
 7197SOL     OW22489   1.407   1.033   4.532
 7197SOL    HW122490   1.375   0.945   4.567
 7197SOL    HW222491   1.497   1.054   4.572
 7198SOL     OW22492   0.570   6.947   6.024
 7198SOL    HW122493   0.482   6.939   6.072
 7198SOL    HW222494   0.645   6.941   6.090
 7199SOL     OW22495   5.950   5.804   2.314
 7199SOL    HW122496   5.850   5.795   2.314
 7199SOL    HW222497   5.975   5.898   2.290
 7200SOL     OW22498   1.525   2.163   2.617
 7200SOL    HW122499   1.490   2.249   2.654
 7200SOL    HW222500   1.613   2.142   2.661
 7201SOL     OW22501   2.086   4.393   4.030
 7201SOL    HW122502   2.029   4.378   4.110
 7201SOL    HW222503   2.071   4.486   3.995
 7202SOL     OW22504   2.697   6.933   5.736
 7202SOL    HW122505   2.745   6.853   5.700
 7202SOL    HW222506   2.753   7.014   5.722
 7203SOL     OW22507   5.938   0.046   6.965
 7203SOL    HW122508   6.026   0.003   6.941
 7203SOL    HW222509   5.927   0.046   0.045
 7204SOL     OW22510   6.445   2.202   3.150
 7204SOL    HW122511   6.493   2.285   3.180
 7204SOL    HW222512   6.380   2.226   3.078
 7205SOL     OW22513   1.580   4.244   1.532
 7205SOL    HW122514   1.646   4.220   1.461
 7205SOL    HW222515   1.498   4.283   1.490
 7206SOL     OW22516   6.187   1.221   1.516
 7206SOL    HW122517   6.106   1.213   1.457
 7206SOL    HW222518   6.258   1.159   1.484
 7207SOL     OW22519   4.206   0.398   1.701
 7207SOL    HW122520   4.143   0.361   1.633
 7207SOL    HW222521   4.159   0.467   1.757
 7208SOL     OW22522   2.406   0.683   5.546
 7208SOL    HW122523   2.488   0.633   5.575
 7208SOL    HW222524   2.372   0.737   5.623
 7209SOL     OW22525   3.239   3.729   4.833
 7209SOL    HW122526   3.273   3.788   4.760
 7209SOL    HW222527   3.210   3.785   4.910
 7210SOL     OW22528   4.238   6.896   4.249
 7210SOL    HW122529   4.222   6.992   4.229
 7210SOL    HW222530   4.311   6.861   4.191
 7211SOL     OW22531   0.714   5.141   2.367
 7211SOL    HW122532   0.669   5.097   2.289
 7211SOL    HW222533   0.807   5.169   2.339
 7212SOL     OW22534   5.414   6.710   2.925
 7212SOL    HW122535   5.461   6.651   2.991
 7212SOL    HW222536   5.350   6.770   2.973
 7213SOL     OW22537   5.311   6.418   5.232
 7213SOL    HW122538   5.307   6.404   5.331
 7213SOL    HW222539   5.308   6.516   5.212
 7214SOL     OW22540   1.115   4.714   5.782
 7214SOL    HW122541   1.138   4.619   5.805
 7214SOL    HW222542   1.194   4.772   5.799
 7215SOL     OW22543   1.197   3.191   1.479
 7215SOL    HW122544   1.195   3.190   1.379
 7215SOL    HW222545   1.252   3.269   1.510
 7216SOL     OW22546   2.975   2.102   2.371
 7216SOL    HW122547   2.885   2.136   2.401
 7216SOL    HW222548   2.999   2.144   2.284
 7217SOL     OW22549   0.438   3.533   1.789
 7217SOL    HW122550   0.364   3.599   1.805
 7217SOL    HW222551   0.478   3.506   1.877
 7218SOL     OW22552   6.528   2.570   4.149
 7218SOL    HW122553   6.601   2.553   4.214
 7218SOL    HW222554   6.527   2.498   4.079
 7219SOL     OW22555   3.226   1.061   0.817
 7219SOL    HW122556   3.143   1.006   0.825
 7219SOL    HW222557   3.237   1.116   0.899
 7220SOL     OW22558   6.749   1.815   3.123
 7220SOL    HW122559   6.827   1.838   3.181
 7220SOL    HW222560   6.666   1.855   3.163
 7221SOL     OW22561   6.470   3.767   5.402
 7221SOL    HW122562   6.404   3.695   5.381
 7221SOL    HW222563   6.509   3.802   5.317
 7222SOL     OW22564   6.732   0.169   3.166
 7222SOL    HW122565   6.797   0.147   3.093
 7222SOL    HW222566   6.649   0.114   3.154
 7223SOL     OW22567   4.694   0.964   4.651
 7223SOL    HW122568   4.639   0.881   4.643
 7223SOL    HW222569   4.741   0.981   4.564
 7224SOL     OW22570   5.434   1.600   3.032
 7224SOL    HW122571   5.456   1.696   3.052
 7224SOL    HW222572   5.519   1.548   3.024
 7225SOL     OW22573   2.725   0.180   1.701
 7225SOL    HW122574   2.800   0.202   1.763
 7225SOL    HW222575   2.753   0.106   1.639
 7226SOL     OW22576   6.059   6.476   5.211
 7226SOL    HW122577   6.003   6.484   5.293
 7226SOL    HW222578   6.028   6.541   5.142
 7227SOL     OW22579   0.005   2.887   6.059
 7227SOL    HW122580   6.953   2.896   5.989
 7227SOL    HW222581   7.000   2.944   6.137
 7228SOL     OW22582   2.088   0.564   2.825
 7228SOL    HW122583   2.137   0.571   2.912
 7228SOL    HW222584   1.997   0.603   2.835
 7229SOL     OW22585   0.221   0.255   3.245
 7229SOL    HW122586   0.136   0.260   3.298
 7229SOL    HW222587   0.204   0.209   3.158
 7230SOL     OW22588   6.497   5.251   1.110
 7230SOL    HW122589   6.406   5.280   1.079
 7230SOL    HW222590   6.531   5.179   1.051
 7231SOL     OW22591   5.997   0.821   0.223
 7231SOL    HW122592   5.955   0.808   0.133
 7231SOL    HW222593   6.089   0.858   0.211
 7232SOL     OW22594   3.115   4.031   0.717
 7232SOL    HW122595   3.088   4.035   0.813
 7232SOL    HW222596   3.210   4.062   0.708
 7233SOL     OW22597   1.151   2.029   5.222
 7233SOL    HW122598   1.198   1.944   5.247
 7233SOL    HW222599   1.219   2.098   5.196
 7234SOL     OW22600   5.250   2.199   3.822
 7234SOL    HW122601   5.246   2.254   3.738
 7234SOL    HW222602   5.158   2.186   3.858
 7235SOL     OW22603   6.139   2.576   4.863
 7235SOL    HW122604   6.158   2.545   4.770
 7235SOL    HW222605   6.095   2.666   4.860
 7236SOL     OW22606   1.155   1.671   3.158
 7236SOL    HW122607   1.163   1.755   3.104
 7236SOL    HW222608   1.176   1.692   3.254
 7237SOL     OW22609   5.830   5.782   4.661
 7237SOL    HW122610   5.797   5.811   4.751
 7237SOL    HW222611   5.893   5.851   4.625
 7238SOL     OW22612   1.432   0.086   2.015
 7238SOL    HW122613   1.492   0.030   2.073
 7238SOL    HW222614   1.470   0.090   1.922
 7239SOL     OW22615   4.882   1.729   1.933
 7239SOL    HW122616   4.934   1.679   2.002
 7239SOL    HW222617   4.943   1.759   1.860
 7240SOL     OW22618   3.053   3.777   2.953
 7240SOL    HW122619   3.000   3.713   3.009
 7240SOL    HW222620   3.059   3.742   2.859
 7241SOL     OW22621   4.928   6.762   4.008
 7241SOL    HW122622   4.912   6.857   4.035
 7241SOL    HW222623   4.886   6.701   4.076
 7242SOL     OW22624   6.942   5.749   0.810
 7242SOL    HW122625   6.922   5.736   0.713
 7242SOL    HW222626   6.906   5.837   0.840
 7243SOL     OW22627   0.673   5.737   1.133
 7243SOL    HW122628   0.727   5.699   1.058
 7243SOL    HW222629   0.671   5.672   1.209
 7244SOL     OW22630   5.859   1.953   1.325
 7244SOL    HW122631   5.863   2.041   1.371
 7244SOL    HW222632   5.823   1.884   1.387
 7245SOL     OW22633   5.665   1.657   3.885
 7245SOL    HW122634   5.726   1.608   3.822
 7245SOL    HW222635   5.637   1.595   3.958
 7246SOL     OW22636   1.152   5.381   5.567
 7246SOL    HW122637   1.172   5.414   5.474
 7246SOL    HW222638   1.222   5.314   5.593
 7247SOL     OW22639   4.248   5.763   3.735
 7247SOL    HW122640   4.313   5.715   3.794
 7247SOL    HW222641   4.263   5.735   3.640
 7248SOL     OW22642   3.214   1.377   5.008
 7248SOL    HW122643   3.285   1.400   4.942
 7248SOL    HW222644   3.211   1.277   5.020
 7249SOL     OW22645   4.382   3.061   5.741
 7249SOL    HW122646   4.404   3.145   5.790
 7249SOL    HW222647   4.459   3.036   5.682
 7250SOL     OW22648   3.053   3.134   6.971
 7250SOL    HW122649   3.111   3.118   6.891
 7250SOL    HW222650   3.109   3.144   0.033
 7251SOL     OW22651   5.754   1.165   5.295
 7251SOL    HW122652   5.666   1.210   5.313
 7251SOL    HW222653   5.827   1.216   5.340
 7252SOL     OW22654   4.514   3.499   5.407
 7252SOL    HW122655   4.569   3.540   5.334
 7252SOL    HW222656   4.511   3.561   5.486
 7253SOL     OW22657   4.927   4.911   6.809
 7253SOL    HW122658   4.853   4.856   6.770
 7253SOL    HW222659   4.916   5.006   6.780
 7254SOL     OW22660   5.005   6.431   5.447
 7254SOL    HW122661   5.048   6.512   5.407
 7254SOL    HW222662   5.036   6.419   5.541
 7255SOL     OW22663   3.529   3.025   3.486
 7255SOL    HW122664   3.606   3.088   3.490
 7255SOL    HW222665   3.535   2.970   3.402
 7256SOL     OW22666   2.974   5.578   3.981
 7256SOL    HW122667   3.021   5.586   4.069
 7256SOL    HW222668   2.953   5.482   3.963
 7257SOL     OW22669   5.861   5.089   2.616
 7257SOL    HW122670   5.795   5.016   2.596
 7257SOL    HW222671   5.830   5.140   2.696
 7258SOL     OW22672   2.292   6.986   5.539
 7258SOL    HW122673   2.329   6.972   5.631
 7258SOL    HW222674   2.193   6.970   5.541
 7259SOL     OW22675   3.110   3.903   6.003
 7259SOL    HW122676   3.199   3.938   6.033
 7259SOL    HW222677   3.089   3.819   6.052
 7260SOL     OW22678   4.565   2.530   2.799
 7260SOL    HW122679   4.545   2.606   2.737
 7260SOL    HW222680   4.483   2.504   2.849
 7261SOL     OW22681   2.563   4.945   1.547
 7261SOL    HW122682   2.508   4.864   1.530
 7261SOL    HW222683   2.513   5.008   1.606
 7262SOL     OW22684   6.487   0.492   4.850
 7262SOL    HW122685   6.570   0.525   4.805
 7262SOL    HW222686   6.407   0.512   4.794
 7263SOL     OW22687   5.390   4.913   1.282
 7263SOL    HW122688   5.373   4.997   1.230
 7263SOL    HW222689   5.335   4.914   1.365
 7264SOL     OW22690   0.023   6.530   4.387
 7264SOL    HW122691   0.033   6.489   4.296
 7264SOL    HW222692   0.104   6.585   4.408
 7265SOL     OW22693   4.669   3.439   6.928
 7265SOL    HW122694   4.685   3.343   6.955
 7265SOL    HW222695   4.721   3.499   6.989
 7266SOL     OW22696   4.403   1.638   2.811
 7266SOL    HW122697   4.304   1.628   2.809
 7266SOL    HW222698   4.429   1.715   2.869
 7267SOL     OW22699   5.057   1.802   3.252
 7267SOL    HW122700   5.024   1.864   3.322
 7267SOL    HW222701   5.098   1.854   3.177
 7268SOL     OW22702   4.220   6.898   0.062
 7268SOL    HW122703   4.283   6.934   7.014
 7268SOL    HW222704   4.207   6.964   0.135
 7269SOL     OW22705   1.676   0.068   2.320
 7269SOL    HW122706   1.637   7.012   2.267
 7269SOL    HW222707   1.637   0.155   2.288
 7270SOL     OW22708   3.368   2.533   1.721
 7270SOL    HW122709   3.406   2.459   1.776
 7270SOL    HW222710   3.441   2.575   1.666
 7271SOL     OW22711   5.963   5.203   3.822
 7271SOL    HW122712   5.864   5.212   3.834
 7271SOL    HW222713   5.994   5.269   3.753
 7272SOL     OW22714   6.097   1.492   1.643
 7272SOL    HW122715   6.140   1.402   1.644
 7272SOL    HW222716   6.078   1.519   1.548
 7273SOL     OW22717   5.908   5.105   5.108
 7273SOL    HW122718   5.965   5.042   5.161
 7273SOL    HW222719   5.965   5.151   5.039
 7274SOL     OW22720   5.343   4.969   3.816
 7274SOL    HW122721   5.402   5.029   3.870
 7274SOL    HW222722   5.308   5.020   3.737
 7275SOL     OW22723   5.695   6.868   1.669
 7275SOL    HW122724   5.724   6.905   1.758
 7275SOL    HW222725   5.732   6.776   1.657
 7276SOL     OW22726   3.718   1.225   3.282
 7276SOL    HW122727   3.727   1.216   3.183
 7276SOL    HW222728   3.663   1.305   3.303
 7277SOL     OW22729   6.011   2.030   4.212
 7277SOL    HW122730   5.991   2.066   4.303
 7277SOL    HW222731   6.110   2.029   4.197
 7278SOL     OW22732   3.439   1.054   3.195
 7278SOL    HW122733   3.531   1.063   3.232
 7278SOL    HW222734   3.429   1.111   3.114
 7279SOL     OW22735   3.574   3.791   1.814
 7279SOL    HW122736   3.654   3.814   1.759
 7279SOL    HW222737   3.596   3.715   1.874
 7280SOL     OW22738   6.715   1.546   5.572
 7280SOL    HW122739   6.797   1.598   5.548
 7280SOL    HW222740   6.679   1.580   5.659
 7281SOL     OW22741   3.319   6.857   3.232
 7281SOL    HW122742   3.225   6.822   3.224
 7281SOL    HW222743   3.340   6.872   3.328
 7282SOL     OW22744   0.055   3.820   0.965
 7282SOL    HW122745   0.033   3.724   0.982
 7282SOL    HW222746   7.004   3.878   1.008
 7283SOL     OW22747   3.227   6.343   2.941
 7283SOL    HW122748   3.201   6.397   2.862
 7283SOL    HW222749   3.220   6.246   2.920
 7284SOL     OW22750   0.536   0.368   3.428
 7284SOL    HW122751   0.583   0.410   3.505
 7284SOL    HW222752   0.450   0.417   3.411
 7285SOL     OW22753   4.951   3.002   1.726
 7285SOL    HW122754   4.990   3.024   1.815
 7285SOL    HW222755   4.990   2.916   1.692
 7286SOL     OW22756   6.540   0.970   4.635
 7286SOL    HW122757   6.561   1.062   4.603
 7286SOL    HW222758   6.568   0.961   4.731
 7287SOL     OW22759   2.923   1.834   4.162
 7287SOL    HW122760   2.874   1.754   4.196
 7287SOL    HW222761   3.018   1.830   4.193
 7288SOL     OW22762   3.011   1.878   1.813
 7288SOL    HW122763   2.975   1.857   1.904
 7288SOL    HW222764   3.014   1.978   1.801
 7289SOL     OW22765   6.788   2.258   1.273
 7289SOL    HW122766   6.732   2.176   1.284
 7289SOL    HW222767   6.737   2.337   1.306
 7290SOL     OW22768   3.394   1.938   4.736
 7290SOL    HW122769   3.473   1.900   4.784
 7290SOL    HW222770   3.363   1.874   4.667
 7291SOL     OW22771   0.901   1.302   0.768
 7291SOL    HW122772   0.956   1.384   0.782
 7291SOL    HW222773   0.832   1.319   0.697
 7292SOL     OW22774   4.075   1.247   2.135
 7292SOL    HW122775   4.059   1.176   2.203
 7292SOL    HW222776   4.022   1.328   2.159
 7293SOL     OW22777   6.490   1.080   4.301
 7293SOL    HW122778   6.559   1.024   4.256
 7293SOL    HW222779   6.534   1.158   4.346
 7294SOL     OW22780   3.052   0.956   3.068
 7294SOL    HW122781   2.969   0.971   3.122
 7294SOL    HW222782   3.092   1.044   3.043
 7295SOL     OW22783   5.665   4.101   1.663
 7295SOL    HW122784   5.591   4.102   1.595
 7295SOL    HW222785   5.645   4.033   1.733
 7296SOL     OW22786   3.184   6.923   2.351
 7296SOL    HW122787   3.239   6.933   2.268
 7296SOL    HW222788   3.154   6.828   2.360
 7297SOL     OW22789   4.082   0.322   0.105
 7297SOL    HW122790   4.178   0.338   0.080
 7297SOL    HW222791   4.067   0.225   0.121
 7298SOL     OW22792   3.884   4.529   1.237
 7298SOL    HW122793   3.850   4.623   1.230
 7298SOL    HW222794   3.983   4.527   1.222
 7299SOL     OW22795   0.135   3.080   7.015
 7299SOL    HW122796   0.105   3.004   0.052
 7299SOL    HW222797   0.224   3.060   6.975
 7300SOL     OW22798   0.828   4.158   1.548
 7300SOL    HW122799   0.799   4.118   1.461
 7300SOL    HW222800   0.881   4.241   1.530
 7301SOL     OW22801   4.624   1.434   0.194
 7301SOL    HW122802   4.565   1.485   0.256
 7301SOL    HW222803   4.712   1.481   0.185
 7302SOL     OW22804   5.589   1.739   6.241
 7302SOL    HW122805   5.515   1.718   6.304
 7302SOL    HW222806   5.566   1.707   6.149
 7303SOL     OW22807   3.499   2.076   1.651
 7303SOL    HW122808   3.521   2.084   1.554
 7303SOL    HW222809   3.409   2.114   1.668
 7304SOL     OW22810   2.280   6.862   0.361
 7304SOL    HW122811   2.351   6.842   0.428
 7304SOL    HW222812   2.190   6.844   0.400
 7305SOL     OW22813   0.012   6.877   6.369
 7305SOL    HW122814   6.932   6.887   6.378
 7305SOL    HW222815   0.058   6.947   6.423
 7306SOL     OW22816   1.716   3.639   0.388
 7306SOL    HW122817   1.696   3.571   0.458
 7306SOL    HW222818   1.766   3.596   0.313
 7307SOL     OW22819   4.106   6.329   2.018
 7307SOL    HW122820   4.076   6.381   2.098
 7307SOL    HW222821   4.093   6.384   1.935
 7308SOL     OW22822   3.567   1.792   2.876
 7308SOL    HW122823   3.614   1.715   2.919
 7308SOL    HW222824   3.631   1.868   2.863
 7309SOL     OW22825   2.652   4.732   4.403
 7309SOL    HW122826   2.611   4.680   4.478
 7309SOL    HW222827   2.605   4.710   4.318
 7310SOL     OW22828   3.952   3.235   0.251
 7310SOL    HW122829   3.856   3.262   0.247
 7310SOL    HW222830   3.960   3.138   0.227
 7311SOL     OW22831   1.234   6.611   5.519
 7311SOL    HW122832   1.332   6.597   5.514
 7311SOL    HW222833   1.195   6.551   5.589
 7312SOL     OW22834   6.247   2.072   4.430
 7312SOL    HW122835   6.258   2.035   4.338
 7312SOL    HW222836   6.165   2.031   4.472
 7313SOL     OW22837   3.208   1.206   3.285
 7313SOL    HW122838   3.286   1.149   3.259
 7313SOL    HW222839   3.184   1.266   3.208
 7314SOL     OW22840   2.213   5.581   4.679
 7314SOL    HW122841   2.151   5.554   4.752
 7314SOL    HW222842   2.161   5.620   4.602
 7315SOL     OW22843   2.350   4.981   2.587
 7315SOL    HW122844   2.443   4.948   2.570
 7315SOL    HW222845   2.338   5.070   2.541
 7316SOL     OW22846   3.832   0.998   1.706
 7316SOL    HW122847   3.918   1.033   1.743
 7316SOL    HW222848   3.850   0.916   1.652
 7317SOL     OW22849   6.554   1.814   1.465
 7317SOL    HW122850   6.575   1.912   1.466
 7317SOL    HW222851   6.628   1.764   1.511
 7318SOL     OW22852   4.819   6.130   1.806
 7318SOL    HW122853   4.871   6.208   1.770
 7318SOL    HW222854   4.875   6.082   1.874
 7319SOL     OW22855   4.589   5.128   5.963
 7319SOL    HW122856   4.548   5.167   5.880
 7319SOL    HW222857   4.689   5.128   5.953
 7320SOL     OW22858   1.443   3.146   0.548
 7320SOL    HW122859   1.383   3.112   0.475
 7320SOL    HW222860   1.410   3.112   0.636
 7321SOL     OW22861   1.980   2.298   5.498
 7321SOL    HW122862   1.936   2.372   5.446
 7321SOL    HW222863   2.018   2.336   5.582
 7322SOL     OW22864   2.291   2.092   4.445
 7322SOL    HW122865   2.269   2.168   4.505
 7322SOL    HW222866   2.242   2.102   4.358
 7323SOL     OW22867   2.522   1.490   0.709
 7323SOL    HW122868   2.433   1.474   0.751
 7323SOL    HW222869   2.569   1.402   0.698
 7324SOL     OW22870   5.174   3.804   4.493
 7324SOL    HW122871   5.181   3.758   4.404
 7324SOL    HW222872   5.208   3.897   4.485
 7325SOL     OW22873   3.455   0.432   6.573
 7325SOL    HW122874   3.371   0.385   6.544
 7325SOL    HW222875   3.476   0.408   6.667
 7326SOL     OW22876   3.778   6.250   0.408
 7326SOL    HW122877   3.818   6.325   0.355
 7326SOL    HW222878   3.688   6.226   0.371
 7327SOL     OW22879   0.994   4.373   3.461
 7327SOL    HW122880   0.918   4.348   3.521
 7327SOL    HW222881   0.975   4.341   3.369
 7328SOL     OW22882   4.466   5.169   6.764
 7328SOL    HW122883   4.385   5.155   6.821
 7328SOL    HW222884   4.525   5.237   6.807
 7329SOL     OW22885   2.768   3.795   6.626
 7329SOL    HW122886   2.718   3.842   6.553
 7329SOL    HW222887   2.861   3.774   6.594
 7330SOL     OW22888   2.119   3.756   1.002
 7330SOL    HW122889   2.136   3.658   1.013
 7330SOL    HW222890   2.193   3.798   0.950
 7331SOL     OW22891   5.359   1.273   2.619
 7331SOL    HW122892   5.321   1.242   2.532
 7331SOL    HW222893   5.404   1.361   2.606
 7332SOL     OW22894   2.497   6.823   5.163
 7332SOL    HW122895   2.590   6.808   5.194
 7332SOL    HW222896   2.467   6.745   5.108
 7333SOL     OW22897   6.507   1.071   1.827
 7333SOL    HW122898   6.479   1.153   1.776
 7333SOL    HW222899   6.601   1.083   1.860
 7334SOL     OW22900   1.262   5.007   4.562
 7334SOL    HW122901   1.169   4.969   4.563
 7334SOL    HW222902   1.267   5.081   4.495
 7335SOL     OW22903   0.192   3.298   2.513
 7335SOL    HW122904   0.161   3.231   2.579
 7335SOL    HW222905   0.289   3.283   2.492
 7336SOL     OW22906   2.530   0.006   1.148
 7336SOL    HW122907   2.603   6.977   1.099
 7336SOL    HW222908   2.552   0.103   1.155
 7337SOL     OW22909   3.413   1.881   2.484
 7337SOL    HW122910   3.358   1.915   2.407
 7337SOL    HW222911   3.470   1.805   2.453
 7338SOL     OW22912   5.315   2.868   0.360
 7338SOL    HW122913   5.280   2.778   0.333
 7338SOL    HW222914   5.246   2.917   0.413
 7339SOL     OW22915   6.794   0.300   4.182
 7339SOL    HW122916   6.755   0.231   4.120
 7339SOL    HW222917   6.809   0.385   4.132
 7340SOL     OW22918   3.027   6.362   0.783
 7340SOL    HW122919   3.011   6.263   0.792
 7340SOL    HW222920   3.123   6.382   0.802
 7341SOL     OW22921   6.377   5.501   3.319
 7341SOL    HW122922   6.416   5.488   3.228
 7341SOL    HW222923   6.287   5.543   3.311
 7342SOL     OW22924   0.320   5.492   6.960
 7342SOL    HW122925   0.260   5.487   0.021
 7342SOL    HW222926   0.377   5.411   6.956
 7343SOL     OW22927   0.451   2.529   2.699
 7343SOL    HW122928   0.491   2.553   2.611
 7343SOL    HW222929   0.446   2.429   2.707
 7344SOL     OW22930   2.071   1.139   6.096
 7344SOL    HW122931   2.058   1.040   6.093
 7344SOL    HW222932   2.167   1.160   6.113
 7345SOL     OW22933   1.461   6.606   6.853
 7345SOL    HW122934   1.412   6.655   6.781
 7345SOL    HW222935   1.501   6.671   6.917
 7346SOL     OW22936   3.412   5.203   3.504
 7346SOL    HW122937   3.406   5.169   3.598
 7346SOL    HW222938   3.399   5.127   3.441
 7347SOL     OW22939   5.747   3.306   3.660
 7347SOL    HW122940   5.648   3.309   3.668
 7347SOL    HW222941   5.773   3.324   3.565
 7348SOL     OW22942   5.709   0.247   6.593
 7348SOL    HW122943   5.737   0.278   6.502
 7348SOL    HW222944   5.789   0.236   6.651
 7349SOL     OW22945   3.515   2.201   1.350
 7349SOL    HW122946   3.547   2.148   1.271
 7349SOL    HW222947   3.587   2.264   1.379
 7350SOL     OW22948   1.653   1.496   3.026
 7350SOL    HW122949   1.579   1.432   3.047
 7350SOL    HW222950   1.727   1.485   3.092
 7351SOL     OW22951   5.869   4.760   0.166
 7351SOL    HW122952   5.856   4.661   0.160
 7351SOL    HW222953   5.792   4.806   0.121
 7352SOL     OW22954   6.456   1.270   3.082
 7352SOL    HW122955   6.365   1.249   3.047
 7352SOL    HW222956   6.454   1.357   3.131
 7353SOL     OW22957   5.538   1.914   5.033
 7353SOL    HW122958   5.463   1.981   5.032
 7353SOL    HW222959   5.612   1.948   5.090
 7354SOL     OW22960   5.301   4.205   5.273
 7354SOL    HW122961   5.270   4.250   5.189
 7354SOL    HW222962   5.230   4.142   5.304
 7355SOL     OW22963   0.247   5.359   0.331
 7355SOL    HW122964   0.188   5.345   0.411
 7355SOL    HW222965   0.190   5.370   0.250
 7356SOL     OW22966   0.107   1.914   6.038
 7356SOL    HW122967   0.071   1.925   6.130
 7356SOL    HW222968   0.167   1.991   6.016
 7357SOL     OW22969   0.134   1.318   0.682
 7357SOL    HW122970   0.173   1.364   0.762
 7357SOL    HW222971   0.049   1.364   0.655
 7358SOL     OW22972   3.067   0.999   3.400
 7358SOL    HW122973   3.109   1.086   3.374
 7358SOL    HW222974   3.101   0.927   3.341
 7359SOL     OW22975   3.290   3.679   4.292
 7359SOL    HW122976   3.373   3.695   4.345
 7359SOL    HW222977   3.314   3.662   4.196
 7360SOL     OW22978   1.366   4.274   6.122
 7360SOL    HW122979   1.354   4.366   6.159
 7360SOL    HW222980   1.414   4.279   6.035
 7361SOL     OW22981   4.861   6.866   1.843
 7361SOL    HW122982   4.908   6.852   1.756
 7361SOL    HW222983   4.767   6.832   1.837
 7362SOL     OW22984   1.293   5.590   6.971
 7362SOL    HW122985   1.290   5.687   6.949
 7362SOL    HW222986   1.262   5.537   6.892
 7363SOL     OW22987   4.640   1.921   6.350
 7363SOL    HW122988   4.653   1.875   6.438
 7363SOL    HW222989   4.718   1.980   6.331
 7364SOL     OW22990   5.187   6.981   0.981
 7364SOL    HW122991   5.101   0.012   0.979
 7364SOL    HW222992   5.205   6.941   0.891
 7365SOL     OW22993   5.201   6.942   1.288
 7365SOL    HW122994   5.188   6.928   1.190
 7365SOL    HW222995   5.285   6.895   1.317
 7366SOL     OW22996   2.498   6.890   0.525
 7366SOL    HW122997   2.472   6.967   0.467
 7366SOL    HW222998   2.593   6.900   0.553
 7367SOL     OW22999   4.442   2.945   6.448
 7367SOL    HW123000   4.396   3.022   6.492
 7367SOL    HW223001   4.520   2.917   6.504
 7368SOL     OW23002   2.903   3.333   4.843
 7368SOL    HW123003   2.811   3.295   4.857
 7368SOL    HW223004   2.943   3.355   4.932
 7369SOL     OW23005   6.588   0.015   6.267
 7369SOL    HW123006   6.598   6.939   6.239
 7369SOL    HW223007   6.521   0.022   6.341
 7370SOL     OW23008   0.485   5.867   0.995
 7370SOL    HW123009   0.493   5.821   0.907
 7370SOL    HW223010   0.557   5.833   1.057
 7371SOL     OW23011   1.789   4.839   3.811
 7371SOL    HW123012   1.865   4.817   3.749
 7371SOL    HW223013   1.707   4.858   3.758
 7372SOL     OW23014   2.621   0.538   5.480
 7372SOL    HW123015   2.705   0.512   5.432
 7372SOL    HW223016   2.549   0.473   5.459
 7373SOL     OW23017   3.700   1.361   1.265
 7373SOL    HW123018   3.687   1.451   1.224
 7373SOL    HW223019   3.790   1.325   1.238
 7374SOL     OW23020   2.474   3.536   0.644
 7374SOL    HW123021   2.513   3.592   0.571
 7374SOL    HW223022   2.375   3.530   0.632
 7375SOL     OW23023   2.536   5.896   3.111
 7375SOL    HW123024   2.598   5.844   3.169
 7375SOL    HW223025   2.589   5.952   3.047
 7376SOL     OW23026   3.127   4.043   6.790
 7376SOL    HW123027   3.205   3.986   6.813
 7376SOL    HW223028   3.158   4.133   6.759
 7377SOL     OW23029   6.051   5.914   1.303
 7377SOL    HW123030   6.031   5.967   1.221
 7377SOL    HW223031   6.105   5.833   1.279
 7378SOL     OW23032   1.060   1.937   5.819
 7378SOL    HW123033   0.972   1.942   5.771
 7378SOL    HW223034   1.095   2.029   5.834
 7379SOL     OW23035   4.482   0.613   0.382
 7379SOL    HW123036   4.401   0.559   0.407
 7379SOL    HW223037   4.491   0.690   0.445
 7380SOL     OW23038   0.106   2.757   6.636
 7380SOL    HW123039   0.020   2.787   6.595
 7380SOL    HW223040   0.183   2.799   6.588
 7381SOL     OW23041   5.120   2.356   0.633
 7381SOL    HW123042   5.151   2.451   0.645
 7381SOL    HW223043   5.162   2.318   0.551
 7382SOL     OW23044   1.325   5.453   3.830
 7382SOL    HW123045   1.356   5.439   3.736
 7382SOL    HW223046   1.225   5.449   3.833
 7383SOL     OW23047   1.543   4.585   2.728
 7383SOL    HW123048   1.537   4.557   2.632
 7383SOL    HW223049   1.553   4.505   2.786
 7384SOL     OW23050   6.064   1.785   1.234
 7384SOL    HW123051   6.158   1.818   1.230
 7384SOL    HW223052   6.005   1.855   1.275
 7385SOL     OW23053   5.910   0.473   2.055
 7385SOL    HW123054   5.851   0.393   2.045
 7385SOL    HW223055   5.857   0.556   2.042
 7386SOL     OW23056   6.590   1.645   5.774
 7386SOL    HW123057   6.493   1.627   5.756
 7386SOL    HW223058   6.603   1.662   5.872
 7387SOL     OW23059   4.637   6.201   3.570
 7387SOL    HW123060   4.643   6.104   3.547
 7387SOL    HW223061   4.573   6.213   3.645
 7388SOL     OW23062   5.175   3.617   4.698
 7388SOL    HW123063   5.124   3.659   4.773
 7388SOL    HW223064   5.199   3.686   4.630
 7389SOL     OW23065   1.672   2.890   5.165
 7389SOL    HW123066   1.641   2.813   5.221
 7389SOL    HW223067   1.631   2.884   5.074
 7390SOL     OW23068   4.323   6.516   0.371
 7390SOL    HW123069   4.363   6.442   0.316
 7390SOL    HW223070   4.394   6.557   0.428
 7391SOL     OW23071   0.131   4.922   0.550
 7391SOL    HW123072   0.211   4.910   0.610
 7391SOL    HW223073   0.130   5.016   0.515
 7392SOL     OW23074   1.866   4.320   2.330
 7392SOL    HW123075   1.783   4.363   2.364
 7392SOL    HW223076   1.944   4.352   2.384
 7393SOL     OW23077   1.261   3.972   0.519
 7393SOL    HW123078   1.260   3.873   0.505
 7393SOL    HW223079   1.273   4.018   0.431
 7394SOL     OW23080   2.764   3.390   6.865
 7394SOL    HW123081   2.845   3.380   6.806
 7394SOL    HW223082   2.698   3.319   6.843
 7395SOL     OW23083   2.691   0.595   0.446
 7395SOL    HW123084   2.702   0.504   0.487
 7395SOL    HW223085   2.778   0.624   0.407
 7396SOL     OW23086   6.589   6.687   2.560
 7396SOL    HW123087   6.545   6.599   2.546
 7396SOL    HW223088   6.567   6.722   2.651
 7397SOL     OW23089   6.464   4.276   4.073
 7397SOL    HW123090   6.438   4.367   4.043
 7397SOL    HW223091   6.555   4.278   4.114
 7398SOL     OW23092   4.394   6.400   2.613
 7398SOL    HW123093   4.448   6.444   2.685
 7398SOL    HW223094   4.445   6.321   2.577
 7399SOL     OW23095   5.202   6.162   4.021
 7399SOL    HW123096   5.122   6.111   3.990
 7399SOL    HW223097   5.283   6.131   3.971
 7400SOL     OW23098   2.510   4.355   6.866
 7400SOL    HW123099   2.449   4.301   6.923
 7400SOL    HW223100   2.591   4.382   6.918
 7401SOL     OW23101   6.505   3.020   3.891
 7401SOL    HW123102   6.420   3.012   3.839
 7401SOL    HW223103   6.499   2.966   3.975
 7402SOL     OW23104   1.726   6.339   4.456
 7402SOL    HW123105   1.644   6.364   4.404
 7402SOL    HW223106   1.757   6.417   4.510
 7403SOL     OW23107   2.242   3.295   1.656
 7403SOL    HW123108   2.271   3.336   1.742
 7403SOL    HW223109   2.189   3.212   1.675
 7404SOL     OW23110   1.337   2.992   2.998
 7404SOL    HW123111   1.237   2.984   2.998
 7404SOL    HW223112   1.363   3.077   2.953
 7405SOL     OW23113   3.519   4.513   6.156
 7405SOL    HW123114   3.451   4.522   6.084
 7405SOL    HW223115   3.547   4.603   6.188
 7406SOL     OW23116   6.620   6.080   3.003
 7406SOL    HW123117   6.715   6.061   3.030
 7406SOL    HW223118   6.572   5.993   2.987
 7407SOL     OW23119   3.500   1.339   5.748
 7407SOL    HW123120   3.517   1.430   5.786
 7407SOL    HW223121   3.480   1.347   5.650
 7408SOL     OW23122   1.407   3.802   5.398
 7408SOL    HW123123   1.501   3.798   5.431
 7408SOL    HW223124   1.402   3.861   5.317
 7409SOL     OW23125   2.275   0.114   4.137
 7409SOL    HW123126   2.232   0.203   4.154
 7409SOL    HW223127   2.243   0.078   4.049
 7410SOL     OW23128   4.998   5.679   5.882
 7410SOL    HW123129   5.095   5.672   5.908
 7410SOL    HW223130   4.984   5.630   5.796
 7411SOL     OW23131   5.850   3.927   5.470
 7411SOL    HW123132   5.831   3.849   5.529
 7411SOL    HW223133   5.924   3.982   5.509
 7412SOL     OW23134   1.228   1.076   0.358
 7412SOL    HW123135   1.181   1.083   0.270
 7412SOL    HW223136   1.213   1.160   0.410
 7413SOL     OW23137   6.544   3.728   3.898
 7413SOL    HW123138   6.504   3.651   3.947
 7413SOL    HW223139   6.643   3.721   3.901
 7414SOL     OW23140   0.571   5.999   1.892
 7414SOL    HW123141   0.646   6.061   1.870
 7414SOL    HW223142   0.581   5.967   1.986
 7415SOL     OW23143   3.187   1.632   3.029
 7415SOL    HW123144   3.270   1.580   3.008
 7415SOL    HW223145   3.186   1.716   2.975
 7416SOL     OW23146   6.386   0.048   2.664
 7416SOL    HW123147   6.395   0.148   2.663
 7416SOL    HW223148   6.318   0.021   2.731
 7417SOL     OW23149   0.549   5.073   1.671
 7417SOL    HW123150   0.540   5.172   1.658
 7417SOL    HW223151   0.542   5.027   1.582
 7418SOL     OW23152   1.749   3.853   0.768
 7418SOL    HW123153   1.771   3.899   0.854
 7418SOL    HW223154   1.723   3.758   0.786
 7419SOL     OW23155   6.210   2.199   5.947
 7419SOL    HW123156   6.231   2.101   5.944
 7419SOL    HW223157   6.172   2.222   6.036
 7420SOL     OW23158   0.275   5.658   2.170
 7420SOL    HW123159   0.267   5.654   2.070
 7420SOL    HW223160   0.269   5.566   2.207
 7421SOL     OW23161   4.373   2.087   1.512
 7421SOL    HW123162   4.309   2.116   1.584
 7421SOL    HW223163   4.367   2.151   1.435
 7422SOL     OW23164   0.978   2.126   0.991
 7422SOL    HW123165   0.928   2.130   0.905
 7422SOL    HW223166   1.040   2.204   0.997
 7423SOL     OW23167   2.922   4.038   0.404
 7423SOL    HW123168   2.892   3.949   0.368
 7423SOL    HW223169   2.904   4.108   0.335
 7424SOL     OW23170   5.011   0.643   3.720
 7424SOL    HW123171   4.983   0.584   3.795
 7424SOL    HW223172   5.020   0.737   3.752
 7425SOL     OW23173   3.550   0.759   4.565
 7425SOL    HW123174   3.519   0.788   4.474
 7425SOL    HW223175   3.619   0.687   4.554
 7426SOL     OW23176   0.316   0.702   6.320
 7426SOL    HW123177   0.363   0.777   6.272
 7426SOL    HW223178   0.218   0.705   6.298
 7427SOL     OW23179   5.341   5.106   5.528
 7427SOL    HW123180   5.424   5.085   5.478
 7427SOL    HW223181   5.348   5.197   5.569
 7428SOL     OW23182   4.841   1.361   5.506
 7428SOL    HW123183   4.798   1.280   5.465
 7428SOL    HW223184   4.936   1.368   5.474
 7429SOL     OW23185   6.141   6.298   4.019
 7429SOL    HW123186   6.149   6.198   4.025
 7429SOL    HW223187   6.192   6.340   4.093
 7430SOL     OW23188   0.279   4.020   4.467
 7430SOL    HW123189   0.227   4.104   4.482
 7430SOL    HW223190   0.337   4.002   4.546
 7431SOL     OW23191   6.992   3.578   2.914
 7431SOL    HW123192   0.058   3.571   2.967
 7431SOL    HW223193   7.013   3.609   2.821
 7432SOL     OW23194   2.022   6.014   5.995
 7432SOL    HW123195   1.925   6.037   6.006
 7432SOL    HW223196   2.076   6.098   5.997
 7433SOL     OW23197   0.560   6.960   0.806
 7433SOL    HW123198   0.461   6.967   0.818
 7433SOL    HW223199   0.601   0.031   0.816
 7434SOL     OW23200   4.473   6.751   0.475
 7434SOL    HW123201   4.566   6.746   0.439
 7434SOL    HW223202   4.472   6.803   0.561
 7435SOL     OW23203   0.945   5.143   6.920
 7435SOL    HW123204   0.854   5.107   6.902
 7435SOL    HW223205   0.942   5.242   6.926
 7436SOL     OW23206   5.212   3.522   6.662
 7436SOL    HW123207   5.229   3.427   6.634
 7436SOL    HW223208   5.113   3.536   6.671
 7437SOL     OW23209   0.231   6.117   5.691
 7437SOL    HW123210   0.286   6.036   5.711
 7437SOL    HW223211   0.283   6.180   5.634
 7438SOL     OW23212   5.368   4.020   0.605
 7438SOL    HW123213   5.411   4.013   0.695
 7438SOL    HW223214   5.276   3.979   0.608
 7439SOL     OW23215   0.811   6.383   2.817
 7439SOL    HW123216   0.901   6.412   2.783
 7439SOL    HW223217   0.791   6.430   2.903
 7440SOL     OW23218   0.478   1.082   4.166
 7440SOL    HW123219   0.402   1.019   4.151
 7440SOL    HW223220   0.553   1.059   4.104
 7441SOL     OW23221   6.440   0.295   4.261
 7441SOL    HW123222   6.342   0.278   4.247
 7441SOL    HW223223   6.483   0.212   4.296
 7442SOL     OW23224   1.547   1.020   6.995
 7442SOL    HW123225   1.462   0.968   6.996
 7442SOL    HW223226   1.528   1.114   6.964
 7443SOL     OW23227   6.823   1.782   1.865
 7443SOL    HW123228   6.771   1.751   1.786
 7443SOL    HW223229   6.862   1.872   1.847
 7444SOL     OW23230   1.666   2.620   5.323
 7444SOL    HW123231   1.626   2.539   5.280
 7444SOL    HW223232   1.613   2.644   5.404
 7445SOL     OW23233   5.709   3.060   2.011
 7445SOL    HW123234   5.787   3.031   1.956
 7445SOL    HW223235   5.735   3.065   2.107
 7446SOL     OW23236   4.866   4.225   2.786
 7446SOL    HW123237   4.799   4.258   2.720
 7446SOL    HW223238   4.819   4.199   2.871
 7447SOL     OW23239   1.145   3.940   6.443
 7447SOL    HW123240   1.070   3.970   6.384
 7447SOL    HW223241   1.215   3.894   6.388
 7448SOL     OW23242   0.671   1.199   5.871
 7448SOL    HW123243   0.694   1.173   5.965
 7448SOL    HW223244   0.741   1.165   5.809
 7449SOL     OW23245   3.692   0.383   2.649
 7449SOL    HW123246   3.727   0.294   2.678
 7449SOL    HW223247   3.631   0.371   2.571
 7450SOL     OW23248   3.975   1.949   1.739
 7450SOL    HW123249   3.891   1.967   1.791
 7450SOL    HW223250   3.969   1.860   1.695
 7451SOL     OW23251   1.244   0.741   2.174
 7451SOL    HW123252   1.308   0.816   2.162
 7451SOL    HW223253   1.182   0.761   2.250
 7452SOL     OW23254   1.858   5.767   2.845
 7452SOL    HW123255   1.932   5.702   2.866
 7452SOL    HW223256   1.890   5.832   2.776
 7453SOL     OW23257   6.406   4.470   4.805
 7453SOL    HW123258   6.484   4.529   4.826
 7453SOL    HW223259   6.395   4.402   4.877
 7454SOL     OW23260   3.065   2.415   6.887
 7454SOL    HW123261   3.099   2.489   6.945
 7454SOL    HW223262   3.074   2.328   6.936
 7455SOL     OW23263   5.017   6.777   0.759
 7455SOL    HW123264   4.950   6.803   0.830
 7455SOL    HW223265   5.054   6.860   0.717
 7456SOL     OW23266   1.202   3.798   5.817
 7456SOL    HW123267   1.168   3.824   5.907
 7456SOL    HW223268   1.275   3.860   5.789
 7457SOL     OW23269   0.417   5.971   6.030
 7457SOL    HW123270   0.422   6.070   6.037
 7457SOL    HW223271   0.326   5.943   6.001
 7458SOL     OW23272   2.735   0.394   1.506
 7458SOL    HW123273   2.716   0.337   1.586
 7458SOL    HW223274   2.793   0.342   1.442
 7459SOL     OW23275   3.509   5.888   3.726
 7459SOL    HW123276   3.491   5.846   3.637
 7459SOL    HW223277   3.513   5.987   3.717
 7460SOL     OW23278   0.732   5.507   6.451
 7460SOL    HW123279   0.688   5.491   6.540
 7460SOL    HW223280   0.700   5.593   6.413
 7461SOL     OW23281   4.294   1.328   3.407
 7461SOL    HW123282   4.283   1.229   3.416
 7461SOL    HW223283   4.235   1.362   3.334
 7462SOL     OW23284   2.079   1.544   3.917
 7462SOL    HW123285   2.075   1.644   3.927
 7462SOL    HW223286   2.133   1.506   3.992
 7463SOL     OW23287   3.928   3.843   2.477
 7463SOL    HW123288   4.009   3.784   2.482
 7463SOL    HW223289   3.922   3.883   2.385
 7464SOL     OW23290   4.529   5.732   0.411
 7464SOL    HW123291   4.521   5.713   0.509
 7464SOL    HW223292   4.625   5.748   0.388
 7465SOL     OW23293   3.749   1.598   2.921
 7465SOL    HW123294   3.823   1.552   2.970
 7465SOL    HW223295   3.732   1.551   2.835
 7466SOL     OW23296   6.496   0.288   0.415
 7466SOL    HW123297   6.425   0.332   0.469
 7466SOL    HW223298   6.586   0.319   0.446
 7467SOL     OW23299   4.287   2.495   0.756
 7467SOL    HW123300   4.345   2.481   0.837
 7467SOL    HW223301   4.335   2.461   0.675
 7468SOL     OW23302   5.496   4.498   4.753
 7468SOL    HW123303   5.517   4.481   4.849
 7468SOL    HW223304   5.400   4.474   4.735
 7469SOL     OW23305   5.714   2.094   1.750
 7469SOL    HW123306   5.746   2.012   1.796
 7469SOL    HW223307   5.650   2.069   1.678
 7470SOL     OW23308   0.234   3.297   3.315
 7470SOL    HW123309   0.209   3.337   3.227
 7470SOL    HW223310   0.325   3.255   3.307
 7471SOL     OW23311   6.644   4.441   5.406
 7471SOL    HW123312   6.695   4.438   5.320
 7471SOL    HW223313   6.704   4.418   5.482
 7472SOL     OW23314   4.028   5.430   3.117
 7472SOL    HW123315   3.990   5.507   3.066
 7472SOL    HW223316   4.127   5.440   3.124
 7473SOL     OW23317   1.509   2.495   6.704
 7473SOL    HW123318   1.583   2.492   6.771
 7473SOL    HW223319   1.464   2.405   6.700
 7474SOL     OW23320   2.724   1.438   2.021
 7474SOL    HW123321   2.654   1.493   2.066
 7474SOL    HW223322   2.725   1.459   1.923
 7475SOL     OW23323   5.296   0.668   5.927
 7475SOL    HW123324   5.295   0.711   5.837
 7475SOL    HW223325   5.334   0.576   5.919
 7476SOL     OW23326   1.909   6.552   4.569
 7476SOL    HW123327   1.956   6.489   4.630
 7476SOL    HW223328   1.948   6.545   4.477
 7477SOL     OW23329   4.766   4.287   4.585
 7477SOL    HW123330   4.695   4.328   4.528
 7477SOL    HW223331   4.765   4.187   4.573
 7478SOL     OW23332   0.404   4.639   1.506
 7478SOL    HW123333   0.354   4.590   1.434
 7478SOL    HW223334   0.369   4.612   1.595
 7479SOL     OW23335   3.657   0.613   5.115
 7479SOL    HW123336   3.560   0.592   5.100
 7479SOL    HW223337   3.669   0.648   5.208
 7480SOL     OW23338   6.030   5.285   0.202
 7480SOL    HW123339   6.010   5.260   0.107
 7480SOL    HW223340   5.974   5.229   0.263
 7481SOL     OW23341   6.097   6.283   0.363
 7481SOL    HW123342   5.998   6.277   0.362
 7481SOL    HW223343   6.133   6.270   0.270
 7482SOL     OW23344   4.573   0.121   4.796
 7482SOL    HW123345   4.514   0.153   4.723
 7482SOL    HW223346   4.603   0.028   4.777
 7483SOL     OW23347   3.550   7.012   6.534
 7483SOL    HW123348   3.590   6.985   6.446
 7483SOL    HW223349   3.475   0.057   6.518
 7484SOL     OW23350   3.872   6.874   1.142
 7484SOL    HW123351   3.799   6.933   1.108
 7484SOL    HW223352   3.939   6.930   1.192
 7485SOL     OW23353   0.580   6.459   5.241
 7485SOL    HW123354   0.487   6.492   5.228
 7485SOL    HW223355   0.611   6.413   5.158
 7486SOL     OW23356   1.436   1.908   5.190
 7486SOL    HW123357   1.490   1.986   5.222
 7486SOL    HW223358   1.414   1.849   5.267
 7487SOL     OW23359   3.383   5.315   2.704
 7487SOL    HW123360   3.343   5.277   2.787
 7487SOL    HW223361   3.418   5.407   2.723
 7488SOL     OW23362   4.518   1.392   4.953
 7488SOL    HW123363   4.498   1.482   4.991
 7488SOL    HW223364   4.433   1.341   4.941
 7489SOL     OW23365   0.445   3.151   3.034
 7489SOL    HW123366   0.449   3.162   3.133
 7489SOL    HW223367   0.379   3.080   3.010
 7490SOL     OW23368   5.495   6.712   2.646
 7490SOL    HW123369   5.491   6.719   2.746
 7490SOL    HW223370   5.523   6.620   2.620
 7491SOL     OW23371   0.811   0.135   1.017
 7491SOL    HW123372   0.808   0.116   0.919
 7491SOL    HW223373   0.736   0.086   1.062
 7492SOL     OW23374   1.978   1.696   3.006
 7492SOL    HW123375   2.029   1.630   2.950
 7492SOL    HW223376   1.948   1.652   3.091
 7493SOL     OW23377   5.482   4.310   6.742
 7493SOL    HW123378   5.457   4.319   6.646
 7493SOL    HW223379   5.527   4.394   6.773
 7494SOL     OW23380   5.040   1.867   0.994
 7494SOL    HW123381   5.100   1.924   0.938
 7494SOL    HW223382   4.999   1.922   1.066
 7495SOL     OW23383   1.680   1.813   3.191
 7495SOL    HW123384   1.679   1.799   3.092
 7495SOL    HW223385   1.753   1.757   3.231
 7496SOL     OW23386   0.789   4.795   6.034
 7496SOL    HW123387   0.817   4.816   5.940
 7496SOL    HW223388   0.853   4.839   6.097
 7497SOL     OW23389   1.320   4.924   3.032
 7497SOL    HW123390   1.267   5.005   3.007
 7497SOL    HW223391   1.347   4.875   2.949
 7498SOL     OW23392   5.594   1.744   4.529
 7498SOL    HW123393   5.632   1.785   4.612
 7498SOL    HW223394   5.640   1.781   4.449
 7499SOL     OW23395   3.647   5.005   3.734
 7499SOL    HW123396   3.724   4.985   3.674
 7499SOL    HW223397   3.679   5.058   3.812
 7500SOL     OW23398   4.827   3.671   1.665
 7500SOL    HW123399   4.841   3.713   1.575
 7500SOL    HW223400   4.914   3.670   1.714
 7501SOL     OW23401   0.863   4.191   3.901
 7501SOL    HW123402   0.927   4.237   3.839
 7501SOL    HW223403   0.907   4.178   3.990
 7502SOL     OW23404   1.476   1.942   3.912
 7502SOL    HW123405   1.542   1.981   3.976
 7502SOL    HW223406   1.524   1.903   3.834
 7503SOL     OW23407   2.723   2.148   6.975
 7503SOL    HW123408   2.692   2.188   0.041
 7503SOL    HW223409   2.668   2.067   6.953
 7504SOL     OW23410   4.660   5.795   4.843
 7504SOL    HW123411   4.743   5.770   4.794
 7504SOL    HW223412   4.677   5.794   4.941
 7505SOL     OW23413   1.922   1.960   3.633
 7505SOL    HW123414   1.932   2.058   3.653
 7505SOL    HW223415   1.885   1.913   3.714
 7506SOL     OW23416   3.790   0.977   3.100
 7506SOL    HW123417   3.866   0.940   3.154
 7506SOL    HW223418   3.772   0.916   3.023
 7507SOL     OW23419   1.638   6.976   5.175
 7507SOL    HW123420   1.736   6.993   5.163
 7507SOL    HW223421   1.606   6.911   5.107
 7508SOL     OW23422   5.210   6.001   3.014
 7508SOL    HW123423   5.299   5.962   2.989
 7508SOL    HW223424   5.172   5.949   3.090
 7509SOL     OW23425   3.832   4.117   6.043
 7509SOL    HW123426   3.802   4.113   6.138
 7509SOL    HW223427   3.772   4.177   5.991
 7510SOL     OW23428   3.755   3.380   4.813
 7510SOL    HW123429   3.711   3.291   4.823
 7510SOL    HW223430   3.704   3.435   4.747
 7511SOL     OW23431   1.365   1.549   2.687
 7511SOL    HW123432   1.267   1.531   2.683
 7511SOL    HW223433   1.382   1.647   2.676
 7512SOL     OW23434   2.218   2.989   2.276
 7512SOL    HW123435   2.314   2.973   2.300
 7512SOL    HW223436   2.171   3.031   2.353
 7513SOL     OW23437   2.340   3.485   6.702
 7513SOL    HW123438   2.414   3.497   6.635
 7513SOL    HW223439   2.322   3.387   6.714
 7514SOL     OW23440   3.029   5.353   3.554
 7514SOL    HW123441   3.089   5.338   3.633
 7514SOL    HW223442   3.011   5.450   3.543
 7515SOL     OW23443   0.292   4.905   3.129
 7515SOL    HW123444   0.374   4.866   3.087
 7515SOL    HW223445   0.314   4.993   3.170
 7516SOL     OW23446   1.949   3.162   1.396
 7516SOL    HW123447   1.905   3.240   1.440
 7516SOL    HW223448   1.880   3.106   1.349
 7517SOL     OW23449   1.214   4.868   2.412
 7517SOL    HW123450   1.293   4.892   2.468
 7517SOL    HW223451   1.153   4.809   2.464
 7518SOL     OW23452   4.865   3.936   2.628
 7518SOL    HW123453   4.800   3.962   2.557
 7518SOL    HW223454   4.913   4.018   2.661
 7519SOL     OW23455   1.955   6.922   4.679
 7519SOL    HW123456   1.899   6.954   4.602
 7519SOL    HW223457   1.917   6.837   4.714
 7520SOL     OW23458   1.947   0.158   3.877
 7520SOL    HW123459   1.920   0.156   3.973
 7520SOL    HW223460   2.044   0.137   3.868
 7521SOL     OW23461   4.591   3.015   5.542
 7521SOL    HW123462   4.533   3.014   5.460
 7521SOL    HW223463   4.643   2.929   5.547
 7522SOL     OW23464   1.938   6.892   2.495
 7522SOL    HW123465   1.851   6.849   2.469
 7522SOL    HW223466   1.934   6.921   2.590
 7523SOL     OW23467   7.007   6.576   6.725
 7523SOL    HW123468   0.027   6.580   6.633
 7523SOL    HW223469   0.017   6.657   6.777
 7524SOL     OW23470   6.560   1.151   5.113
 7524SOL    HW123471   6.634   1.217   5.101
 7524SOL    HW223472   6.502   1.177   5.189
 7525SOL     OW23473   0.639   0.635   0.658
 7525SOL    HW123474   0.723   0.605   0.702
 7525SOL    HW223475   0.616   0.728   0.687
 7526SOL     OW23476   3.965   3.133   5.885
 7526SOL    HW123477   4.037   3.079   5.928
 7526SOL    HW223478   4.002   3.182   5.806
 7527SOL     OW23479   3.518   6.608   1.641
 7527SOL    HW123480   3.474   6.639   1.725
 7527SOL    HW223481   3.451   6.563   1.583
 7528SOL     OW23482   6.280   3.221   6.964
 7528SOL    HW123483   6.185   3.229   6.936
 7528SOL    HW223484   6.295   3.272   0.029
 7529SOL     OW23485   1.702   6.746   4.189
 7529SOL    HW123486   1.736   6.657   4.157
 7529SOL    HW223487   1.631   6.778   4.127
 7530SOL     OW23488   0.058   2.998   2.784
 7530SOL    HW123489   0.078   3.095   2.801
 7530SOL    HW223490   6.985   2.977   2.815
 7531SOL     OW23491   2.336   1.821   4.127
 7531SOL    HW123492   2.330   1.897   4.192
 7531SOL    HW223493   2.315   1.854   4.035
 7532SOL     OW23494   4.838   4.448   2.148
 7532SOL    HW123495   4.813   4.527   2.092
 7532SOL    HW223496   4.917   4.402   2.107
 7533SOL     OW23497   3.395   0.611   5.104
 7533SOL    HW123498   3.362   0.537   5.163
 7533SOL    HW223499   3.330   0.625   5.029
 7534SOL     OW23500   3.893   6.532   3.798
 7534SOL    HW123501   3.876   6.618   3.750
 7534SOL    HW223502   3.987   6.531   3.831
 7535SOL     OW23503   2.973   5.044   0.332
 7535SOL    HW123504   3.001   5.079   0.243
 7535SOL    HW223505   3.003   5.107   0.404
 7536SOL     OW23506   4.687   5.494   6.407
 7536SOL    HW123507   4.685   5.426   6.334
 7536SOL    HW223508   4.734   5.576   6.374
 7537SOL     OW23509   2.299   4.776   5.189
 7537SOL    HW123510   2.255   4.802   5.103
 7537SOL    HW223511   2.364   4.703   5.172
 7538SOL     OW23512   3.541   3.811   5.131
 7538SOL    HW123513   3.614   3.754   5.168
 7538SOL    HW223514   3.464   3.812   5.196
 7539SOL     OW23515   0.529   2.263   4.825
 7539SOL    HW123516   0.464   2.222   4.889
 7539SOL    HW223517   0.592   2.192   4.792
 7540SOL     OW23518   2.590   0.912   0.400
 7540SOL    HW123519   2.614   0.818   0.378
 7540SOL    HW223520   2.667   0.972   0.376
 7541SOL     OW23521   0.077   2.566   5.914
 7541SOL    HW123522   0.080   2.467   5.901
 7541SOL    HW223523   7.004   2.594   5.938
 7542SOL     OW23524   1.379   0.354   4.826
 7542SOL    HW123525   1.438   0.324   4.901
 7542SOL    HW223526   1.351   0.275   4.771
 7543SOL     OW23527   2.560   2.622   1.213
 7543SOL    HW123528   2.477   2.670   1.183
 7543SOL    HW223529   2.534   2.550   1.277
 7544SOL     OW23530   1.292   2.062   2.496
 7544SOL    HW123531   1.319   2.034   2.404
 7544SOL    HW223532   1.372   2.096   2.546
 7545SOL     OW23533   4.364   0.563   3.402
 7545SOL    HW123534   4.428   0.590   3.330
 7545SOL    HW223535   4.375   0.466   3.422
 7546SOL     OW23536   5.557   0.245   5.476
 7546SOL    HW123537   5.528   0.280   5.565
 7546SOL    HW223538   5.483   0.192   5.436
 7547SOL     OW23539   2.804   0.302   0.505
 7547SOL    HW123540   2.832   0.212   0.539
 7547SOL    HW223541   2.864   0.329   0.430
 7548SOL     OW23542   2.256   3.549   1.288
 7548SOL    HW123543   2.267   3.456   1.323
 7548SOL    HW223544   2.261   3.548   1.188
 7549SOL     OW23545   5.848   0.277   2.418
 7549SOL    HW123546   5.901   0.315   2.493
 7549SOL    HW223547   5.888   0.305   2.331
 7550SOL     OW23548   1.150   5.362   1.089
 7550SOL    HW123549   1.055   5.361   1.057
 7550SOL    HW223550   1.166   5.282   1.147
 7551SOL     OW23551   5.292   3.616   6.106
 7551SOL    HW123552   5.276   3.551   6.032
 7551SOL    HW223553   5.204   3.646   6.142
 7552SOL     OW23554   3.726   5.702   3.861
 7552SOL    HW123555   3.733   5.675   3.957
 7552SOL    HW223556   3.656   5.773   3.852
 7553SOL     OW23557   4.421   4.144   6.187
 7553SOL    HW123558   4.341   4.114   6.133
 7553SOL    HW223559   4.389   4.184   6.273
 7554SOL     OW23560   0.478   1.502   1.140
 7554SOL    HW123561   0.575   1.489   1.160
 7554SOL    HW223562   0.465   1.510   1.041
 7555SOL     OW23563   1.735   6.721   6.015
 7555SOL    HW123564   1.759   6.804   5.964
 7555SOL    HW223565   1.740   6.741   6.113
 7556SOL     OW23566   6.725   3.681   2.957
 7556SOL    HW123567   6.700   3.778   2.947
 7556SOL    HW223568   6.822   3.674   2.980
 7557SOL     OW23569   4.041   3.933   0.421
 7557SOL    HW123570   4.122   3.919   0.478
 7557SOL    HW223571   4.025   4.031   0.410
 7558SOL     OW23572   1.626   3.299   3.558
 7558SOL    HW123573   1.683   3.229   3.517
 7558SOL    HW223574   1.537   3.301   3.512
 7559SOL     OW23575   1.076   4.416   6.861
 7559SOL    HW123576   1.113   4.441   6.951
 7559SOL    HW223577   0.977   4.428   6.861
 7560SOL     OW23578   4.503   0.442   5.448
 7560SOL    HW123579   4.411   0.476   5.471
 7560SOL    HW223580   4.543   0.501   5.377
 7561SOL     OW23581   0.709   3.736   0.079
 7561SOL    HW123582   0.742   3.645   0.052
 7561SOL    HW223583   0.616   3.749   0.045
 7562SOL     OW23584   4.366   6.323   4.825
 7562SOL    HW123585   4.385   6.313   4.727
 7562SOL    HW223586   4.268   6.323   4.840
 7563SOL     OW23587   2.429   0.995   3.845
 7563SOL    HW123588   2.352   1.058   3.835
 7563SOL    HW223589   2.413   0.913   3.789
 7564SOL     OW23590   6.086   5.245   4.123
 7564SOL    HW123591   6.038   5.325   4.161
 7564SOL    HW223592   6.084   5.250   4.023
 7565SOL     OW23593   4.886   5.155   6.714
 7565SOL    HW123594   4.875   5.217   6.792
 7565SOL    HW223595   4.820   5.178   6.643
 7566SOL     OW23596   1.952   5.465   4.194
 7566SOL    HW123597   1.856   5.444   4.171
 7566SOL    HW223598   2.012   5.429   4.123
 7567SOL     OW23599   2.665   3.506   0.075
 7567SOL    HW123600   2.575   3.470   0.098
 7567SOL    HW223601   2.699   3.461   7.011
 7568SOL     OW23602   4.076   4.763   3.536
 7568SOL    HW123603   4.162   4.808   3.561
 7568SOL    HW223604   4.083   4.665   3.556
 7569SOL     OW23605   3.826   0.161   2.372
 7569SOL    HW123606   3.813   0.233   2.303
 7569SOL    HW223607   3.836   0.203   2.462
 7570SOL     OW23608   5.817   4.569   5.138
 7570SOL    HW123609   5.808   4.632   5.060
 7570SOL    HW223610   5.811   4.475   5.105
 7571SOL     OW23611   6.511   4.090   0.025
 7571SOL    HW123612   6.471   4.092   6.953
 7571SOL    HW223613   6.456   4.032   0.084
 7572SOL     OW23614   6.475   1.504   3.251
 7572SOL    HW123615   6.417   1.442   3.303
 7572SOL    HW223616   6.444   1.598   3.264
 7573SOL     OW23617   3.442   5.196   4.202
 7573SOL    HW123618   3.493   5.282   4.207
 7573SOL    HW223619   3.349   5.210   4.237
 7574SOL     OW23620   4.486   5.763   1.671
 7574SOL    HW123621   4.501   5.857   1.638
 7574SOL    HW223622   4.394   5.734   1.646
 7575SOL     OW23623   4.921   2.999   4.588
 7575SOL    HW123624   4.902   3.001   4.489
 7575SOL    HW223625   4.940   3.091   4.620
 7576SOL     OW23626   0.082   3.891   1.751
 7576SOL    HW123627   7.011   3.852   1.767
 7576SOL    HW223628   0.151   3.819   1.758
 7577SOL     OW23629   4.070   1.444   3.900
 7577SOL    HW123630   4.088   1.361   3.952
 7577SOL    HW223631   3.986   1.487   3.933
 7578SOL     OW23632   2.041   5.489   4.872
 7578SOL    HW123633   2.039   5.574   4.925
 7578SOL    HW223634   2.113   5.429   4.909
 7579SOL     OW23635   4.351   2.036   4.262
 7579SOL    HW123636   4.429   1.976   4.278
 7579SOL    HW223637   4.280   1.987   4.213
 7580SOL     OW23638   2.026   3.354   2.130
 7580SOL    HW123639   2.097   3.402   2.079
 7580SOL    HW223640   2.039   3.255   2.120
 7581SOL     OW23641   5.799   1.048   0.944
 7581SOL    HW123642   5.812   1.146   0.960
 7581SOL    HW223643   5.745   1.009   1.019
 7582SOL     OW23644   4.077   2.892   1.433
 7582SOL    HW123645   4.156   2.832   1.417
 7582SOL    HW223646   4.036   2.871   1.521
 7583SOL     OW23647   6.826   4.327   3.094
 7583SOL    HW123648   6.783   4.413   3.069
 7583SOL    HW223649   6.757   4.255   3.101
 7584SOL     OW23650   2.278   2.245   1.681
 7584SOL    HW123651   2.292   2.256   1.583
 7584SOL    HW223652   2.301   2.331   1.728
 7585SOL     OW23653   2.307   4.536   0.506
 7585SOL    HW123654   2.331   4.458   0.564
 7585SOL    HW223655   2.342   4.520   0.414
 7586SOL     OW23656   1.653   2.258   3.667
 7586SOL    HW123657   1.594   2.216   3.597
 7586SOL    HW223658   1.603   2.331   3.712
 7587SOL     OW23659   2.119   1.152   5.650
 7587SOL    HW123660   2.122   1.226   5.583
 7587SOL    HW223661   2.192   1.164   5.717
 7588SOL     OW23662   0.464   4.466   1.968
 7588SOL    HW123663   0.535   4.456   1.898
 7588SOL    HW223664   0.391   4.525   1.935
 7589SOL     OW23665   5.013   5.490   6.280
 7589SOL    HW123666   5.105   5.507   6.246
 7589SOL    HW223667   4.946   5.526   6.215
 7590SOL     OW23668   1.526   0.956   5.372
 7590SOL    HW123669   1.606   0.965   5.431
 7590SOL    HW223670   1.479   0.870   5.390
 7591SOL     OW23671   6.418   6.167   6.520
 7591SOL    HW123672   6.422   6.199   6.615
 7591SOL    HW223673   6.451   6.239   6.459
 7592SOL     OW23674   4.207   4.603   6.127
 7592SOL    HW123675   4.129   4.542   6.143
 7592SOL    HW223676   4.176   4.698   6.127
 7593SOL     OW23677   6.376   4.492   0.295
 7593SOL    HW123678   6.428   4.558   0.240
 7593SOL    HW223679   6.418   4.402   0.286
 7594SOL     OW23680   0.950   6.502   3.705
 7594SOL    HW123681   0.947   6.440   3.627
 7594SOL    HW223682   0.879   6.571   3.696
 7595SOL     OW23683   6.793   3.215   6.598
 7595SOL    HW123684   6.723   3.240   6.666
 7595SOL    HW223685   6.884   3.227   6.638
 7596SOL     OW23686   4.989   5.715   2.167
 7596SOL    HW123687   5.078   5.702   2.125
 7596SOL    HW223688   4.917   5.688   2.103
 7597SOL     OW23689   2.394   5.283   1.934
 7597SOL    HW123690   2.382   5.382   1.945
 7597SOL    HW223691   2.306   5.241   1.913
 7598SOL     OW23692   5.836   0.804   2.832
 7598SOL    HW123693   5.928   0.843   2.824
 7598SOL    HW223694   5.827   0.726   2.769
 7599SOL     OW23695   5.364   3.285   2.248
 7599SOL    HW123696   5.360   3.234   2.162
 7599SOL    HW223697   5.457   3.318   2.263
 7600SOL     OW23698   2.212   2.724   2.565
 7600SOL    HW123699   2.255   2.742   2.654
 7600SOL    HW223700   2.282   2.694   2.500
 7601SOL     OW23701   1.552   0.297   5.055
 7601SOL    HW123702   1.513   0.225   5.113
 7601SOL    HW223703   1.649   0.280   5.042
 7602SOL     OW23704   2.124   3.022   5.088
 7602SOL    HW123705   2.085   2.998   5.000
 7602SOL    HW223706   2.221   3.043   5.077
 7603SOL     OW23707   6.553   1.617   2.050
 7603SOL    HW123708   6.608   1.606   2.133
 7603SOL    HW223709   6.577   1.545   1.985
 7604SOL     OW23710   5.260   5.512   6.542
 7604SOL    HW123711   5.185   5.565   6.580
 7604SOL    HW223712   5.224   5.435   6.489
 7605SOL     OW23713   5.863   3.490   6.483
 7605SOL    HW123714   5.837   3.481   6.387
 7605SOL    HW223715   5.869   3.399   6.524
 7606SOL     OW23716   5.611   1.269   3.703
 7606SOL    HW123717   5.709   1.286   3.716
 7606SOL    HW223718   5.569   1.348   3.659
 7607SOL     OW23719   5.170   6.689   5.932
 7607SOL    HW123720   5.078   6.660   5.907
 7607SOL    HW223721   5.181   6.786   5.910
 7608SOL     OW23722   3.707   3.668   4.910
 7608SOL    HW123723   3.737   3.697   4.819
 7608SOL    HW223724   3.614   3.701   4.927
 7609SOL     OW23725   1.069   2.662   3.416
 7609SOL    HW123726   1.141   2.692   3.478
 7609SOL    HW223727   1.010   2.596   3.463
 7610SOL     OW23728   5.290   0.510   2.284
 7610SOL    HW123729   5.375   0.563   2.284
 7610SOL    HW223730   5.212   0.573   2.276
 7611SOL     OW23731   2.055   1.717   1.357
 7611SOL    HW123732   1.972   1.749   1.403
 7611SOL    HW223733   2.136   1.755   1.403
 7612SOL     OW23734   4.316   1.988   2.804
 7612SOL    HW123735   4.263   2.017   2.884
 7612SOL    HW223736   4.410   1.966   2.832
 7613SOL     OW23737   6.221   0.611   2.317
 7613SOL    HW123738   6.174   0.665   2.388
 7613SOL    HW223739   6.179   0.521   2.312
 7614SOL     OW23740   4.746   1.005   0.679
 7614SOL    HW123741   4.712   1.086   0.727
 7614SOL    HW223742   4.846   1.011   0.672
 7615SOL     OW23743   3.404   5.063   5.635
 7615SOL    HW123744   3.389   5.009   5.552
 7615SOL    HW223745   3.416   5.001   5.713
 7616SOL     OW23746   0.122   5.697   3.082
 7616SOL    HW123747   0.163   5.732   2.998
 7616SOL    HW223748   0.194   5.660   3.141
 7617SOL     OW23749   3.941   5.497   3.733
 7617SOL    HW123750   3.906   5.404   3.715
 7617SOL    HW223751   3.968   5.539   3.647
 7618SOL     OW23752   3.304   2.262   0.379
 7618SOL    HW123753   3.332   2.168   0.361
 7618SOL    HW223754   3.348   2.294   0.463
 7619SOL     OW23755   5.605   2.846   6.011
 7619SOL    HW123756   5.686   2.825   5.957
 7619SOL    HW223757   5.530   2.871   5.950
 7620SOL     OW23758   3.550   5.751   1.567
 7620SOL    HW123759   3.555   5.656   1.598
 7620SOL    HW223760   3.605   5.809   1.627
 7621SOL     OW23761   2.358   2.520   0.847
 7621SOL    HW123762   2.425   2.563   0.787
 7621SOL    HW223763   2.341   2.579   0.925
 7622SOL     OW23764   4.854   2.292   0.716
 7622SOL    HW123765   4.868   2.198   0.747
 7622SOL    HW223766   4.932   2.320   0.660
 7623SOL     OW23767   6.422   6.270   5.262
 7623SOL    HW123768   6.355   6.276   5.336
 7623SOL    HW223769   6.514   6.283   5.300
 7624SOL     OW23770   6.918   0.528   4.598
 7624SOL    HW123771   6.919   0.496   4.503
 7624SOL    HW223772   6.965   0.462   4.656
 7625SOL     OW23773   2.888   5.412   1.033
 7625SOL    HW123774   2.839   5.477   0.975
 7625SOL    HW223775   2.939   5.348   0.976
 7626SOL     OW23776   2.497   4.245   5.396
 7626SOL    HW123777   2.570   4.311   5.380
 7626SOL    HW223778   2.409   4.293   5.404
 7627SOL     OW23779   6.930   0.926   0.498
 7627SOL    HW123780   0.000   0.969   0.510
 7627SOL    HW223781   6.918   0.901   0.402
 7628SOL     OW23782   4.943   2.020   1.215
 7628SOL    HW123783   4.995   2.088   1.265
 7628SOL    HW223784   4.845   2.030   1.236
 7629SOL     OW23785   6.073   5.926   3.502
 7629SOL    HW123786   6.138   5.896   3.433
 7629SOL    HW223787   6.012   5.995   3.463
 7630SOL     OW23788   6.398   1.833   2.149
 7630SOL    HW123789   6.461   1.909   2.135
 7630SOL    HW223790   6.439   1.749   2.116
 7631SOL     OW23791   1.366   0.899   3.528
 7631SOL    HW123792   1.275   0.940   3.538
 7631SOL    HW223793   1.414   0.904   3.616
 7632SOL     OW23794   4.518   0.714   4.645
 7632SOL    HW123795   4.600   0.670   4.610
 7632SOL    HW223796   4.456   0.645   4.681
 7633SOL     OW23797   6.294   3.796   6.221
 7633SOL    HW123798   6.292   3.702   6.255
 7633SOL    HW223799   6.368   3.805   6.154
 7634SOL     OW23800   1.090   2.661   2.505
 7634SOL    HW123801   1.121   2.728   2.437
 7634SOL    HW223802   1.049   2.583   2.459
 7635SOL     OW23803   2.406   4.782   5.814
 7635SOL    HW123804   2.420   4.684   5.804
 7635SOL    HW223805   2.312   4.806   5.788
 7636SOL     OW23806   0.788   0.807   3.635
 7636SOL    HW123807   0.793   0.907   3.643
 7636SOL    HW223808   0.730   0.783   3.557
 7637SOL     OW23809   2.778   6.335   4.113
 7637SOL    HW123810   2.738   6.256   4.067
 7637SOL    HW223811   2.778   6.319   4.212
 7638SOL     OW23812   4.674   4.309   1.679
 7638SOL    HW123813   4.612   4.288   1.754
 7638SOL    HW223814   4.750   4.243   1.679
 7639SOL     OW23815   0.604   2.132   4.127
 7639SOL    HW123816   0.610   2.102   4.032
 7639SOL    HW223817   0.662   2.075   4.184
 7640SOL     OW23818   2.284   3.447   6.035
 7640SOL    HW123819   2.262   3.350   6.029
 7640SOL    HW223820   2.253   3.484   6.122
 7641SOL     OW23821   5.772   3.424   2.997
 7641SOL    HW123822   5.818   3.466   3.075
 7641SOL    HW223823   5.676   3.453   2.997
 7642SOL     OW23824   1.525   2.299   2.977
 7642SOL    HW123825   1.554   2.210   3.010
 7642SOL    HW223826   1.605   2.359   2.968
 7643SOL     OW23827   5.286   3.847   3.390
 7643SOL    HW123828   5.227   3.869   3.312
 7643SOL    HW223829   5.252   3.892   3.472
 7644SOL     OW23830   6.189   3.330   4.002
 7644SOL    HW123831   6.134   3.280   3.935
 7644SOL    HW223832   6.241   3.265   4.057
 7645SOL     OW23833   3.662   3.210   0.855
 7645SOL    HW123834   3.635   3.252   0.942
 7645SOL    HW223835   3.580   3.185   0.804
 7646SOL     OW23836   0.754   0.299   1.830
 7646SOL    HW123837   0.717   0.211   1.860
 7646SOL    HW223838   0.687   0.345   1.771
 7647SOL     OW23839   1.983   4.862   0.029
 7647SOL    HW123840   2.041   4.909   0.095
 7647SOL    HW223841   1.908   4.817   0.076
 7648SOL     OW23842   2.963   0.765   3.503
 7648SOL    HW123843   2.900   0.765   3.581
 7648SOL    HW223844   2.987   0.859   3.480
 7649SOL     OW23845   3.145   1.566   1.118
 7649SOL    HW123846   3.113   1.471   1.118
 7649SOL    HW223847   3.163   1.595   1.212
 7650SOL     OW23848   6.849   5.001   0.792
 7650SOL    HW123849   6.758   4.993   0.834
 7650SOL    HW223850   6.867   4.919   0.737
 7651SOL     OW23851   5.777   1.394   6.094
 7651SOL    HW123852   5.846   1.355   6.154
 7651SOL    HW223853   5.779   1.349   6.005
 7652SOL     OW23854   1.155   3.423   2.960
 7652SOL    HW123855   1.150   3.363   3.039
 7652SOL    HW223856   1.094   3.501   2.973
 7653SOL     OW23857   4.988   2.565   1.969
 7653SOL    HW123858   4.954   2.477   1.936
 7653SOL    HW223859   4.912   2.629   1.980
 7654SOL     OW23860   5.432   3.554   5.179
 7654SOL    HW123861   5.435   3.455   5.167
 7654SOL    HW223862   5.521   3.587   5.209
 7655SOL     OW23863   4.652   5.174   6.536
 7655SOL    HW123864   4.612   5.125   6.614
 7655SOL    HW223865   4.580   5.224   6.487
 7656SOL     OW23866   0.650   0.308   5.142
 7656SOL    HW123867   0.681   0.345   5.055
 7656SOL    HW223868   0.664   0.209   5.144
 7657SOL     OW23869   4.232   1.921   3.476
 7657SOL    HW123870   4.303   1.992   3.482
 7657SOL    HW223871   4.202   1.897   3.568
 7658SOL     OW23872   4.184   0.693   5.734
 7658SOL    HW123873   4.232   0.741   5.808
 7658SOL    HW223874   4.164   0.758   5.661
 7659SOL     OW23875   5.107   5.843   6.150
 7659SOL    HW123876   5.111   5.753   6.192
 7659SOL    HW223877   5.122   5.835   6.051
 7660SOL     OW23878   5.277   5.454   4.049
 7660SOL    HW123879   5.246   5.359   4.058
 7660SOL    HW223880   5.223   5.499   3.977
 7661SOL     OW23881   6.139   3.721   3.872
 7661SOL    HW123882   6.047   3.709   3.910
 7661SOL    HW223883   6.195   3.774   3.935
 7662SOL     OW23884   6.543   5.428   3.533
 7662SOL    HW123885   6.489   5.440   3.450
 7662SOL    HW223886   6.624   5.372   3.513
 7663SOL     OW23887   1.038   6.500   0.709
 7663SOL    HW123888   1.033   6.455   0.798
 7663SOL    HW223889   1.094   6.445   0.647
 7664SOL     OW23890   3.508   5.502   4.794
 7664SOL    HW123891   3.554   5.419   4.760
 7664SOL    HW223892   3.538   5.520   4.888
 7665SOL     OW23893   2.115   5.837   3.682
 7665SOL    HW123894   2.015   5.834   3.685
 7665SOL    HW223895   2.151   5.846   3.775
 7666SOL     OW23896   2.137   0.568   2.541
 7666SOL    HW123897   2.140   0.566   2.641
 7666SOL    HW223898   2.090   0.651   2.511
 7667SOL     OW23899   5.855   6.804   5.329
 7667SOL    HW123900   5.916   6.875   5.294
 7667SOL    HW223901   5.779   6.845   5.378
 7668SOL     OW23902   3.024   3.575   2.012
 7668SOL    HW123903   3.070   3.614   1.932
 7668SOL    HW223904   2.952   3.512   1.982
 7669SOL     OW23905   4.535   6.582   5.008
 7669SOL    HW123906   4.589   6.582   4.924
 7669SOL    HW223907   4.595   6.594   5.086
 7670SOL     OW23908   1.781   5.756   0.875
 7670SOL    HW123909   1.814   5.783   0.785
 7670SOL    HW223910   1.749   5.837   0.924
 7671SOL     OW23911   4.613   2.280   4.466
 7671SOL    HW123912   4.658   2.369   4.454
 7671SOL    HW223913   4.524   2.293   4.510
 7672SOL     OW23914   6.302   0.213   1.909
 7672SOL    HW123915   6.336   0.130   1.864
 7672SOL    HW223916   6.361   0.290   1.884
 7673SOL     OW23917   1.078   3.573   0.307
 7673SOL    HW123918   1.102   3.527   0.222
 7673SOL    HW223919   1.047   3.506   0.374
 7674SOL     OW23920   6.199   0.862   5.233
 7674SOL    HW123921   6.260   0.808   5.175
 7674SOL    HW223922   6.202   0.958   5.206
 7675SOL     OW23923   5.018   0.411   3.258
 7675SOL    HW123924   5.042   0.461   3.341
 7675SOL    HW223925   5.075   0.445   3.182
 7676SOL     OW23926   1.600   6.917   1.050
 7676SOL    HW123927   1.517   6.910   1.105
 7676SOL    HW223928   1.576   6.945   0.957
 7677SOL     OW23929   1.814   2.985   2.666
 7677SOL    HW123930   1.826   3.074   2.710
 7677SOL    HW223931   1.720   2.975   2.634
 7678SOL     OW23932   5.207   6.659   6.196
 7678SOL    HW123933   5.212   6.666   6.096
 7678SOL    HW223934   5.114   6.634   6.222
 7679SOL     OW23935   1.417   5.133   4.119
 7679SOL    HW123936   1.401   5.043   4.160
 7679SOL    HW223937   1.442   5.121   4.023
 7680SOL     OW23938   4.868   0.399   0.429
 7680SOL    HW123939   4.931   0.324   0.448
 7680SOL    HW223940   4.782   0.363   0.393
 7681SOL     OW23941   4.023   2.056   5.826
 7681SOL    HW123942   3.970   2.081   5.908
 7681SOL    HW223943   3.982   2.100   5.746
 7682SOL     OW23944   3.180   0.529   0.507
 7682SOL    HW123945   3.210   0.623   0.491
 7682SOL    HW223946   3.109   0.528   0.577
 7683SOL     OW23947   6.685   3.439   3.673
 7683SOL    HW123948   6.721   3.503   3.741
 7683SOL    HW223949   6.673   3.349   3.716
 7684SOL     OW23950   3.809   1.900   5.510
 7684SOL    HW123951   3.868   1.864   5.583
 7684SOL    HW223952   3.823   1.847   5.427
 7685SOL     OW23953   3.814   3.934   1.702
 7685SOL    HW123954   3.907   3.912   1.732
 7685SOL    HW223955   3.812   4.027   1.664
 7686SOL     OW23956   2.622   1.074   2.398
 7686SOL    HW123957   2.537   1.063   2.448
 7686SOL    HW223958   2.640   1.171   2.382
 7687SOL     OW23959   4.723   4.180   5.774
 7687SOL    HW123960   4.812   4.151   5.811
 7687SOL    HW223961   4.672   4.228   5.846
 7688SOL     OW23962   6.483   0.952   3.182
 7688SOL    HW123963   6.406   0.988   3.235
 7688SOL    HW223964   6.550   0.912   3.244
 7689SOL     OW23965   3.508   0.012   5.023
 7689SOL    HW123966   3.501   0.023   5.122
 7689SOL    HW223967   3.598   6.994   4.999
 7690SOL     OW23968   1.084   5.301   2.587
 7690SOL    HW123969   1.056   5.330   2.679
 7690SOL    HW223970   1.005   5.262   2.539
 7691SOL     OW23971   6.393   3.947   5.725
 7691SOL    HW123972   6.422   4.039   5.697
 7691SOL    HW223973   6.394   3.887   5.645
 7692SOL     OW23974   1.554   6.194   1.244
 7692SOL    HW123975   1.528   6.098   1.257
 7692SOL    HW223976   1.474   6.246   1.215
 7693SOL     OW23977   5.388   1.302   0.611
 7693SOL    HW123978   5.435   1.223   0.652
 7693SOL    HW223979   5.327   1.343   0.679
 7694SOL     OW23980   5.917   5.055   3.528
 7694SOL    HW123981   5.926   4.957   3.545
 7694SOL    HW223982   5.906   5.103   3.616
 7695SOL     OW23983   4.555   0.443   6.761
 7695SOL    HW123984   4.516   0.398   6.842
 7695SOL    HW223985   4.535   0.388   6.680
 7696SOL     OW23986   1.130   3.848   5.451
 7696SOL    HW123987   1.206   3.804   5.499
 7696SOL    HW223988   1.132   3.821   5.355
 7697SOL     OW23989   4.758   1.333   2.295
 7697SOL    HW123990   4.755   1.234   2.286
 7697SOL    HW223991   4.716   1.360   2.382
 7698SOL     OW23992   0.286   2.115   6.035
 7698SOL    HW123993   0.367   2.162   6.002
 7698SOL    HW223994   0.291   2.106   6.135
 7699SOL     OW23995   3.008   3.245   0.781
 7699SOL    HW123996   3.072   3.279   0.850
 7699SOL    HW223997   3.055   3.178   0.723
 7700SOL     OW23998   5.405   6.994   4.773
 7700SOL    HW123999   5.455   6.912   4.799
 7700SOL    HW224000   5.467   0.053   4.770
 7701SOL     OW24001   6.428   2.189   5.739
 7701SOL    HW124002   6.508   2.209   5.682
 7701SOL    HW224003   6.397   2.096   5.720
 7702SOL     OW24004   1.494   6.376   6.971
 7702SOL    HW124005   1.473   6.461   6.922
 7702SOL    HW224006   1.482   6.390   0.050
 7703SOL     OW24007   0.996   2.209   6.226
 7703SOL    HW124008   0.972   2.113   6.236
 7703SOL    HW224009   1.047   2.240   6.306
 7704SOL     OW24010   2.992   3.347   1.360
 7704SOL    HW124011   3.051   3.269   1.341
 7704SOL    HW224012   2.905   3.315   1.398
 7705SOL     OW24013   3.927   3.661   4.299
 7705SOL    HW124014   3.861   3.678   4.226
 7705SOL    HW224015   3.985   3.583   4.275
 7706SOL     OW24016   6.610   0.817   5.446
 7706SOL    HW124017   6.512   0.813   5.431
 7706SOL    HW224018   6.629   0.866   5.531
 7707SOL     OW24019   6.640   5.795   6.564
 7707SOL    HW124020   6.601   5.708   6.593
 7707SOL    HW224021   6.627   5.863   6.637
 7708SOL     OW24022   5.266   1.312   5.172
 7708SOL    HW124023   5.168   1.326   5.176
 7708SOL    HW224024   5.287   1.245   5.100
 7709SOL     OW24025   3.719   2.325   1.596
 7709SOL    HW124026   3.706   2.303   1.693
 7709SOL    HW224027   3.674   2.412   1.575
 7710SOL     OW24028   3.258   2.173   0.017
 7710SOL    HW124029   3.312   2.174   6.952
 7710SOL    HW224030   3.160   2.173   7.013
 7711SOL     OW24031   4.493   6.012   4.882
 7711SOL    HW124032   4.534   5.921   4.895
 7711SOL    HW224033   4.400   6.011   4.917
 7712SOL     OW24034   5.796   3.956   6.300
 7712SOL    HW124035   5.852   4.029   6.261
 7712SOL    HW224036   5.752   3.989   6.384
 7713SOL     OW24037   0.280   5.425   6.443
 7713SOL    HW124038   0.300   5.443   6.540
 7713SOL    HW224039   0.182   5.408   6.432
 7714SOL     OW24040   5.294   4.294   4.641
 7714SOL    HW124041   5.199   4.317   4.620
 7714SOL    HW224042   5.331   4.235   4.570
 7715SOL     OW24043   4.021   2.315   1.858
 7715SOL    HW124044   3.940   2.259   1.873
 7715SOL    HW224045   4.028   2.383   1.931
 7716SOL     OW24046   4.193   2.237   4.433
 7716SOL    HW124047   4.182   2.180   4.514
 7716SOL    HW224048   4.262   2.197   4.372
 7717SOL     OW24049   2.997   0.088   6.647
 7717SOL    HW124050   3.028   0.044   6.563
 7717SOL    HW224051   3.058   0.164   6.669
 7718SOL     OW24052   2.472   6.340   3.591
 7718SOL    HW124053   2.456   6.348   3.689
 7718SOL    HW224054   2.520   6.421   3.558
 7719SOL     OW24055   5.661   2.428   5.353
 7719SOL    HW124056   5.592   2.495   5.382
 7719SOL    HW224057   5.743   2.477   5.322
 7720SOL     OW24058   4.872   6.187   1.481
 7720SOL    HW124059   4.818   6.230   1.408
 7720SOL    HW224060   4.815   6.121   1.529
 7721SOL     OW24061   0.543   4.684   2.875
 7721SOL    HW124062   0.612   4.625   2.832
 7721SOL    HW224063   0.457   4.635   2.883
 7722SOL     OW24064   0.748   6.043   4.085
 7722SOL    HW124065   0.833   6.070   4.130
 7722SOL    HW224066   0.730   6.103   4.007
 7723SOL     OW24067   6.532   1.774   0.215
 7723SOL    HW124068   6.472   1.695   0.198
 7723SOL    HW224069   6.613   1.744   0.264
 7724SOL     OW24070   2.610   6.381   6.744
 7724SOL    HW124071   2.549   6.303   6.726
 7724SOL    HW224072   2.678   6.388   6.670
 7725SOL     OW24073   5.248   3.693   4.250
 7725SOL    HW124074   5.204   3.770   4.204
 7725SOL    HW224075   5.337   3.722   4.285
 7726SOL     OW24076   5.212   5.624   2.995
 7726SOL    HW124077   5.281   5.561   2.960
 7726SOL    HW224078   5.256   5.690   3.056
 7727SOL     OW24079   5.820   3.517   2.048
 7727SOL    HW124080   5.733   3.512   2.096
 7727SOL    HW224081   5.826   3.443   1.981
 7728SOL     OW24082   1.984   2.704   2.912
 7728SOL    HW124083   1.999   2.719   2.814
 7728SOL    HW224084   2.054   2.753   2.965
 7729SOL     OW24085   5.210   1.441   6.122
 7729SOL    HW124086   5.157   1.357   6.110
 7729SOL    HW224087   5.246   1.444   6.215
 7730SOL     OW24088   4.641   0.016   2.841
 7730SOL    HW124089   4.577   0.055   2.776
 7730SOL    HW224090   4.733   0.015   2.801
 7731SOL     OW24091   6.482   1.700   3.884
 7731SOL    HW124092   6.414   1.715   3.956
 7731SOL    HW224093   6.571   1.734   3.915
 7732SOL     OW24094   4.480   4.927   0.892
 7732SOL    HW124095   4.567   4.965   0.923
 7732SOL    HW224096   4.497   4.841   0.843
 7733SOL     OW24097   3.256   5.838   0.843
 7733SOL    HW124098   3.229   5.749   0.806
 7733SOL    HW224099   3.356   5.845   0.845
 7734SOL     OW24100   1.368   2.986   2.202
 7734SOL    HW124101   1.281   2.955   2.238
 7734SOL    HW224102   1.439   2.918   2.222
 7735SOL     OW24103   5.310   4.223   0.879
 7735SOL    HW124104   5.227   4.190   0.926
 7735SOL    HW224105   5.287   4.249   0.786
 7736SOL     OW24106   5.868   4.524   6.936
 7736SOL    HW124107   5.871   4.550   0.013
 7736SOL    HW224108   5.890   4.603   6.879
 7737SOL     OW24109   4.849   2.788   6.960
 7737SOL    HW124110   4.750   2.805   6.964
 7737SOL    HW224111   4.877   2.777   6.864
 7738SOL     OW24112   1.947   5.169   0.090
 7738SOL    HW124113   1.898   5.250   0.121
 7738SOL    HW224114   1.891   5.087   0.107
 7739SOL     OW24115   5.360   3.993   2.468
 7739SOL    HW124116   5.424   3.965   2.396
 7739SOL    HW224117   5.267   3.992   2.431
 7740SOL     OW24118   6.744   6.342   3.640
 7740SOL    HW124119   6.690   6.354   3.557
 7740SOL    HW224120   6.805   6.263   3.629
 7741SOL     OW24121   2.727   5.066   3.772
 7741SOL    HW124122   2.772   5.062   3.861
 7741SOL    HW224123   2.628   5.074   3.786
 7742SOL     OW24124   6.652   0.323   4.479
 7742SOL    HW124125   6.704   0.403   4.511
 7742SOL    HW224126   6.629   0.335   4.383
 7743SOL     OW24127   4.884   3.234   2.269
 7743SOL    HW124128   4.927   3.324   2.261
 7743SOL    HW224129   4.870   3.196   2.177
 7744SOL     OW24130   0.328   6.205   4.887
 7744SOL    HW124131   0.342   6.304   4.886
 7744SOL    HW224132   0.379   6.163   4.813
 7745SOL     OW24133   5.399   2.993   5.884
 7745SOL    HW124134   5.386   3.052   5.804
 7745SOL    HW224135   5.328   2.923   5.885
 7746SOL     OW24136   2.038   0.553   6.318
 7746SOL    HW124137   1.978   0.571   6.395
 7746SOL    HW224138   1.984   0.526   6.238
 7747SOL     OW24139   4.826   4.928   0.304
 7747SOL    HW124140   4.889   4.957   0.376
 7747SOL    HW224141   4.877   4.912   0.219
 7748SOL     OW24142   2.107   3.961   6.791
 7748SOL    HW124143   2.100   3.909   6.876
 7748SOL    HW224144   2.015   3.978   6.755
 7749SOL     OW24145   5.821   3.204   6.504
 7749SOL    HW124146   5.735   3.153   6.496
 7749SOL    HW224147   5.898   3.141   6.493
 7750SOL     OW24148   4.761   5.111   3.430
 7750SOL    HW124149   4.832   5.046   3.456
 7750SOL    HW224150   4.672   5.066   3.430
 7751SOL     OW24151   0.537   2.405   0.934
 7751SOL    HW124152   0.493   2.435   1.018
 7751SOL    HW224153   0.473   2.346   0.883
 7752SOL     OW24154   3.453   1.172   2.966
 7752SOL    HW124155   3.552   1.183   2.972
 7752SOL    HW224156   3.431   1.116   2.885
 7753SOL     OW24157   4.146   0.969   5.609
 7753SOL    HW124158   4.072   0.995   5.670
 7753SOL    HW224159   4.129   1.006   5.518
 7754SOL     OW24160   4.528   5.244   1.334
 7754SOL    HW124161   4.494   5.327   1.379
 7754SOL    HW224162   4.477   5.165   1.367
 7755SOL     OW24163   0.488   4.721   6.276
 7755SOL    HW124164   0.464   4.778   6.197
 7755SOL    HW224165   0.581   4.744   6.306
 7756SOL     OW24166   2.188   4.027   2.196
 7756SOL    HW124167   2.218   4.029   2.292
 7756SOL    HW224168   2.226   3.945   2.152
 7757SOL     OW24169   0.611   4.506   0.141
 7757SOL    HW124170   0.704   4.523   0.173
 7757SOL    HW224171   0.609   4.422   0.087
 7758SOL     OW24172   0.764   0.964   5.580
 7758SOL    HW124173   0.819   1.044   5.554
 7758SOL    HW224174   0.807   0.881   5.544
 7759SOL     OW24175   3.769   0.978   2.457
 7759SOL    HW124176   3.799   1.002   2.550
 7759SOL    HW224177   3.671   0.958   2.457
 7760SOL     OW24178   4.325   3.035   0.286
 7760SOL    HW124179   4.237   2.991   0.266
 7760SOL    HW224180   4.398   2.967   0.282
 7761SOL     OW24181   5.754   5.378   3.256
 7761SOL    HW124182   5.677   5.365   3.319
 7761SOL    HW224183   5.817   5.301   3.264
 7762SOL     OW24184   4.666   2.040   1.271
 7762SOL    HW124185   4.582   2.013   1.225
 7762SOL    HW224186   4.662   2.012   1.367
 7763SOL     OW24187   1.991   0.303   3.467
 7763SOL    HW124188   1.915   0.324   3.528
 7763SOL    HW224189   2.020   0.385   3.418
 7764SOL     OW24190   3.555   5.167   5.328
 7764SOL    HW124191   3.602   5.211   5.404
 7764SOL    HW224192   3.486   5.104   5.363
 7765SOL     OW24193   6.237   4.197   4.657
 7765SOL    HW124194   6.262   4.146   4.740
 7765SOL    HW224195   6.313   4.258   4.632
 7766SOL     OW24196   6.834   2.165   6.264
 7766SOL    HW124197   6.767   2.120   6.323
 7766SOL    HW224198   6.856   2.105   6.187
 7767SOL     OW24199   4.143   0.200   4.541
 7767SOL    HW124200   4.104   0.278   4.590
 7767SOL    HW224201   4.080   0.170   4.470
 7768SOL     OW24202   3.344   5.460   3.596
 7768SOL    HW124203   3.391   5.451   3.684
 7768SOL    HW224204   3.345   5.371   3.550
 7769SOL     OW24205   3.784   2.622   6.467
 7769SOL    HW124206   3.837   2.671   6.536
 7769SOL    HW224207   3.697   2.668   6.453
 7770SOL     OW24208   0.806   3.731   3.838
 7770SOL    HW124209   0.819   3.827   3.812
 7770SOL    HW224210   0.718   3.698   3.803
 7771SOL     OW24211   0.701   3.817   5.187
 7771SOL    HW124212   0.638   3.866   5.246
 7771SOL    HW224213   0.659   3.732   5.155
 7772SOL     OW24214   4.798   5.566   2.002
 7772SOL    HW124215   4.740   5.540   1.925
 7772SOL    HW224216   4.893   5.541   1.983
 7773SOL     OW24217   2.566   6.632   6.754
 7773SOL    HW124218   2.588   6.534   6.748
 7773SOL    HW224219   2.467   6.643   6.748
 7774SOL     OW24220   5.213   1.603   2.838
 7774SOL    HW124221   5.285   1.585   2.905
 7774SOL    HW224222   5.138   1.537   2.852
 7775SOL     OW24223   3.394   1.612   1.009
 7775SOL    HW124224   3.427   1.707   1.012
 7775SOL    HW224225   3.304   1.608   1.052
 7776SOL     OW24226   2.918   1.652   3.848
 7776SOL    HW124227   2.846   1.715   3.819
 7776SOL    HW224228   2.894   1.612   3.936
 7777SOL     OW24229   5.102   5.347   3.244
 7777SOL    HW124230   5.195   5.385   3.245
 7777SOL    HW224231   5.038   5.415   3.279
 7778SOL     OW24232   1.259   3.838   1.955
 7778SOL    HW124233   1.185   3.845   2.022
 7778SOL    HW224234   1.225   3.796   1.871
 7779SOL     OW24235   2.782   0.543   3.130
 7779SOL    HW124236   2.847   0.556   3.205
 7779SOL    HW224237   2.810   0.598   3.052
 7780SOL     OW24238   6.287   5.573   4.093
 7780SOL    HW124239   6.352   5.634   4.047
 7780SOL    HW224240   6.204   5.624   4.115
 7781SOL     OW24241   3.033   2.931   0.953
 7781SOL    HW124242   3.067   2.852   1.003
 7781SOL    HW224243   3.042   2.916   0.855
 7782SOL     OW24244   5.961   4.267   4.124
 7782SOL    HW124245   5.934   4.234   4.214
 7782SOL    HW224246   5.975   4.189   4.063
 7783SOL     OW24247   0.906   6.152   3.666
 7783SOL    HW124248   0.814   6.173   3.698
 7783SOL    HW224249   0.948   6.235   3.629
 7784SOL     OW24250   1.402   2.812   2.751
 7784SOL    HW124251   1.445   2.868   2.680
 7784SOL    HW224252   1.375   2.869   2.828
 7785SOL     OW24253   5.860   6.764   2.590
 7785SOL    HW124254   5.860   6.863   2.581
 7785SOL    HW224255   5.950   6.728   2.564
 7786SOL     OW24256   5.510   0.845   0.040
 7786SOL    HW124257   5.593   0.897   0.020
 7786SOL    HW224258   5.470   0.879   0.125
 7787SOL     OW24259   0.857   2.516   1.139
 7787SOL    HW124260   0.921   2.582   1.177
 7787SOL    HW224261   0.765   2.555   1.136
 7788SOL     OW24262   1.059   4.202   2.186
 7788SOL    HW124263   1.046   4.151   2.271
 7788SOL    HW224264   0.970   4.233   2.152
 7789SOL     OW24265   3.108   0.112   6.147
 7789SOL    HW124266   3.173   0.037   6.163
 7789SOL    HW224267   3.032   0.104   6.211
 7790SOL     OW24268   4.288   5.346   4.642
 7790SOL    HW124269   4.245   5.257   4.626
 7790SOL    HW224270   4.327   5.349   4.733
 7791SOL     OW24271   2.605   6.127   1.751
 7791SOL    HW124272   2.670   6.155   1.822
 7791SOL    HW224273   2.647   6.140   1.661
 7792SOL     OW24274   1.091   1.204   1.990
 7792SOL    HW124275   1.189   1.222   1.988
 7792SOL    HW224276   1.040   1.290   1.997
 7793SOL     OW24277   4.862   1.758   0.205
 7793SOL    HW124278   4.924   1.834   0.226
 7793SOL    HW224279   4.783   1.762   0.266
 7794SOL     OW24280   1.254   0.771   2.646
 7794SOL    HW124281   1.218   0.762   2.739
 7794SOL    HW224282   1.343   0.726   2.641
 7795SOL     OW24283   3.967   3.639   1.586
 7795SOL    HW124284   4.027   3.558   1.586
 7795SOL    HW224285   3.990   3.697   1.664
 7796SOL     OW24286   4.363   1.596   0.955
 7796SOL    HW124287   4.283   1.570   1.010
 7796SOL    HW224288   4.366   1.540   0.872
 7797SOL     OW24289   1.531   6.229   2.781
 7797SOL    HW124290   1.448   6.209   2.729
 7797SOL    HW224291   1.506   6.270   2.869
 7798SOL     OW24292   1.698   3.377   1.047
 7798SOL    HW124293   1.782   3.378   1.102
 7798SOL    HW224294   1.710   3.318   0.968
 7799SOL     OW24295   2.134   6.182   3.942
 7799SOL    HW124296   2.205   6.116   3.917
 7799SOL    HW224297   2.044   6.143   3.925
 7800SOL     OW24298   0.765   0.945   2.316
 7800SOL    HW124299   0.694   1.013   2.296
 7800SOL    HW224300   0.853   0.991   2.327
 7801SOL     OW24301   1.643   1.869   0.596
 7801SOL    HW124302   1.575   1.809   0.553
 7801SOL    HW224303   1.597   1.948   0.636
 7802SOL     OW24304   6.332   5.422   3.853
 7802SOL    HW124305   6.279   5.473   3.921
 7802SOL    HW224306   6.405   5.479   3.817
 7803SOL     OW24307   3.329   1.823   6.103
 7803SOL    HW124308   3.343   1.833   6.201
 7803SOL    HW224309   3.414   1.842   6.054
 7804SOL     OW24310   3.052   1.264   5.715
 7804SOL    HW124311   3.103   1.346   5.690
 7804SOL    HW224312   3.007   1.278   5.804
 7805SOL     OW24313   6.270   2.044   6.665
 7805SOL    HW124314   6.336   2.013   6.597
 7805SOL    HW224315   6.195   2.092   6.620
 7806SOL     OW24316   6.373   2.175   5.341
 7806SOL    HW124317   6.377   2.253   5.402
 7806SOL    HW224318   6.413   2.095   5.386
 7807SOL     OW24319   1.757   5.672   5.611
 7807SOL    HW124320   1.768   5.761   5.655
 7807SOL    HW224321   1.831   5.611   5.640
 7808SOL     OW24322   0.382   2.808   4.505
 7808SOL    HW124323   0.330   2.771   4.428
 7808SOL    HW224324   0.477   2.776   4.500
 7809SOL     OW24325   3.528   0.204   2.978
 7809SOL    HW124326   3.555   0.114   2.946
 7809SOL    HW224327   3.494   0.197   3.072
 7810SOL     OW24328   2.243   6.762   6.206
 7810SOL    HW124329   2.203   6.672   6.222
 7810SOL    HW224330   2.290   6.793   6.289
 7811SOL     OW24331   1.636   5.298   2.903
 7811SOL    HW124332   1.567   5.263   2.966
 7811SOL    HW224333   1.594   5.366   2.843
 7812SOL     OW24334   2.934   0.895   6.291
 7812SOL    HW124335   2.975   0.831   6.227
 7812SOL    HW224336   2.897   0.973   6.241
 7813SOL     OW24337   5.944   1.138   0.660
 7813SOL    HW124338   5.954   1.124   0.562
 7813SOL    HW224339   5.848   1.123   0.686
 7814SOL     OW24340   0.107   2.513   2.233
 7814SOL    HW124341   0.068   2.519   2.325
 7814SOL    HW224342   0.181   2.447   2.232
 7815SOL     OW24343   4.751   5.991   2.920
 7815SOL    HW124344   4.810   5.958   2.846
 7815SOL    HW224345   4.658   6.005   2.884
 7816SOL     OW24346   1.155   1.396   5.722
 7816SOL    HW124347   1.187   1.490   5.716
 7816SOL    HW224348   1.218   1.336   5.673
 7817SOL     OW24349   4.854   0.770   5.834
 7817SOL    HW124350   4.792   0.848   5.844
 7817SOL    HW224351   4.880   0.737   5.924
 7818SOL     OW24352   5.205   1.262   2.851
 7818SOL    HW124353   5.111   1.234   2.833
 7818SOL    HW224354   5.259   1.254   2.768
 7819SOL     OW24355   2.278   2.639   4.645
 7819SOL    HW124356   2.297   2.724   4.694
 7819SOL    HW224357   2.361   2.605   4.601
 7820SOL     OW24358   1.564   1.069   6.083
 7820SOL    HW124359   1.643   1.118   6.122
 7820SOL    HW224360   1.511   1.132   6.026
 7821SOL     OW24361   3.931   5.556   6.604
 7821SOL    HW124362   3.893   5.549   6.512
 7821SOL    HW224363   3.917   5.469   6.653
 7822SOL     OW24364   0.578   1.587   4.796
 7822SOL    HW124365   0.673   1.586   4.765
 7822SOL    HW224366   0.525   1.650   4.738
 7823SOL     OW24367   2.466   3.070   5.835
 7823SOL    HW124368   2.429   3.139   5.773
 7823SOL    HW224369   2.481   2.985   5.784
 7824SOL     OW24370   6.004   4.248   2.636
 7824SOL    HW124371   6.057   4.323   2.596
 7824SOL    HW224372   5.909   4.278   2.647
 7825SOL     OW24373   3.328   3.311   3.494
 7825SOL    HW124374   3.425   3.331   3.481
 7825SOL    HW224375   3.302   3.233   3.437
 7826SOL     OW24376   6.538   6.937   0.978
 7826SOL    HW124377   6.601   6.983   1.040
 7826SOL    HW224378   6.519   6.845   1.011
 7827SOL     OW24379   5.062   3.963   0.394
 7827SOL    HW124380   5.116   3.887   0.358
 7827SOL    HW224381   5.033   4.022   0.319
 7828SOL     OW24382   1.270   6.382   0.902
 7828SOL    HW124383   1.297   6.440   0.825
 7828SOL    HW224384   1.289   6.287   0.880
 7829SOL     OW24385   3.659   4.125   2.944
 7829SOL    HW124386   3.702   4.136   2.854
 7829SOL    HW224387   3.560   4.119   2.933
 7830SOL     OW24388   6.776   4.345   0.140
 7830SOL    HW124389   6.755   4.440   0.116
 7830SOL    HW224390   6.866   4.340   0.182
 7831SOL     OW24391   3.094   2.832   0.319
 7831SOL    HW124392   3.001   2.795   0.317
 7831SOL    HW224393   3.160   2.757   0.328
 7832SOL     OW24394   3.916   2.725   5.717
 7832SOL    HW124395   4.003   2.772   5.706
 7832SOL    HW224396   3.931   2.637   5.761
 7833SOL     OW24397   6.378   0.001   1.750
 7833SOL    HW124398   6.356   0.054   1.668
 7833SOL    HW224399   6.306   6.952   1.765
 7834SOL     OW24400   5.464   1.467   1.221
 7834SOL    HW124401   5.485   1.381   1.175
 7834SOL    HW224402   5.527   1.538   1.188
 7835SOL     OW24403   2.493   2.354   4.289
 7835SOL    HW124404   2.446   2.387   4.370
 7835SOL    HW224405   2.521   2.258   4.302
 7836SOL     OW24406   2.498   0.817   6.767
 7836SOL    HW124407   2.547   0.853   6.847
 7836SOL    HW224408   2.450   0.733   6.793
 7837SOL     OW24409   5.399   6.307   1.744
 7837SOL    HW124410   5.476   6.253   1.711
 7837SOL    HW224411   5.343   6.252   1.806
 7838SOL     OW24412   3.595   5.462   3.760
 7838SOL    HW124413   3.621   5.412   3.678
 7838SOL    HW224414   3.645   5.549   3.763
 7839SOL     OW24415   6.905   5.599   3.569
 7839SOL    HW124416   6.893   5.502   3.591
 7839SOL    HW224417   6.830   5.630   3.510
 7840SOL     OW24418   4.085   2.822   6.432
 7840SOL    HW124419   4.147   2.750   6.401
 7840SOL    HW224420   4.063   2.883   6.355
 7841SOL     OW24421   1.203   2.175   5.812
 7841SOL    HW124422   1.225   2.237   5.737
 7841SOL    HW224423   1.130   2.216   5.867
 7842SOL     OW24424   1.865   0.748   2.900
 7842SOL    HW124425   1.827   0.748   2.992
 7842SOL    HW224426   1.791   0.735   2.834
 7843SOL     OW24427   0.339   2.102   1.993
 7843SOL    HW124428   0.309   2.103   1.897
 7843SOL    HW224429   0.356   2.195   2.023
 7844SOL     OW24430   3.145   2.044   3.312
 7844SOL    HW124431   3.174   1.972   3.376
 7844SOL    HW224432   3.225   2.075   3.260
 7845SOL     OW24433   0.651   0.742   4.184
 7845SOL    HW124434   0.750   0.744   4.199
 7845SOL    HW224435   0.624   0.650   4.155
 7846SOL     OW24436   4.619   0.389   2.224
 7846SOL    HW124437   4.655   0.440   2.146
 7846SOL    HW224438   4.683   0.395   2.300
 7847SOL     OW24439   0.364   6.859   6.671
 7847SOL    HW124440   0.412   6.913   6.602
 7847SOL    HW224441   0.415   6.862   6.757
 7848SOL     OW24442   4.148   3.787   1.858
 7848SOL    HW124443   4.217   3.717   1.843
 7848SOL    HW224444   4.132   3.798   1.957
 7849SOL     OW24445   5.009   4.012   4.814
 7849SOL    HW124446   4.958   4.072   4.876
 7849SOL    HW224447   4.989   4.038   4.719
 7850SOL     OW24448   1.269   2.804   4.990
 7850SOL    HW124449   1.356   2.829   4.948
 7850SOL    HW224450   1.264   2.841   5.082
 7851SOL     OW24451   3.875   6.673   0.605
 7851SOL    HW124452   3.785   6.710   0.580
 7851SOL    HW224453   3.943   6.705   0.540
 7852SOL     OW24454   2.777   6.863   0.570
 7852SOL    HW124455   2.818   6.806   0.498
 7852SOL    HW224456   2.829   6.852   0.654
 7853SOL     OW24457   2.307   1.383   0.364
 7853SOL    HW124458   2.262   1.351   0.281
 7853SOL    HW224459   2.362   1.309   0.402
 7854SOL     OW24460   4.120   3.670   3.963
 7854SOL    HW124461   4.120   3.651   4.061
 7854SOL    HW224462   4.212   3.652   3.925
 7855SOL     OW24463   2.941   0.297   5.034
 7855SOL    HW124464   2.945   0.263   4.940
 7855SOL    HW224465   2.847   0.319   5.058
 7856SOL     OW24466   3.263   2.586   6.481
 7856SOL    HW124467   3.355   2.549   6.494
 7856SOL    HW224468   3.261   2.643   6.398
 7857SOL     OW24469   0.335   2.863   5.058
 7857SOL    HW124470   0.350   2.954   5.021
 7857SOL    HW224471   0.357   2.863   5.156
 7858SOL     OW24472   5.161   3.429   3.605
 7858SOL    HW124473   5.184   3.334   3.625
 7858SOL    HW224474   5.070   3.449   3.641
 7859SOL     OW24475   0.677   0.141   0.447
 7859SOL    HW124476   0.752   0.175   0.504
 7859SOL    HW224477   0.640   0.215   0.392
 7860SOL     OW24478   5.007   6.521   1.045
 7860SOL    HW124479   4.967   6.612   1.038
 7860SOL    HW224480   5.087   6.515   0.985
 7861SOL     OW24481   6.318   3.422   0.242
 7861SOL    HW124482   6.368   3.475   0.311
 7861SOL    HW224483   6.382   3.390   0.172
 7862SOL     OW24484   2.657   4.690   1.847
 7862SOL    HW124485   2.733   4.681   1.911
 7862SOL    HW224486   2.674   4.633   1.767
 7863SOL     OW24487   4.165   5.948   2.574
 7863SOL    HW124488   4.107   5.961   2.654
 7863SOL    HW224489   4.131   6.002   2.498
 7864SOL     OW24490   1.547   5.694   5.224
 7864SOL    HW124491   1.476   5.636   5.264
 7864SOL    HW224492   1.507   5.750   5.151
 7865SOL     OW24493   4.483   0.908   2.889
 7865SOL    HW124494   4.445   0.917   2.981
 7865SOL    HW224495   4.463   0.991   2.836
 7866SOL     OW24496   2.637   1.014   5.611
 7866SOL    HW124497   2.644   1.114   5.603
 7866SOL    HW224498   2.564   0.991   5.674
 7867SOL     OW24499   6.209   3.224   1.041
 7867SOL    HW124500   6.278   3.272   0.986
 7867SOL    HW224501   6.138   3.188   0.981
 7868SOL     OW24502   4.389   6.583   0.784
 7868SOL    HW124503   4.345   6.500   0.751
 7868SOL    HW224504   4.320   6.651   0.807
 7869SOL     OW24505   6.093   1.803   3.918
 7869SOL    HW124506   6.001   1.823   3.887
 7869SOL    HW224507   6.099   1.706   3.943
 7870SOL     OW24508   6.597   0.299   3.366
 7870SOL    HW124509   6.637   0.299   3.458
 7870SOL    HW224510   6.659   0.252   3.303
 7871SOL     OW24511   5.703   3.081   4.158
 7871SOL    HW124512   5.714   3.124   4.248
 7871SOL    HW224513   5.681   3.150   4.090
 7872SOL     OW24514   6.800   4.308   4.502
 7872SOL    HW124515   6.864   4.231   4.498
 7872SOL    HW224516   6.717   4.284   4.451
 7873SOL     OW24517   6.929   5.750   4.488
 7873SOL    HW124518   6.986   5.672   4.514
 7873SOL    HW224519   6.945   5.773   4.393
 7874SOL     OW24520   6.088   6.861   6.816
 7874SOL    HW124521   6.159   6.930   6.806
 7874SOL    HW224522   6.104   6.808   6.899
 7875SOL     OW24523   5.064   3.144   0.280
 7875SOL    HW124524   5.117   3.220   0.242
 7875SOL    HW224525   5.051   3.074   0.210
 7876SOL     OW24526   0.414   1.765   4.641
 7876SOL    HW124527   0.325   1.738   4.604
 7876SOL    HW224528   0.471   1.801   4.567
 7877SOL     OW24529   5.643   3.848   2.046
 7877SOL    HW124530   5.609   3.760   2.079
 7877SOL    HW224531   5.725   3.833   1.991
 7878SOL     OW24532   3.853   3.706   1.949
 7878SOL    HW124533   3.942   3.702   1.995
 7878SOL    HW224534   3.845   3.628   1.887
 7879SOL     OW24535   6.825   1.217   5.000
 7879SOL    HW124536   6.872   1.134   4.970
 7879SOL    HW224537   6.800   1.272   4.921
 7880SOL     OW24538   1.842   6.177   6.515
 7880SOL    HW124539   1.828   6.139   6.606
 7880SOL    HW224540   1.757   6.221   6.484
 7881SOL     OW24541   0.788   5.207   4.597
 7881SOL    HW124542   0.832   5.271   4.535
 7881SOL    HW224543   0.856   5.166   4.658
 7882SOL     OW24544   1.817   4.754   1.411
 7882SOL    HW124545   1.770   4.671   1.380
 7882SOL    HW224546   1.880   4.730   1.485
 7883SOL     OW24547   3.291   2.017   2.243
 7883SOL    HW124548   3.224   2.091   2.236
 7883SOL    HW224549   3.307   1.976   2.153
 7884SOL     OW24550   1.079   2.581   5.700
 7884SOL    HW124551   1.022   2.657   5.668
 7884SOL    HW224552   1.109   2.599   5.794
 7885SOL     OW24553   5.895   5.343   2.397
 7885SOL    HW124554   5.949   5.378   2.320
 7885SOL    HW224555   5.923   5.249   2.416
 7886SOL     OW24556   3.990   4.801   2.872
 7886SOL    HW124557   3.925   4.808   2.796
 7886SOL    HW224558   3.955   4.854   2.950
 7887SOL     OW24559   0.676   3.353   0.692
 7887SOL    HW124560   0.660   3.450   0.673
 7887SOL    HW224561   0.698   3.306   0.607
 7888SOL     OW24562   7.011   1.959   5.354
 7888SOL    HW124563   0.065   1.896   5.329
 7888SOL    HW224564   0.002   2.044   5.303
 7889SOL     OW24565   5.382   4.810   0.097
 7889SOL    HW124566   5.370   4.771   0.188
 7889SOL    HW224567   5.336   4.899   0.093
 7890SOL     OW24568   2.031   3.077   2.090
 7890SOL    HW124569   2.108   3.046   2.146
 7890SOL    HW224570   1.946   3.060   2.139
 7891SOL     OW24571   6.091   1.327   4.398
 7891SOL    HW124572   6.118   1.255   4.334
 7891SOL    HW224573   6.035   1.289   4.471
 7892SOL     OW24574   1.185   2.106   4.208
 7892SOL    HW124575   1.153   2.185   4.156
 7892SOL    HW224576   1.219   2.136   4.297
 7893SOL     OW24577   5.640   6.179   1.299
 7893SOL    HW124578   5.630   6.241   1.377
 7893SOL    HW224579   5.589   6.215   1.221
 7894SOL     OW24580   3.199   0.278   6.686
 7894SOL    HW124581   3.165   0.370   6.668
 7894SOL    HW224582   3.270   0.280   6.756
 7895SOL     OW24583   5.440   6.293   3.006
 7895SOL    HW124584   5.503   6.357   3.050
 7895SOL    HW224585   5.390   6.341   2.933
 7896SOL     OW24586   2.753   1.809   0.392
 7896SOL    HW124587   2.752   1.721   0.439
 7896SOL    HW224588   2.795   1.878   0.451
 7897SOL     OW24589   4.766   1.491   1.786
 7897SOL    HW124590   4.719   1.491   1.697
 7897SOL    HW224591   4.805   1.581   1.802
 7898SOL     OW24592   4.435   6.222   3.054
 7898SOL    HW124593   4.369   6.296   3.038
 7898SOL    HW224594   4.516   6.237   2.998
 7899SOL     OW24595   5.989   4.913   2.913
 7899SOL    HW124596   5.968   4.905   2.816
 7899SOL    HW224597   6.040   4.832   2.943
 7900SOL     OW24598   0.543   3.198   0.913
 7900SOL    HW124599   0.540   3.249   0.827
 7900SOL    HW224600   0.468   3.132   0.915
 7901SOL     OW24601   0.689   2.407   0.063
 7901SOL    HW124602   0.596   2.415   0.027
 7901SOL    HW224603   0.704   2.313   0.094
 7902SOL     OW24604   1.733   0.279   0.921
 7902SOL    HW124605   1.745   0.182   0.898
 7902SOL    HW224606   1.707   0.287   1.018
 7903SOL     OW24607   3.045   1.916   5.643
 7903SOL    HW124608   2.949   1.887   5.645
 7903SOL    HW224609   3.097   1.862   5.709
 7904SOL     OW24610   5.268   3.373   2.926
 7904SOL    HW124611   5.243   3.372   3.023
 7904SOL    HW224612   5.185   3.374   2.871
 7905SOL     OW24613   6.106   2.091   1.744
 7905SOL    HW124614   6.184   2.051   1.697
 7905SOL    HW224615   6.066   2.024   1.806
 7906SOL     OW24616   0.309   5.807   6.224
 7906SOL    HW124617   0.362   5.874   6.172
 7906SOL    HW224618   0.353   5.717   6.219
 7907SOL     OW24619   5.749   6.068   3.685
 7907SOL    HW124620   5.827   6.117   3.646
 7907SOL    HW224621   5.773   6.032   3.774
 7908SOL     OW24622   1.934   0.139   5.585
 7908SOL    HW124623   1.861   0.101   5.528
 7908SOL    HW224624   1.894   0.179   5.668
 7909SOL     OW24625   6.325   3.458   1.866
 7909SOL    HW124626   6.374   3.448   1.779
 7909SOL    HW224627   6.265   3.538   1.862
 7910SOL     OW24628   1.570   4.124   4.976
 7910SOL    HW124629   1.552   4.206   5.030
 7910SOL    HW224630   1.667   4.102   4.980
 7911SOL     OW24631   6.106   4.044   5.562
 7911SOL    HW124632   6.064   4.135   5.570
 7911SOL    HW224633   6.137   4.013   5.652
 7912SOL     OW24634   5.695   6.018   1.521
 7912SOL    HW124635   5.655   5.927   1.534
 7912SOL    HW224636   5.691   6.043   1.424
 7913SOL     OW24637   1.315   5.031   6.334
 7913SOL    HW124638   1.257   4.956   6.363
 7913SOL    HW224639   1.406   4.997   6.310
 7914SOL     OW24640   0.928   6.901   4.615
 7914SOL    HW124641   0.986   6.982   4.608
 7914SOL    HW224642   0.861   6.901   4.541
 7915SOL     OW24643   3.287   5.586   1.940
 7915SOL    HW124644   3.366   5.638   1.973
 7915SOL    HW224645   3.296   5.490   1.969
 7916SOL     OW24646   1.258   0.878   4.120
 7916SOL    HW124647   1.350   0.908   4.144
 7916SOL    HW224648   1.192   0.926   4.178
 7917SOL     OW24649   4.952   2.385   3.034
 7917SOL    HW124650   4.923   2.411   2.942
 7917SOL    HW224651   4.897   2.435   3.101
 7918SOL     OW24652   1.584   2.502   2.475
 7918SOL    HW124653   1.656   2.481   2.541
 7918SOL    HW224654   1.495   2.481   2.514
 7919SOL     OW24655   0.486   6.670   4.943
 7919SOL    HW124656   0.505   6.604   5.016
 7919SOL    HW224657   0.490   6.763   4.981
 7920SOL     OW24658   5.410   6.575   0.704
 7920SOL    HW124659   5.462   6.651   0.664
 7920SOL    HW224660   5.350   6.536   0.635
 7921SOL     OW24661   5.238   3.246   0.682
 7921SOL    HW124662   5.213   3.330   0.635
 7921SOL    HW224663   5.195   3.168   0.637
 7922SOL     OW24664   2.080   6.625   3.300
 7922SOL    HW124665   1.988   6.585   3.300
 7922SOL    HW224666   2.076   6.717   3.341
 7923SOL     OW24667   5.003   0.129   1.266
 7923SOL    HW124668   5.096   0.098   1.288
 7923SOL    HW224669   4.974   0.090   1.179
 7924SOL     OW24670   5.811   5.609   0.014
 7924SOL    HW124671   5.764   5.540   6.978
 7924SOL    HW224672   5.824   5.575   0.107
 7925SOL     OW24673   1.912   4.812   5.977
 7925SOL    HW124674   1.862   4.864   6.046
 7925SOL    HW224675   1.952   4.730   6.019
 7926SOL     OW24676   4.536   5.639   5.814
 7926SOL    HW124677   4.538   5.712   5.746
 7926SOL    HW224678   4.604   5.658   5.886
 7927SOL     OW24679   4.742   0.440   3.201
 7927SOL    HW124680   4.679   0.439   3.279
 7927SOL    HW224681   4.834   0.460   3.234
 7928SOL     OW24682   5.621   1.849   4.257
 7928SOL    HW124683   5.677   1.873   4.178
 7928SOL    HW224684   5.640   1.755   4.284
 7929SOL     OW24685   4.735   4.024   5.536
 7929SOL    HW124686   4.807   4.060   5.476
 7929SOL    HW224687   4.748   4.061   5.629
 7930SOL     OW24688   4.144   5.342   0.418
 7930SOL    HW124689   4.158   5.252   0.378
 7930SOL    HW224690   4.127   5.333   0.516
 7931SOL     OW24691   4.769   0.656   0.622
 7931SOL    HW124692   4.713   0.736   0.601
 7931SOL    HW224693   4.843   0.647   0.555
 7932SOL     OW24694   0.964   3.244   1.001
 7932SOL    HW124695   0.892   3.302   0.964
 7932SOL    HW224696   0.925   3.155   1.026
 7933SOL     OW24697   1.243   1.799   0.448
 7933SOL    HW124698   1.332   1.755   0.441
 7933SOL    HW224699   1.248   1.873   0.515
 7934SOL     OW24700   6.905   5.301   1.147
 7934SOL    HW124701   6.890   5.217   1.198
 7934SOL    HW224702   6.981   5.287   1.082
 7935SOL     OW24703   6.199   3.523   3.250
 7935SOL    HW124704   6.251   3.560   3.174
 7935SOL    HW224705   6.217   3.577   3.332
 7936SOL     OW24706   2.483   6.088   3.366
 7936SOL    HW124707   2.499   6.048   3.276
 7936SOL    HW224708   2.547   6.164   3.381
 7937SOL     OW24709   4.107   1.621   1.106
 7937SOL    HW124710   4.102   1.579   1.196
 7937SOL    HW224711   4.027   1.680   1.092
 7938SOL     OW24712   2.278   6.773   3.565
 7938SOL    HW124713   2.326   6.820   3.639
 7938SOL    HW224714   2.279   6.674   3.581
 7939SOL     OW24715   1.411   0.165   2.499
 7939SOL    HW124716   1.320   0.148   2.461
 7939SOL    HW224717   1.441   0.086   2.553
 7940SOL     OW24718   6.539   1.875   5.429
 7940SOL    HW124719   6.513   1.883   5.333
 7940SOL    HW224720   6.633   1.843   5.436
 7941SOL     OW24721   3.362   6.925   0.513
 7941SOL    HW124722   3.283   6.980   0.484
 7941SOL    HW224723   3.428   6.983   0.558
 7942SOL     OW24724   0.938   3.963   1.166
 7942SOL    HW124725   0.956   3.932   1.073
 7942SOL    HW224726   0.932   3.883   1.226
 7943SOL     OW24727   1.742   5.540   0.278
 7943SOL    HW124728   1.652   5.580   0.261
 7943SOL    HW224729   1.812   5.610   0.264
 7944SOL     OW24730   1.203   1.951   0.872
 7944SOL    HW124731   1.227   2.034   0.923
 7944SOL    HW224732   1.286   1.899   0.852
 7945SOL     OW24733   6.425   3.916   3.298
 7945SOL    HW124734   6.466   3.826   3.315
 7945SOL    HW224735   6.448   3.978   3.373
 7946SOL     OW24736   4.575   1.503   6.094
 7946SOL    HW124737   4.610   1.563   6.022
 7946SOL    HW224738   4.641   1.429   6.110
 7947SOL     OW24739   0.474   3.511   6.659
 7947SOL    HW124740   0.520   3.600   6.656
 7947SOL    HW224741   0.519   3.448   6.596
 7948SOL     OW24742   1.438   5.503   1.276
 7948SOL    HW124743   1.339   5.514   1.281
 7948SOL    HW224744   1.464   5.472   1.185
 7949SOL     OW24745   2.831   5.731   5.380
 7949SOL    HW124746   2.766   5.710   5.308
 7949SOL    HW224747   2.924   5.716   5.346
 7950SOL     OW24748   6.153   3.392   5.767
 7950SOL    HW124749   6.201   3.318   5.814
 7950SOL    HW224750   6.174   3.390   5.670
 7951SOL     OW24751   4.031   0.247   3.069
 7951SOL    HW124752   4.025   0.321   3.002
 7951SOL    HW224753   4.012   0.160   3.024
 7952SOL     OW24754   6.493   3.138   5.254
 7952SOL    HW124755   6.581   3.186   5.248
 7952SOL    HW224756   6.443   3.171   5.334
 7953SOL     OW24757   2.013   6.877   0.469
 7953SOL    HW124758   2.018   6.954   0.533
 7953SOL    HW224759   2.006   6.791   0.520
 7954SOL     OW24760   3.338   2.698   6.874
 7954SOL    HW124761   3.408   2.655   6.816
 7954SOL    HW224762   3.360   2.795   6.887
 7955SOL     OW24763   6.851   0.891   6.762
 7955SOL    HW124764   6.867   0.974   6.708
 7955SOL    HW224765   6.939   0.846   6.780
 7956SOL     OW24766   0.266   0.108   0.578
 7956SOL    HW124767   0.213   0.078   0.498
 7956SOL    HW224768   0.362   0.115   0.553
 7957SOL     OW24769   5.572   1.426   5.606
 7957SOL    HW124770   5.487   1.477   5.615
 7957SOL    HW224771   5.560   1.352   5.539
 7958SOL     OW24772   4.760   2.492   6.829
 7958SOL    HW124773   4.663   2.491   6.852
 7958SOL    HW224774   4.809   2.432   6.892
 7959SOL     OW24775   4.629   3.046   6.789
 7959SOL    HW124776   4.698   3.091   6.732
 7959SOL    HW224777   4.562   3.001   6.731
 7960SOL     OW24778   0.693   1.915   5.015
 7960SOL    HW124779   0.620   1.932   4.949
 7960SOL    HW224780   0.666   1.949   5.105
 7961SOL     OW24781   6.194   0.384   6.648
 7961SOL    HW124782   6.127   0.312   6.664
 7961SOL    HW224783   6.150   0.461   6.603
 7962SOL     OW24784   5.626   6.837   4.940
 7962SOL    HW124785   5.699   6.845   5.007
 7962SOL    HW224786   5.647   6.763   4.876
 7963SOL     OW24787   5.581   6.134   2.559
 7963SOL    HW124788   5.584   6.140   2.659
 7963SOL    HW224789   5.665   6.091   2.526
 7964SOL     OW24790   6.607   3.907   1.681
 7964SOL    HW124791   6.520   3.927   1.725
 7964SOL    HW224792   6.613   3.809   1.663
 7965SOL     OW24793   4.810   1.732   6.491
 7965SOL    HW124794   4.775   1.641   6.467
 7965SOL    HW224795   4.840   1.779   6.408
 7966SOL     OW24796   5.644   3.347   5.088
 7966SOL    HW124797   5.589   3.264   5.087
 7966SOL    HW224798   5.677   3.365   5.181
 7967SOL     OW24799   1.768   4.312   1.293
 7967SOL    HW124800   1.711   4.382   1.336
 7967SOL    HW224801   1.736   4.294   1.200
 7968SOL     OW24802   2.409   2.707   3.745
 7968SOL    HW124803   2.363   2.751   3.823
 7968SOL    HW224804   2.499   2.675   3.774
 7969SOL     OW24805   3.342   4.583   6.788
 7969SOL    HW124806   3.342   4.667   6.842
 7969SOL    HW224807   3.399   4.514   6.834
 7970SOL     OW24808   6.430   2.826   3.206
 7970SOL    HW124809   6.438   2.920   3.240
 7970SOL    HW224810   6.397   2.828   3.112
 7971SOL     OW24811   3.451   0.290   6.850
 7971SOL    HW124812   3.389   0.321   6.923
 7971SOL    HW224813   3.505   0.212   6.884
 7972SOL     OW24814   4.067   3.516   4.758
 7972SOL    HW124815   4.070   3.614   4.777
 7972SOL    HW224816   4.000   3.472   4.818
 7973SOL     OW24817   0.367   5.024   2.125
 7973SOL    HW124818   0.328   5.061   2.041
 7973SOL    HW224819   0.306   5.046   2.202
 7974SOL     OW24820   0.425   2.945   4.745
 7974SOL    HW124821   0.425   3.045   4.747
 7974SOL    HW224822   0.405   2.913   4.652
 7975SOL     OW24823   4.047   6.957   6.669
 7975SOL    HW124824   3.951   6.945   6.692
 7975SOL    HW224825   4.089   0.004   6.731
 7976SOL     OW24826   0.795   0.625   0.234
 7976SOL    HW124827   0.805   0.526   0.242
 7976SOL    HW224828   0.801   0.652   0.138
 7977SOL     OW24829   4.676   5.302   3.202
 7977SOL    HW124830   4.730   5.233   3.250
 7977SOL    HW224831   4.662   5.275   3.107
 7978SOL     OW24832   0.046   3.681   1.331
 7978SOL    HW124833   0.047   3.652   1.236
 7978SOL    HW224834   0.063   3.779   1.336
 7979SOL     OW24835   2.834   2.339   5.631
 7979SOL    HW124836   2.825   2.438   5.643
 7979SOL    HW224837   2.930   2.315   5.617
 7980SOL     OW24838   3.667   5.837   2.528
 7980SOL    HW124839   3.699   5.876   2.615
 7980SOL    HW224840   3.722   5.757   2.505
 7981SOL     OW24841   1.258   3.525   5.098
 7981SOL    HW124842   1.160   3.540   5.086
 7981SOL    HW224843   1.301   3.516   5.008
 7982SOL     OW24844   6.822   0.248   0.820
 7982SOL    HW124845   6.725   0.274   0.822
 7982SOL    HW224846   6.876   0.321   0.778
 7983SOL     OW24847   3.358   1.154   1.629
 7983SOL    HW124848   3.458   1.148   1.626
 7983SOL    HW224849   3.319   1.062   1.625
 7984SOL     OW24850   6.067   2.810   2.940
 7984SOL    HW124851   6.077   2.877   3.014
 7984SOL    HW224852   6.088   2.718   2.976
 7985SOL     OW24853   3.195   3.383   5.823
 7985SOL    HW124854   3.130   3.358   5.895
 7985SOL    HW224855   3.214   3.481   5.829
 7986SOL     OW24856   3.220   0.859   3.812
 7986SOL    HW124857   3.206   0.957   3.802
 7986SOL    HW224858   3.267   0.824   3.730
 7987SOL     OW24859   1.677   2.885   5.845
 7987SOL    HW124860   1.642   2.979   5.846
 7987SOL    HW224861   1.762   2.881   5.793
 7988SOL     OW24862   6.619   0.619   1.267
 7988SOL    HW124863   6.662   0.636   1.356
 7988SOL    HW224864   6.651   0.688   1.202
 7989SOL     OW24865   0.759   4.409   1.222
 7989SOL    HW124866   0.843   4.383   1.176
 7989SOL    HW224867   0.751   4.508   1.224
 7990SOL     OW24868   4.147   5.406   5.257
 7990SOL    HW124869   4.105   5.363   5.337
 7990SOL    HW224870   4.139   5.345   5.178
 7991SOL     OW24871   5.290   0.924   4.663
 7991SOL    HW124872   5.351   0.868   4.718
 7991SOL    HW224873   5.214   0.956   4.720
 7992SOL     OW24874   1.874   0.589   0.017
 7992SOL    HW124875   1.859   0.530   0.097
 7992SOL    HW224876   1.787   0.621   7.001
 7993SOL     OW24877   6.439   6.397   0.818
 7993SOL    HW124878   6.375   6.330   0.780
 7993SOL    HW224879   6.457   6.468   0.751
 7994SOL     OW24880   0.691   1.458   4.537
 7994SOL    HW124881   0.784   1.434   4.509
 7994SOL    HW224882   0.685   1.556   4.554
 7995SOL     OW24883   0.635   6.359   1.549
 7995SOL    HW124884   0.561   6.427   1.547
 7995SOL    HW224885   0.653   6.327   1.456
 7996SOL     OW24886   2.066   6.430   3.742
 7996SOL    HW124887   2.116   6.448   3.658
 7996SOL    HW224888   2.110   6.356   3.792
 7997SOL     OW24889   2.463   0.984   5.814
 7997SOL    HW124890   2.415   1.069   5.836
 7997SOL    HW224891   2.484   0.935   5.899
 7998SOL     OW24892   1.923   1.120   1.272
 7998SOL    HW124893   1.944   1.022   1.272
 7998SOL    HW224894   2.006   1.172   1.294
 7999SOL     OW24895   0.082   1.135   2.515
 7999SOL    HW124896   0.150   1.190   2.563
 7999SOL    HW224897   0.100   1.038   2.530
 8000SOL     OW24898   4.757   5.531   1.022
 8000SOL    HW124899   4.713   5.447   1.054
 8000SOL    HW224900   4.800   5.577   1.100
 8001SOL     OW24901   5.212   4.267   2.358
 8001SOL    HW124902   5.140   4.287   2.424
 8001SOL    HW224903   5.237   4.350   2.309
 8002SOL     OW24904   0.934   0.818   4.517
 8002SOL    HW124905   0.970   0.895   4.570
 8002SOL    HW224906   0.872   0.764   4.575
 8003SOL     OW24907   2.731   6.091   2.932
 8003SOL    HW124908   2.750   6.144   3.015
 8003SOL    HW224909   2.746   6.148   2.851
 8004SOL     OW24910   2.189   3.744   3.755
 8004SOL    HW124911   2.263   3.689   3.717
 8004SOL    HW224912   2.195   3.837   3.720
 8005SOL     OW24913   3.229   0.393   4.519
 8005SOL    HW124914   3.134   0.364   4.506
 8005SOL    HW224915   3.277   0.326   4.575
 8006SOL     OW24916   4.682   5.287   6.211
 8006SOL    HW124917   4.771   5.241   6.205
 8006SOL    HW224918   4.628   5.265   6.129
 8007SOL     OW24919   0.329   0.638   1.237
 8007SOL    HW124920   0.283   0.677   1.317
 8007SOL    HW224921   0.263   0.631   1.161
 8008SOL     OW24922   5.486   5.174   0.552
 8008SOL    HW124923   5.548   5.244   0.588
 8008SOL    HW224924   5.540   5.099   0.513
 8009SOL     OW24925   6.443   1.113   1.447
 8009SOL    HW124926   6.413   1.154   1.361
 8009SOL    HW224927   6.508   1.040   1.429
 8010SOL     OW24928   2.947   0.224   5.937
 8010SOL    HW124929   2.991   0.197   6.022
 8010SOL    HW224930   2.849   0.205   5.943
 8011SOL     OW24931   3.671   2.090   2.592
 8011SOL    HW124932   3.756   2.139   2.577
 8011SOL    HW224933   3.626   2.072   2.504
 8012SOL     OW24934   6.452   0.507   5.379
 8012SOL    HW124935   6.472   0.559   5.297
 8012SOL    HW224936   6.378   0.551   5.430
 8013SOL     OW24937   3.924   0.625   3.168
 8013SOL    HW124938   3.849   0.568   3.135
 8013SOL    HW224939   3.967   0.581   3.247
 8014SOL     OW24940   2.083   2.970   3.486
 8014SOL    HW124941   2.161   2.907   3.484
 8014SOL    HW224942   2.007   2.932   3.433
 8015SOL     OW24943   3.577   6.218   4.678
 8015SOL    HW124944   3.607   6.145   4.616
 8015SOL    HW224945   3.484   6.201   4.708
 8016SOL     OW24946   3.141   2.891   5.197
 8016SOL    HW124947   3.233   2.858   5.177
 8016SOL    HW224948   3.103   2.936   5.116
 8017SOL     OW24949   5.549   6.543   1.748
 8017SOL    HW124950   5.547   6.543   1.848
 8017SOL    HW224951   5.501   6.463   1.713
 8018SOL     OW24952   2.769   2.930   0.646
 8018SOL    HW124953   2.799   3.009   0.592
 8018SOL    HW224954   2.839   2.909   0.714
 8019SOL     OW24955   2.649   3.607   0.971
 8019SOL    HW124956   2.723   3.552   0.933
 8019SOL    HW224957   2.570   3.549   0.991
 8020SOL     OW24958   0.475   0.158   0.089
 8020SOL    HW124959   0.518   0.204   0.166
 8020SOL    HW224960   0.517   0.068   0.076
 8021SOL     OW24961   0.856   2.604   0.707
 8021SOL    HW124962   0.856   2.539   0.783
 8021SOL    HW224963   0.905   2.687   0.734
 8022SOL     OW24964   4.255   0.498   2.208
 8022SOL    HW124965   4.311   0.436   2.262
 8022SOL    HW224966   4.312   0.544   2.140
 8023SOL     OW24967   3.983   4.921   2.187
 8023SOL    HW124968   3.905   4.887   2.240
 8023SOL    HW224969   3.991   4.868   2.103
 8024SOL     OW24970   2.341   0.801   6.067
 8024SOL    HW124971   2.305   0.780   6.158
 8024SOL    HW224972   2.408   0.875   6.075
 8025SOL     OW24973   1.149   6.736   1.144
 8025SOL    HW124974   1.147   6.657   1.083
 8025SOL    HW224975   1.061   6.784   1.140
 8026SOL     OW24976   0.562   6.997   5.566
 8026SOL    HW124977   0.597   6.931   5.633
 8026SOL    HW224978   0.482   0.024   5.603
 8027SOL     OW24979   4.506   0.108   6.213
 8027SOL    HW124980   4.421   0.109   6.160
 8027SOL    HW224981   4.497   0.047   6.291
 8028SOL     OW24982   3.981   5.947   6.609
 8028SOL    HW124983   4.016   5.889   6.536
 8028SOL    HW224984   4.014   6.041   6.596
 8029SOL     OW24985   0.997   0.196   1.750
 8029SOL    HW124986   0.950   0.125   1.698
 8029SOL    HW224987   0.930   0.260   1.788
 8030SOL     OW24988   0.572   3.911   0.972
 8030SOL    HW124989   0.570   3.813   0.953
 8030SOL    HW224990   0.558   3.927   1.070
 8031SOL     OW24991   6.951   0.564   3.500
 8031SOL    HW124992   6.864   0.611   3.507
 8031SOL    HW224993   7.003   0.601   3.423
 8032SOL     OW24994   0.099   3.106   1.353
 8032SOL    HW124995   0.161   3.033   1.323
 8032SOL    HW224996   0.027   3.069   1.410
 8033SOL     OW24997   3.984   5.208   0.924
 8033SOL    HW124998   4.027   5.235   1.010
 8033SOL    HW224999   4.020   5.119   0.895
 8034SOL     OW25000   1.173   1.238   5.424
 8034SOL    HW125001   1.114   1.171   5.379
 8034SOL    HW225002   1.140   1.330   5.403
 8035SOL     OW25003   5.577   0.458   4.818
 8035SOL    HW125004   5.581   0.477   4.917
 8035SOL    HW225005   5.521   0.528   4.774
 8036SOL     OW25006   4.910   4.352   4.181
 8036SOL    HW125007   5.001   4.310   4.181
 8036SOL    HW225008   4.840   4.281   4.183
 8037SOL     OW25009   2.737   1.727   6.468
 8037SOL    HW125010   2.666   1.659   6.485
 8037SOL    HW225011   2.704   1.818   6.494
 8038SOL     OW25012   6.877   5.496   2.016
 8038SOL    HW125013   6.838   5.555   1.945
 8038SOL    HW225014   6.974   5.480   1.996
 8039SOL     OW25015   2.040   2.722   5.044
 8039SOL    HW125016   2.105   2.674   4.985
 8039SOL    HW225017   2.068   2.710   5.140
 8040SOL     OW25018   0.877   6.729   5.750
 8040SOL    HW125019   0.895   6.694   5.658
 8040SOL    HW225020   0.886   6.654   5.816
 8041SOL     OW25021   3.145   1.849   2.864
 8041SOL    HW125022   3.198   1.930   2.890
 8041SOL    HW225023   3.169   1.822   2.770
 8042SOL     OW25024   4.180   4.249   6.325
 8042SOL    HW125025   4.118   4.311   6.278
 8042SOL    HW225026   4.143   4.228   6.416
 8043SOL     OW25027   5.239   5.168   6.869
 8043SOL    HW125028   5.288   5.252   6.843
 8043SOL    HW225029   5.164   5.152   6.804
 8044SOL     OW25030   0.940   2.889   1.283
 8044SOL    HW125031   0.852   2.937   1.290
 8044SOL    HW225032   0.989   2.898   1.369
 8045SOL     OW25033   6.025   3.384   5.038
 8045SOL    HW125034   5.976   3.341   5.114
 8045SOL    HW225035   6.097   3.324   5.006
 8046SOL     OW25036   0.356   4.211   0.663
 8046SOL    HW125037   0.404   4.232   0.578
 8046SOL    HW225038   0.384   4.121   0.696
 8047SOL     OW25039   3.388   6.345   6.512
 8047SOL    HW125040   3.309   6.289   6.537
 8047SOL    HW225041   3.458   6.288   6.469
 8048SOL     OW25042   4.562   1.831   6.631
 8048SOL    HW125043   4.486   1.772   6.605
 8048SOL    HW225044   4.649   1.785   6.613
 8049SOL     OW25045   2.028   1.418   0.983
 8049SOL    HW125046   2.019   1.318   0.985
 8049SOL    HW225047   1.968   1.455   0.912
 8050SOL     OW25048   0.316   5.349   5.958
 8050SOL    HW125049   0.315   5.253   5.987
 8050SOL    HW225050   0.278   5.407   6.031
 8051SOL     OW25051   4.233   6.382   3.000
 8051SOL    HW125052   4.161   6.396   3.067
 8051SOL    HW225053   4.247   6.466   2.947
 8052SOL     OW25054   2.547   1.444   3.041
 8052SOL    HW125055   2.491   1.361   3.034
 8052SOL    HW225056   2.503   1.510   3.102
 8053SOL     OW25057   1.369   2.484   6.394
 8053SOL    HW125058   1.359   2.386   6.409
 8053SOL    HW225059   1.413   2.526   6.473
 8054SOL     OW25060   5.072   3.684   5.211
 8054SOL    HW125061   5.142   3.698   5.282
 8054SOL    HW225062   5.112   3.699   5.121
 8055SOL     OW25063   6.898   0.202   6.618
 8055SOL    HW125064   6.956   0.232   6.694
 8055SOL    HW225065   6.944   0.221   6.531
 8056SOL     OW25066   2.068   2.519   3.134
 8056SOL    HW125067   2.143   2.577   3.104
 8056SOL    HW225068   1.997   2.517   3.063
 8057SOL     OW25069   3.453   2.012   1.962
 8057SOL    HW125070   3.390   2.038   1.889
 8057SOL    HW225071   3.534   2.071   1.958
 8058SOL     OW25072   4.061   6.423   1.770
 8058SOL    HW125073   3.974   6.453   1.731
 8058SOL    HW225074   4.078   6.328   1.745
 8059SOL     OW25075   4.064   3.637   5.425
 8059SOL    HW125076   4.014   3.595   5.501
 8059SOL    HW225077   4.007   3.709   5.384
 8060SOL     OW25078   0.307   1.462   5.567
 8060SOL    HW125079   0.380   1.525   5.593
 8060SOL    HW225080   0.329   1.370   5.599
 8061SOL     OW25081   6.857   0.871   1.305
 8061SOL    HW125082   6.861   0.806   1.380
 8061SOL    HW225083   6.919   0.947   1.323
 8062SOL     OW25084   3.835   4.703   6.465
 8062SOL    HW125085   3.931   4.696   6.439
 8062SOL    HW225086   3.801   4.614   6.496
 8063SOL     OW25087   2.419   4.842   3.082
 8063SOL    HW125088   2.459   4.750   3.085
 8063SOL    HW225089   2.491   4.909   3.067
 8064SOL     OW25090   6.985   2.954   0.711
 8064SOL    HW125091   7.002   3.042   0.666
 8064SOL    HW225092   0.053   2.914   0.739
 8065SOL     OW25093   4.799   0.315   6.726
 8065SOL    HW125094   4.816   0.341   6.631
 8065SOL    HW225095   4.746   0.387   6.771
 8066SOL     OW25096   6.643   0.986   6.061
 8066SOL    HW125097   6.719   0.924   6.080
 8066SOL    HW225098   6.615   0.977   5.966
 8067SOL     OW25099   5.082   0.931   4.180
 8067SOL    HW125100   5.015   1.004   4.170
 8067SOL    HW225101   5.135   0.945   4.264
 8068SOL     OW25102   6.844   4.653   1.347
 8068SOL    HW125103   6.749   4.685   1.349
 8068SOL    HW225104   6.850   4.567   1.297
 8069SOL     OW25105   1.378   2.423   2.263
 8069SOL    HW125106   1.444   2.462   2.328
 8069SOL    HW225107   1.375   2.479   2.180
 8070SOL     OW25108   5.345   4.181   1.874
 8070SOL    HW125109   5.370   4.230   1.957
 8070SOL    HW225110   5.339   4.083   1.893
 8071SOL     OW25111   2.225   0.179   5.755
 8071SOL    HW125112   2.288   0.115   5.800
 8071SOL    HW225113   2.190   0.138   5.671
 8072SOL     OW25114   2.306   2.256   5.615
 8072SOL    HW125115   2.306   2.356   5.603
 8072SOL    HW225116   2.236   2.231   5.682
 8073SOL     OW25117   5.683   6.907   6.370
 8073SOL    HW125118   5.613   6.886   6.439
 8073SOL    HW225119   5.764   6.945   6.415
 8074SOL     OW25120   6.741   0.958   0.843
 8074SOL    HW125121   6.648   0.990   0.822
 8074SOL    HW225122   6.770   0.892   0.774
 8075SOL     OW25123   0.498   0.655   0.980
 8075SOL    HW125124   0.449   0.651   1.068
 8075SOL    HW225125   0.578   0.713   0.989
 8076SOL     OW25126   6.870   5.694   0.540
 8076SOL    HW125127   6.824   5.778   0.512
 8076SOL    HW225128   6.955   5.684   0.489
 8077SOL     OW25129   6.024   3.883   1.187
 8077SOL    HW125130   6.118   3.912   1.170
 8077SOL    HW225131   6.002   3.897   1.283
 8078SOL     OW25132   6.143   1.788   2.045
 8078SOL    HW125133   6.140   1.689   2.059
 8078SOL    HW225134   6.222   1.826   2.093
 8079SOL     OW25135   0.156   0.994   6.831
 8079SOL    HW125136   0.090   0.922   6.855
 8079SOL    HW225137   0.222   0.958   6.765
 8080SOL     OW25138   0.393   3.757   3.978
 8080SOL    HW125139   0.313   3.787   3.926
 8080SOL    HW225140   0.472   3.749   3.917
 8081SOL     OW25141   6.177   0.550   5.577
 8081SOL    HW125142   6.145   0.459   5.553
 8081SOL    HW225143   6.107   0.597   5.631
 8082SOL     OW25144   5.072   2.294   4.749
 8082SOL    HW125145   5.076   2.319   4.846
 8082SOL    HW225146   5.104   2.201   4.737
 8083SOL     OW25147   6.726   3.261   4.344
 8083SOL    HW125148   6.728   3.168   4.380
 8083SOL    HW225149   6.711   3.258   4.245
 8084SOL     OW25150   5.477   1.922   0.017
 8084SOL    HW125151   5.572   1.903   0.042
 8084SOL    HW225152   5.451   1.864   6.958
 8085SOL     OW25153   1.310   6.344   4.507
 8085SOL    HW125154   1.365   6.299   4.436
 8085SOL    HW225155   1.348   6.434   4.527
 8086SOL     OW25156   0.496   2.598   2.368
 8086SOL    HW125157   0.582   2.626   2.409
 8086SOL    HW225158   0.421   2.653   2.405
 8087SOL     OW25159   6.597   0.790   6.348
 8087SOL    HW125160   6.614   0.720   6.278
 8087SOL    HW225161   6.539   0.862   6.310
 8088SOL     OW25162   0.001   6.995   5.344
 8088SOL    HW125163   6.932   6.960   5.314
 8088SOL    HW225164   7.017   0.076   5.348
 8089SOL     OW25165   6.547   1.356   0.100
 8089SOL    HW125166   6.556   1.257   0.112
 8089SOL    HW225167   6.563   1.379   0.004
 8090SOL     OW25168   4.775   2.113   4.639
 8090SOL    HW125169   4.736   2.187   4.585
 8090SOL    HW225170   4.787   2.032   4.582
 8091SOL     OW25171   0.653   3.558   5.075
 8091SOL    HW125172   0.566   3.529   5.116
 8091SOL    HW225173   0.716   3.480   5.071
 8092SOL     OW25174   4.889   0.051   5.651
 8092SOL    HW125175   4.908   7.002   5.580
 8092SOL    HW225176   4.975   0.093   5.680
 8093SOL     OW25177   3.512   6.874   3.475
 8093SOL    HW125178   3.601   6.882   3.428
 8093SOL    HW225179   3.491   6.961   3.520
 8094SOL     OW25180   1.788   4.098   3.690
 8094SOL    HW125181   1.704   4.055   3.657
 8094SOL    HW225182   1.809   4.064   3.782
 8095SOL     OW25183   1.217   5.726   4.566
 8095SOL    HW125184   1.125   5.737   4.529
 8095SOL    HW225185   1.245   5.630   4.560
 8096SOL     OW25186   0.876   4.814   0.988
 8096SOL    HW125187   0.906   4.845   1.078
 8096SOL    HW225188   0.910   4.877   0.918
 8097SOL     OW25189   4.911   6.626   0.543
 8097SOL    HW125190   4.968   6.666   0.616
 8097SOL    HW225191   4.839   6.691   0.519
 8098SOL     OW25192   2.891   6.367   4.405
 8098SOL    HW125193   2.831   6.429   4.456
 8098SOL    HW225194   2.987   6.391   4.423
 8099SOL     OW25195   2.129   3.683   2.675
 8099SOL    HW125196   2.098   3.596   2.712
 8099SOL    HW225197   2.133   3.679   2.575
 8100SOL     OW25198   6.943   6.759   0.454
 8100SOL    HW125199   7.013   6.761   0.383
 8100SOL    HW225200   6.866   6.702   0.424
 8101SOL     OW25201   2.153   4.947   0.235
 8101SOL    HW125202   2.244   4.984   0.212
 8101SOL    HW225203   2.164   4.862   0.287
 8102SOL     OW25204   1.289   4.369   3.825
 8102SOL    HW125205   1.362   4.354   3.758
 8102SOL    HW225206   1.327   4.401   3.911
 8103SOL     OW25207   4.272   0.745   1.511
 8103SOL    HW125208   4.351   0.689   1.534
 8103SOL    HW225209   4.220   0.701   1.438
 8104SOL     OW25210   0.793   6.098   6.813
 8104SOL    HW125211   0.693   6.100   6.808
 8104SOL    HW225212   0.822   6.125   6.905
 8105SOL     OW25213   6.809   0.050   2.649
 8105SOL    HW125214   6.768   0.104   2.723
 8105SOL    HW225215   6.801   6.972   2.671
 8106SOL     OW25216   2.874   6.128   6.585
 8106SOL    HW125217   2.901   6.083   6.499
 8106SOL    HW225218   2.776   6.115   6.600
 8107SOL     OW25219   1.048   6.429   0.370
 8107SOL    HW125220   0.987   6.351   0.385
 8107SOL    HW225221   1.141   6.405   0.398
 8108SOL     OW25222   1.780   1.155   0.695
 8108SOL    HW125223   1.868   1.195   0.668
 8108SOL    HW225224   1.770   1.159   0.794
 8109SOL     OW25225   0.291   3.858   2.194
 8109SOL    HW125226   0.331   3.767   2.204
 8109SOL    HW225227   0.214   3.868   2.257
 8110SOL     OW25228   4.537   4.285   0.169
 8110SOL    HW125229   4.567   4.254   0.258
 8110SOL    HW225230   4.528   4.207   0.107
 8111SOL     OW25231   5.845   2.077   2.406
 8111SOL    HW125232   5.905   2.031   2.471
 8111SOL    HW225233   5.750   2.070   2.437
 8112SOL     OW25234   2.217   4.772   6.598
 8112SOL    HW125235   2.132   4.814   6.568
 8112SOL    HW225236   2.235   4.690   6.544
 8113SOL     OW25237   5.451   5.228   6.552
 8113SOL    HW125238   5.378   5.230   6.483
 8113SOL    HW225239   5.483   5.134   6.563
 8114SOL     OW25240   2.026   3.503   2.894
 8114SOL    HW125241   2.055   3.416   2.934
 8114SOL    HW225242   1.954   3.543   2.951
 8115SOL     OW25243   2.352   1.640   6.146
 8115SOL    HW125244   2.374   1.661   6.241
 8115SOL    HW225245   2.437   1.633   6.093
 8116SOL     OW25246   3.974   3.222   2.390
 8116SOL    HW125247   3.883   3.236   2.351
 8116SOL    HW225248   4.043   3.226   2.318
 8117SOL     OW25249   0.858   0.183   4.022
 8117SOL    HW125250   0.886   0.256   3.961
 8117SOL    HW225251   0.803   0.116   3.971
 8118SOL     OW25252   6.534   2.319   6.734
 8118SOL    HW125253   6.494   2.373   6.808
 8118SOL    HW225254   6.550   2.226   6.766
 8119SOL     OW25255   5.256   5.136   6.098
 8119SOL    HW125256   5.330   5.099   6.042
 8119SOL    HW225257   5.195   5.061   6.126
 8120SOL     OW25258   2.200   6.535   2.593
 8120SOL    HW125259   2.166   6.466   2.656
 8120SOL    HW225260   2.299   6.526   2.584
 8121SOL     OW25261   1.840   2.503   2.604
 8121SOL    HW125262   1.909   2.431   2.590
 8121SOL    HW225263   1.881   2.592   2.586
 8122SOL     OW25264   0.964   4.824   1.512
 8122SOL    HW125265   0.960   4.887   1.589
 8122SOL    HW225266   0.876   4.778   1.502
 8123SOL     OW25267   7.013   1.901   6.545
 8123SOL    HW125268   0.016   1.993   6.579
 8123SOL    HW225269   0.056   1.835   6.588
 8124SOL     OW25270   6.329   5.836   5.298
 8124SOL    HW125271   6.341   5.737   5.306
 8124SOL    HW225272   6.345   5.879   5.387
 8125SOL     OW25273   0.772   6.423   2.045
 8125SOL    HW125274   0.862   6.464   2.060
 8125SOL    HW225275   0.761   6.402   1.948
 8126SOL     OW25276   3.562   5.683   4.414
 8126SOL    HW125277   3.579   5.614   4.343
 8126SOL    HW225278   3.540   5.770   4.370
 8127SOL     OW25279   4.323   1.394   6.217
 8127SOL    HW125280   4.422   1.399   6.211
 8127SOL    HW225281   4.290   1.452   6.291
 8128SOL     OW25282   3.385   3.345   1.495
 8128SOL    HW125283   3.348   3.321   1.406
 8128SOL    HW225284   3.479   3.313   1.503
 8129SOL     OW25285   6.948   2.393   3.749
 8129SOL    HW125286   7.007   2.386   3.669
 8129SOL    HW225287   7.005   2.399   3.831
 8130SOL     OW25288   6.807   6.566   0.127
 8130SOL    HW125289   6.879   6.510   0.087
 8130SOL    HW225290   6.819   6.662   0.101
 8131SOL     OW25291   1.943   2.615   0.802
 8131SOL    HW125292   2.010   2.583   0.735
 8131SOL    HW225293   1.873   2.545   0.815
 8132SOL     OW25294   6.624   1.711   4.524
 8132SOL    HW125295   6.656   1.773   4.452
 8132SOL    HW225296   6.545   1.751   4.570
 8133SOL     OW25297   3.745   5.236   1.556
 8133SOL    HW125298   3.681   5.247   1.632
 8133SOL    HW225299   3.707   5.171   1.490
 8134SOL     OW25300   5.715   1.884   6.450
 8134SOL    HW125301   5.776   1.824   6.501
 8134SOL    HW225302   5.681   1.836   6.369
 8135SOL     OW25303   2.418   6.079   1.950
 8135SOL    HW125304   2.472   6.086   1.866
 8135SOL    HW225305   2.324   6.108   1.931
 8136SOL     OW25306   4.606   5.130   2.543
 8136SOL    HW125307   4.551   5.190   2.601
 8136SOL    HW225308   4.703   5.143   2.564
 8137SOL     OW25309   4.384   0.772   5.929
 8137SOL    HW125310   4.451   0.808   5.865
 8137SOL    HW225311   4.408   0.677   5.952
 8138SOL     OW25312   5.713   0.804   2.301
 8138SOL    HW125313   5.688   0.901   2.305
 8138SOL    HW225314   5.812   0.795   2.291
 8139SOL     OW25315   0.534   0.988   4.468
 8139SOL    HW125316   0.612   1.008   4.407
 8139SOL    HW225317   0.453   1.037   4.435
 8140SOL     OW25318   5.088   2.705   3.041
 8140SOL    HW125319   5.039   2.784   3.004
 8140SOL    HW225320   5.041   2.670   3.121
 8141SOL     OW25321   5.925   4.138   3.689
 8141SOL    HW125322   5.972   4.056   3.655
 8141SOL    HW225323   5.989   4.192   3.744
 8142SOL     OW25324   0.374   6.504   0.698
 8142SOL    HW125325   0.345   6.592   0.736
 8142SOL    HW225326   0.438   6.519   0.623
 8143SOL     OW25327   6.495   2.808   5.834
 8143SOL    HW125328   6.410   2.804   5.886
 8143SOL    HW225329   6.573   2.799   5.896
 8144SOL     OW25330   5.267   6.076   6.888
 8144SOL    HW125331   5.321   5.993   6.901
 8144SOL    HW225332   5.172   6.058   6.911
 8145SOL     OW25333   4.736   6.230   3.961
 8145SOL    HW125334   4.782   6.222   4.049
 8145SOL    HW225335   4.654   6.172   3.961
 8146SOL     OW25336   3.655   1.818   3.889
 8146SOL    HW125337   3.753   1.835   3.884
 8146SOL    HW225338   3.606   1.892   3.844
 8147SOL     OW25339   5.027   1.124   3.290
 8147SOL    HW125340   5.029   1.220   3.264
 8147SOL    HW225341   4.962   1.110   3.365
 8148SOL     OW25342   6.909   3.917   3.113
 8148SOL    HW125343   6.929   3.820   3.104
 8148SOL    HW225344   6.965   3.969   3.049
 8149SOL     OW25345   4.094   5.329   4.128
 8149SOL    HW125346   4.105   5.291   4.037
 8149SOL    HW225347   4.091   5.429   4.123
 8150SOL     OW25348   1.151   6.230   1.508
 8150SOL    HW125349   1.109   6.286   1.579
 8150SOL    HW225350   1.224   6.282   1.464
 8151SOL     OW25351   0.508   1.952   4.835
 8151SOL    HW125352   0.470   1.901   4.758
 8151SOL    HW225353   0.434   1.981   4.895
 8152SOL     OW25354   1.021   0.693   3.455
 8152SOL    HW125355   0.931   0.713   3.495
 8152SOL    HW225356   1.061   0.614   3.502
 8153SOL     OW25357   2.174   6.270   0.450
 8153SOL    HW125358   2.159   6.236   0.543
 8153SOL    HW225359   2.145   6.366   0.446
 8154SOL     OW25360   1.871   6.213   3.395
 8154SOL    HW125361   1.924   6.177   3.471
 8154SOL    HW225362   1.845   6.138   3.334
 8155SOL     OW25363   3.111   3.996   4.850
 8155SOL    HW125364   3.180   4.053   4.894
 8155SOL    HW225365   3.095   4.029   4.757
 8156SOL     OW25366   0.214   6.869   5.249
 8156SOL    HW125367   0.302   6.905   5.278
 8156SOL    HW225368   0.141   6.925   5.288
 8157SOL     OW25369   5.535   2.220   6.695
 8157SOL    HW125370   5.598   2.288   6.732
 8157SOL    HW225371   5.462   2.202   6.762
 8158SOL     OW25372   1.477   5.481   2.705
 8158SOL    HW125373   1.558   5.460   2.652
 8158SOL    HW225374   1.426   5.555   2.661
 8159SOL     OW25375   0.431   5.939   0.350
 8159SOL    HW125376   0.434   5.867   0.280
 8159SOL    HW225377   0.336   5.951   0.380
 8160SOL     OW25378   4.869   1.962   1.597
 8160SOL    HW125379   4.811   2.030   1.641
 8160SOL    HW225380   4.812   1.891   1.555
 8161SOL     OW25381   4.120   3.140   1.483
 8161SOL    HW125382   4.174   3.136   1.567
 8161SOL    HW225383   4.108   3.048   1.447
 8162SOL     OW25384   6.175   0.819   2.547
 8162SOL    HW125385   6.150   0.906   2.505
 8162SOL    HW225386   6.274   0.815   2.559
 8163SOL     OW25387   2.347   2.850   5.498
 8163SOL    HW125388   2.349   2.823   5.401
 8163SOL    HW225389   2.397   2.935   5.510
 8164SOL     OW25390   5.088   3.649   1.744
 8164SOL    HW125391   5.159   3.713   1.714
 8164SOL    HW225392   5.131   3.563   1.774
 8165SOL     OW25393   1.687   4.265   1.780
 8165SOL    HW125394   1.679   4.193   1.849
 8165SOL    HW225395   1.640   4.237   1.697
 8166SOL     OW25396   3.311   0.052   1.476
 8166SOL    HW125397   3.247   7.017   1.422
 8166SOL    HW225398   3.264   0.133   1.512
 8167SOL     OW25399   5.580   2.770   4.655
 8167SOL    HW125400   5.667   2.721   4.649
 8167SOL    HW225401   5.517   2.718   4.713
 8168SOL     OW25402   2.544   1.908   2.984
 8168SOL    HW125403   2.638   1.878   2.998
 8168SOL    HW225404   2.529   1.929   2.887
 8169SOL     OW25405   5.207   3.933   4.976
 8169SOL    HW125406   5.245   3.841   4.974
 8169SOL    HW225407   5.129   3.938   4.912
 8170SOL     OW25408   1.698   5.466   3.885
 8170SOL    HW125409   1.701   5.372   3.852
 8170SOL    HW225410   1.740   5.471   3.975
 8171SOL     OW25411   1.833   0.974   0.065
 8171SOL    HW125412   1.841   0.945   0.160
 8171SOL    HW225413   1.736   0.973   0.038
 8172SOL     OW25414   0.388   6.576   1.867
 8172SOL    HW125415   0.480   6.592   1.831
 8172SOL    HW225416   0.367   6.478   1.863
 8173SOL     OW25417   6.804   2.825   0.556
 8173SOL    HW125418   6.715   2.870   0.558
 8173SOL    HW225419   6.862   2.862   0.628
 8174SOL     OW25420   4.802   6.681   2.376
 8174SOL    HW125421   4.877   6.686   2.310
 8174SOL    HW225422   4.783   6.585   2.398
 8175SOL     OW25423   1.516   3.136   3.933
 8175SOL    HW125424   1.454   3.212   3.956
 8175SOL    HW225425   1.601   3.173   3.896
 8176SOL     OW25426   3.998   5.567   3.477
 8176SOL    HW125427   4.070   5.512   3.434
 8176SOL    HW225428   3.992   5.656   3.432
 8177SOL     OW25429   1.585   6.456   6.518
 8177SOL    HW125430   1.502   6.403   6.537
 8177SOL    HW225431   1.626   6.484   6.605
 8178SOL     OW25432   2.154   6.500   6.205
 8178SOL    HW125433   2.123   6.443   6.281
 8178SOL    HW225434   2.254   6.499   6.200
 8179SOL     OW25435   3.798   0.585   6.817
 8179SOL    HW125436   3.702   0.592   6.789
 8179SOL    HW225437   3.824   0.666   6.868
 8180SOL     OW25438   5.325   4.754   4.836
 8180SOL    HW125439   5.326   4.749   4.736
 8180SOL    HW225440   5.298   4.846   4.865
 8181SOL     OW25441   2.511   2.032   1.886
 8181SOL    HW125442   2.582   1.977   1.844
 8181SOL    HW225443   2.539   2.128   1.888
 8182SOL     OW25444   5.511   2.643   5.492
 8182SOL    HW125445   5.554   2.632   5.582
 8182SOL    HW225446   5.412   2.632   5.501
 8183SOL     OW25447   2.115   3.409   3.307
 8183SOL    HW125448   2.117   3.403   3.406
 8183SOL    HW225449   2.059   3.488   3.279
 8184SOL     OW25450   6.027   6.177   4.309
 8184SOL    HW125451   6.036   6.216   4.218
 8184SOL    HW225452   6.115   6.143   4.341
 8185SOL     OW25453   0.894   2.319   3.659
 8185SOL    HW125454   0.974   2.365   3.697
 8185SOL    HW225455   0.858   2.372   3.582
 8186SOL     OW25456   4.345   3.967   6.729
 8186SOL    HW125457   4.354   3.869   6.708
 8186SOL    HW225458   4.328   4.017   6.644
 8187SOL     OW25459   2.343   1.234   6.171
 8187SOL    HW125460   2.300   1.312   6.217
 8187SOL    HW225461   2.356   1.160   6.236
 8188SOL     OW25462   4.810   3.103   2.565
 8188SOL    HW125463   4.842   3.008   2.562
 8188SOL    HW225464   4.820   3.144   2.474
 8189SOL     OW25465   6.672   5.113   3.298
 8189SOL    HW125466   6.591   5.058   3.318
 8189SOL    HW225467   6.661   5.157   3.209
 8190SOL     OW25468   5.976   3.642   2.769
 8190SOL    HW125469   6.039   3.719   2.770
 8190SOL    HW225470   5.882   3.676   2.765
 8191SOL     OW25471   5.589   4.901   1.670
 8191SOL    HW125472   5.496   4.932   1.690
 8191SOL    HW225473   5.622   4.843   1.745
 8192SOL     OW25474   1.406   2.566   0.954
 8192SOL    HW125475   1.415   2.509   1.035
 8192SOL    HW225476   1.472   2.642   0.959
 8193SOL     OW25477   4.097   6.387   5.614
 8193SOL    HW125478   4.155   6.428   5.544
 8193SOL    HW225479   4.128   6.418   5.704
 8194SOL     OW25480   1.608   0.748   2.789
 8194SOL    HW125481   1.549   0.687   2.736
 8194SOL    HW225482   1.552   0.810   2.843
 8195SOL     OW25483   5.724   0.964   1.761
 8195SOL    HW125484   5.815   0.981   1.799
 8195SOL    HW225485   5.657   0.961   1.835
 8196SOL     OW25486   2.045   1.102   0.978
 8196SOL    HW125487   1.946   1.097   0.994
 8196SOL    HW225488   2.072   1.034   0.910
 8197SOL     OW25489   0.615   0.054   1.218
 8197SOL    HW125490   0.648   7.010   1.288
 8197SOL    HW225491   0.596   0.143   1.259
 8198SOL     OW25492   3.129   1.011   2.601
 8198SOL    HW125493   3.048   1.020   2.543
 8198SOL    HW225494   3.108   0.952   2.679
 8199SOL     OW25495   5.439   4.517   1.420
 8199SOL    HW125496   5.504   4.584   1.383
 8199SOL    HW225497   5.348   4.559   1.424
 8200SOL     OW25498   4.086   4.060   1.776
 8200SOL    HW125499   4.118   3.969   1.803
 8200SOL    HW225500   3.994   4.076   1.813
 8201SOL     OW25501   0.812   1.007   5.131
 8201SOL    HW125502   0.818   1.075   5.205
 8201SOL    HW225503   0.740   1.033   5.067
 8202SOL     OW25504   1.684   3.663   3.929
 8202SOL    HW125505   1.644   3.591   3.872
 8202SOL    HW225506   1.783   3.652   3.933
 8203SOL     OW25507   6.455   4.452   6.050
 8203SOL    HW125508   6.368   4.419   6.012
 8203SOL    HW225509   6.483   4.392   6.125
 8204SOL     OW25510   3.532   0.046   0.667
 8204SOL    HW125511   3.483   0.116   0.720
 8204SOL    HW225512   3.577   7.002   0.729
 8205SOL     OW25513   4.092   0.001   3.438
 8205SOL    HW125514   4.159   6.946   3.438
 8205SOL    HW225515   4.123   0.073   3.501
 8206SOL     OW25516   3.632   2.106   4.455
 8206SOL    HW125517   3.695   2.137   4.525
 8206SOL    HW225518   3.663   2.017   4.419
 8207SOL     OW25519   2.794   5.649   0.086
 8207SOL    HW125520   2.762   5.724   0.144
 8207SOL    HW225521   2.882   5.673   0.045
 8208SOL     OW25522   1.474   5.405   1.029
 8208SOL    HW125523   1.393   5.356   0.997
 8208SOL    HW225524   1.477   5.496   0.988
 8209SOL     OW25525   1.143   5.526   5.293
 8209SOL    HW125526   1.080   5.448   5.286
 8209SOL    HW225527   1.090   5.610   5.302
 8210SOL     OW25528   2.312   0.813   0.964
 8210SOL    HW125529   2.332   0.717   0.943
 8210SOL    HW225530   2.232   0.842   0.911
 8211SOL     OW25531   3.916   4.001   3.751
 8211SOL    HW125532   3.817   3.988   3.762
 8211SOL    HW225533   3.961   3.993   3.840
 8212SOL     OW25534   4.125   4.775   6.700
 8212SOL    HW125535   4.116   4.761   6.601
 8212SOL    HW225536   4.071   4.855   6.726
 8213SOL     OW25537   4.785   4.174   1.947
 8213SOL    HW125538   4.706   4.235   1.954
 8213SOL    HW225539   4.754   4.083   1.920
 8214SOL     OW25540   4.168   5.393   3.369
 8214SOL    HW125541   4.243   5.327   3.383
 8214SOL    HW225542   4.119   5.370   3.285
 8215SOL     OW25543   2.695   6.306   5.754
 8215SOL    HW125544   2.615   6.306   5.814
 8215SOL    HW225545   2.773   6.344   5.803
 8216SOL     OW25546   5.878   5.212   0.820
 8216SOL    HW125547   5.866   5.113   0.832
 8216SOL    HW225548   5.879   5.257   0.909
 8217SOL     OW25549   2.997   6.422   3.633
 8217SOL    HW125550   2.980   6.388   3.725
 8217SOL    HW225551   3.024   6.346   3.574
 8218SOL     OW25552   1.871   6.536   4.107
 8218SOL    HW125553   1.924   6.602   4.053
 8218SOL    HW225554   1.815   6.480   4.046
 8219SOL     OW25555   3.733   3.403   3.825
 8219SOL    HW125556   3.815   3.449   3.790
 8219SOL    HW225557   3.744   3.304   3.817
 8220SOL     OW25558   4.573   4.448   5.845
 8220SOL    HW125559   4.593   4.390   5.923
 8220SOL    HW225560   4.504   4.404   5.788
 8221SOL     OW25561   6.939   3.901   3.607
 8221SOL    HW125562   6.979   3.809   3.606
 8221SOL    HW225563   6.945   3.941   3.515
 8222SOL     OW25564   5.137   2.064   5.919
 8222SOL    HW125565   5.061   2.068   5.984
 8222SOL    HW225566   5.156   1.968   5.896
 8223SOL     OW25567   1.216   6.195   5.574
 8223SOL    HW125568   1.197   6.283   5.618
 8223SOL    HW225569   1.315   6.177   5.579
 8224SOL     OW25570   5.979   0.691   5.765
 8224SOL    HW125571   5.942   0.760   5.702
 8224SOL    HW225572   5.932   0.698   5.853
 8225SOL     OW25573   6.292   2.628   0.263
 8225SOL    HW125574   6.243   2.646   0.349
 8225SOL    HW225575   6.280   2.706   0.201
 8226SOL     OW25576   4.294   0.973   6.703
 8226SOL    HW125577   4.262   1.037   6.773
 8226SOL    HW225578   4.237   0.890   6.706
 8227SOL     OW25579   5.570   4.027   2.239
 8227SOL    HW125580   5.649   4.045   2.297
 8227SOL    HW225581   5.593   3.957   2.172
 8228SOL     OW25582   2.708   1.739   4.729
 8228SOL    HW125583   2.661   1.753   4.642
 8228SOL    HW225584   2.693   1.645   4.760
 8229SOL     OW25585   3.738   4.615   0.591
 8229SOL    HW125586   3.794   4.558   0.531
 8229SOL    HW225587   3.731   4.572   0.681
 8230SOL     OW25588   6.218   0.764   6.436
 8230SOL    HW125589   6.258   0.843   6.389
 8230SOL    HW225590   6.269   0.682   6.412
 8231SOL     OW25591   3.462   1.552   2.160
 8231SOL    HW125592   3.511   1.559   2.073
 8231SOL    HW225593   3.378   1.500   2.146
 8232SOL     OW25594   3.712   6.725   3.332
 8232SOL    HW125595   3.790   6.669   3.303
 8232SOL    HW225596   3.634   6.666   3.354
 8233SOL     OW25597   2.672   0.738   6.332
 8233SOL    HW125598   2.771   0.735   6.317
 8233SOL    HW225599   2.627   0.671   6.272
 8234SOL     OW25600   0.757   2.954   0.137
 8234SOL    HW125601   0.842   2.901   0.140
 8234SOL    HW225602   0.680   2.892   0.126
 8235SOL     OW25603   0.750   6.462   0.623
 8235SOL    HW125604   0.839   6.458   0.667
 8235SOL    HW225605   0.758   6.430   0.529
 8236SOL     OW25606   1.488   0.008   0.804
 8236SOL    HW125607   1.583   0.006   0.772
 8236SOL    HW225608   1.426   0.007   0.726
 8237SOL     OW25609   4.005   5.261   5.443
 8237SOL    HW125610   4.008   5.162   5.431
 8237SOL    HW225611   3.911   5.291   5.457
 8238SOL     OW25612   6.628   5.475   0.068
 8238SOL    HW125613   6.551   5.515   0.117
 8238SOL    HW225614   6.650   5.531   7.007
 8239SOL     OW25615   4.539   1.858   3.779
 8239SOL    HW125616   4.606   1.785   3.773
 8239SOL    HW225617   4.576   1.942   3.739
 8240SOL     OW25618   3.951   3.444   5.043
 8240SOL    HW125619   4.036   3.497   5.039
 8240SOL    HW225620   3.968   3.357   5.090
 8241SOL     OW25621   0.837   3.187   5.583
 8241SOL    HW125622   0.931   3.203   5.612
 8241SOL    HW225623   0.836   3.113   5.516
 8242SOL     OW25624   0.146   3.041   3.665
 8242SOL    HW125625   0.065   2.984   3.674
 8242SOL    HW225626   0.227   2.989   3.691
 8243SOL     OW25627   1.562   6.036   3.489
 8243SOL    HW125628   1.627   6.081   3.551
 8243SOL    HW225629   1.471   6.036   3.530
 8244SOL     OW25630   5.305   0.625   4.336
 8244SOL    HW125631   5.340   0.568   4.262
 8244SOL    HW225632   5.221   0.584   4.373
 8245SOL     OW25633   5.778   4.297   2.311
 8245SOL    HW125634   5.750   4.208   2.347
 8245SOL    HW225635   5.711   4.366   2.336
 8246SOL     OW25636   2.035   4.303   6.839
 8246SOL    HW125637   1.983   4.387   6.828
 8246SOL    HW225638   2.026   4.247   6.757
 8247SOL     OW25639   1.978   4.836   3.274
 8247SOL    HW125640   1.963   4.927   3.237
 8247SOL    HW225641   1.933   4.768   3.215
 8248SOL     OW25642   6.265   6.667   2.649
 8248SOL    HW125643   6.226   6.641   2.738
 8248SOL    HW225644   6.201   6.642   2.576
 8249SOL     OW25645   3.483   0.270   6.287
 8249SOL    HW125646   3.454   0.355   6.331
 8249SOL    HW225647   3.488   0.284   6.188
 8250SOL     OW25648   1.065   1.393   0.393
 8250SOL    HW125649   1.018   1.481   0.390
 8250SOL    HW225650   1.109   1.382   0.482
 8251SOL     OW25651   1.545   2.045   6.733
 8251SOL    HW125652   1.618   2.112   6.747
 8251SOL    HW225653   1.553   2.004   6.642
 8252SOL     OW25654   0.933   1.498   6.454
 8252SOL    HW125655   0.892   1.505   6.544
 8252SOL    HW225656   0.945   1.402   6.430
 8253SOL     OW25657   6.590   4.505   5.819
 8253SOL    HW125658   6.592   4.417   5.771
 8253SOL    HW225659   6.510   4.509   5.879
 8254SOL     OW25660   5.161   4.279   0.061
 8254SOL    HW125661   5.239   4.342   0.060
 8254SOL    HW225662   5.089   4.314   0.002
 8255SOL     OW25663   1.519   6.613   5.572
 8255SOL    HW125664   1.536   6.578   5.665
 8255SOL    HW225665   1.606   6.635   5.529
 8256SOL     OW25666   1.706   5.679   2.616
 8256SOL    HW125667   1.722   5.582   2.600
 8256SOL    HW225668   1.750   5.706   2.702
 8257SOL     OW25669   4.526   4.592   3.843
 8257SOL    HW125670   4.586   4.669   3.819
 8257SOL    HW225671   4.582   4.514   3.871
 8258SOL     OW25672   0.417   3.149   4.538
 8258SOL    HW125673   0.440   3.180   4.446
 8258SOL    HW225674   0.380   3.057   4.534
 8259SOL     OW25675   5.906   2.943   4.055
 8259SOL    HW125676   5.829   2.992   4.097
 8259SOL    HW225677   5.883   2.919   3.961
 8260SOL     OW25678   4.921   1.865   6.296
 8260SOL    HW125679   4.888   1.863   6.202
 8260SOL    HW225680   5.020   1.851   6.296
 8261SOL     OW25681   5.703   2.707   2.818
 8261SOL    HW125682   5.714   2.615   2.781
 8261SOL    HW225683   5.607   2.723   2.841
 8262SOL     OW25684   4.963   4.158   2.220
 8262SOL    HW125685   4.903   4.189   2.146
 8262SOL    HW225686   5.032   4.228   2.239
 8263SOL     OW25687   6.761   1.827   6.557
 8263SOL    HW125688   6.765   1.744   6.502
 8263SOL    HW225689   6.849   1.873   6.556
 8264SOL     OW25690   3.190   0.944   1.670
 8264SOL    HW125691   3.094   0.966   1.650
 8264SOL    HW225692   3.205   0.949   1.769
 8265SOL     OW25693   4.788   5.430   0.242
 8265SOL    HW125694   4.882   5.448   0.270
 8265SOL    HW225695   4.738   5.516   0.234
 8266SOL     OW25696   4.867   2.609   3.223
 8266SOL    HW125697   4.875   2.521   3.271
 8266SOL    HW225698   4.771   2.626   3.200
 8267SOL     OW25699   1.855   3.283   3.203
 8267SOL    HW125700   1.942   3.312   3.242
 8267SOL    HW225701   1.847   3.318   3.109
 8268SOL     OW25702   2.900   5.401   1.681
 8268SOL    HW125703   2.889   5.302   1.675
 8268SOL    HW225704   2.877   5.432   1.773
 8269SOL     OW25705   6.780   1.710   3.909
 8269SOL    HW125706   6.810   1.647   3.837
 8269SOL    HW225707   6.752   1.657   3.990
 8270SOL     OW25708   4.078   4.552   0.522
 8270SOL    HW125709   4.003   4.493   0.492
 8270SOL    HW225710   4.112   4.605   0.444
 8271SOL     OW25711   3.069   0.029   5.333
 8271SOL    HW125712   3.050   7.000   5.248
 8271SOL    HW225713   2.998   0.009   5.400
 8272SOL     OW25714   0.716   0.880   1.860
 8272SOL    HW125715   0.697   0.784   1.880
 8272SOL    HW225716   0.815   0.893   1.851
 8273SOL     OW25717   5.165   0.001   6.139
 8273SOL    HW125718   5.229   6.956   6.180
 8273SOL    HW225719   5.072   6.994   6.162
 8274SOL     OW25720   5.154   0.208   4.409
 8274SOL    HW125721   5.091   0.241   4.479
 8274SOL    HW225722   5.113   0.133   4.358
 8275SOL     OW25723   4.504   0.674   4.319
 8275SOL    HW125724   4.455   0.589   4.301
 8275SOL    HW225725   4.591   0.673   4.270
 8276SOL     OW25726   5.652   2.874   0.945
 8276SOL    HW125727   5.569   2.822   0.964
 8276SOL    HW225728   5.727   2.811   0.927
 8277SOL     OW25729   1.356   6.712   2.061
 8277SOL    HW125730   1.454   6.706   2.081
 8277SOL    HW225731   1.306   6.645   2.115
 8278SOL     OW25732   1.319   0.422   1.495
 8278SOL    HW125733   1.246   0.429   1.427
 8278SOL    HW225734   1.299   0.483   1.572
 8279SOL     OW25735   6.384   4.991   5.907
 8279SOL    HW125736   6.322   4.921   5.941
 8279SOL    HW225737   6.332   5.067   5.870
 8280SOL     OW25738   0.023   4.389   6.687
 8280SOL    HW125739   6.985   4.323   6.736
 8280SOL    HW225740   0.098   4.418   6.747
 8281SOL     OW25741   3.189   5.047   6.930
 8281SOL    HW125742   3.134   5.113   6.981
 8281SOL    HW225743   3.286   5.071   6.938
 8282SOL     OW25744   4.177   3.042   0.637
 8282SOL    HW125745   4.231   3.109   0.587
 8282SOL    HW225746   4.219   3.024   0.726
 8283SOL     OW25747   0.544   1.275   3.322
 8283SOL    HW125748   0.465   1.215   3.308
 8283SOL    HW225749   0.612   1.229   3.378
 8284SOL     OW25750   4.958   2.364   1.088
 8284SOL    HW125751   4.871   2.315   1.100
 8284SOL    HW225752   5.013   2.355   1.172
 8285SOL     OW25753   0.534   4.690   6.981
 8285SOL    HW125754   0.624   4.716   6.946
 8285SOL    HW225755   0.545   4.625   0.036
 8286SOL     OW25756   6.495   2.059   6.338
 8286SOL    HW125757   6.505   2.156   6.359
 8286SOL    HW225758   6.481   2.008   6.423
 8287SOL     OW25759   0.094   1.051   3.229
 8287SOL    HW125760   0.127   1.081   3.319
 8287SOL    HW225761   0.040   1.124   3.188
 8288SOL     OW25762   2.814   0.003   2.282
 8288SOL    HW125763   2.731   0.043   2.322
 8288SOL    HW225764   2.847   6.949   2.341
 8289SOL     OW25765   6.283   6.989   0.104
 8289SOL    HW125766   6.295   6.898   0.144
 8289SOL    HW225767   6.347   0.033   0.146
 8290SOL     OW25768   4.707   2.701   1.930
 8290SOL    HW125769   4.667   2.632   1.869
 8290SOL    HW225770   4.666   2.790   1.911
 8291SOL     OW25771   5.480   5.607   5.635
 8291SOL    HW125772   5.544   5.552   5.689
 8291SOL    HW225773   5.504   5.704   5.643
 8292SOL     OW25774   6.613   3.689   5.621
 8292SOL    HW125775   6.543   3.732   5.564
 8292SOL    HW225776   6.571   3.620   5.679
 8293SOL     OW25777   2.755   5.603   4.262
 8293SOL    HW125778   2.715   5.586   4.171
 8293SOL    HW225779   2.796   5.694   4.264
 8294SOL     OW25780   6.680   3.681   6.101
 8294SOL    HW125781   6.723   3.621   6.034
 8294SOL    HW225782   6.704   3.651   6.193
 8295SOL     OW25783   4.229   4.517   1.568
 8295SOL    HW125784   4.202   4.514   1.472
 8295SOL    HW225785   4.192   4.437   1.616
 8296SOL     OW25786   3.137   0.470   1.823
 8296SOL    HW125787   3.197   0.444   1.899
 8296SOL    HW225788   3.055   0.414   1.824
 8297SOL     OW25789   6.093   4.364   1.965
 8297SOL    HW125790   6.065   4.289   1.906
 8297SOL    HW225791   6.027   4.376   2.038
 8298SOL     OW25792   6.882   6.982   0.915
 8298SOL    HW125793   6.860   0.045   0.863
 8298SOL    HW225794   6.915   6.911   0.853
 8299SOL     OW25795   1.134   2.366   6.606
 8299SOL    HW125796   1.071   2.410   6.670
 8299SOL    HW225797   1.213   2.330   6.657
 8300SOL     OW25798   5.013   5.971   3.949
 8300SOL    HW125799   5.011   5.907   4.026
 8300SOL    HW225800   4.922   5.977   3.908
 8301SOL     OW25801   6.495   5.532   0.310
 8301SOL    HW125802   6.430   5.460   0.334
 8301SOL    HW225803   6.540   5.566   0.392
 8302SOL     OW25804   3.504   6.289   5.458
 8302SOL    HW125805   3.548   6.224   5.519
 8302SOL    HW225806   3.573   6.331   5.398
 8303SOL     OW25807   0.598   4.980   3.956
 8303SOL    HW125808   0.525   4.912   3.960
 8303SOL    HW225809   0.641   4.989   4.045
 8304SOL     OW25810   5.420   2.438   3.714
 8304SOL    HW125811   5.411   2.433   3.813
 8304SOL    HW225812   5.359   2.509   3.679
 8305SOL     OW25813   4.471   6.224   5.079
 8305SOL    HW125814   4.464   6.290   5.153
 8305SOL    HW225815   4.438   6.265   4.994
 8306SOL     OW25816   5.109   1.392   4.187
 8306SOL    HW125817   5.027   1.339   4.210
 8306SOL    HW225818   5.191   1.342   4.215
 8307SOL     OW25819   0.003   4.892   4.235
 8307SOL    HW125820   0.047   4.953   4.301
 8307SOL    HW225821   6.923   4.896   4.248
 8308SOL     OW25822   1.982   5.392   0.559
 8308SOL    HW125823   1.993   5.362   0.465
 8308SOL    HW225824   1.922   5.328   0.608
 8309SOL     OW25825   5.836   5.499   2.628
 8309SOL    HW125826   5.781   5.417   2.645
 8309SOL    HW225827   5.894   5.485   2.548
 8310SOL     OW25828   1.843   6.000   2.699
 8310SOL    HW125829   1.934   6.041   2.695
 8310SOL    HW225830   1.781   6.063   2.746
 8311SOL     OW25831   4.451   6.553   1.958
 8311SOL    HW125832   4.503   6.590   2.035
 8311SOL    HW225833   4.353   6.555   1.979
 8312SOL     OW25834   6.439   0.784   0.556
 8312SOL    HW125835   6.462   0.701   0.606
 8312SOL    HW225836   6.510   0.803   0.488
 8313SOL     OW25837   4.946   2.452   5.783
 8313SOL    HW125838   4.924   2.360   5.751
 8313SOL    HW225839   5.008   2.446   5.862
 8314SOL     OW25840   4.924   5.922   4.580
 8314SOL    HW125841   4.866   5.952   4.504
 8314SOL    HW225842   5.020   5.931   4.553
 8315SOL     OW25843   3.440   1.730   0.668
 8315SOL    HW125844   3.465   1.640   0.702
 8315SOL    HW225845   3.434   1.728   0.568
 8316SOL     OW25846   1.629   1.592   4.769
 8316SOL    HW125847   1.586   1.668   4.818
 8316SOL    HW225848   1.659   1.624   4.679
 8317SOL     OW25849   1.992   1.769   6.439
 8317SOL    HW125850   1.945   1.778   6.527
 8317SOL    HW225851   1.927   1.743   6.368
 8318SOL     OW25852   4.384   6.205   5.561
 8318SOL    HW125853   4.300   6.217   5.509
 8318SOL    HW225854   4.365   6.217   5.659
 8319SOL     OW25855   2.878   5.698   6.400
 8319SOL    HW125856   2.954   5.729   6.342
 8319SOL    HW225857   2.836   5.617   6.359
 8320SOL     OW25858   4.047   4.960   5.429
 8320SOL    HW125859   3.982   4.957   5.505
 8320SOL    HW225860   4.136   4.926   5.460
 8321SOL     OW25861   0.477   0.442   0.775
 8321SOL    HW125862   0.445   0.470   0.866
 8321SOL    HW225863   0.523   0.520   0.732
 8322SOL     OW25864   2.294   0.395   1.622
 8322SOL    HW125865   2.304   0.296   1.634
 8322SOL    HW225866   2.371   0.441   1.667
 8323SOL     OW25867   5.886   5.283   6.902
 8323SOL    HW125868   5.796   5.300   6.943
 8323SOL    HW225869   5.924   5.368   6.867
 8324SOL     OW25870   5.845   6.363   6.318
 8324SOL    HW125871   5.879   6.291   6.257
 8324SOL    HW225872   5.788   6.322   6.389
 8325SOL     OW25873   1.661   6.283   4.776
 8325SOL    HW125874   1.745   6.247   4.816
 8325SOL    HW225875   1.630   6.222   4.703
 8326SOL     OW25876   2.420   1.509   6.747
 8326SOL    HW125877   2.451   1.565   6.824
 8326SOL    HW225878   2.324   1.486   6.760
 8327SOL     OW25879   0.609   5.496   5.395
 8327SOL    HW125880   0.706   5.493   5.416
 8327SOL    HW225881   0.590   5.576   5.338
 8328SOL     OW25882   1.106   0.464   0.353
 8328SOL    HW125883   1.035   0.409   0.309
 8328SOL    HW225884   1.073   0.495   0.442
 8329SOL     OW25885   1.908   2.528   5.408
 8329SOL    HW125886   1.979   2.593   5.380
 8329SOL    HW225887   1.818   2.563   5.381
 8330SOL     OW25888   3.150   6.710   0.281
 8330SOL    HW125889   3.230   6.678   0.333
 8330SOL    HW225890   3.172   6.709   0.183
 8331SOL     OW25891   2.245   1.953   5.897
 8331SOL    HW125892   2.181   1.906   5.959
 8331SOL    HW225893   2.313   2.003   5.951
 8332SOL     OW25894   5.472   3.923   0.864
 8332SOL    HW125895   5.396   3.898   0.923
 8332SOL    HW225896   5.523   3.841   0.839
 8333SOL     OW25897   2.798   4.665   6.384
 8333SOL    HW125898   2.829   4.747   6.431
 8333SOL    HW225899   2.780   4.686   6.288
 8334SOL     OW25900   3.377   2.753   5.192
 8334SOL    HW125901   3.405   2.664   5.227
 8334SOL    HW225902   3.445   2.786   5.127
 8335SOL     OW25903   5.609   3.304   6.303
 8335SOL    HW125904   5.519   3.343   6.282
 8335SOL    HW225905   5.627   3.313   6.401
 8336SOL     OW25906   1.355   4.701   3.815
 8336SOL    HW125907   1.313   4.722   3.903
 8336SOL    HW225908   1.286   4.667   3.752
 8337SOL     OW25909   5.954   0.425   4.196
 8337SOL    HW125910   5.864   0.396   4.162
 8337SOL    HW225911   6.023   0.406   4.127
 8338SOL     OW25912   2.871   5.590   1.478
 8338SOL    HW125913   2.919   5.665   1.524
 8338SOL    HW225914   2.873   5.508   1.536
 8339SOL     OW25915   6.855   0.595   1.986
 8339SOL    HW125916   6.799   0.523   2.027
 8339SOL    HW225917   6.950   0.582   2.012
 8340SOL     OW25918   5.952   2.630   6.466
 8340SOL    HW125919   5.935   2.658   6.560
 8340SOL    HW225920   6.015   2.694   6.422
 8341SOL     OW25921   3.347   6.910   0.967
 8341SOL    HW125922   3.440   6.920   0.931
 8341SOL    HW225923   3.332   6.814   0.992
 8342SOL     OW25924   4.109   1.021   1.165
 8342SOL    HW125925   4.024   1.013   1.114
 8342SOL    HW225926   4.169   0.945   1.141
 8343SOL     OW25927   4.508   6.093   2.823
 8343SOL    HW125928   4.432   6.132   2.876
 8343SOL    HW225929   4.479   6.005   2.784
 8344SOL     OW25930   2.015   4.621   5.637
 8344SOL    HW125931   2.061   4.645   5.551
 8344SOL    HW225932   2.075   4.644   5.714
 8345SOL     OW25933   6.136   0.291   4.334
 8345SOL    HW125934   6.134   0.193   4.315
 8345SOL    HW225935   6.054   0.334   4.298
 8346SOL     OW25936   5.902   4.267   3.412
 8346SOL    HW125937   5.896   4.200   3.485
 8346SOL    HW225938   5.976   4.331   3.431
 8347SOL     OW25939   1.322   1.564   6.400
 8347SOL    HW125940   1.357   1.584   6.491
 8347SOL    HW225941   1.395   1.523   6.345
 8348SOL     OW25942   3.711   5.858   1.118
 8348SOL    HW125943   3.715   5.786   1.049
 8348SOL    HW225944   3.619   5.897   1.121
 8349SOL     OW25945   4.452   5.506   1.367
 8349SOL    HW125946   4.410   5.545   1.450
 8349SOL    HW225947   4.485   5.580   1.308
 8350SOL     OW25948   2.243   0.346   6.578
 8350SOL    HW125949   2.164   0.405   6.595
 8350SOL    HW225950   2.310   0.358   6.651
 8351SOL     OW25951   6.738   3.159   3.034
 8351SOL    HW125952   6.663   3.189   3.093
 8351SOL    HW225953   6.825   3.182   3.078
 8352SOL     OW25954   2.628   6.498   6.237
 8352SOL    HW125955   2.662   6.548   6.317
 8352SOL    HW225956   2.697   6.431   6.208
 8353SOL     OW25957   0.518   5.798   2.578
 8353SOL    HW125958   0.601   5.812   2.524
 8353SOL    HW225959   0.448   5.756   2.521
 8354SOL     OW25960   4.706   2.616   3.705
 8354SOL    HW125961   4.801   2.648   3.704
 8354SOL    HW225962   4.704   2.517   3.716
 8355SOL     OW25963   3.180   4.738   6.112
 8355SOL    HW125964   3.232   4.771   6.190
 8355SOL    HW225965   3.224   4.655   6.076
 8356SOL     OW25966   3.150   3.149   1.633
 8356SOL    HW125967   3.170   3.131   1.537
 8356SOL    HW225968   3.053   3.136   1.650
 8357SOL     OW25969   2.677   7.004   4.346
 8357SOL    HW125970   2.644   6.920   4.389
 8357SOL    HW225971   2.603   0.052   4.345
 8358SOL     OW25972   6.976   0.407   4.366
 8358SOL    HW125973   6.907   0.346   4.326
 8358SOL    HW225974   0.009   0.450   4.292
 8359SOL     OW25975   5.090   1.989   5.181
 8359SOL    HW125976   5.120   2.082   5.202
 8359SOL    HW225977   5.024   1.959   5.249
 8360SOL     OW25978   2.920   0.517   2.150
 8360SOL    HW125979   3.015   0.492   2.169
 8360SOL    HW225980   2.900   0.502   2.053
 8361SOL     OW25981   4.739   1.173   0.437
 8361SOL    HW125982   4.800   1.251   0.431
 8361SOL    HW225983   4.785   1.091   0.402
 8362SOL     OW25984   0.645   4.365   1.771
 8362SOL    HW125985   0.743   4.348   1.776
 8362SOL    HW225986   0.598   4.284   1.735
 8363SOL     OW25987   2.340   2.050   0.939
 8363SOL    HW125988   2.285   2.133   0.941
 8363SOL    HW225989   2.307   1.986   1.007
 8364SOL     OW25990   0.207   1.143   3.478
 8364SOL    HW125991   0.187   1.237   3.451
 8364SOL    HW225992   0.286   1.141   3.539
 8365SOL     OW25993   2.118   2.911   1.029
 8365SOL    HW125994   2.180   2.967   1.083
 8365SOL    HW225995   2.058   2.970   0.975
 8366SOL     OW25996   5.390   5.852   1.743
 8366SOL    HW125997   5.468   5.790   1.731
 8366SOL    HW225998   5.322   5.836   1.673
 8367SOL     OW25999   1.985   4.505   3.565
 8367SOL    HW126000   1.956   4.600   3.555
 8367SOL    HW226001   2.028   4.492   3.654
 8368SOL     OW26002   0.620   3.488   6.393
 8368SOL    HW126003   0.570   3.415   6.346
 8368SOL    HW226004   0.575   3.576   6.377
 8369SOL     OW26005   1.040   0.148   0.331
 8369SOL    HW126006   1.137   0.165   0.349
 8369SOL    HW226007   0.996   0.114   0.414
 8370SOL     OW26008   3.119   2.595   0.532
 8370SOL    HW126009   3.099   2.537   0.454
 8370SOL    HW226010   3.127   2.539   0.614
 8371SOL     OW26011   2.729   4.418   5.653
 8371SOL    HW126012   2.797   4.480   5.612
 8371SOL    HW226013   2.732   4.330   5.606
 8372SOL     OW26014   1.683   6.727   2.464
 8372SOL    HW126015   1.649   6.704   2.555
 8372SOL    HW226016   1.645   6.814   2.434
 8373SOL     OW26017   5.262   0.893   4.383
 8373SOL    HW126018   5.281   0.798   4.359
 8373SOL    HW226019   5.254   0.901   4.483
 8374SOL     OW26020   0.886   1.670   3.275
 8374SOL    HW126021   0.951   1.648   3.202
 8374SOL    HW226022   0.899   1.765   3.303
 8375SOL     OW26023   1.941   2.561   5.744
 8375SOL    HW126024   1.869   2.494   5.727
 8375SOL    HW226025   1.990   2.579   5.659
 8376SOL     OW26026   0.651   1.475   3.595
 8376SOL    HW126027   0.657   1.575   3.594
 8376SOL    HW226028   0.558   1.447   3.617
 8377SOL     OW26029   3.405   4.988   1.242
 8377SOL    HW126030   3.331   5.005   1.307
 8377SOL    HW226031   3.366   4.979   1.150
 8378SOL     OW26032   4.509   5.577   5.044
 8378SOL    HW126033   4.595   5.624   5.066
 8378SOL    HW226034   4.442   5.594   5.116
 8379SOL     OW26035   5.563   2.817   2.015
 8379SOL    HW126036   5.602   2.907   2.031
 8379SOL    HW226037   5.466   2.825   1.995
 8380SOL     OW26038   1.770   5.459   3.067
 8380SOL    HW126039   1.714   5.402   3.007
 8380SOL    HW226040   1.734   5.552   3.069
 8381SOL     OW26041   1.313   2.279   2.808
 8381SOL    HW126042   1.301   2.378   2.800
 8381SOL    HW226043   1.382   2.259   2.878
 8382SOL     OW26044   1.130   0.184   1.471
 8382SOL    HW126045   1.170   0.100   1.508
 8382SOL    HW226046   1.125   0.253   1.543
 8383SOL     OW26047   2.645   0.206   4.794
 8383SOL    HW126048   2.628   0.249   4.883
 8383SOL    HW226049   2.727   0.149   4.800
 8384SOL     OW26050   0.416   3.421   3.636
 8384SOL    HW126051   0.407   3.416   3.536
 8384SOL    HW226052   0.329   3.397   3.678
 8385SOL     OW26053   4.589   2.446   2.100
 8385SOL    HW126054   4.534   2.376   2.145
 8385SOL    HW226055   4.586   2.531   2.152
 8386SOL     OW26056   0.008   5.350   1.736
 8386SOL    HW126057   6.991   5.413   1.667
 8386SOL    HW226058   6.951   5.307   1.784
 8387SOL     OW26059   0.288   1.750   3.534
 8387SOL    HW126060   0.358   1.685   3.503
 8387SOL    HW226061   0.207   1.700   3.563
 8388SOL     OW26062   3.737   5.498   1.489
 8388SOL    HW126063   3.691   5.488   1.401
 8388SOL    HW226064   3.779   5.411   1.515
 8389SOL     OW26065   1.697   2.527   4.451
 8389SOL    HW126066   1.787   2.512   4.408
 8389SOL    HW226067   1.707   2.584   4.531
 8390SOL     OW26068   2.187   0.306   6.312
 8390SOL    HW126069   2.139   0.390   6.290
 8390SOL    HW226070   2.206   0.303   6.410
 8391SOL     OW26071   4.857   6.130   0.802
 8391SOL    HW126072   4.830   6.185   0.723
 8391SOL    HW226073   4.886   6.190   0.876
 8392SOL     OW26074   4.017   5.067   0.054
 8392SOL    HW126075   3.979   5.143   0.106
 8392SOL    HW226076   4.106   5.041   0.092
 8393SOL     OW26077   1.389   6.065   1.812
 8393SOL    HW126078   1.459   6.073   1.882
 8393SOL    HW226079   1.422   6.107   1.727
 8394SOL     OW26080   1.892   1.131   3.922
 8394SOL    HW126081   1.907   1.149   4.019
 8394SOL    HW226082   1.914   1.212   3.868
 8395SOL     OW26083   2.488   5.812   6.344
 8395SOL    HW126084   2.429   5.871   6.400
 8395SOL    HW226085   2.442   5.794   6.257
 8396SOL     OW26086   4.461   2.329   1.086
 8396SOL    HW126087   4.444   2.426   1.070
 8396SOL    HW226088   4.559   2.314   1.098
 8397SOL     OW26089   0.611   4.410   3.284
 8397SOL    HW126090   0.630   4.480   3.353
 8397SOL    HW226091   0.697   4.382   3.241
 8398SOL     OW26092   5.395   1.243   0.189
 8398SOL    HW126093   5.334   1.182   0.137
 8398SOL    HW226094   5.344   1.324   0.217
 8399SOL     OW26095   5.776   6.335   5.323
 8399SOL    HW126096   5.803   6.426   5.354
 8399SOL    HW226097   5.858   6.279   5.310
 8400SOL     OW26098   6.131   6.336   3.495
 8400SOL    HW126099   6.214   6.359   3.546
 8400SOL    HW226100   6.068   6.414   3.499
 8401SOL     OW26101   2.889   3.627   5.105
 8401SOL    HW126102   2.955   3.554   5.084
 8401SOL    HW226103   2.904   3.704   5.044
 8402SOL     OW26104   4.771   0.825   5.509
 8402SOL    HW126105   4.871   0.832   5.518
 8402SOL    HW226106   4.748   0.746   5.453
 8403SOL     OW26107   1.003   2.271   5.957
 8403SOL    HW126108   0.931   2.322   5.910
 8403SOL    HW226109   0.975   2.254   6.051
 8404SOL     OW26110   4.744   4.902   5.459
 8404SOL    HW126111   4.814   4.871   5.523
 8404SOL    HW226112   4.653   4.879   5.494
 8405SOL     OW26113   1.248   2.900   5.713
 8405SOL    HW126114   1.285   2.968   5.776
 8405SOL    HW226115   1.185   2.839   5.762
 8406SOL     OW26116   5.574   3.590   1.464
 8406SOL    HW126117   5.587   3.577   1.562
 8406SOL    HW226118   5.613   3.678   1.436
 8407SOL     OW26119   4.891   3.673   2.350
 8407SOL    HW126120   4.852   3.670   2.442
 8407SOL    HW226121   4.860   3.755   2.303
 8408SOL     OW26122   4.662   4.203   4.142
 8408SOL    HW126123   4.710   4.136   4.085
 8408SOL    HW226124   4.568   4.212   4.109
 8409SOL     OW26125   2.014   2.079   3.992
 8409SOL    HW126126   1.920   2.102   3.968
 8409SOL    HW226127   2.071   2.082   3.910
 8410SOL     OW26128   2.123   4.965   2.439
 8410SOL    HW126129   2.208   4.970   2.491
 8410SOL    HW226130   2.142   4.938   2.345
 8411SOL     OW26131   1.777   3.387   2.948
 8411SOL    HW126132   1.711   3.448   2.902
 8411SOL    HW226133   1.789   3.304   2.894
 8412SOL     OW26134   5.984   2.786   2.388
 8412SOL    HW126135   5.888   2.793   2.412
 8412SOL    HW226136   6.008   2.857   2.322
 8413SOL     OW26137   2.301   5.513   1.192
 8413SOL    HW126138   2.333   5.514   1.287
 8413SOL    HW226139   2.378   5.491   1.132
 8414SOL     OW26140   5.603   0.661   4.172
 8414SOL    HW126141   5.600   0.717   4.255
 8414SOL    HW226142   5.511   0.651   4.135
 8415SOL     OW26143   0.301   4.872   0.993
 8415SOL    HW126144   0.258   4.825   1.071
 8415SOL    HW226145   0.308   4.970   1.013
 8416SOL     OW26146   4.718   4.622   3.008
 8416SOL    HW126147   4.621   4.600   2.994
 8416SOL    HW226148   4.726   4.713   3.048
 8417SOL     OW26149   1.201   5.255   0.115
 8417SOL    HW126150   1.151   5.264   0.028
 8417SOL    HW226151   1.237   5.344   0.142
 8418SOL     OW26152   5.489   5.747   2.675
 8418SOL    HW126153   5.437   5.821   2.633
 8418SOL    HW226154   5.435   5.663   2.675
 8419SOL     OW26155   3.674   1.027   3.474
 8419SOL    HW126156   3.685   1.103   3.410
 8419SOL    HW226157   3.763   0.986   3.493
 8420SOL     OW26158   4.820   1.719   5.293
 8420SOL    HW126159   4.731   1.765   5.286
 8420SOL    HW226160   4.838   1.697   5.389
 8421SOL     OW26161   0.701   0.950   0.643
 8421SOL    HW126162   0.631   1.012   0.676
 8421SOL    HW226163   0.792   0.988   0.662
 8422SOL     OW26164   2.523   0.494   1.760
 8422SOL    HW126165   2.619   0.487   1.785
 8422SOL    HW226166   2.467   0.453   1.833
 8423SOL     OW26167   2.218   4.491   1.098
 8423SOL    HW126168   2.138   4.493   1.157
 8423SOL    HW226169   2.228   4.401   1.056
 8424SOL     OW26170   3.072   2.406   1.627
 8424SOL    HW126171   3.035   2.441   1.713
 8424SOL    HW226172   3.149   2.463   1.598
 8425SOL     OW26173   0.584   4.224   6.025
 8425SOL    HW126174   0.672   4.226   5.978
 8425SOL    HW226175   0.548   4.131   6.025
 8426SOL     OW26176   3.608   3.448   2.550
 8426SOL    HW126177   3.574   3.426   2.459
 8426SOL    HW226178   3.614   3.364   2.604
 8427SOL     OW26179   2.575   1.664   6.925
 8427SOL    HW126180   2.590   1.755   6.887
 8427SOL    HW226181   2.583   1.668   0.006
 8428SOL     OW26182   6.729   3.689   0.431
 8428SOL    HW126183   6.813   3.735   0.459
 8428SOL    HW226184   6.750   3.620   0.361
 8429SOL     OW26185   1.203   6.737   2.921
 8429SOL    HW126186   1.193   6.829   2.882
 8429SOL    HW226187   1.188   6.742   3.020
 8430SOL     OW26188   3.779   5.967   2.758
 8430SOL    HW126189   3.711   5.981   2.830
 8430SOL    HW226190   3.867   5.944   2.799
 8431SOL     OW26191   2.891   3.412   2.679
 8431SOL    HW126192   2.919   3.428   2.773
 8431SOL    HW226193   2.845   3.493   2.643
 8432SOL     OW26194   4.635   6.349   6.991
 8432SOL    HW126195   4.724   6.378   6.958
 8432SOL    HW226196   4.641   6.255   0.006
 8433SOL     OW26197   6.884   1.484   3.760
 8433SOL    HW126198   6.970   1.505   3.713
 8433SOL    HW226199   6.818   1.448   3.694
 8434SOL     OW26200   5.726   6.685   6.694
 8434SOL    HW126201   5.704   6.603   6.748
 8434SOL    HW226202   5.780   6.748   6.750
 8435SOL     OW26203   4.751   2.923   0.872
 8435SOL    HW126204   4.699   2.850   0.916
 8435SOL    HW226205   4.845   2.893   0.857
 8436SOL     OW26206   3.040   4.315   1.691
 8436SOL    HW126207   2.989   4.366   1.760
 8436SOL    HW226208   2.995   4.228   1.673
 8437SOL     OW26209   6.919   2.551   1.160
 8437SOL    HW126210   6.872   2.470   1.195
 8437SOL    HW226211   6.906   2.627   1.224
 8438SOL     OW26212   2.217   5.692   1.019
 8438SOL    HW126213   2.252   5.617   1.075
 8438SOL    HW226214   2.150   5.657   0.954
 8439SOL     OW26215   5.604   0.496   1.819
 8439SOL    HW126216   5.701   0.523   1.819
 8439SOL    HW226217   5.594   0.408   1.774
 8440SOL     OW26218   1.195   3.278   4.258
 8440SOL    HW126219   1.166   3.249   4.167
 8440SOL    HW226220   1.245   3.365   4.251
 8441SOL     OW26221   4.361   5.968   1.283
 8441SOL    HW126222   4.356   6.005   1.375
 8441SOL    HW226223   4.269   5.945   1.250
 8442SOL     OW26224   2.228   2.297   0.923
 8442SOL    HW126225   2.276   2.381   0.897
 8442SOL    HW226226   2.143   2.290   0.871
 8443SOL     OW26227   0.090   2.275   1.673
 8443SOL    HW126228   0.182   2.237   1.684
 8443SOL    HW226229   0.057   2.307   1.762
 8444SOL     OW26230   5.051   2.011   3.431
 8444SOL    HW126231   5.141   1.999   3.388
 8444SOL    HW226232   5.046   2.101   3.474
 8445SOL     OW26233   4.795   5.499   2.330
 8445SOL    HW126234   4.877   5.544   2.365
 8445SOL    HW226235   4.743   5.563   2.274
 8446SOL     OW26236   6.540   3.541   3.094
 8446SOL    HW126237   6.602   3.573   3.023
 8446SOL    HW226238   6.536   3.441   3.092
 8447SOL     OW26239   4.821   4.270   1.387
 8447SOL    HW126240   4.825   4.367   1.362
 8447SOL    HW226241   4.726   4.244   1.401
 8448SOL     OW26242   1.914   4.378   5.569
 8448SOL    HW126243   1.938   4.473   5.588
 8448SOL    HW226244   1.998   4.325   5.554
 8449SOL     OW26245   1.054   0.349   5.000
 8449SOL    HW126246   1.001   0.399   4.932
 8449SOL    HW226247   1.000   0.339   5.084
 8450SOL     OW26248   1.838   5.188   0.687
 8450SOL    HW126249   1.830   5.095   0.651
 8450SOL    HW226250   1.781   5.197   0.769
 8451SOL     OW26251   2.839   4.290   1.048
 8451SOL    HW126252   2.749   4.248   1.035
 8451SOL    HW226253   2.866   4.281   1.144
 8452SOL     OW26254   6.714   6.003   1.995
 8452SOL    HW126255   6.663   5.920   2.018
 8452SOL    HW226256   6.651   6.069   1.953
 8453SOL     OW26257   0.281   4.919   5.209
 8453SOL    HW126258   0.372   4.961   5.204
 8453SOL    HW226259   0.242   4.912   5.117
 8454SOL     OW26260   2.250   0.278   4.832
 8454SOL    HW126261   2.304   0.194   4.827
 8454SOL    HW226262   2.175   0.273   4.767
 8455SOL     OW26263   6.403   2.820   0.621
 8455SOL    HW126264   6.451   2.739   0.590
 8455SOL    HW226265   6.464   2.876   0.677
 8456SOL     OW26266   5.664   4.987   3.443
 8456SOL    HW126267   5.745   5.045   3.435
 8456SOL    HW226268   5.689   4.898   3.482
 8457SOL     OW26269   5.924   6.133   6.208
 8457SOL    HW126270   5.928   6.090   6.117
 8457SOL    HW226271   5.859   6.083   6.265
 8458SOL     OW26272   1.509   1.921   0.902
 8458SOL    HW126273   1.507   1.943   1.000
 8458SOL    HW226274   1.509   2.005   0.849
 8459SOL     OW26275   2.786   5.053   3.296
 8459SOL    HW126276   2.846   5.098   3.230
 8459SOL    HW226277   2.804   5.087   3.388
 8460SOL     OW26278   3.638   1.144   1.609
 8460SOL    HW126279   3.662   1.234   1.643
 8460SOL    HW226280   3.714   1.081   1.623
 8461SOL     OW26281   5.559   4.169   3.341
 8461SOL    HW126282   5.617   4.130   3.270
 8461SOL    HW226283   5.552   4.104   3.417
 8462SOL     OW26284   1.828   3.995   1.001
 8462SOL    HW126285   1.908   3.977   1.057
 8462SOL    HW226286   1.856   4.035   0.914
 8463SOL     OW26287   0.486   6.776   1.362
 8463SOL    HW126288   0.417   6.843   1.333
 8463SOL    HW226289   0.495   6.705   1.293
 8464SOL     OW26290   0.379   3.233   6.528
 8464SOL    HW126291   0.296   3.183   6.502
 8464SOL    HW226292   0.401   3.215   6.624
 8465SOL     OW26293   5.309   4.846   0.685
 8465SOL    HW126294   5.234   4.791   0.723
 8465SOL    HW226295   5.396   4.809   0.717
 8466SOL     OW26296   0.659   1.179   4.982
 8466SOL    HW126297   0.687   1.259   5.034
 8466SOL    HW226298   0.635   1.206   4.889
 8467SOL     OW26299   3.034   1.330   0.355
 8467SOL    HW126300   3.047   1.267   0.279
 8467SOL    HW226301   2.942   1.369   0.352
 8468SOL     OW26302   6.228   4.020   0.827
 8468SOL    HW126303   6.237   3.927   0.793
 8468SOL    HW226304   6.216   4.019   0.926
 8469SOL     OW26305   3.799   2.867   5.025
 8469SOL    HW126306   3.830   2.914   4.942
 8469SOL    HW226307   3.699   2.870   5.030
 8470SOL     OW26308   2.075   5.432   1.307
 8470SOL    HW126309   2.006   5.366   1.276
 8470SOL    HW226310   2.140   5.448   1.233
 8471SOL     OW26311   4.371   1.437   3.626
 8471SOL    HW126312   4.362   1.391   3.538
 8471SOL    HW226313   4.323   1.385   3.697
 8472SOL     OW26314   5.875   1.717   6.609
 8472SOL    HW126315   5.973   1.729   6.622
 8472SOL    HW226316   5.845   1.633   6.653
 8473SOL     OW26317   4.718   4.689   5.912
 8473SOL    HW126318   4.751   4.678   6.006
 8473SOL    HW226319   4.696   4.599   5.874
 8474SOL     OW26320   3.492   3.351   5.657
 8474SOL    HW126321   3.461   3.265   5.615
 8474SOL    HW226322   3.470   3.349   5.755
 8475SOL     OW26323   0.547   2.061   2.763
 8475SOL    HW126324   0.585   1.980   2.809
 8475SOL    HW226325   0.592   2.143   2.798
 8476SOL     OW26326   6.600   0.940   2.513
 8476SOL    HW126327   6.525   0.923   2.449
 8476SOL    HW226328   6.685   0.956   2.461
 8477SOL     OW26329   5.474   6.953   1.048
 8477SOL    HW126330   5.537   0.007   1.023
 8477SOL    HW226331   5.385   6.969   1.004
 8478SOL     OW26332   1.678   6.945   6.914
 8478SOL    HW126333   1.755   6.962   6.853
 8478SOL    HW226334   1.594   6.938   6.861
 8479SOL     OW26335   1.056   2.769   0.141
 8479SOL    HW126336   1.129   2.770   0.210
 8479SOL    HW226337   0.986   2.702   0.168
 8480SOL     OW26338   3.314   4.269   1.619
 8480SOL    HW126339   3.360   4.358   1.621
 8480SOL    HW226340   3.215   4.283   1.626
 8481SOL     OW26341   4.960   3.411   2.519
 8481SOL    HW126342   4.872   3.373   2.491
 8481SOL    HW226343   5.033   3.370   2.464
 8482SOL     OW26344   4.655   0.584   5.768
 8482SOL    HW126345   4.746   0.625   5.776
 8482SOL    HW226346   4.613   0.614   5.682
 8483SOL     OW26347   4.430   5.258   3.379
 8483SOL    HW126348   4.501   5.287   3.314
 8483SOL    HW226349   4.466   5.266   3.472
 8484SOL     OW26350   6.681   6.721   5.170
 8484SOL    HW126351   6.706   6.664   5.248
 8484SOL    HW226352   6.704   6.674   5.085
 8485SOL     OW26353   3.951   0.627   5.556
 8485SOL    HW126354   3.855   0.653   5.557
 8485SOL    HW226355   3.994   0.653   5.642
 8486SOL     OW26356   4.987   2.513   4.315
 8486SOL    HW126357   4.971   2.495   4.412
 8486SOL    HW226358   4.902   2.499   4.264
 8487SOL     OW26359   0.026   2.293   5.872
 8487SOL    HW126360   6.954   2.266   5.904
 8487SOL    HW226361   0.090   2.218   5.890
 8488SOL     OW26362   3.930   4.955   3.112
 8488SOL    HW126363   3.907   5.048   3.083
 8488SOL    HW226364   4.017   4.956   3.161
 8489SOL     OW26365   6.630   1.936   2.039
 8489SOL    HW126366   6.692   1.858   2.030
 8489SOL    HW226367   6.677   2.010   2.088
 8490SOL     OW26368   3.513   6.319   0.761
 8490SOL    HW126369   3.561   6.245   0.715
 8490SOL    HW226370   3.576   6.395   0.777
 8491SOL     OW26371   3.419   5.987   2.467
 8491SOL    HW126372   3.428   6.073   2.517
 8491SOL    HW226373   3.500   5.931   2.483
 8492SOL     OW26374   5.180   6.931   4.088
 8492SOL    HW126375   5.192   6.833   4.103
 8492SOL    HW226376   5.216   6.955   3.998
 8493SOL     OW26377   5.237   0.326   5.366
 8493SOL    HW126378   5.193   0.394   5.308
 8493SOL    HW226379   5.167   0.274   5.415
 8494SOL     OW26380   0.136   3.445   2.263
 8494SOL    HW126381   0.101   3.377   2.199
 8494SOL    HW226382   0.138   3.406   2.355
 8495SOL     OW26383   5.224   5.986   5.276
 8495SOL    HW126384   5.320   5.994   5.301
 8495SOL    HW226385   5.167   6.034   5.343
 8496SOL     OW26386   3.939   2.198   2.731
 8496SOL    HW126387   3.919   2.228   2.824
 8496SOL    HW226388   3.985   2.109   2.734
 8497SOL     OW26389   6.333   0.704   3.358
 8497SOL    HW126390   6.261   0.766   3.324
 8497SOL    HW226391   6.422   0.738   3.328
 8498SOL     OW26392   4.762   6.384   4.207
 8498SOL    HW126393   4.784   6.481   4.197
 8498SOL    HW226394   4.840   6.336   4.248
 8499SOL     OW26395   6.190   6.899   5.227
 8499SOL    HW126396   6.284   6.876   5.201
 8499SOL    HW226397   6.140   6.932   5.147
 8500SOL     OW26398   1.428   0.604   6.425
 8500SOL    HW126399   1.401   0.545   6.502
 8500SOL    HW226400   1.388   0.568   6.341
 8501SOL     OW26401   3.339   1.026   5.380
 8501SOL    HW126402   3.308   1.118   5.358
 8501SOL    HW226403   3.299   0.997   5.467
 8502SOL     OW26404   6.811   2.972   0.038
 8502SOL    HW126405   6.726   2.974   0.091
 8502SOL    HW226406   6.888   2.954   0.098
 8503SOL     OW26407   4.485   1.821   5.506
 8503SOL    HW126408   4.535   1.735   5.518
 8503SOL    HW226409   4.521   1.870   5.426
 8504SOL     OW26410   1.287   0.546   3.261
 8504SOL    HW126411   1.231   0.625   3.235
 8504SOL    HW226412   1.314   0.496   3.179
 8505SOL     OW26413   6.059   2.339   2.458
 8505SOL    HW126414   6.019   2.285   2.532
 8505SOL    HW226415   5.986   2.373   2.398
 8506SOL     OW26416   1.786   0.945   5.101
 8506SOL    HW126417   1.690   0.916   5.104
 8506SOL    HW226418   1.843   0.876   5.145
 8507SOL     OW26419   4.359   4.999   6.065
 8507SOL    HW126420   4.445   5.033   6.027
 8507SOL    HW226421   4.378   4.937   6.142
 8508SOL     OW26422   3.745   0.412   6.282
 8508SOL    HW126423   3.800   0.445   6.359
 8508SOL    HW226424   3.724   0.315   6.295
 8509SOL     OW26425   4.627   2.071   2.286
 8509SOL    HW126426   4.673   2.121   2.359
 8509SOL    HW226427   4.565   2.133   2.237
 8510SOL     OW26428   0.973   2.122   4.617
 8510SOL    HW126429   0.973   2.155   4.711
 8510SOL    HW226430   0.991   2.199   4.555
 8511SOL     OW26431   5.804   1.917   4.064
 8511SOL    HW126432   5.883   1.935   4.122
 8511SOL    HW226433   5.755   2.003   4.048
 8512SOL     OW26434   1.902   6.522   5.736
 8512SOL    HW126435   1.809   6.556   5.748
 8512SOL    HW226436   1.967   6.599   5.738
 8513SOL     OW26437   4.141   5.291   6.882
 8513SOL    HW126438   4.165   5.210   6.935
 8513SOL    HW226439   4.167   5.373   6.933
 8514SOL     OW26440   3.791   5.838   4.515
 8514SOL    HW126441   3.817   5.801   4.605
 8514SOL    HW226442   3.742   5.768   4.464
 8515SOL     OW26443   5.366   3.201   1.479
 8515SOL    HW126444   5.278   3.170   1.515
 8515SOL    HW226445   5.351   3.275   1.413
 8516SOL     OW26446   6.921   2.001   1.385
 8516SOL    HW126447   6.908   1.902   1.389
 8516SOL    HW226448   6.882   2.043   1.467
 8517SOL     OW26449   1.297   4.018   4.354
 8517SOL    HW126450   1.240   4.038   4.434
 8517SOL    HW226451   1.283   4.090   4.285
 8518SOL     OW26452   3.513   5.888   0.811
 8518SOL    HW126453   3.483   5.980   0.836
 8518SOL    HW226454   3.609   5.891   0.783
 8519SOL     OW26455   2.574   5.528   3.702
 8519SOL    HW126456   2.606   5.538   3.797
 8519SOL    HW226457   2.648   5.490   3.646
 8520SOL     OW26458   3.645   5.766   6.619
 8520SOL    HW126459   3.668   5.731   6.528
 8520SOL    HW226460   3.728   5.780   6.672
 8521SOL     OW26461   1.053   0.718   2.365
 8521SOL    HW126462   0.986   0.706   2.291
 8521SOL    HW226463   1.006   0.746   2.449
 8522SOL     OW26464   2.037   6.511   4.307
 8522SOL    HW126465   1.953   6.526   4.254
 8522SOL    HW226466   2.090   6.439   4.263
 8523SOL     OW26467   1.790   6.064   6.849
 8523SOL    HW126468   1.839   6.067   6.936
 8523SOL    HW226469   1.692   6.057   6.867
 8524SOL     OW26470   1.581   1.569   0.198
 8524SOL    HW126471   1.567   1.470   0.202
 8524SOL    HW226472   1.674   1.588   0.165
 8525SOL     OW26473   5.425   4.791   4.039
 8525SOL    HW126474   5.454   4.849   4.116
 8525SOL    HW226475   5.392   4.850   3.965
 8526SOL     OW26476   0.567   3.535   2.042
 8526SOL    HW126477   0.616   3.589   2.110
 8526SOL    HW226478   0.471   3.527   2.068
 8527SOL     OW26479   4.754   0.567   4.632
 8527SOL    HW126480   4.799   0.577   4.721
 8527SOL    HW226481   4.817   0.596   4.560
 8528SOL     OW26482   5.376   0.530   0.515
 8528SOL    HW126483   5.422   0.577   0.590
 8528SOL    HW226484   5.421   0.443   0.497
 8529SOL     OW26485   6.914   0.026   4.836
 8529SOL    HW126486   6.841   0.017   4.904
 8529SOL    HW226487   7.003   0.026   4.882
 8530SOL     OW26488   2.135   4.619   6.050
 8530SOL    HW126489   2.165   4.562   5.974
 8530SOL    HW226490   2.183   4.707   6.047
 8531SOL     OW26491   3.855   5.653   2.445
 8531SOL    HW126492   3.920   5.618   2.513
 8531SOL    HW226493   3.798   5.578   2.412
 8532SOL     OW26494   1.486   4.161   6.773
 8532SOL    HW126495   1.526   4.155   6.864
 8532SOL    HW226496   1.540   4.105   6.709
 8533SOL     OW26497   2.987   0.013   5.675
 8533SOL    HW126498   3.071   6.980   5.666
 8533SOL    HW226499   2.959   0.016   5.771
 8534SOL     OW26500   2.467   2.118   0.575
 8534SOL    HW126501   2.535   2.136   0.646
 8534SOL    HW226502   2.407   2.043   0.604
 8535SOL     OW26503   0.234   3.109   6.178
 8535SOL    HW126504   0.284   3.026   6.202
 8535SOL    HW226505   0.224   3.114   6.079
 8536SOL     OW26506   6.293   0.409   5.893
 8536SOL    HW126507   6.349   0.392   5.812
 8536SOL    HW226508   6.203   0.367   5.881
 8537SOL     OW26509   3.867   6.562   3.185
 8537SOL    HW126510   3.939   6.501   3.217
 8537SOL    HW226511   3.792   6.509   3.147
 8538SOL     OW26512   4.263   1.279   5.251
 8538SOL    HW126513   4.255   1.304   5.154
 8538SOL    HW226514   4.331   1.337   5.295
 8539SOL     OW26515   0.721   3.113   3.492
 8539SOL    HW126516   0.676   3.121   3.580
 8539SOL    HW226517   0.817   3.139   3.501
 8540SOL     OW26518   4.927   6.078   6.102
 8540SOL    HW126519   4.918   6.009   6.030
 8540SOL    HW226520   5.023   6.106   6.109
 8541SOL     OW26521   3.140   6.202   5.478
 8541SOL    HW126522   3.120   6.176   5.384
 8541SOL    HW226523   3.215   6.146   5.513
 8542SOL     OW26524   2.243   4.883   6.268
 8542SOL    HW126525   2.148   4.899   6.242
 8542SOL    HW226526   2.296   4.859   6.188
 8543SOL     OW26527   3.597   1.608   5.802
 8543SOL    HW126528   3.674   1.590   5.862
 8543SOL    HW226529   3.619   1.683   5.739
 8544SOL     OW26530   5.458   3.564   5.531
 8544SOL    HW126531   5.512   3.601   5.455
 8544SOL    HW226532   5.390   3.499   5.495
 8545SOL     OW26533   2.086   0.423   5.806
 8545SOL    HW126534   2.051   0.447   5.716
 8545SOL    HW226535   2.124   0.331   5.804
 8546SOL     OW26536   2.875   1.456   4.091
 8546SOL    HW126537   2.971   1.446   4.066
 8546SOL    HW226538   2.858   1.407   4.177
 8547SOL     OW26539   5.781   5.542   5.530
 8547SOL    HW126540   5.825   5.631   5.541
 8547SOL    HW226541   5.842   5.470   5.564
 8548SOL     OW26542   1.551   4.052   4.416
 8548SOL    HW126543   1.585   4.007   4.499
 8548SOL    HW226544   1.459   4.019   4.396
 8549SOL     OW26545   3.271   0.621   3.401
 8549SOL    HW126546   3.354   0.570   3.382
 8549SOL    HW226547   3.233   0.656   3.316
 8550SOL     OW26548   0.313   3.632   5.076
 8550SOL    HW126549   0.311   3.551   5.134
 8550SOL    HW226550   0.325   3.713   5.133
 8551SOL     OW26551   3.781   1.451   3.711
 8551SOL    HW126552   3.719   1.504   3.653
 8551SOL    HW226553   3.818   1.511   3.782
 8552SOL     OW26554   4.270   1.669   2.068
 8552SOL    HW126555   4.199   1.707   2.009
 8552SOL    HW226556   4.337   1.621   2.012
 8553SOL     OW26557   5.200   3.722   0.308
 8553SOL    HW126558   5.273   3.745   0.372
 8553SOL    HW226559   5.225   3.641   0.256
 8554SOL     OW26560   0.900   1.273   6.859
 8554SOL    HW126561   0.992   1.237   6.846
 8554SOL    HW226562   0.875   1.330   6.780
 8555SOL     OW26563   3.299   1.505   3.314
 8555SOL    HW126564   3.291   1.590   3.262
 8555SOL    HW226565   3.221   1.446   3.295
 8556SOL     OW26566   0.382   4.401   5.150
 8556SOL    HW126567   0.334   4.472   5.202
 8556SOL    HW226568   0.354   4.311   5.182
 8557SOL     OW26569   6.460   0.938   0.815
 8557SOL    HW126570   6.431   0.900   0.727
 8557SOL    HW226571   6.391   1.001   0.849
 8558SOL     OW26572   2.745   6.194   3.494
 8558SOL    HW126573   2.752   6.257   3.572
 8558SOL    HW226574   2.774   6.103   3.522
 8559SOL     OW26575   1.202   3.302   3.466
 8559SOL    HW126576   1.238   3.339   3.552
 8559SOL    HW226577   1.134   3.366   3.428
 8560SOL     OW26578   3.416   4.185   1.339
 8560SOL    HW126579   3.410   4.087   1.320
 8560SOL    HW226580   3.395   4.201   1.435
 8561SOL     OW26581   4.024   1.031   2.311
 8561SOL    HW126582   3.945   0.993   2.359
 8561SOL    HW226583   4.101   0.967   2.318
 8562SOL     OW26584   5.124   2.665   6.494
 8562SOL    HW126585   5.132   2.643   6.591
 8562SOL    HW226586   5.215   2.682   6.456
 8563SOL     OW26587   0.741   4.550   2.732
 8563SOL    HW126588   0.810   4.620   2.750
 8563SOL    HW226589   0.766   4.466   2.779
 8564SOL     OW26590   4.151   6.360   0.076
 8564SOL    HW126591   4.158   6.459   0.085
 8564SOL    HW226592   4.077   6.337   0.012
 8565SOL     OW26593   1.245   4.871   1.473
 8565SOL    HW126594   1.162   4.816   1.465
 8565SOL    HW226595   1.250   4.909   1.565
 8566SOL     OW26596   2.532   1.081   3.252
 8566SOL    HW126597   2.562   0.990   3.280
 8566SOL    HW226598   2.528   1.141   3.332
 8567SOL     OW26599   1.692   3.240   0.807
 8567SOL    HW126600   1.791   3.244   0.792
 8567SOL    HW226601   1.647   3.212   0.722
 8568SOL     OW26602   5.655   6.672   5.990
 8568SOL    HW126603   5.618   6.764   5.983
 8568SOL    HW226604   5.739   6.665   5.936
 8569SOL     OW26605   5.065   1.485   6.466
 8569SOL    HW126606   5.034   1.560   6.523
 8569SOL    HW226607   5.016   1.487   6.379
 8570SOL     OW26608   1.788   2.370   4.029
 8570SOL    HW126609   1.855   2.399   3.961
 8570SOL    HW226610   1.770   2.272   4.018
 8571SOL     OW26611   1.233   1.165   3.758
 8571SOL    HW126612   1.206   1.120   3.673
 8571SOL    HW226613   1.324   1.135   3.785
 8572SOL     OW26614   2.483   3.755   5.818
 8572SOL    HW126615   2.561   3.776   5.877
 8572SOL    HW226616   2.502   3.787   5.725
 8573SOL     OW26617   1.456   6.077   6.578
 8573SOL    HW126618   1.459   6.018   6.497
 8573SOL    HW226619   1.454   6.173   6.548
 8574SOL     OW26620   5.714   2.123   5.697
 8574SOL    HW126621   5.776   2.171   5.759
 8574SOL    HW226622   5.622   2.162   5.704
 8575SOL     OW26623   2.487   6.349   4.561
 8575SOL    HW126624   2.539   6.264   4.554
 8575SOL    HW226625   2.401   6.339   4.509
 8576SOL     OW26626   1.617   3.886   5.151
 8576SOL    HW126627   1.532   3.935   5.133
 8576SOL    HW226628   1.695   3.938   5.115
 8577SOL     OW26629   1.821   0.915   0.610
 8577SOL    HW126630   1.797   1.002   0.654
 8577SOL    HW226631   1.858   0.852   0.678
 8578SOL     OW26632   1.454   0.113   5.499
 8578SOL    HW126633   1.427   0.144   5.408
 8578SOL    HW226634   1.377   0.064   5.541
 8579SOL     OW26635   3.294   6.928   2.090
 8579SOL    HW126636   3.384   6.885   2.089
 8579SOL    HW226637   3.279   6.976   2.003
 8580SOL     OW26638   1.515   0.669   2.048
 8580SOL    HW126639   1.533   0.601   2.119
 8580SOL    HW226640   1.492   0.622   1.963
 8581SOL     OW26641   4.034   3.594   3.287
 8581SOL    HW126642   3.938   3.605   3.313
 8581SOL    HW226643   4.059   3.666   3.223
 8582SOL     OW26644   4.590   5.165   5.675
 8582SOL    HW126645   4.628   5.257   5.664
 8582SOL    HW226646   4.650   5.098   5.632
 8583SOL     OW26647   3.341   0.294   2.792
 8583SOL    HW126648   3.423   0.286   2.848
 8583SOL    HW226649   3.268   0.337   2.845
 8584SOL     OW26650   5.796   2.230   5.446
 8584SOL    HW126651   5.728   2.293   5.409
 8584SOL    HW226652   5.755   2.177   5.521
 8585SOL     OW26653   4.845   2.475   2.801
 8585SOL    HW126654   4.747   2.477   2.819
 8585SOL    HW226655   4.866   2.534   2.723
 8586SOL     OW26656   6.737   6.559   5.379
 8586SOL    HW126657   6.793   6.573   5.460
 8586SOL    HW226658   6.641   6.558   5.404
 8587SOL     OW26659   0.047   0.232   0.926
 8587SOL    HW126660   6.974   0.235   0.888
 8587SOL    HW226661   0.045   0.259   1.022
 8588SOL     OW26662   1.357   1.141   5.628
 8588SOL    HW126663   1.439   1.198   5.625
 8588SOL    HW226664   1.294   1.171   5.556
 8589SOL     OW26665   5.612   3.025   6.504
 8589SOL    HW126666   5.600   2.932   6.538
 8589SOL    HW226667   5.549   3.086   6.551
 8590SOL     OW26668   1.280   0.772   2.991
 8590SOL    HW126669   1.187   0.757   3.025
 8590SOL    HW226670   1.311   0.864   3.015
 8591SOL     OW26671   1.164   4.104   5.568
 8591SOL    HW126672   1.205   4.092   5.658
 8591SOL    HW226673   1.111   4.023   5.544
 8592SOL     OW26674   0.185   2.455   4.772
 8592SOL    HW126675   0.185   2.543   4.820
 8592SOL    HW226676   0.268   2.446   4.717
 8593SOL     OW26677   6.677   1.134   0.194
 8593SOL    HW126678   6.684   1.076   0.112
 8593SOL    HW226679   6.631   1.083   0.267
 8594SOL     OW26680   5.829   3.889   6.755
 8594SOL    HW126681   5.764   3.956   6.790
 8594SOL    HW226682   5.781   3.818   6.704
 8595SOL     OW26683   5.372   6.471   2.264
 8595SOL    HW126684   5.415   6.386   2.294
 8595SOL    HW226685   5.343   6.524   2.344
 8596SOL     OW26686   0.562   2.373   5.898
 8596SOL    HW126687   0.525   2.432   5.970
 8596SOL    HW226688   0.615   2.299   5.939
 8597SOL     OW26689   6.133   2.329   5.702
 8597SOL    HW126690   6.153   2.231   5.699
 8597SOL    HW226691   6.065   2.351   5.632
 8598SOL     OW26692   0.041   0.490   5.980
 8598SOL    HW126693   7.010   0.403   5.971
 8598SOL    HW226694   6.999   0.566   5.955
 8599SOL     OW26695   5.388   4.103   4.839
 8599SOL    HW126696   5.325   4.136   4.768
 8599SOL    HW226697   5.338   4.047   4.905
 8600SOL     OW26698   4.099   2.889   1.730
 8600SOL    HW126699   4.166   2.963   1.743
 8600SOL    HW226700   4.144   2.811   1.687
 8601SOL     OW26701   4.513   5.367   2.322
 8601SOL    HW126702   4.533   5.276   2.285
 8601SOL    HW226703   4.590   5.397   2.379
 8602SOL     OW26704   1.950   6.097   4.668
 8602SOL    HW126705   1.894   6.073   4.747
 8602SOL    HW226706   2.024   6.030   4.659
 8603SOL     OW26707   0.908   1.512   7.000
 8603SOL    HW126708   0.918   1.490   0.078
 8603SOL    HW226709   0.911   1.427   6.947
 8604SOL     OW26710   1.466   5.682   6.214
 8604SOL    HW126711   1.560   5.693   6.183
 8604SOL    HW226712   1.464   5.622   6.294
 8605SOL     OW26713   6.498   4.571   4.272
 8605SOL    HW126714   6.526   4.484   4.312
 8605SOL    HW226715   6.508   4.644   4.340
 8606SOL     OW26716   1.027   0.151   6.748
 8606SOL    HW126717   1.054   0.204   6.827
 8606SOL    HW226718   1.022   0.210   6.667
 8607SOL     OW26719   2.817   2.924   1.315
 8607SOL    HW126720   2.886   2.983   1.275
 8607SOL    HW226721   2.861   2.844   1.356
 8608SOL     OW26722   2.184   5.479   1.792
 8608SOL    HW126723   2.183   5.421   1.711
 8608SOL    HW226724   2.260   5.544   1.786
 8609SOL     OW26725   4.757   2.181   4.038
 8609SOL    HW126726   4.662   2.190   4.066
 8609SOL    HW226727   4.782   2.085   4.032
 8610SOL     OW26728   6.697   5.511   2.700
 8610SOL    HW126729   6.615   5.530   2.646
 8610SOL    HW226730   6.778   5.528   2.644
 8611SOL     OW26731   1.913   1.436   5.626
 8611SOL    HW126732   1.863   1.495   5.562
 8611SOL    HW226733   2.007   1.425   5.595
 8612SOL     OW26734   3.120   3.265   5.579
 8612SOL    HW126735   3.026   3.236   5.561
 8612SOL    HW226736   3.130   3.291   5.675
 8613SOL     OW26737   2.909   3.343   3.269
 8613SOL    HW126738   2.943   3.269   3.328
 8613SOL    HW226739   2.809   3.341   3.268
 8614SOL     OW26740   0.487   2.576   3.896
 8614SOL    HW126741   0.441   2.549   3.981
 8614SOL    HW226742   0.577   2.532   3.893
 8615SOL     OW26743   3.607   0.913   5.423
 8615SOL    HW126744   3.526   0.956   5.385
 8615SOL    HW226745   3.683   0.923   5.358
 8616SOL     OW26746   6.143   4.111   5.300
 8616SOL    HW126747   6.069   4.175   5.280
 8616SOL    HW226748   6.147   4.094   5.399
 8617SOL     OW26749   0.994   0.119   3.400
 8617SOL    HW126750   1.019   0.146   3.307
 8617SOL    HW226751   0.903   0.078   3.400
 8618SOL     OW26752   6.438   4.793   0.559
 8618SOL    HW126753   6.477   4.701   0.559
 8618SOL    HW226754   6.407   4.815   0.467
 8619SOL     OW26755   5.560   5.309   6.176
 8619SOL    HW126756   5.523   5.305   6.083
 8619SOL    HW226757   5.490   5.280   6.241
 8620SOL     OW26758   1.081   6.550   4.242
 8620SOL    HW126759   1.076   6.521   4.146
 8620SOL    HW226760   1.031   6.484   4.299
 8621SOL     OW26761   6.151   3.407   1.257
 8621SOL    HW126762   6.177   3.366   1.170
 8621SOL    HW226763   6.067   3.460   1.245
 8622SOL     OW26764   0.990   5.698   1.603
 8622SOL    HW126765   1.080   5.742   1.610
 8622SOL    HW226766   0.922   5.765   1.574
 8623SOL     OW26767   2.102   1.962   3.007
 8623SOL    HW126768   2.060   1.872   3.019
 8623SOL    HW226769   2.100   2.012   3.093
 8624SOL     OW26770   3.225   3.619   5.605
 8624SOL    HW126771   3.158   3.642   5.533
 8624SOL    HW226772   3.240   3.521   5.606
 8625SOL     OW26773   4.196   3.010   5.960
 8625SOL    HW126774   4.258   2.991   5.883
 8625SOL    HW226775   4.229   3.089   6.010
 8626SOL     OW26776   5.236   2.007   0.861
 8626SOL    HW126777   5.196   2.095   0.835
 8626SOL    HW226778   5.303   2.022   0.934
 8627SOL     OW26779   0.035   6.812   2.574
 8627SOL    HW126780   0.077   6.723   2.594
 8627SOL    HW226781   6.994   6.803   2.496
 8628SOL     OW26782   1.537   6.613   0.853
 8628SOL    HW126783   1.443   6.645   0.851
 8628SOL    HW226784   1.568   6.608   0.948
 8629SOL     OW26785   0.321   0.725   4.143
 8629SOL    HW126786   0.339   0.821   4.123
 8629SOL    HW226787   0.391   0.690   4.205
 8630SOL     OW26788   4.965   3.200   1.326
 8630SOL    HW126789   4.972   3.103   1.304
 8630SOL    HW226790   4.984   3.254   1.244
 8631SOL     OW26791   1.528   6.130   6.838
 8631SOL    HW126792   1.494   6.112   6.745
 8631SOL    HW226793   1.491   6.217   6.870
 8632SOL     OW26794   6.273   6.045   4.283
 8632SOL    HW126795   6.357   5.992   4.281
 8632SOL    HW226796   6.243   6.064   4.189
 8633SOL     OW26797   6.529   3.615   5.025
 8633SOL    HW126798   6.575   3.672   5.094
 8633SOL    HW226799   6.432   3.607   5.048
 8634SOL     OW26800   5.111   4.889   6.186
 8634SOL    HW126801   5.039   4.822   6.168
 8634SOL    HW226802   5.180   4.849   6.247
 8635SOL     OW26803   5.196   1.805   6.338
 8635SOL    HW126804   5.271   1.748   6.371
 8635SOL    HW226805   5.218   1.901   6.354
 8636SOL     OW26806   4.043   5.957   0.740
 8636SOL    HW126807   4.102   5.973   0.819
 8636SOL    HW226808   4.023   6.044   0.695
 8637SOL     OW26809   2.884   2.337   0.878
 8637SOL    HW126810   2.945   2.295   0.946
 8637SOL    HW226811   2.871   2.434   0.900
 8638SOL     OW26812   5.305   2.351   4.591
 8638SOL    HW126813   5.294   2.419   4.519
 8638SOL    HW226814   5.224   2.350   4.650
 8639SOL     OW26815   3.542   4.067   0.108
 8639SOL    HW126816   3.534   4.095   0.203
 8639SOL    HW226817   3.615   3.999   0.099
 8640SOL     OW26818   3.250   2.252   6.677
 8640SOL    HW126819   3.171   2.313   6.671
 8640SOL    HW226820   3.333   2.307   6.686
 8641SOL     OW26821   3.503   4.930   3.513
 8641SOL    HW126822   3.565   4.871   3.461
 8641SOL    HW226823   3.548   4.960   3.597
 8642SOL     OW26824   2.210   6.241   3.311
 8642SOL    HW126825   2.303   6.220   3.338
 8642SOL    HW226826   2.146   6.209   3.382
 8643SOL     OW26827   3.853   6.440   1.236
 8643SOL    HW126828   3.916   6.419   1.161
 8643SOL    HW226829   3.875   6.384   1.315
 8644SOL     OW26830   5.506   2.226   6.388
 8644SOL    HW126831   5.556   2.181   6.462
 8644SOL    HW226832   5.513   2.325   6.399
 8645SOL     OW26833   4.775   5.275   2.777
 8645SOL    HW126834   4.794   5.241   2.870
 8645SOL    HW226835   4.761   5.374   2.780
 8646SOL     OW26836   7.005   1.991   4.392
 8646SOL    HW126837   6.966   1.976   4.482
 8646SOL    HW226838   6.941   2.043   4.335
 8647SOL     OW26839   1.982   4.747   1.664
 8647SOL    HW126840   1.928   4.768   1.745
 8647SOL    HW226841   2.037   4.666   1.681
 8648SOL     OW26842   5.710   5.564   6.149
 8648SOL    HW126843   5.680   5.469   6.160
 8648SOL    HW226844   5.669   5.602   6.066
 8649SOL     OW26845   5.537   2.425   2.283
 8649SOL    HW126846   5.566   2.403   2.376
 8649SOL    HW226847   5.529   2.340   2.230
 8650SOL     OW26848   1.146   0.658   4.853
 8650SOL    HW126849   1.199   0.602   4.917
 8650SOL    HW226850   1.117   0.743   4.899
 8651SOL     OW26851   4.663   1.819   1.803
 8651SOL    HW126852   4.723   1.781   1.873
 8651SOL    HW226853   4.623   1.904   1.837
 8652SOL     OW26854   6.279   2.706   4.633
 8652SOL    HW126855   6.206   2.743   4.576
 8652SOL    HW226856   6.364   2.700   4.580
 8653SOL     OW26857   5.326   0.632   0.858
 8653SOL    HW126858   5.233   0.668   0.860
 8653SOL    HW226859   5.324   0.533   0.874
 8654SOL     OW26860   6.979   4.508   2.597
 8654SOL    HW126861   6.967   4.542   2.504
 8654SOL    HW226862   0.001   4.579   2.653
 8655SOL     OW26863   1.223   6.860   4.824
 8655SOL    HW126864   1.126   6.885   4.827
 8655SOL    HW226865   1.243   6.814   4.737
 8656SOL     OW26866   4.237   6.028   0.933
 8656SOL    HW126867   4.208   6.095   1.002
 8656SOL    HW226868   4.278   5.949   0.979
 8657SOL     OW26869   3.178   1.777   2.609
 8657SOL    HW126870   3.263   1.810   2.567
 8657SOL    HW226871   3.100   1.815   2.561
 8658SOL     OW26872   6.801   4.011   0.505
 8658SOL    HW126873   6.711   3.993   0.466
 8658SOL    HW226874   6.807   4.107   0.533
 8659SOL     OW26875   3.501   0.249   3.378
 8659SOL    HW126876   3.514   0.332   3.434
 8659SOL    HW226877   3.486   0.171   3.438
 8660SOL     OW26878   7.008   3.991   1.521
 8660SOL    HW126879   0.056   3.987   1.446
 8660SOL    HW226880   0.033   3.963   1.606
 8661SOL     OW26881   6.005   3.241   2.082
 8661SOL    HW126882   5.955   3.278   2.003
 8661SOL    HW226883   6.006   3.141   2.076
 8662SOL     OW26884   1.767   2.457   2.891
 8662SOL    HW126885   1.858   2.415   2.889
 8662SOL    HW226886   1.729   2.460   2.798
 8663SOL     OW26887   3.336   4.949   2.561
 8663SOL    HW126888   3.293   4.968   2.473
 8663SOL    HW226889   3.268   4.957   2.634
 8664SOL     OW26890   3.405   5.771   3.945
 8664SOL    HW126891   3.441   5.828   3.871
 8664SOL    HW226892   3.307   5.760   3.934
 8665SOL     OW26893   0.275   3.546   6.440
 8665SOL    HW126894   0.353   3.546   6.502
 8665SOL    HW226895   0.259   3.640   6.408
 8666SOL     OW26896   4.540   0.089   2.598
 8666SOL    HW126897   4.578   0.017   2.540
 8666SOL    HW226898   4.590   0.174   2.582
 8667SOL     OW26899   4.925   2.200   2.239
 8667SOL    HW126900   4.992   2.265   2.202
 8667SOL    HW226901   4.966   2.109   2.241
 8668SOL     OW26902   3.683   2.026   3.281
 8668SOL    HW126903   3.605   1.980   3.239
 8668SOL    HW226904   3.701   1.985   3.371
 8669SOL     OW26905   0.611   6.044   5.806
 8669SOL    HW126906   0.613   5.959   5.755
 8669SOL    HW226907   0.545   6.037   5.881
 8670SOL     OW26908   0.345   5.335   4.975
 8670SOL    HW126909   0.387   5.267   4.915
 8670SOL    HW226910   0.400   5.418   4.975
 8671SOL     OW26911   0.245   3.454   3.932
 8671SOL    HW126912   0.298   3.417   4.008
 8671SOL    HW226913   0.243   3.389   3.857
 8672SOL     OW26914   6.320   1.228   2.391
 8672SOL    HW126915   6.234   1.189   2.422
 8672SOL    HW226916   6.353   1.294   2.459
 8673SOL     OW26917   0.671   1.457   1.543
 8673SOL    HW126918   0.587   1.467   1.490
 8673SOL    HW226919   0.653   1.482   1.638
 8674SOL     OW26920   0.451   3.499   4.115
 8674SOL    HW126921   0.418   3.568   4.051
 8674SOL    HW226922   0.448   3.536   4.208
 8675SOL     OW26923   5.138   2.414   5.017
 8675SOL    HW126924   5.179   2.504   5.005
 8675SOL    HW226925   5.040   2.422   5.031
 8676SOL     OW26926   4.654   2.621   0.557
 8676SOL    HW126927   4.588   2.693   0.576
 8676SOL    HW226928   4.718   2.614   0.633
 8677SOL     OW26929   3.309   0.976   0.058
 8677SOL    HW126930   3.361   0.933   7.004
 8677SOL    HW226931   3.322   0.925   0.143
 8678SOL     OW26932   3.361   1.983   0.396
 8678SOL    HW126933   3.337   1.980   0.492
 8678SOL    HW226934   3.373   1.890   0.362
 8679SOL     OW26935   1.645   2.283   6.813
 8679SOL    HW126936   1.732   2.327   6.834
 8679SOL    HW226937   1.596   2.265   6.898
 8680SOL     OW26938   0.137   0.182   1.308
 8680SOL    HW126939   0.053   0.231   1.286
 8680SOL    HW226940   0.128   0.141   1.399
 8681SOL     OW26941   5.506   5.635   0.930
 8681SOL    HW126942   5.477   5.695   1.004
 8681SOL    HW226943   5.505   5.687   0.844
 8682SOL     OW26944   1.677   1.724   2.608
 8682SOL    HW126945   1.660   1.625   2.606
 8682SOL    HW226946   1.643   1.766   2.524
 8683SOL     OW26947   2.386   4.387   4.062
 8683SOL    HW126948   2.290   4.386   4.034
 8683SOL    HW226949   2.442   4.427   3.989
 8684SOL     OW26950   2.201   4.211   3.366
 8684SOL    HW126951   2.228   4.164   3.282
 8684SOL    HW226952   2.106   4.242   3.358
 8685SOL     OW26953   5.028   3.150   5.475
 8685SOL    HW126954   5.101   3.113   5.533
 8685SOL    HW226955   5.045   3.125   5.380
 8686SOL     OW26956   1.359   4.799   2.791
 8686SOL    HW126957   1.367   4.845   2.702
 8686SOL    HW226958   1.418   4.718   2.792
 8687SOL     OW26959   5.983   4.266   5.657
 8687SOL    HW126960   5.987   4.218   5.745
 8687SOL    HW226961   5.903   4.326   5.655
 8688SOL     OW26962   0.296   3.916   5.161
 8688SOL    HW126963   0.254   3.979   5.226
 8688SOL    HW226964   0.380   3.957   5.125
 8689SOL     OW26965   5.173   3.308   0.938
 8689SOL    HW126966   5.178   3.272   0.845
 8689SOL    HW226967   5.237   3.384   0.948
 8690SOL     OW26968   1.802   2.426   2.290
 8690SOL    HW126969   1.762   2.337   2.310
 8690SOL    HW226970   1.767   2.494   2.355
 8691SOL     OW26971   3.254   1.166   6.751
 8691SOL    HW126972   3.334   1.196   6.700
 8691SOL    HW226973   3.276   1.085   6.805
 8692SOL     OW26974   5.425   2.102   4.598
 8692SOL    HW126975   5.378   2.188   4.578
 8692SOL    HW226976   5.423   2.044   4.517
 8693SOL     OW26977   0.759   0.047   5.394
 8693SOL    HW126978   0.693   0.038   5.468
 8693SOL    HW226979   0.841   0.094   5.427
 8694SOL     OW26980   4.264   3.831   5.401
 8694SOL    HW126981   4.339   3.783   5.355
 8694SOL    HW226982   4.195   3.765   5.430
 8695SOL     OW26983   4.073   3.870   1.114
 8695SOL    HW126984   4.056   3.771   1.116
 8695SOL    HW226985   4.168   3.888   1.140
 8696SOL     OW26986   2.844   5.580   6.728
 8696SOL    HW126987   2.772   5.566   6.796
 8696SOL    HW226988   2.809   5.558   6.637
 8697SOL     OW26989   1.179   3.250   4.954
 8697SOL    HW126990   1.177   3.174   4.890
 8697SOL    HW226991   1.242   3.320   4.920
 8698SOL     OW26992   5.835   4.221   6.920
 8698SOL    HW126993   5.822   4.320   6.925
 8698SOL    HW226994   5.880   4.189   7.003
 8699SOL     OW26995   2.871   2.443   1.236
 8699SOL    HW126996   2.791   2.450   1.176
 8699SOL    HW226997   2.891   2.347   1.253
 8700SOL     OW26998   0.218   1.857   4.253
 8700SOL    HW126999   0.196   1.781   4.314
 8700SOL    HW227000   0.153   1.932   4.268
 8701SOL     OW27001   2.332   2.989   6.793
 8701SOL    HW127002   2.268   2.939   6.736
 8701SOL    HW227003   2.297   3.081   6.810
 8702SOL     OW27004   5.467   3.716   1.173
 8702SOL    HW127005   5.377   3.752   1.198
 8702SOL    HW227006   5.537   3.755   1.234
 8703SOL     OW27007   2.164   5.148   1.941
 8703SOL    HW127008   2.107   5.217   1.985
 8703SOL    HW227009   2.108   5.070   1.913
 8704SOL     OW27010   6.419   0.875   3.602
 8704SOL    HW127011   6.356   0.935   3.553
 8704SOL    HW227012   6.419   0.785   3.559
 8705SOL     OW27013   3.655   1.967   0.238
 8705SOL    HW127014   3.677   1.871   0.217
 8705SOL    HW227015   3.586   2.000   0.173
 8706SOL     OW27016   4.659   2.923   5.175
 8706SOL    HW127017   4.601   2.861   5.121
 8706SOL    HW227018   4.720   2.972   5.113
 8707SOL     OW27019   1.092   1.098   4.206
 8707SOL    HW127020   0.994   1.112   4.223
 8707SOL    HW227021   1.118   1.148   4.123
 8708SOL     OW27022   5.808   2.671   0.793
 8708SOL    HW127023   5.711   2.648   0.800
 8708SOL    HW227024   5.863   2.589   0.808
 8709SOL     OW27025   6.289   6.420   4.230
 8709SOL    HW127026   6.369   6.364   4.249
 8709SOL    HW227027   6.318   6.506   4.189
 8710SOL     OW27028   2.186   3.142   3.651
 8710SOL    HW127029   2.219   3.093   3.732
 8710SOL    HW227030   2.121   3.084   3.601
 8711SOL     OW27031   0.885   2.109   2.247
 8711SOL    HW127032   0.828   2.027   2.254
 8711SOL    HW227033   0.843   2.183   2.299
 8712SOL     OW27034   1.018   3.900   4.193
 8712SOL    HW127035   0.983   3.869   4.282
 8712SOL    HW227036   1.020   3.823   4.130
 8713SOL     OW27037   0.281   4.843   3.437
 8713SOL    HW127038   0.248   4.845   3.531
 8713SOL    HW227039   0.379   4.865   3.435
 8714SOL     OW27040   0.471   4.410   6.329
 8714SOL    HW127041   0.381   4.387   6.294
 8714SOL    HW227042   0.500   4.499   6.292
 8715SOL     OW27043   2.343   5.117   1.400
 8715SOL    HW127044   2.382   5.055   1.331
 8715SOL    HW227045   2.255   5.080   1.431
 8716SOL     OW27046   5.575   0.212   2.748
 8716SOL    HW127047   5.534   0.284   2.692
 8716SOL    HW227048   5.555   0.122   2.708
 8717SOL     OW27049   3.534   2.521   6.488
 8717SOL    HW127050   3.633   2.529   6.477
 8717SOL    HW227051   3.501   2.440   6.440
 8718SOL     OW27052   2.803   5.351   5.675
 8718SOL    HW127053   2.819   5.375   5.579
 8718SOL    HW227054   2.807   5.434   5.731
 8719SOL     OW27055   3.151   2.143   4.506
 8719SOL    HW127056   3.184   2.188   4.589
 8719SOL    HW227057   3.227   2.099   4.459
 8720SOL     OW27058   0.280   6.524   4.825
 8720SOL    HW127059   0.354   6.578   4.865
 8720SOL    HW227060   0.193   6.572   4.838
 8721SOL     OW27061   1.067   0.748   1.388
 8721SOL    HW127062   1.094   0.652   1.377
 8721SOL    HW227063   0.990   0.754   1.451
 8722SOL     OW27064   4.199   1.415   0.248
 8722SOL    HW127065   4.251   1.330   0.236
 8722SOL    HW227066   4.104   1.393   0.270
 8723SOL     OW27067   3.822   6.795   2.824
 8723SOL    HW127068   3.762   6.767   2.899
 8723SOL    HW227069   3.770   6.851   2.759
 8724SOL     OW27070   4.009   0.249   5.267
 8724SOL    HW127071   4.005   0.288   5.175
 8724SOL    HW227072   3.955   0.165   5.270
 8725SOL     OW27073   6.437   0.756   2.686
 8725SOL    HW127074   6.467   0.777   2.779
 8725SOL    HW227075   6.496   0.803   2.620
 8726SOL     OW27076   6.913   1.430   0.606
 8726SOL    HW127077   6.836   1.366   0.603
 8726SOL    HW227078   6.878   1.523   0.616
 8727SOL     OW27079   4.983   5.709   6.468
 8727SOL    HW127080   4.892   5.740   6.444
 8727SOL    HW227081   5.001   5.620   6.426
 8728SOL     OW27082   5.778   6.957   4.238
 8728SOL    HW127083   5.816   0.012   4.184
 8728SOL    HW227084   5.681   6.973   4.254
 8729SOL     OW27085   5.927   6.668   5.915
 8729SOL    HW127086   5.983   6.751   5.904
 8729SOL    HW227087   5.940   6.631   6.007
 8730SOL     OW27088   4.077   4.771   1.957
 8730SOL    HW127089   4.037   4.685   1.924
 8730SOL    HW227090   4.148   4.751   2.025
 8731SOL     OW27091   6.857   2.095   4.176
 8731SOL    HW127092   6.832   2.031   4.103
 8731SOL    HW227093   6.837   2.189   4.146
 8732SOL     OW27094   4.841   5.998   5.235
 8732SOL    HW127095   4.761   5.956   5.191
 8732SOL    HW227096   4.824   6.095   5.249
 8733SOL     OW27097   5.622   4.488   2.411
 8733SOL    HW127098   5.578   4.561   2.359
 8733SOL    HW227099   5.681   4.528   2.481
 8734SOL     OW27100   0.793   5.873   1.519
 8734SOL    HW127101   0.696   5.878   1.541
 8734SOL    HW227102   0.805   5.882   1.420
 8735SOL     OW27103   1.342   2.575   6.922
 8735SOL    HW127104   1.396   2.572   6.838
 8735SOL    HW227105   1.277   2.651   6.917
 8736SOL     OW27106   1.050   5.982   3.985
 8736SOL    HW127107   0.992   5.902   3.998
 8736SOL    HW227108   1.094   6.006   4.072
 8737SOL     OW27109   0.492   5.298   6.988
 8737SOL    HW127110   0.579   5.333   0.004
 8737SOL    HW227111   0.449   5.240   0.037
 8738SOL     OW27112   2.209   2.412   2.519
 8738SOL    HW127113   2.188   2.486   2.582
 8738SOL    HW227114   2.299   2.374   2.541
 8739SOL     OW27115   4.490   4.628   3.455
 8739SOL    HW127116   4.543   4.556   3.501
 8739SOL    HW227117   4.549   4.675   3.389
 8740SOL     OW27118   2.725   0.907   3.676
 8740SOL    HW127119   2.791   0.980   3.693
 8740SOL    HW227120   2.655   0.908   3.748
 8741SOL     OW27121   2.366   2.239   2.706
 8741SOL    HW127122   2.444   2.194   2.663
 8741SOL    HW227123   2.292   2.174   2.719
 8742SOL     OW27124   1.334   3.522   1.212
 8742SOL    HW127125   1.359   3.606   1.259
 8742SOL    HW227126   1.404   3.452   1.228
 8743SOL     OW27127   1.462   3.072   0.101
 8743SOL    HW127128   1.507   2.994   0.057
 8743SOL    HW227129   1.377   3.043   0.143
 8744SOL     OW27130   2.473   4.198   5.995
 8744SOL    HW127131   2.445   4.123   5.934
 8744SOL    HW227132   2.488   4.162   6.087
 8745SOL     OW27133   5.804   1.453   6.647
 8745SOL    HW127134   5.866   1.387   6.690
 8745SOL    HW227135   5.721   1.461   6.702
 8746SOL     OW27136   4.731   4.722   4.667
 8746SOL    HW127137   4.666   4.699   4.739
 8746SOL    HW227138   4.815   4.670   4.678
 8747SOL     OW27139   0.495   6.874   1.651
 8747SOL    HW127140   0.534   6.797   1.701
 8747SOL    HW227141   0.506   6.860   1.553
 8748SOL     OW27142   5.902   1.004   4.870
 8748SOL    HW127143   5.995   1.036   4.854
 8748SOL    HW227144   5.903   0.905   4.884
 8749SOL     OW27145   2.616   1.697   3.723
 8749SOL    HW127146   2.561   1.637   3.664
 8749SOL    HW227147   2.604   1.792   3.695
 8750SOL     OW27148   3.970   3.332   2.005
 8750SOL    HW127149   3.926   3.305   1.919
 8750SOL    HW227150   3.916   3.298   2.082
 8751SOL     OW27151   2.011   6.817   6.951
 8751SOL    HW127152   2.097   6.849   6.989
 8751SOL    HW227153   2.000   6.851   6.857
 8752SOL     OW27154   0.872   3.268   6.601
 8752SOL    HW127155   0.859   3.365   6.623
 8752SOL    HW227156   0.839   3.212   6.677
 8753SOL     OW27157   1.834   1.878   0.970
 8753SOL    HW127158   1.865   1.857   0.877
 8753SOL    HW227159   1.842   1.796   1.027
 8754SOL     OW27160   1.436   6.250   6.315
 8754SOL    HW127161   1.421   6.177   6.248
 8754SOL    HW227162   1.434   6.338   6.268
 8755SOL     OW27163   0.349   1.882   2.155
 8755SOL    HW127164   0.351   1.795   2.106
 8755SOL    HW227165   0.341   1.957   2.090
 8756SOL     OW27166   1.578   1.828   2.389
 8756SOL    HW127167   1.506   1.859   2.327
 8756SOL    HW227168   1.651   1.896   2.393
 8757SOL     OW27169   5.367   5.853   4.584
 8757SOL    HW127170   5.450   5.872   4.636
 8757SOL    HW227171   5.298   5.923   4.603
 8758SOL     OW27172   3.389   4.839   6.340
 8758SOL    HW127173   3.329   4.808   6.414
 8758SOL    HW227174   3.368   4.934   6.317
 8759SOL     OW27175   6.699   1.432   1.685
 8759SOL    HW127176   6.737   1.424   1.777
 8759SOL    HW227177   6.612   1.385   1.681
 8760SOL     OW27178   1.641   2.976   4.489
 8760SOL    HW127179   1.646   3.014   4.582
 8760SOL    HW227180   1.546   2.964   4.463
 8761SOL     OW27181   5.044   2.930   3.344
 8761SOL    HW127182   4.954   2.899   3.314
 8761SOL    HW227183   5.079   2.999   3.280
 8762SOL     OW27184   3.996   6.151   2.439
 8762SOL    HW127185   3.907   6.163   2.482
 8762SOL    HW227186   4.059   6.222   2.472
 8763SOL     OW27187   6.822   2.133   5.485
 8763SOL    HW127188   6.863   2.059   5.431
 8763SOL    HW227189   6.803   2.101   5.577
 8764SOL     OW27190   2.711   5.658   6.069
 8764SOL    HW127191   2.624   5.703   6.051
 8764SOL    HW227192   2.700   5.595   6.146
 8765SOL     OW27193   4.427   7.004   3.556
 8765SOL    HW127194   4.466   6.962   3.474
 8765SOL    HW227195   4.463   6.958   3.637
 8766SOL     OW27196   6.288   6.867   4.616
 8766SOL    HW127197   6.274   6.807   4.695
 8766SOL    HW227198   6.348   6.943   4.642
 8767SOL     OW27199   1.906   1.410   4.194
 8767SOL    HW127200   1.970   1.449   4.260
 8767SOL    HW227201   1.828   1.369   4.243
 8768SOL     OW27202   0.156   2.085   1.292
 8768SOL    HW127203   0.231   2.098   1.357
 8768SOL    HW227204   0.086   2.026   1.333
 8769SOL     OW27205   6.778   6.960   6.532
 8769SOL    HW127206   6.842   7.012   6.588
 8769SOL    HW227207   6.725   0.004   6.475
 8770SOL     OW27208   4.621   1.816   0.779
 8770SOL    HW127209   4.523   1.835   0.782
 8770SOL    HW227210   4.636   1.727   0.735
 8771SOL     OW27211   1.215   3.011   6.769
 8771SOL    HW127212   1.161   3.044   6.691
 8771SOL    HW227213   1.226   3.085   6.835
 8772SOL     OW27214   0.788   6.415   3.384
 8772SOL    HW127215   0.713   6.349   3.396
 8772SOL    HW227216   0.754   6.495   3.334
 8773SOL     OW27217   6.728   1.541   4.172
 8773SOL    HW127218   6.635   1.553   4.208
 8773SOL    HW227219   6.732   1.457   4.119
 8774SOL     OW27220   1.574   2.429   0.109
 8774SOL    HW127221   1.593   2.508   0.049
 8774SOL    HW227222   1.599   2.345   0.061
 8775SOL     OW27223   5.203   2.254   2.444
 8775SOL    HW127224   5.272   2.192   2.406
 8775SOL    HW227225   5.171   2.316   2.373
 8776SOL     OW27226   5.191   3.563   1.469
 8776SOL    HW127227   5.199   3.530   1.563
 8776SOL    HW227228   5.262   3.520   1.413
 8777SOL     OW27229   6.197   2.553   4.320
 8777SOL    HW127230   6.203   2.512   4.229
 8777SOL    HW227231   6.289   2.572   4.354
 8778SOL     OW27232   1.567   4.171   6.511
 8778SOL    HW127233   1.616   4.207   6.431
 8778SOL    HW227234   1.510   4.244   6.550
 8779SOL     OW27235   3.948   6.519   2.667
 8779SOL    HW127236   3.905   6.456   2.731
 8779SOL    HW227237   3.971   6.604   2.715
 8780SOL     OW27238   0.752   3.619   4.713
 8780SOL    HW127239   0.850   3.634   4.723
 8780SOL    HW227240   0.702   3.685   4.768
 8781SOL     OW27241   4.083   1.840   1.979
 8781SOL    HW127242   4.011   1.790   2.026
 8781SOL    HW227243   4.057   1.853   1.883
 8782SOL     OW27244   6.495   2.759   0.036
 8782SOL    HW127245   6.533   2.687   0.094
 8782SOL    HW227246   6.499   2.847   0.084
 8783SOL     OW27247   3.890   3.883   5.918
 8783SOL    HW127248   3.813   3.836   5.961
 8783SOL    HW227249   3.892   3.978   5.950
 8784SOL     OW27250   4.464   1.173   5.961
 8784SOL    HW127251   4.415   1.166   5.875
 8784SOL    HW227252   4.463   1.268   5.993
 8785SOL     OW27253   6.881   6.123   6.626
 8785SOL    HW127254   6.843   6.215   6.635
 8785SOL    HW227255   6.840   6.078   6.546
 8786SOL     OW27256   5.841   2.242   3.070
 8786SOL    HW127257   5.796   2.267   2.985
 8786SOL    HW227258   5.850   2.323   3.129
 8787SOL     OW27259   3.517   5.167   2.509
 8787SOL    HW127260   3.493   5.070   2.509
 8787SOL    HW227261   3.471   5.212   2.585
 8788SOL     OW27262   0.374   6.784   3.672
 8788SOL    HW127263   0.357   6.707   3.610
 8788SOL    HW227264   0.321   6.771   3.756
 8789SOL     OW27265   2.026   3.107   0.156
 8789SOL    HW127266   2.081   3.063   0.227
 8789SOL    HW227267   1.992   3.037   0.093
 8790SOL     OW27268   5.038   3.082   5.200
 8790SOL    HW127269   5.114   3.137   5.166
 8790SOL    HW227270   4.963   3.084   5.135
 8791SOL     OW27271   4.049   6.162   5.212
 8791SOL    HW127272   4.137   6.203   5.236
 8791SOL    HW227273   3.997   6.144   5.295
 8792SOL     OW27274   5.577   4.811   0.759
 8792SOL    HW127275   5.605   4.725   0.717
 8792SOL    HW227276   5.570   4.799   0.859
 8793SOL     OW27277   6.695   0.292   5.721
 8793SOL    HW127278   6.764   0.258   5.785
 8793SOL    HW227279   6.728   0.376   5.678
 8794SOL     OW27280   6.984   2.818   3.723
 8794SOL    HW127281   0.044   2.758   3.733
 8794SOL    HW227282   6.924   2.781   3.652
 8795SOL     OW27283   1.312   0.546   6.991
 8795SOL    HW127284   1.319   0.507   0.063
 8795SOL    HW227285   1.238   0.614   6.989
 8796SOL     OW27286   5.652   5.188   4.455
 8796SOL    HW127287   5.676   5.105   4.507
 8796SOL    HW227288   5.571   5.230   4.495
 8797SOL     OW27289   5.787   5.778   5.239
 8797SOL    HW127290   5.789   5.813   5.146
 8797SOL    HW227291   5.729   5.696   5.243
 8798SOL     OW27292   1.829   5.510   6.971
 8798SOL    HW127293   1.790   5.483   0.040
 8798SOL    HW227294   1.771   5.580   6.929
 8799SOL     OW27295   1.547   6.087   2.022
 8799SOL    HW127296   1.614   6.023   2.059
 8799SOL    HW227297   1.548   6.171   2.075
 8800SOL     OW27298   6.552   6.271   4.186
 8800SOL    HW127299   6.580   6.193   4.242
 8800SOL    HW227300   6.630   6.332   4.173
 8801SOL     OW27301   4.793   3.166   5.673
 8801SOL    HW127302   4.724   3.100   5.642
 8801SOL    HW227303   4.866   3.172   5.606
 8802SOL     OW27304   1.167   6.619   6.924
 8802SOL    HW127305   1.216   6.629   7.011
 8802SOL    HW227306   1.213   6.673   6.853
 8803SOL     OW27307   4.760   4.712   5.238
 8803SOL    HW127308   4.773   4.766   5.322
 8803SOL    HW227309   4.821   4.746   5.167
 8804SOL     OW27310   2.097   6.486   1.827
 8804SOL    HW127311   2.016   6.519   1.875
 8804SOL    HW227312   2.130   6.402   1.871
 8805SOL     OW27313   4.335   4.890   1.160
 8805SOL    HW127314   4.368   4.906   1.066
 8805SOL    HW227315   4.386   4.948   1.223
 8806SOL     OW27316   1.668   1.579   1.901
 8806SOL    HW127317   1.768   1.578   1.895
 8806SOL    HW227318   1.638   1.668   1.936
 8807SOL     OW27319   5.896   2.284   1.742
 8807SOL    HW127320   5.977   2.229   1.720
 8807SOL    HW227321   5.815   2.225   1.739
 8808SOL     OW27322   1.566   1.494   0.650
 8808SOL    HW127323   1.593   1.410   0.602
 8808SOL    HW227324   1.540   1.471   0.744
 8809SOL     OW27325   0.939   3.278   2.858
 8809SOL    HW127326   0.946   3.179   2.866
 8809SOL    HW227327   1.030   3.318   2.850
 8810SOL     OW27328   6.242   2.458   4.069
 8810SOL    HW127329   6.180   2.380   4.056
 8810SOL    HW227330   6.293   2.474   3.985
 8811SOL     OW27331   3.953   5.532   2.690
 8811SOL    HW127332   4.040   5.483   2.698
 8811SOL    HW227333   3.877   5.467   2.698
 8812SOL     OW27334   5.557   0.855   0.322
 8812SOL    HW127335   5.505   0.909   0.389
 8812SOL    HW227336   5.502   0.778   0.291
 8813SOL     OW27337   1.374   2.759   1.887
 8813SOL    HW127338   1.309   2.826   1.850
 8813SOL    HW227339   1.338   2.722   1.973
 8814SOL     OW27340   5.955   6.667   5.050
 8814SOL    HW127341   5.940   6.764   5.072
 8814SOL    HW227342   5.897   6.641   4.973
 8815SOL     OW27343   4.973   0.386   0.987
 8815SOL    HW127344   4.928   0.355   1.070
 8815SOL    HW227345   4.945   0.480   0.966
 8816SOL     OW27346   0.066   0.861   2.547
 8816SOL    HW127347   0.147   0.868   2.605
 8816SOL    HW227348   0.006   0.788   2.582
 8817SOL     OW27349   0.952   2.329   4.040
 8817SOL    HW127350   0.920   2.236   4.021
 8817SOL    HW227351   0.948   2.346   4.138
 8818SOL     OW27352   1.130   5.876   6.612
 8818SOL    HW127353   1.170   5.938   6.679
 8818SOL    HW227354   1.031   5.872   6.625
 8819SOL     OW27355   5.194   6.179   6.080
 8819SOL    HW127356   5.253   6.198   6.001
 8819SOL    HW227357   5.239   6.113   6.140
 8820SOL     OW27358   3.504   6.555   5.578
 8820SOL    HW127359   3.582   6.545   5.639
 8820SOL    HW227360   3.497   6.474   5.519
 8821SOL     OW27361   1.513   5.555   5.606
 8821SOL    HW127362   1.599   5.605   5.596
 8821SOL    HW227363   1.464   5.555   5.519
 8822SOL     OW27364   6.709   0.278   4.825
 8822SOL    HW127365   6.681   0.293   4.920
 8822SOL    HW227366   6.639   0.316   4.764
 8823SOL     OW27367   4.165   2.145   3.297
 8823SOL    HW127368   4.116   2.063   3.325
 8823SOL    HW227369   4.244   2.159   3.358
 8824SOL     OW27370   1.720   0.245   4.354
 8824SOL    HW127371   1.732   0.291   4.442
 8824SOL    HW227372   1.646   0.289   4.303
 8825SOL     OW27373   1.674   6.752   0.647
 8825SOL    HW127374   1.625   6.718   0.728
 8825SOL    HW227375   1.700   6.847   0.661
 8826SOL     OW27376   0.474   3.976   0.195
 8826SOL    HW127377   0.404   3.920   0.239
 8826SOL    HW227378   0.563   3.957   0.237
 8827SOL     OW27379   5.105   5.653   3.911
 8827SOL    HW127380   5.017   5.612   3.936
 8827SOL    HW227381   5.102   5.751   3.932
 8828SOL     OW27382   5.293   2.524   5.827
 8828SOL    HW127383   5.284   2.445   5.887
 8828SOL    HW227384   5.266   2.498   5.734
 8829SOL     OW27385   6.494   0.756   2.955
 8829SOL    HW127386   6.500   0.679   3.019
 8829SOL    HW227387   6.448   0.833   2.999
 8830SOL     OW27388   2.677   0.886   2.619
 8830SOL    HW127389   2.719   0.924   2.701
 8830SOL    HW227390   2.637   0.959   2.564
 8831SOL     OW27391   1.083   2.425   3.090
 8831SOL    HW127392   1.103   2.340   3.138
 8831SOL    HW227393   1.130   2.501   3.135
 8832SOL     OW27394   5.851   0.189   4.659
 8832SOL    HW127395   5.907   0.107   4.647
 8832SOL    HW227396   5.802   0.208   4.574
 8833SOL     OW27397   4.655   3.204   1.049
 8833SOL    HW127398   4.591   3.135   1.082
 8833SOL    HW227399   4.725   3.160   0.993
 8834SOL     OW27400   6.280   4.601   5.638
 8834SOL    HW127401   6.367   4.648   5.623
 8834SOL    HW227402   6.211   4.667   5.669
 8835SOL     OW27403   6.893   1.162   5.649
 8835SOL    HW127404   6.911   1.228   5.722
 8835SOL    HW227405   6.805   1.118   5.665
 8836SOL     OW27406   4.423   1.789   1.125
 8836SOL    HW127407   4.388   1.718   1.065
 8836SOL    HW227408   4.453   1.867   1.070
 8837SOL     OW27409   5.659   4.894   0.021
 8837SOL    HW127410   5.659   4.981   0.071
 8837SOL    HW227411   5.566   4.860   0.013
 8838SOL     OW27412   1.584   3.558   2.103
 8838SOL    HW127413   1.656   3.490   2.087
 8838SOL    HW227414   1.548   3.546   2.195
 8839SOL     OW27415   4.474   4.100   1.303
 8839SOL    HW127416   4.510   4.026   1.360
 8839SOL    HW227417   4.383   4.126   1.335
 8840SOL     OW27418   0.344   0.373   1.379
 8840SOL    HW127419   0.343   0.455   1.321
 8840SOL    HW227420   0.266   0.315   1.355
 8841SOL     OW27421   4.424   2.080   0.249
 8841SOL    HW127422   4.444   2.045   0.340
 8841SOL    HW227423   4.384   2.171   0.256
 8842SOL     OW27424   2.943   3.246   3.759
 8842SOL    HW127425   2.933   3.256   3.858
 8842SOL    HW227426   3.004   3.169   3.739
 8843SOL     OW27427   2.474   6.400   4.865
 8843SOL    HW127428   2.460   6.425   4.770
 8843SOL    HW227429   2.552   6.338   4.873
 8844SOL     OW27430   4.099   2.727   5.353
 8844SOL    HW127431   4.148   2.688   5.275
 8844SOL    HW227432   4.031   2.662   5.386
 8845SOL     OW27433   0.330   3.967   2.605
 8845SOL    HW127434   0.274   4.036   2.558
 8845SOL    HW227435   0.373   4.009   2.685
 8846SOL     OW27436   6.131   5.548   4.947
 8846SOL    HW127437   6.158   5.614   4.877
 8846SOL    HW227438   6.185   5.564   5.030
 8847SOL     OW27439   1.170   2.296   3.844
 8847SOL    HW127440   1.180   2.395   3.832
 8847SOL    HW227441   1.090   2.277   3.902
 8848SOL     OW27442   5.628   2.564   1.087
 8848SOL    HW127443   5.702   2.508   1.051
 8848SOL    HW227444   5.660   2.614   1.167
 8849SOL     OW27445   3.570   5.016   4.656
 8849SOL    HW127446   3.497   5.008   4.724
 8849SOL    HW227447   3.535   4.994   4.565
 8850SOL     OW27448   3.786   2.286   0.866
 8850SOL    HW127449   3.773   2.340   0.949
 8850SOL    HW227450   3.881   2.292   0.837
 8851SOL     OW27451   6.876   5.745   3.136
 8851SOL    HW127452   6.974   5.724   3.129
 8851SOL    HW227453   6.825   5.689   3.071
 8852SOL     OW27454   5.645   3.796   5.042
 8852SOL    HW127455   5.630   3.880   5.094
 8852SOL    HW227456   5.648   3.816   4.945
 8853SOL     OW27457   5.004   1.994   4.465
 8853SOL    HW127458   5.027   2.027   4.374
 8853SOL    HW227459   5.043   2.054   4.534
 8854SOL     OW27460   3.182   0.345   6.281
 8854SOL    HW127461   3.239   0.411   6.234
 8854SOL    HW227462   3.161   0.269   6.219
 8855SOL     OW27463   6.403   4.704   6.132
 8855SOL    HW127464   6.478   4.750   6.181
 8855SOL    HW227465   6.433   4.613   6.104
 8856SOL     OW27466   5.322   1.610   5.448
 8856SOL    HW127467   5.349   1.648   5.536
 8856SOL    HW227468   5.398   1.619   5.383
 8857SOL     OW27469   1.934   3.503   4.372
 8857SOL    HW127470   1.907   3.498   4.468
 8857SOL    HW227471   1.928   3.411   4.331
 8858SOL     OW27472   0.551   3.520   5.525
 8858SOL    HW127473   0.481   3.473   5.580
 8858SOL    HW227474   0.619   3.454   5.495
 8859SOL     OW27475   2.376   6.579   5.069
 8859SOL    HW127476   2.387   6.527   5.154
 8859SOL    HW227477   2.426   6.534   4.996
 8860SOL     OW27478   1.936   1.624   1.814
 8860SOL    HW127479   2.036   1.630   1.814
 8860SOL    HW227480   1.907   1.544   1.762
 8861SOL     OW27481   1.916   1.722   0.160
 8861SOL    HW127482   1.882   1.628   0.150
 8861SOL    HW227483   2.001   1.731   0.109
 8862SOL     OW27484   6.718   2.584   4.356
 8862SOL    HW127485   6.790   2.651   4.370
 8862SOL    HW227486   6.744   2.497   4.398
 8863SOL     OW27487   2.227   5.513   5.272
 8863SOL    HW127488   2.143   5.518   5.327
 8863SOL    HW227489   2.304   5.547   5.326
 8864SOL     OW27490   1.769   4.728   5.750
 8864SOL    HW127491   1.845   4.693   5.696
 8864SOL    HW227492   1.804   4.778   5.830
 8865SOL     OW27493   2.618   1.833   5.792
 8865SOL    HW127494   2.521   1.834   5.816
 8865SOL    HW227495   2.658   1.922   5.811
 8866SOL     OW27496   4.839   0.362   5.356
 8866SOL    HW127497   4.821   0.313   5.441
 8866SOL    HW227498   4.906   0.434   5.373
 8867SOL     OW27499   5.766   0.583   3.446
 8867SOL    HW127500   5.842   0.591   3.381
 8867SOL    HW227501   5.801   0.594   3.539
 8868SOL     OW27502   5.623   2.917   0.103
 8868SOL    HW127503   5.700   2.969   0.067
 8868SOL    HW227504   5.613   2.935   0.201
 8869SOL     OW27505   2.898   1.917   2.819
 8869SOL    HW127506   2.840   1.873   2.750
 8869SOL    HW227507   2.986   1.870   2.822
 8870SOL     OW27508   4.248   6.918   1.754
 8870SOL    HW127509   4.298   7.004   1.741
 8870SOL    HW227510   4.302   6.843   1.715
 8871SOL     OW27511   1.669   2.047   4.293
 8871SOL    HW127512   1.627   2.131   4.327
 8871SOL    HW227513   1.724   2.005   4.365
 8872SOL     OW27514   1.086   1.713   2.477
 8872SOL    HW127515   1.118   1.796   2.522
 8872SOL    HW227516   1.028   1.661   2.539
 8873SOL     OW27517   6.835   5.505   5.243
 8873SOL    HW127518   6.921   5.460   5.266
 8873SOL    HW227519   6.767   5.436   5.216
 8874SOL     OW27520   1.410   1.122   6.448
 8874SOL    HW127521   1.352   1.126   6.367
 8874SOL    HW227522   1.354   1.135   6.530
 8875SOL     OW27523   1.517   1.169   3.804
 8875SOL    HW127524   1.548   1.091   3.858
 8875SOL    HW227525   1.477   1.238   3.864
 8876SOL     OW27526   2.417   1.167   4.974
 8876SOL    HW127527   2.497   1.201   5.023
 8876SOL    HW227528   2.352   1.242   4.961
 8877SOL     OW27529   3.207   6.799   4.418
 8877SOL    HW127530   3.123   6.775   4.466
 8877SOL    HW227531   3.220   6.898   4.421
 8878SOL     OW27532   6.483   4.748   5.251
 8878SOL    HW127533   6.469   4.651   5.269
 8878SOL    HW227534   6.577   4.774   5.273
 8879SOL     OW27535   5.705   5.576   4.531
 8879SOL    HW127536   5.734   5.659   4.578
 8879SOL    HW227537   5.608   5.561   4.547
 8880SOL     OW27538   0.905   6.850   4.877
 8880SOL    HW127539   0.942   6.923   4.935
 8880SOL    HW227540   0.907   6.881   4.781
 8881SOL     OW27541   6.968   2.243   2.507
 8881SOL    HW127542   6.877   2.282   2.515
 8881SOL    HW227543   6.964   2.144   2.521
 8882SOL     OW27544   5.710   2.570   0.331
 8882SOL    HW127545   5.789   2.536   0.383
 8882SOL    HW227546   5.656   2.631   0.389
 8883SOL     OW27547   5.701   1.626   5.429
 8883SOL    HW127548   5.801   1.620   5.431
 8883SOL    HW227549   5.662   1.545   5.472
 8884SOL     OW27550   0.218   1.359   6.463
 8884SOL    HW127551   0.146   1.363   6.533
 8884SOL    HW227552   0.275   1.278   6.478
 8885SOL     OW27553   5.870   3.825   0.964
 8885SOL    HW127554   5.933   3.771   0.907
 8885SOL    HW227555   5.921   3.896   1.011
 8886SOL     OW27556   2.997   5.906   5.796
 8886SOL    HW127557   2.969   5.835   5.861
 8886SOL    HW227558   3.086   5.881   5.757
 8887SOL     OW27559   1.540   1.151   1.176
 8887SOL    HW127560   1.610   1.196   1.231
 8887SOL    HW227561   1.451   1.194   1.193
 8888SOL     OW27562   2.437   2.530   2.719
 8888SOL    HW127563   2.459   2.488   2.631
 8888SOL    HW227564   2.467   2.471   2.794
 8889SOL     OW27565   3.535   1.398   4.620
 8889SOL    HW127566   3.479   1.421   4.699
 8889SOL    HW227567   3.581   1.310   4.635
 8890SOL     OW27568   6.764   4.983   3.828
 8890SOL    HW127569   6.721   5.071   3.807
 8890SOL    HW227570   6.700   4.909   3.807
 8891SOL     OW27571   3.673   1.647   6.375
 8891SOL    HW127572   3.745   1.680   6.436
 8891SOL    HW227573   3.594   1.619   6.429
 8892SOL     OW27574   1.044   0.077   2.982
 8892SOL    HW127575   1.094   0.039   2.904
 8892SOL    HW227576   1.088   0.162   3.012
 8893SOL     OW27577   0.446   1.191   0.413
 8893SOL    HW127578   0.364   1.247   0.406
 8893SOL    HW227579   0.434   1.106   0.361
 8894SOL     OW27580   4.569   1.853   5.764
 8894SOL    HW127581   4.617   1.936   5.794
 8894SOL    HW227582   4.552   1.859   5.666
 8895SOL     OW27583   1.363   1.024   3.060
 8895SOL    HW127584   1.288   1.051   3.000
 8895SOL    HW227585   1.447   1.072   3.031
 8896SOL     OW27586   1.435   4.297   5.142
 8896SOL    HW127587   1.405   4.235   5.214
 8896SOL    HW227588   1.509   4.354   5.176
 8897SOL     OW27589   1.027   2.250   2.016
 8897SOL    HW127590   1.117   2.239   1.973
 8897SOL    HW227591   1.029   2.213   2.108
 8898SOL     OW27592   6.717   2.956   5.236
 8898SOL    HW127593   6.689   2.869   5.195
 8898SOL    HW227594   6.635   3.011   5.254
 8899SOL     OW27595   3.500   5.798   2.052
 8899SOL    HW127596   3.574   5.801   1.986
 8899SOL    HW227597   3.494   5.886   2.100
 8900SOL     OW27598   6.744   1.870   3.512
 8900SOL    HW127599   6.706   1.798   3.454
 8900SOL    HW227600   6.800   1.932   3.457
 8901SOL     OW27601   1.806   0.089   2.005
 8901SOL    HW127602   1.818   0.184   2.034
 8901SOL    HW227603   1.859   0.073   1.922
 8902SOL     OW27604   3.685   6.514   5.805
 8902SOL    HW127605   3.674   6.439   5.871
 8902SOL    HW227606   3.782   6.530   5.789
 8903SOL     OW27607   6.688   1.145   3.064
 8903SOL    HW127608   6.590   1.157   3.074
 8903SOL    HW227609   6.712   1.049   3.082
 8904SOL     OW27610   1.296   3.817   3.991
 8904SOL    HW127611   1.383   3.836   4.037
 8904SOL    HW227612   1.223   3.807   4.058
 8905SOL     OW27613   1.845   4.030   5.017
 8905SOL    HW127614   1.883   3.972   5.088
 8905SOL    HW227615   1.893   4.117   5.015
 8906SOL     OW27616   2.269   5.313   4.662
 8906SOL    HW127617   2.265   5.413   4.666
 8906SOL    HW227618   2.363   5.284   4.642
 8907SOL     OW27619   3.594   2.278   6.165
 8907SOL    HW127620   3.579   2.338   6.087
 8907SOL    HW227621   3.692   2.259   6.174
 8908SOL     OW27622   0.653   3.405   2.979
 8908SOL    HW127623   0.595   3.324   2.987
 8908SOL    HW227624   0.727   3.388   2.914
 8909SOL     OW27625   3.550   6.817   5.462
 8909SOL    HW127626   3.508   6.852   5.546
 8909SOL    HW227627   3.531   6.719   5.454
 8910SOL     OW27628   4.227   2.633   0.246
 8910SOL    HW127629   4.220   2.728   0.218
 8910SOL    HW227630   4.186   2.574   0.176
 8911SOL     OW27631   5.144   2.638   4.064
 8911SOL    HW127632   5.133   2.553   4.013
 8911SOL    HW227633   5.064   2.653   4.123
 8912SOL     OW27634   4.378   1.188   0.098
 8912SOL    HW127635   4.393   1.283   0.071
 8912SOL    HW227636   4.455   1.132   0.068
 8913SOL     OW27637   4.185   4.114   0.763
 8913SOL    HW127638   4.195   4.049   0.688
 8913SOL    HW227639   4.190   4.207   0.728
 8914SOL     OW27640   4.977   2.649   3.774
 8914SOL    HW127641   5.005   2.568   3.826
 8914SOL    HW227642   5.049   2.673   3.708
 8915SOL     OW27643   0.604   5.391   2.233
 8915SOL    HW127644   0.677   5.336   2.274
 8915SOL    HW227645   0.632   5.488   2.232
 8916SOL     OW27646   5.846   3.345   1.849
 8916SOL    HW127647   5.873   3.362   1.754
 8916SOL    HW227648   5.759   3.296   1.850
 8917SOL     OW27649   5.186   4.355   5.761
 8917SOL    HW127650   5.281   4.348   5.793
 8917SOL    HW227651   5.162   4.451   5.750
 8918SOL     OW27652   4.845   3.887   5.926
 8918SOL    HW127653   4.885   3.975   5.952
 8918SOL    HW227654   4.888   3.854   5.842
 8919SOL     OW27655   1.839   3.375   1.513
 8919SOL    HW127656   1.822   3.453   1.453
 8919SOL    HW227657   1.775   3.378   1.590
 8920SOL     OW27658   6.320   5.567   6.053
 8920SOL    HW127659   6.292   5.474   6.076
 8920SOL    HW227660   6.373   5.605   6.128
 8921SOL     OW27661   0.969   5.739   3.662
 8921SOL    HW127662   1.024   5.656   3.656
 8921SOL    HW227663   1.002   5.806   3.596
 8922SOL     OW27664   0.685   3.106   6.745
 8922SOL    HW127665   0.687   3.133   6.841
 8922SOL    HW227666   0.737   3.021   6.733
 8923SOL     OW27667   2.329   4.677   4.421
 8923SOL    HW127668   2.394   4.644   4.353
 8923SOL    HW227669   2.235   4.662   4.388
 8924SOL     OW27670   2.174   6.767   4.310
 8924SOL    HW127671   2.123   6.684   4.288
 8924SOL    HW227672   2.244   6.746   4.379
 8925SOL     OW27673   4.378   5.351   0.869
 8925SOL    HW127674   4.366   5.259   0.833
 8925SOL    HW227675   4.297   5.406   0.847
 8926SOL     OW27676   5.487   0.079   6.915
 8926SOL    HW127677   5.460   0.018   6.989
 8926SOL    HW227678   5.457   0.172   6.935
 8927SOL     OW27679   2.820   2.287   4.763
 8927SOL    HW127680   2.757   2.216   4.796
 8927SOL    HW227681   2.914   2.259   4.782
 8928SOL     OW27682   1.132   0.490   5.373
 8928SOL    HW127683   1.168   0.417   5.431
 8928SOL    HW227684   1.049   0.458   5.326
 8929SOL     OW27685   5.080   4.372   3.129
 8929SOL    HW127686   5.175   4.361   3.157
 8929SOL    HW227687   5.074   4.379   3.030
 8930SOL     OW27688   0.359   5.412   5.480
 8930SOL    HW127689   0.347   5.321   5.440
 8930SOL    HW227690   0.443   5.453   5.444
 8931SOL     OW27691   4.656   0.921   1.878
 8931SOL    HW127692   4.685   0.859   1.805
 8931SOL    HW227693   4.711   0.903   1.960
 8932SOL     OW27694   4.610   0.841   0.516
 8932SOL    HW127695   4.678   0.900   0.560
 8932SOL    HW227696   4.555   0.895   0.452
 8933SOL     OW27697   1.751   6.669   5.411
 8933SOL    HW127698   1.842   6.708   5.401
 8933SOL    HW227699   1.727   6.617   5.329
 8934SOL     OW27700   3.611   6.658   4.209
 8934SOL    HW127701   3.672   6.626   4.282
 8934SOL    HW227702   3.614   6.594   4.132
 8935SOL     OW27703   5.595   2.087   2.466
 8935SOL    HW127704   5.581   2.181   2.498
 8935SOL    HW227705   5.557   2.023   2.533
 8936SOL     OW27706   1.447   4.071   2.003
 8936SOL    HW127707   1.445   4.032   2.095
 8936SOL    HW227708   1.433   3.998   1.936
 8937SOL     OW27709   3.141   6.820   4.801
 8937SOL    HW127710   3.239   6.836   4.789
 8937SOL    HW227711   3.118   6.826   4.898
 8938SOL     OW27712   5.041   6.907   2.050
 8938SOL    HW127713   4.997   6.959   2.123
 8938SOL    HW227714   4.972   6.883   1.981
 8939SOL     OW27715   6.424   2.984   4.288
 8939SOL    HW127716   6.357   2.990   4.362
 8939SOL    HW227717   6.399   2.910   4.226
 8940SOL     OW27718   6.034   3.582   2.484
 8940SOL    HW127719   5.944   3.607   2.446
 8940SOL    HW227720   6.036   3.605   2.581
 8941SOL     OW27721   5.695   2.308   3.288
 8941SOL    HW127722   5.690   2.219   3.243
 8941SOL    HW227723   5.670   2.299   3.385
 8942SOL     OW27724   5.069   5.839   4.205
 8942SOL    HW127725   5.145   5.895   4.238
 8942SOL    HW227726   5.083   5.744   4.233
 8943SOL     OW27727   4.317   3.956   0.573
 8943SOL    HW127728   4.381   3.912   0.511
 8943SOL    HW227729   4.308   3.902   0.657
 8944SOL     OW27730   4.531   5.970   5.189
 8944SOL    HW127731   4.525   6.057   5.140
 8944SOL    HW227732   4.438   5.937   5.209
 8945SOL     OW27733   6.508   4.993   1.820
 8945SOL    HW127734   6.461   5.007   1.907
 8945SOL    HW227735   6.446   4.948   1.756
 8946SOL     OW27736   3.181   1.803   4.252
 8946SOL    HW127737   3.223   1.890   4.226
 8946SOL    HW227738   3.171   1.800   4.352
 8947SOL     OW27739   2.577   5.456   0.448
 8947SOL    HW127740   2.648   5.523   0.429
 8947SOL    HW227741   2.565   5.447   0.547
 8948SOL     OW27742   5.470   0.424   2.600
 8948SOL    HW127743   5.398   0.493   2.608
 8948SOL    HW227744   5.472   0.389   2.506
 8949SOL     OW27745   4.256   6.401   0.626
 8949SOL    HW127746   4.224   6.432   0.537
 8949SOL    HW227747   4.179   6.372   0.682
 8950SOL     OW27748   3.940   3.794   3.575
 8950SOL    HW127749   3.977   3.820   3.486
 8950SOL    HW227750   3.946   3.872   3.638
 8951SOL     OW27751   0.934   0.699   3.834
 8951SOL    HW127752   0.868   0.729   3.766
 8951SOL    HW227753   0.998   0.773   3.854
 8952SOL     OW27754   1.264   3.805   4.879
 8952SOL    HW127755   1.320   3.886   4.862
 8952SOL    HW227756   1.311   3.746   4.945
 8953SOL     OW27757   0.733   5.503   0.775
 8953SOL    HW127758   0.752   5.555   0.858
 8953SOL    HW227759   0.818   5.488   0.725
 8954SOL     OW27760   2.344   4.555   5.431
 8954SOL    HW127761   2.276   4.623   5.402
 8954SOL    HW227762   2.421   4.557   5.367
 8955SOL     OW27763   5.705   3.146   5.926
 8955SOL    HW127764   5.664   3.060   5.956
 8955SOL    HW227765   5.799   3.129   5.895
 8956SOL     OW27766   0.959   6.165   1.318
 8956SOL    HW127767   0.935   6.069   1.304
 8956SOL    HW227768   1.003   6.175   1.407
 8957SOL     OW27769   0.736   6.961   3.333
 8957SOL    HW127770   0.711   6.890   3.399
 8957SOL    HW227771   0.653   7.011   3.306
 8958SOL     OW27772   6.847   3.204   4.781
 8958SOL    HW127773   6.868   3.267   4.855
 8958SOL    HW227774   6.878   3.243   4.694
 8959SOL     OW27775   5.247   1.361   3.947
 8959SOL    HW127776   5.195   1.362   4.032
 8959SOL    HW227777   5.324   1.297   3.955
 8960SOL     OW27778   4.415   5.789   2.326
 8960SOL    HW127779   4.395   5.858   2.256
 8960SOL    HW227780   4.330   5.744   2.352
 8961SOL     OW27781   2.278   1.651   5.682
 8961SOL    HW127782   2.204   1.638   5.748
 8961SOL    HW227783   2.295   1.749   5.671
 8962SOL     OW27784   6.953   6.185   1.252
 8962SOL    HW127785   6.857   6.208   1.236
 8962SOL    HW227786   7.005   6.268   1.270
 8963SOL     OW27787   2.297   5.159   6.067
 8963SOL    HW127788   2.265   5.213   6.145
 8963SOL    HW227789   2.396   5.167   6.059
 8964SOL     OW27790   1.438   2.822   4.227
 8964SOL    HW127791   1.416   2.741   4.281
 8964SOL    HW227792   1.418   2.904   4.281
 8965SOL     OW27793   3.060   5.734   0.041
 8965SOL    HW127794   3.074   5.831   0.060
 8965SOL    HW227795   3.136   5.681   0.078
 8966SOL     OW27796   5.055   0.370   5.733
 8966SOL    HW127797   4.955   0.364   5.727
 8966SOL    HW227798   5.096   0.290   5.690
 8967SOL     OW27799   2.391   0.571   3.481
 8967SOL    HW127800   2.470   0.622   3.445
 8967SOL    HW227801   2.404   0.473   3.465
 8968SOL     OW27802   3.027   5.419   2.086
 8968SOL    HW127803   3.023   5.332   2.037
 8968SOL    HW227804   3.016   5.494   2.021
 8969SOL     OW27805   6.818   1.333   2.249
 8969SOL    HW127806   6.802   1.397   2.325
 8969SOL    HW227807   6.904   1.284   2.265
 8970SOL     OW27808   2.296   1.545   4.627
 8970SOL    HW127809   2.216   1.587   4.670
 8970SOL    HW227810   2.321   1.597   4.545
 8971SOL     OW27811   3.403   5.173   1.501
 8971SOL    HW127812   3.464   5.163   1.423
 8971SOL    HW227813   3.374   5.269   1.509
 8972SOL     OW27814   5.876   3.838   6.025
 8972SOL    HW127815   5.885   3.740   6.043
 8972SOL    HW227816   5.811   3.878   6.090
 8973SOL     OW27817   2.495   1.665   3.357
 8973SOL    HW127818   2.570   1.726   3.334
 8973SOL    HW227819   2.408   1.713   3.349
 8974SOL     OW27820   1.684   4.829   4.991
 8974SOL    HW127821   1.720   4.797   4.904
 8974SOL    HW227822   1.668   4.751   5.052
 8975SOL     OW27823   0.724   3.800   6.237
 8975SOL    HW127824   0.753   3.704   6.237
 8975SOL    HW227825   0.641   3.810   6.291
 8976SOL     OW27826   6.042   0.073   1.297
 8976SOL    HW127827   6.037   0.016   1.379
 8976SOL    HW227828   6.137   0.096   1.278
 8977SOL     OW27829   0.571   5.189   5.616
 8977SOL    HW127830   0.480   5.216   5.649
 8977SOL    HW227831   0.591   5.095   5.646
 8978SOL     OW27832   6.691   5.043   5.271
 8978SOL    HW127833   6.691   4.949   5.307
 8978SOL    HW227834   6.607   5.089   5.297
 8979SOL     OW27835   1.651   4.400   3.344
 8979SOL    HW127836   1.564   4.379   3.388
 8979SOL    HW227837   1.726   4.364   3.399
 8980SOL     OW27838   5.126   0.765   0.539
 8980SOL    HW127839   5.177   0.681   0.557
 8980SOL    HW227840   5.053   0.747   0.474
 8981SOL     OW27841   3.994   2.388   6.643
 8981SOL    HW127842   3.970   2.424   6.553
 8981SOL    HW227843   4.006   2.289   6.637
 8982SOL     OW27844   0.592   0.763   2.755
 8982SOL    HW127845   0.547   0.674   2.760
 8982SOL    HW227846   0.583   0.810   2.843
 8983SOL     OW27847   1.250   6.597   2.500
 8983SOL    HW127848   1.336   6.573   2.544
 8983SOL    HW227849   1.245   6.697   2.489
 8984SOL     OW27850   5.900   0.929   3.688
 8984SOL    HW127851   5.809   0.949   3.651
 8984SOL    HW227852   5.907   0.963   3.781
 8985SOL     OW27853   5.145   0.260   1.676
 8985SOL    HW127854   5.216   0.193   1.658
 8985SOL    HW227855   5.187   0.347   1.702
 8986SOL     OW27856   0.980   6.784   6.418
 8986SOL    HW127857   0.985   6.691   6.455
 8986SOL    HW227858   1.024   6.787   6.329
 8987SOL     OW27859   2.732   6.547   2.351
 8987SOL    HW127860   2.665   6.509   2.414
 8987SOL    HW227861   2.693   6.625   2.302
 8988SOL     OW27862   2.409   6.764   0.747
 8988SOL    HW127863   2.453   6.811   0.670
 8988SOL    HW227864   2.479   6.743   0.816
 8989SOL     OW27865   6.419   0.959   2.321
 8989SOL    HW127866   6.359   1.032   2.355
 8989SOL    HW227867   6.500   0.999   2.279
 8990SOL     OW27868   3.723   1.232   3.007
 8990SOL    HW127869   3.772   1.259   2.924
 8990SOL    HW227870   3.762   1.146   3.042
 8991SOL     OW27871   1.319   2.179   1.016
 8991SOL    HW127872   1.417   2.201   1.020
 8991SOL    HW227873   1.277   2.203   1.104
 8992SOL     OW27874   0.976   5.299   5.264
 8992SOL    HW127875   0.907   5.273   5.197
 8992SOL    HW227876   1.055   5.238   5.256
 8993SOL     OW27877   5.579   4.203   4.099
 8993SOL    HW127878   5.593   4.197   4.198
 8993SOL    HW227879   5.644   4.142   4.053
 8994SOL     OW27880   1.746   5.908   2.101
 8994SOL    HW127881   1.682   5.832   2.093
 8994SOL    HW227882   1.805   5.894   2.181
 8995SOL     OW27883   2.187   4.056   3.605
 8995SOL    HW127884   2.207   4.085   3.698
 8995SOL    HW227885   2.211   4.129   3.541
 8996SOL     OW27886   2.728   3.259   1.118
 8996SOL    HW127887   2.649   3.317   1.099
 8996SOL    HW227888   2.796   3.310   1.171
 8997SOL     OW27889   4.625   1.841   4.550
 8997SOL    HW127890   4.681   1.822   4.631
 8997SOL    HW227891   4.530   1.818   4.569
 8998SOL     OW27892   0.884   1.708   6.814
 8998SOL    HW127893   0.965   1.733   6.761
 8998SOL    HW227894   0.911   1.661   6.897
 8999SOL     OW27895   5.728   2.829   5.762
 8999SOL    HW127896   5.676   2.745   5.745
 8999SOL    HW227897   5.668   2.908   5.748
 9000SOL     OW27898   4.915   5.006   1.372
 9000SOL    HW127899   4.863   4.992   1.288
 9000SOL    HW227900   4.854   4.999   1.451
 9001SOL     OW27901   0.949   3.104   4.319
 9001SOL    HW127902   0.906   3.014   4.316
 9001SOL    HW227903   0.933   3.152   4.233
 9002SOL     OW27904   5.016   2.782   5.556
 9002SOL    HW127905   4.940   2.763   5.618
 9002SOL    HW227906   4.985   2.772   5.462
 9003SOL     OW27907   0.294   3.378   6.799
 9003SOL    HW127908   0.362   3.434   6.752
 9003SOL    HW227909   0.316   3.281   6.787
 9004SOL     OW27910   4.779   5.758   0.303
 9004SOL    HW127911   4.857   5.737   0.244
 9004SOL    HW227912   4.798   5.726   0.396
 9005SOL     OW27913   4.863   3.823   3.774
 9005SOL    HW127914   4.920   3.741   3.783
 9005SOL    HW227915   4.787   3.804   3.712
 9006SOL     OW27916   3.231   6.502   1.754
 9006SOL    HW127917   3.259   6.418   1.708
 9006SOL    HW227918   3.244   6.579   1.692
 9007SOL     OW27919   1.663   6.295   5.747
 9007SOL    HW127920   1.687   6.389   5.726
 9007SOL    HW227921   1.737   6.234   5.721
 9008SOL     OW27922   0.082   4.498   2.074
 9008SOL    HW127923   0.136   4.492   2.157
 9008SOL    HW227924   0.110   4.426   2.010
 9009SOL     OW27925   3.815   6.536   0.053
 9009SOL    HW127926   3.846   6.503   0.142
 9009SOL    HW227927   3.786   6.459   7.016
 9010SOL     OW27928   6.943   5.875   4.707
 9010SOL    HW127929   6.991   5.962   4.709
 9010SOL    HW227930   6.926   5.848   4.612
 9011SOL     OW27931   4.495   2.587   1.716
 9011SOL    HW127932   4.467   2.518   1.784
 9011SOL    HW227933   4.593   2.577   1.697
 9012SOL     OW27934   4.271   5.192   3.138
 9012SOL    HW127935   4.246   5.114   3.195
 9012SOL    HW227936   4.200   5.207   3.069
 9013SOL     OW27937   3.948   5.809   1.915
 9013SOL    HW127938   3.952   5.909   1.921
 9013SOL    HW227939   4.026   5.770   1.963
 9014SOL     OW27940   2.277   1.024   1.981
 9014SOL    HW127941   2.242   1.015   2.074
 9014SOL    HW227942   2.370   0.987   1.978
 9015SOL     OW27943   6.232   2.235   4.688
 9015SOL    HW127944   6.238   2.172   4.610
 9015SOL    HW227945   6.167   2.308   4.666
 9016SOL     OW27946   0.010   5.413   6.384
 9016SOL    HW127947   6.990   5.501   6.413
 9016SOL    HW227948   6.991   5.340   6.440
 9017SOL     OW27949   6.030   3.114   2.733
 9017SOL    HW127950   6.089   3.195   2.737
 9017SOL    HW227951   6.061   3.054   2.659
 9018SOL     OW27952   5.084   1.502   6.963
 9018SOL    HW127953   5.096   1.590   6.919
 9018SOL    HW227954   5.015   1.449   6.914
 9019SOL     OW27955   1.742   5.304   0.193
 9019SOL    HW127956   1.760   5.392   0.236
 9019SOL    HW227957   1.645   5.281   0.203
 9020SOL     OW27958   1.340   5.199   4.368
 9020SOL    HW127959   1.402   5.181   4.292
 9020SOL    HW227960   1.325   5.297   4.377
 9021SOL     OW27961   6.129   5.548   5.379
 9021SOL    HW127962   6.074   5.498   5.311
 9021SOL    HW227963   6.098   5.643   5.382
 9022SOL     OW27964   1.667   6.977   6.190
 9022SOL    HW127965   1.738   0.018   6.155
 9022SOL    HW227966   1.702   6.925   6.268
 9023SOL     OW27967   3.502   3.779   4.417
 9023SOL    HW127968   3.556   3.791   4.500
 9023SOL    HW227969   3.509   3.861   4.360
 9024SOL     OW27970   0.869   0.110   0.050
 9024SOL    HW127971   0.953   0.058   0.068
 9024SOL    HW227972   0.794   0.072   0.104
 9025SOL     OW27973   0.476   3.109   0.229
 9025SOL    HW127974   0.449   3.158   0.312
 9025SOL    HW227975   0.460   3.169   0.150
 9026SOL     OW27976   2.766   3.706   5.934
 9026SOL    HW127977   2.770   3.609   5.910
 9026SOL    HW227978   2.847   3.753   5.898
 9027SOL     OW27979   1.726   3.318   2.444
 9027SOL    HW127980   1.702   3.389   2.378
 9027SOL    HW227981   1.674   3.235   2.424
 9028SOL     OW27982   2.090   4.485   4.825
 9028SOL    HW127983   2.129   4.458   4.737
 9028SOL    HW227984   2.100   4.583   4.838
 9029SOL     OW27985   5.427   5.469   2.946
 9029SOL    HW127986   5.524   5.486   2.928
 9029SOL    HW227987   5.417   5.424   3.035
 9030SOL     OW27988   4.743   2.792   2.971
 9030SOL    HW127989   4.725   2.695   2.954
 9030SOL    HW227990   4.841   2.805   2.990
 9031SOL     OW27991   2.579   0.959   2.118
 9031SOL    HW127992   2.645   0.932   2.047
 9031SOL    HW227993   2.629   0.979   2.202
 9032SOL     OW27994   0.391   3.675   2.768
 9032SOL    HW127995   0.333   3.718   2.838
 9032SOL    HW227996   0.353   3.694   2.677
 9033SOL     OW27997   1.194   3.824   2.396
 9033SOL    HW127998   1.183   3.751   2.328
 9033SOL    HW227999   1.241   3.788   2.476
 9034SOL     OW28000   1.327   6.670   0.128
 9034SOL    HW128001   1.402   6.727   0.161
 9034SOL    HW228002   1.344   6.574   0.153
 9035SOL     OW28003   6.231   1.162   4.206
 9035SOL    HW128004   6.323   1.136   4.234
 9035SOL    HW228005   6.178   1.079   4.184
 9036SOL     OW28006   0.427   1.677   5.074
 9036SOL    HW128007   0.363   1.754   5.068
 9036SOL    HW228008   0.442   1.638   4.983
 9037SOL     OW28009   2.452   4.528   5.680
 9037SOL    HW128010   2.400   4.519   5.595
 9037SOL    HW228011   2.545   4.494   5.666
 9038SOL     OW28012   3.996   5.592   5.624
 9038SOL    HW128013   4.030   5.505   5.661
 9038SOL    HW228014   3.897   5.587   5.613
 9039SOL     OW28015   2.696   4.895   0.053
 9039SOL    HW128016   2.597   4.902   0.041
 9039SOL    HW228017   2.732   4.984   0.083
 9040SOL     OW28018   3.249   0.801   2.333
 9040SOL    HW128019   3.224   0.799   2.429
 9040SOL    HW228020   3.168   0.818   2.277
 9041SOL     OW28021   2.242   2.575   5.537
 9041SOL    HW128022   2.305   2.645   5.570
 9041SOL    HW228023   2.249   2.568   5.437
 9042SOL     OW28024   1.789   5.375   2.306
 9042SOL    HW128025   1.769   5.431   2.226
 9042SOL    HW228026   1.888   5.364   2.316
 9043SOL     OW28027   0.473   1.648   6.900
 9043SOL    HW128028   0.410   1.615   6.830
 9043SOL    HW228029   0.490   1.575   6.966
 9044SOL     OW28030   0.826   4.091   0.562
 9044SOL    HW128031   0.904   4.036   0.592
 9044SOL    HW228032   0.848   4.188   0.571
 9045SOL     OW28033   2.327   4.908   4.718
 9045SOL    HW128034   2.270   4.972   4.667
 9045SOL    HW228035   2.422   4.918   4.691
 9046SOL     OW28036   3.162   3.918   5.729
 9046SOL    HW128037   3.124   3.895   5.818
 9046SOL    HW228038   3.209   3.838   5.692
 9047SOL     OW28039   0.801   4.207   4.443
 9047SOL    HW128040   0.816   4.136   4.511
 9047SOL    HW228041   0.783   4.164   4.354
 9048SOL     OW28042   1.543   2.857   4.928
 9048SOL    HW128043   1.531   2.910   4.845
 9048SOL    HW228044   1.618   2.792   4.916
 9049SOL     OW28045   4.758   6.406   5.787
 9049SOL    HW128046   4.804   6.327   5.746
 9049SOL    HW228047   4.669   6.420   5.742
 9050SOL     OW28048   0.076   4.053   6.010
 9050SOL    HW128049   0.007   4.077   5.942
 9050SOL    HW228050   0.154   4.008   5.965
 9051SOL     OW28051   6.479   6.607   6.498
 9051SOL    HW128052   6.425   6.688   6.520
 9051SOL    HW228053   6.572   6.634   6.473
 9052SOL     OW28054   2.585   5.013   4.680
 9052SOL    HW128055   2.626   4.952   4.747
 9052SOL    HW228056   2.595   4.974   4.589
 9053SOL     OW28057   1.796   0.827   2.602
 9053SOL    HW128058   1.832   0.918   2.620
 9053SOL    HW228059   1.715   0.811   2.659
 9054SOL     OW28060   1.520   0.252   1.547
 9054SOL    HW128061   1.438   0.310   1.546
 9054SOL    HW228062   1.601   0.310   1.550
 9055SOL     OW28063   1.328   2.229   5.142
 9055SOL    HW128064   1.417   2.186   5.153
 9055SOL    HW228065   1.340   2.326   5.118
 9056SOL     OW28066   5.451   2.289   1.416
 9056SOL    HW128067   5.473   2.234   1.497
 9056SOL    HW228068   5.498   2.253   1.336
 9057SOL     OW28069   3.653   6.701   6.691
 9057SOL    HW128070   3.583   6.630   6.687
 9057SOL    HW228071   3.659   6.746   6.602
 9058SOL     OW28072   2.262   3.057   3.908
 9058SOL    HW128073   2.304   2.981   3.958
 9058SOL    HW228074   2.206   3.112   3.970
 9059SOL     OW28075   6.901   0.692   2.372
 9059SOL    HW128076   6.863   0.755   2.304
 9059SOL    HW228077   6.846   0.609   2.375
 9060SOL     OW28078   7.004   4.702   0.138
 9060SOL    HW128079   6.925   4.669   0.086
 9060SOL    HW228080   0.035   4.624   0.175
 9061SOL     OW28081   4.517   4.564   2.726
 9061SOL    HW128082   4.513   4.540   2.824
 9061SOL    HW228083   4.436   4.618   2.702
 9062SOL     OW28084   0.060   5.992   2.938
 9062SOL    HW128085   0.039   6.077   2.889
 9062SOL    HW228086   0.007   5.917   2.899
 9063SOL     OW28087   5.777   6.662   1.009
 9063SOL    HW128088   5.749   6.749   0.969
 9063SOL    HW228089   5.765   6.666   1.108
 9064SOL     OW28090   1.689   5.734   3.050
 9064SOL    HW128091   1.744   5.749   2.968
 9064SOL    HW228092   1.722   5.794   3.123
 9065SOL     OW28093   3.202   4.295   6.717
 9065SOL    HW128094   3.270   4.339   6.776
 9065SOL    HW228095   3.144   4.365   6.676
 9066SOL     OW28096   4.975   4.587   3.808
 9066SOL    HW128097   4.995   4.668   3.863
 9066SOL    HW228098   5.043   4.516   3.827
 9067SOL     OW28099   2.078   6.658   3.921
 9067SOL    HW128100   2.102   6.594   3.848
 9067SOL    HW228101   2.161   6.692   3.965
 9068SOL     OW28102   4.788   0.334   5.715
 9068SOL    HW128103   4.725   0.409   5.737
 9068SOL    HW228104   4.740   0.266   5.660
 9069SOL     OW28105   4.797   2.304   1.972
 9069SOL    HW128106   4.833   2.225   2.022
 9069SOL    HW228107   4.734   2.355   2.031
 9070SOL     OW28108   1.336   0.849   6.643
 9070SOL    HW128109   1.331   0.948   6.634
 9070SOL    HW228110   1.270   0.806   6.582
 9071SOL     OW28111   4.947   2.787   6.702
 9071SOL    HW128112   5.019   2.725   6.734
 9071SOL    HW228113   4.981   2.840   6.625
 9072SOL     OW28114   6.624   1.052   2.169
 9072SOL    HW128115   6.644   1.150   2.163
 9072SOL    HW228116   6.685   1.001   2.108
 9073SOL     OW28117   4.783   2.638   5.662
 9073SOL    HW128118   4.746   2.690   5.739
 9073SOL    HW228119   4.836   2.560   5.695
 9074SOL     OW28120   2.213   0.905   3.527
 9074SOL    HW128121   2.248   0.998   3.527
 9074SOL    HW228122   2.182   0.881   3.435
 9075SOL     OW28123   5.061   5.367   0.581
 9075SOL    HW128124   5.084   5.430   0.656
 9075SOL    HW228125   4.994   5.301   0.613
 9076SOL     OW28126   1.413   5.806   2.282
 9076SOL    HW128127   1.482   5.835   2.349
 9076SOL    HW228128   1.343   5.878   2.274
 9077SOL     OW28129   6.762   1.583   6.415
 9077SOL    HW128130   6.789   1.559   6.322
 9077SOL    HW228131   6.699   1.514   6.450
 9078SOL     OW28132   5.192   6.715   6.582
 9078SOL    HW128133   5.161   6.804   6.614
 9078SOL    HW228134   5.251   6.673   6.651
 9079SOL     OW28135   1.730   1.507   6.513
 9079SOL    HW128136   1.691   1.427   6.466
 9079SOL    HW228137   1.770   1.569   6.446
 9080SOL     OW28138   6.395   4.210   0.941
 9080SOL    HW128139   6.353   4.223   1.031
 9080SOL    HW228140   6.334   4.158   0.882
 9081SOL     OW28141   4.871   1.398   0.392
 9081SOL    HW128142   4.906   1.425   0.302
 9081SOL    HW228143   4.925   1.443   0.464
 9082SOL     OW28144   3.247   4.707   6.556
 9082SOL    HW128145   3.153   4.673   6.545
 9082SOL    HW228146   3.292   4.657   6.629
 9083SOL     OW28147   4.180   0.613   0.972
 9083SOL    HW128148   4.168   0.690   1.035
 9083SOL    HW228149   4.138   0.635   0.884
 9084SOL     OW28150   6.864   4.660   4.469
 9084SOL    HW128151   6.876   4.715   4.386
 9084SOL    HW228152   6.898   4.567   4.453
 9085SOL     OW28153   3.143   4.641   1.247
 9085SOL    HW128154   3.092   4.698   1.311
 9085SOL    HW228155   3.081   4.577   1.202
 9086SOL     OW28156   6.665   2.151   0.723
 9086SOL    HW128157   6.645   2.238   0.769
 9086SOL    HW228158   6.617   2.148   0.635
 9087SOL     OW28159   5.048   1.339   1.357
 9087SOL    HW128160   5.095   1.423   1.331
 9087SOL    HW228161   4.953   1.360   1.380
 9088SOL     OW28162   5.641   6.378   6.511
 9088SOL    HW128163   5.615   6.474   6.508
 9088SOL    HW228164   5.572   6.323   6.464
 9089SOL     OW28165   5.063   5.690   2.745
 9089SOL    HW128166   5.128   5.724   2.677
 9089SOL    HW228167   5.112   5.659   2.826
 9090SOL     OW28168   6.040   5.787   5.341
 9090SOL    HW128169   6.097   5.829   5.271
 9090SOL    HW228170   5.950   5.768   5.304
 9091SOL     OW28171   2.799   2.322   1.615
 9091SOL    HW128172   2.794   2.328   1.715
 9091SOL    HW228173   2.894   2.330   1.586
 9092SOL     OW28174   2.834   2.056   5.065
 9092SOL    HW128175   2.795   2.148   5.056
 9092SOL    HW228176   2.868   2.025   4.976
 9093SOL     OW28177   2.207   3.551   0.624
 9093SOL    HW128178   2.137   3.532   0.693
 9093SOL    HW228179   2.166   3.549   0.533
 9094SOL     OW28180   6.674   2.178   0.253
 9094SOL    HW128181   6.730   2.095   0.251
 9094SOL    HW228182   6.603   2.172   0.182
 9095SOL     OW28183   2.257   2.517   0.093
 9095SOL    HW128184   2.255   2.546   0.189
 9095SOL    HW228185   2.248   2.418   0.088
 9096SOL     OW28186   6.638   4.793   2.735
 9096SOL    HW128187   6.579   4.732   2.788
 9096SOL    HW228188   6.628   4.772   2.638
 9097SOL     OW28189   6.608   5.595   5.918
 9097SOL    HW128190   6.630   5.506   5.877
 9097SOL    HW228191   6.596   5.584   6.017
 9098SOL     OW28192   3.989   3.170   5.139
 9098SOL    HW128193   3.987   3.165   5.039
 9098SOL    HW228194   3.991   3.077   5.177
 9099SOL     OW28195   2.109   2.441   6.666
 9099SOL    HW128196   2.200   2.478   6.682
 9099SOL    HW228197   2.103   2.408   6.571
 9100SOL     OW28198   1.254   2.803   0.723
 9100SOL    HW128199   1.154   2.805   0.734
 9100SOL    HW228200   1.280   2.721   0.672
 9101SOL     OW28201   1.924   2.080   6.988
 9101SOL    HW128202   1.988   2.089   0.045
 9101SOL    HW228203   1.844   2.027   7.017
 9102SOL     OW28204   4.543   6.361   2.342
 9102SOL    HW128205   4.461   6.407   2.307
 9102SOL    HW228206   4.599   6.332   2.265
 9103SOL     OW28207   0.911   4.258   6.134
 9103SOL    HW128208   0.947   4.351   6.148
 9103SOL    HW228209   0.898   4.242   6.036
 9104SOL     OW28210   4.530   0.384   2.996
 9104SOL    HW128211   4.464   0.373   2.922
 9104SOL    HW228212   4.620   0.353   2.966
 9105SOL     OW28213   3.103   1.971   6.141
 9105SOL    HW128214   3.172   1.908   6.104
 9105SOL    HW228215   3.141   2.019   6.220
 9106SOL     OW28216   6.401   5.358   1.745
 9106SOL    HW128217   6.406   5.267   1.786
 9106SOL    HW228218   6.466   5.364   1.669
 9107SOL     OW28219   4.927   6.113   6.381
 9107SOL    HW128220   4.924   6.093   6.283
 9107SOL    HW228221   4.982   6.044   6.428
 9108SOL     OW28222   3.226   5.605   0.249
 9108SOL    HW128223   3.269   5.694   0.260
 9108SOL    HW228224   3.260   5.562   0.166
 9109SOL     OW28225   3.409   1.636   3.860
 9109SOL    HW128226   3.332   1.685   3.901
 9109SOL    HW228227   3.495   1.681   3.885
 9110SOL     OW28228   0.749   3.638   3.470
 9110SOL    HW128229   0.759   3.616   3.373
 9110SOL    HW228230   0.654   3.658   3.490
 9111SOL     OW28231   3.748   4.166   1.417
 9111SOL    HW128232   3.806   4.104   1.364
 9111SOL    HW228233   3.677   4.113   1.464
 9112SOL     OW28234   1.167   6.002   2.279
 9112SOL    HW128235   1.120   6.088   2.257
 9112SOL    HW228236   1.100   5.936   2.313
 9113SOL     OW28237   2.491   5.454   6.884
 9113SOL    HW128238   2.513   5.370   6.834
 9113SOL    HW228239   2.506   5.533   6.825
 9114SOL     OW28240   2.543   3.398   1.695
 9114SOL    HW128241   2.471   3.422   1.761
 9114SOL    HW228242   2.545   3.299   1.683
 9115SOL     OW28243   1.644   3.925   4.644
 9115SOL    HW128244   1.575   3.945   4.714
 9115SOL    HW228245   1.729   3.896   4.689
 9116SOL     OW28246   2.652   2.161   6.033
 9116SOL    HW128247   2.641   2.242   5.976
 9116SOL    HW228248   2.735   2.112   6.006
 9117SOL     OW28249   0.929   2.875   0.403
 9117SOL    HW128250   0.928   2.840   0.497
 9117SOL    HW228251   1.006   2.834   0.353
 9118SOL     OW28252   0.643   6.656   1.751
 9118SOL    HW128253   0.593   6.608   1.680
 9118SOL    HW228254   0.741   6.651   1.733
 9119SOL     OW28255   6.259   0.056   1.010
 9119SOL    HW128256   6.320   0.051   0.931
 9119SOL    HW228257   6.164   0.063   0.979
 9120SOL     OW28258   6.251   0.338   6.912
 9120SOL    HW128259   6.187   0.402   6.954
 9120SOL    HW228260   6.239   0.339   6.813
 9121SOL     OW28261   1.311   1.614   6.831
 9121SOL    HW128262   1.229   1.663   6.802
 9121SOL    HW228263   1.372   1.602   6.753
 9122SOL     OW28264   0.371   2.768   1.507
 9122SOL    HW128265   0.462   2.733   1.485
 9122SOL    HW228266   0.367   2.793   1.604
 9123SOL     OW28267   1.982   6.500   6.701
 9123SOL    HW128268   1.916   6.437   6.741
 9123SOL    HW228269   2.065   6.450   6.675
 9124SOL     OW28270   0.022   4.376   5.316
 9124SOL    HW128271   0.068   4.359   5.403
 9124SOL    HW228272   0.017   4.292   5.263
 9125SOL     OW28273   5.051   5.644   1.061
 9125SOL    HW128274   5.141   5.613   1.093
 9125SOL    HW228275   4.994   5.669   1.140
 9126SOL     OW28276   5.585   0.276   3.333
 9126SOL    HW128277   5.576   0.288   3.432
 9126SOL    HW228278   5.496   0.257   3.293
 9127SOL     OW28279   5.626   5.687   5.919
 9127SOL    HW128280   5.698   5.671   5.852
 9127SOL    HW228281   5.587   5.778   5.905
 9128SOL     OW28282   4.603   2.605   5.441
 9128SOL    HW128283   4.533   2.676   5.447
 9128SOL    HW228284   4.654   2.602   5.527
 9129SOL     OW28285   2.683   1.255   0.134
 9129SOL    HW128286   2.586   1.246   0.154
 9129SOL    HW228287   2.698   1.338   0.079
 9130SOL     OW28288   5.785   5.921   0.917
 9130SOL    HW128289   5.825   5.951   0.830
 9130SOL    HW228290   5.828   5.835   0.946
 9131SOL     OW28291   1.555   4.459   3.735
 9131SOL    HW128292   1.525   4.552   3.754
 9131SOL    HW228293   1.584   4.416   3.821
 9132SOL     OW28294   1.844   3.049   4.327
 9132SOL    HW128295   1.906   2.982   4.369
 9132SOL    HW228296   1.755   3.044   4.372
 9133SOL     OW28297   1.645   4.963   1.356
 9133SOL    HW128298   1.651   4.972   1.256
 9133SOL    HW228299   1.724   4.913   1.389
 9134SOL     OW28300   2.667   4.935   6.197
 9134SOL    HW128301   2.643   4.856   6.140
 9134SOL    HW228302   2.604   4.941   6.274
 9135SOL     OW28303   1.038   6.483   3.972
 9135SOL    HW128304   1.015   6.471   3.875
 9135SOL    HW228305   0.962   6.527   4.019
 9136SOL     OW28306   3.176   5.109   5.162
 9136SOL    HW128307   3.096   5.119   5.102
 9136SOL    HW228308   3.219   5.021   5.144
 9137SOL     OW28309   4.104   0.820   1.963
 9137SOL    HW128310   4.189   0.869   1.984
 9137SOL    HW228311   4.091   0.746   2.029
 9138SOL     OW28312   3.042   4.121   0.961
 9138SOL    HW128313   3.133   4.161   0.977
 9138SOL    HW228314   2.972   4.190   0.980
 9139SOL     OW28315   3.586   0.626   5.868
 9139SOL    HW128316   3.565   0.554   5.803
 9139SOL    HW228317   3.651   0.691   5.827
 9140SOL     OW28318   6.253   2.605   3.275
 9140SOL    HW128319   6.282   2.700   3.270
 9140SOL    HW228320   6.313   2.548   3.221
 9141SOL     OW28321   5.651   0.582   5.818
 9141SOL    HW128322   5.640   0.673   5.779
 9141SOL    HW228323   5.670   0.590   5.916
 9142SOL     OW28324   1.279   4.323   6.700
 9142SOL    HW128325   1.204   4.353   6.759
 9142SOL    HW228326   1.336   4.257   6.749
 9143SOL     OW28327   5.591   4.147   0.920
 9143SOL    HW128328   5.597   4.047   0.912
 9143SOL    HW228329   5.495   4.173   0.932
 9144SOL     OW28330   1.345   5.325   4.719
 9144SOL    HW128331   1.323   5.324   4.621
 9144SOL    HW228332   1.425   5.268   4.736
 9145SOL     OW28333   0.569   3.918   6.056
 9145SOL    HW128334   0.471   3.920   6.075
 9145SOL    HW228335   0.616   3.863   6.125
 9146SOL     OW28336   0.655   1.763   1.214
 9146SOL    HW128337   0.710   1.695   1.165
 9146SOL    HW228338   0.610   1.824   1.148
 9147SOL     OW28339   4.341   5.456   5.876
 9147SOL    HW128340   4.300   5.430   5.789
 9147SOL    HW228341   4.409   5.527   5.861
 9148SOL     OW28342   3.489   5.056   3.170
 9148SOL    HW128343   3.425   5.010   3.109
 9148SOL    HW228344   3.485   5.155   3.155
 9149SOL     OW28345   6.280   3.018   5.094
 9149SOL    HW128346   6.319   2.931   5.066
 9149SOL    HW228347   6.346   3.068   5.151
 9150SOL     OW28348   4.134   1.613   2.819
 9150SOL    HW128349   4.065   1.644   2.753
 9150SOL    HW228350   4.094   1.542   2.877
 9151SOL     OW28351   0.316   3.144   2.059
 9151SOL    HW128352   0.304   3.143   1.960
 9151SOL    HW228353   0.236   3.186   2.103
 9152SOL     OW28354   2.503   4.944   3.396
 9152SOL    HW128355   2.407   4.925   3.373
 9152SOL    HW228356   2.509   5.034   3.439
 9153SOL     OW28357   1.964   2.568   0.052
 9153SOL    HW128358   1.964   2.489   7.010
 9153SOL    HW228359   2.044   2.564   0.112
 9154SOL     OW28360   0.957   5.398   0.660
 9154SOL    HW128361   0.956   5.323   0.726
 9154SOL    HW228362   1.019   5.374   0.584
 9155SOL     OW28363   1.695   4.551   6.885
 9155SOL    HW128364   1.698   4.461   6.929
 9155SOL    HW228365   1.672   4.620   6.953
 9156SOL     OW28366   4.748   2.751   1.518
 9156SOL    HW128367   4.820   2.765   1.587
 9156SOL    HW228368   4.737   2.654   1.501
 9157SOL     OW28369   5.290   3.361   5.448
 9157SOL    HW128370   5.271   3.351   5.351
 9157SOL    HW228371   5.313   3.271   5.487
 9158SOL     OW28372   0.808   4.000   3.704
 9158SOL    HW128373   0.806   4.057   3.787
 9158SOL    HW228374   0.805   4.059   3.623
 9159SOL     OW28375   6.531   4.507   2.298
 9159SOL    HW128376   6.493   4.513   2.205
 9159SOL    HW228377   6.566   4.415   2.314
 9160SOL     OW28378   0.649   0.193   0.759
 9160SOL    HW128379   0.711   0.199   0.681
 9160SOL    HW228380   0.601   0.281   0.770
 9161SOL     OW28381   5.012   4.268   2.534
 9161SOL    HW128382   4.926   4.317   2.542
 9161SOL    HW228383   5.026   4.211   2.615
 9162SOL     OW28384   4.973   2.576   2.571
 9162SOL    HW128385   4.900   2.537   2.514
 9162SOL    HW228386   4.996   2.667   2.538
 9163SOL     OW28387   3.469   0.951   5.022
 9163SOL    HW128388   3.464   0.899   5.107
 9163SOL    HW228389   3.506   0.892   4.950
 9164SOL     OW28390   2.966   0.203   0.931
 9164SOL    HW128391   2.981   0.105   0.939
 9164SOL    HW228392   2.903   0.233   1.004
 9165SOL     OW28393   4.869   5.670   0.567
 9165SOL    HW128394   4.842   5.764   0.588
 9165SOL    HW228395   4.871   5.616   0.651
 9166SOL     OW28396   3.329   5.839   1.444
 9166SOL    HW128397   3.315   5.759   1.385
 9166SOL    HW228398   3.406   5.821   1.506
 9167SOL     OW28399   0.385   3.662   4.806
 9167SOL    HW128400   0.312   3.609   4.762
 9167SOL    HW228401   0.371   3.662   4.905
 9168SOL     OW28402   3.437   0.594   0.209
 9168SOL    HW128403   3.533   0.576   0.187
 9168SOL    HW228404   3.403   0.521   0.268
 9169SOL     OW28405   0.606   6.768   3.493
 9169SOL    HW128406   0.671   6.724   3.555
 9169SOL    HW228407   0.531   6.807   3.547
 9170SOL     OW28408   6.468   6.266   0.283
 9170SOL    HW128409   6.411   6.330   0.334
 9170SOL    HW228410   6.411   6.214   0.220
 9171SOL     OW28411   3.210   5.413   5.197
 9171SOL    HW128412   3.203   5.318   5.227
 9171SOL    HW228413   3.166   5.424   5.108
 9172SOL     OW28414   2.477   2.588   4.130
 9172SOL    HW128415   2.523   2.566   4.045
 9172SOL    HW228416   2.483   2.510   4.192
 9173SOL     OW28417   0.631   5.261   5.237
 9173SOL    HW128418   0.621   5.344   5.292
 9173SOL    HW228419   0.698   5.278   5.164
 9174SOL     OW28420   0.457   5.745   6.570
 9174SOL    HW128421   0.378   5.806   6.562
 9174SOL    HW228422   0.538   5.789   6.532
 9175SOL     OW28423   2.050   6.326   5.608
 9175SOL    HW128424   1.996   6.242   5.609
 9175SOL    HW228425   2.001   6.399   5.656
 9176SOL     OW28426   1.498   1.811   5.864
 9176SOL    HW128427   1.590   1.834   5.833
 9176SOL    HW228428   1.460   1.739   5.807
 9177SOL     OW28429   1.026   4.850   3.011
 9177SOL    HW128430   1.021   4.918   3.084
 9177SOL    HW228431   1.120   4.842   2.979
 9178SOL     OW28432   2.160   4.140   0.386
 9178SOL    HW128433   2.138   4.070   0.453
 9178SOL    HW228434   2.193   4.097   0.302
 9179SOL     OW28435   2.500   5.026   5.117
 9179SOL    HW128436   2.537   5.090   5.184
 9179SOL    HW228437   2.556   4.943   5.115
 9180SOL     OW28438   5.696   2.265   2.851
 9180SOL    HW128439   5.736   2.252   2.760
 9180SOL    HW228440   5.599   2.286   2.843
 9181SOL     OW28441   3.712   1.253   2.385
 9181SOL    HW128442   3.748   1.161   2.372
 9181SOL    HW228443   3.623   1.261   2.341
 9182SOL     OW28444   2.358   6.520   2.022
 9182SOL    HW128445   2.284   6.480   2.075
 9182SOL    HW228446   2.433   6.454   2.015
 9183SOL     OW28447   5.401   5.472   5.965
 9183SOL    HW128448   5.483   5.480   5.908
 9183SOL    HW228449   5.340   5.403   5.925
 9184SOL     OW28450   5.036   6.463   6.630
 9184SOL    HW128451   5.063   6.558   6.612
 9184SOL    HW228452   5.106   6.401   6.595
 9185SOL     OW28453   4.835   1.546   4.396
 9185SOL    HW128454   4.845   1.605   4.476
 9185SOL    HW228455   4.746   1.501   4.398
 9186SOL     OW28456   4.973   7.014   6.553
 9186SOL    HW128457   5.033   7.015   6.633
 9186SOL    HW228458   4.894   6.956   6.570
 9187SOL     OW28459   2.496   6.584   2.614
 9187SOL    HW128460   2.588   6.623   2.612
 9187SOL    HW228461   2.498   6.495   2.658
 9188SOL     OW28462   2.004   5.982   0.852
 9188SOL    HW128463   2.026   5.929   0.935
 9188SOL    HW228464   2.078   5.971   0.785
 9189SOL     OW28465   5.269   5.365   2.073
 9189SOL    HW128466   5.310   5.456   2.082
 9189SOL    HW228467   5.260   5.324   2.164
 9190SOL     OW28468   0.937   5.490   0.296
 9190SOL    HW128469   0.947   5.584   0.263
 9190SOL    HW228470   0.858   5.484   0.357
 9191SOL     OW28471   0.044   0.661   5.723
 9191SOL    HW128472   0.092   0.709   5.649
 9191SOL    HW228473   7.015   0.728   5.780
 9192SOL     OW28474   1.139   3.780   5.154
 9192SOL    HW128475   1.218   3.719   5.143
 9192SOL    HW228476   1.063   3.730   5.196
 9193SOL     OW28477   2.872   3.700   0.336
 9193SOL    HW128478   2.799   3.748   0.287
 9193SOL    HW228479   2.943   3.673   0.271
 9194SOL     OW28480   3.080   0.915   4.500
 9194SOL    HW128481   3.019   0.840   4.475
 9194SOL    HW228482   3.108   0.964   4.418
 9195SOL     OW28483   1.504   0.922   4.230
 9195SOL    HW128484   1.474   0.972   4.311
 9195SOL    HW228485   1.574   0.855   4.256
 9196SOL     OW28486   5.273   1.556   5.882
 9196SOL    HW128487   5.242   1.483   5.820
 9196SOL    HW228488   5.258   1.527   5.976
 9197SOL     OW28489   2.636   4.093   0.473
 9197SOL    HW128490   2.570   4.092   0.398
 9197SOL    HW228491   2.722   4.051   0.443
 9198SOL     OW28492   0.851   4.683   4.337
 9198SOL    HW128493   0.863   4.596   4.289
 9198SOL    HW228494   0.816   4.666   4.429
 9199SOL     OW28495   5.768   4.008   5.192
 9199SOL    HW128496   5.763   4.108   5.203
 9199SOL    HW228497   5.808   3.968   5.274
 9200SOL     OW28498   2.999   0.390   0.300
 9200SOL    HW128499   3.003   0.401   0.201
 9200SOL    HW228500   3.089   0.411   0.340
 9201SOL     OW28501   1.998   4.130   0.822
 9201SOL    HW128502   2.008   4.105   0.726
 9201SOL    HW228503   1.931   4.204   0.829
 9202SOL     OW28504   2.404   0.953   4.122
 9202SOL    HW128505   2.503   0.951   4.137
 9202SOL    HW228506   2.386   0.980   4.027
 9203SOL     OW28507   6.430   6.597   0.634
 9203SOL    HW128508   6.464   6.560   0.548
 9203SOL    HW228509   6.475   6.685   0.653
 9204SOL     OW28510   6.154   0.510   5.148
 9204SOL    HW128511   6.092   0.506   5.227
 9204SOL    HW228512   6.235   0.455   5.167
 9205SOL     OW28513   0.158   5.392   2.040
 9205SOL    HW128514   0.197   5.447   1.967
 9205SOL    HW228515   0.131   5.303   2.004
 9206SOL     OW28516   3.818   6.886   6.793
 9206SOL    HW128517   3.883   6.839   6.853
 9206SOL    HW228518   3.761   6.818   6.747
 9207SOL     OW28519   5.495   5.920   6.010
 9207SOL    HW128520   5.504   5.866   6.093
 9207SOL    HW228521   5.524   6.014   6.027
 9208SOL     OW28522   1.027   4.078   2.425
 9208SOL    HW128523   0.966   3.999   2.416
 9208SOL    HW228524   1.108   4.051   2.478
 9209SOL     OW28525   2.294   6.621   6.705
 9209SOL    HW128526   2.233   6.541   6.704
 9209SOL    HW228527   2.240   6.704   6.687
 9210SOL     OW28528   6.329   0.514   3.798
 9210SOL    HW128529   6.323   0.598   3.852
 9210SOL    HW228530   6.319   0.536   3.701
 9211SOL     OW28531   0.636   1.771   2.573
 9211SOL    HW128532   0.574   1.832   2.524
 9211SOL    HW228533   0.585   1.719   2.641
 9212SOL     OW28534   3.671   5.388   4.402
 9212SOL    HW128535   3.623   5.410   4.487
 9212SOL    HW228536   3.755   5.338   4.423
 9213SOL     OW28537   5.974   4.137   6.725
 9213SOL    HW128538   5.962   4.038   6.734
 9213SOL    HW228539   5.927   4.183   6.800
 9214SOL     OW28540   0.113   5.050   0.232
 9214SOL    HW128541   0.203   5.093   0.227
 9214SOL    HW228542   0.116   4.960   0.189
 9215SOL     OW28543   1.378   1.729   0.738
 9215SOL    HW128544   1.439   1.653   0.717
 9215SOL    HW228545   1.418   1.784   0.811
 9216SOL     OW28546   2.171   0.367   3.666
 9216SOL    HW128547   2.098   0.335   3.606
 9216SOL    HW228548   2.235   0.423   3.613
 9217SOL     OW28549   0.354   2.634   0.705
 9217SOL    HW128550   0.310   2.550   0.736
 9217SOL    HW228551   0.402   2.617   0.619
 9218SOL     OW28552   2.136   0.937   0.468
 9218SOL    HW128553   2.048   0.895   0.489
 9218SOL    HW228554   2.160   1.002   0.540
 9219SOL     OW28555   6.147   1.801   0.375
 9219SOL    HW128556   6.111   1.894   0.362
 9219SOL    HW228557   6.100   1.757   0.451
 9220SOL     OW28558   3.489   6.118   0.933
 9220SOL    HW128559   3.416   6.126   1.001
 9220SOL    HW228560   3.491   6.200   0.876
 9221SOL     OW28561   2.737   4.808   4.775
 9221SOL    HW128562   2.794   4.777   4.851
 9221SOL    HW228563   2.660   4.745   4.762
 9222SOL     OW28564   2.973   2.215   6.498
 9222SOL    HW128565   2.900   2.186   6.560
 9222SOL    HW228566   2.995   2.311   6.515
 9223SOL     OW28567   2.917   3.195   5.153
 9223SOL    HW128568   2.965   3.271   5.197
 9223SOL    HW228569   2.859   3.149   5.220
 9224SOL     OW28570   2.065   4.697   5.380
 9224SOL    HW128571   2.052   4.793   5.404
 9224SOL    HW228572   2.101   4.691   5.287
 9225SOL     OW28573   1.706   6.167   0.205
 9225SOL    HW128574   1.780   6.168   0.138
 9225SOL    HW228575   1.647   6.088   0.188
 9226SOL     OW28576   4.652   6.516   0.820
 9226SOL    HW128577   4.638   6.435   0.877
 9226SOL    HW228578   4.565   6.545   0.781
 9227SOL     OW28579   1.378   6.620   1.626
 9227SOL    HW128580   1.314   6.572   1.685
 9227SOL    HW228581   1.437   6.679   1.682
 9228SOL     OW28582   0.716   6.668   6.954
 9228SOL    HW128583   0.667   6.581   6.947
 9228SOL    HW228584   0.784   6.675   6.881
 9229SOL     OW28585   0.934   5.704   5.569
 9229SOL    HW128586   0.859   5.752   5.614
 9229SOL    HW228587   0.917   5.606   5.571
 9230SOL     OW28588   4.830   1.492   3.542
 9230SOL    HW128589   4.916   1.446   3.563
 9230SOL    HW228590   4.838   1.540   3.455
 9231SOL     OW28591   1.923   3.612   3.471
 9231SOL    HW128592   1.962   3.700   3.443
 9231SOL    HW228593   1.989   3.563   3.527
 9232SOL     OW28594   4.054   5.220   1.186
 9232SOL    HW128595   4.022   5.283   1.256
 9232SOL    HW228596   4.154   5.224   1.180
 9233SOL     OW28597   5.331   4.709   0.372
 9233SOL    HW128598   5.333   4.793   0.426
 9233SOL    HW228599   5.400   4.645   0.406
 9234SOL     OW28600   1.691   6.160   3.695
 9234SOL    HW128601   1.593   6.173   3.711
 9234SOL    HW228602   1.730   6.244   3.656
 9235SOL     OW28603   0.844   2.535   3.486
 9235SOL    HW128604   0.771   2.519   3.420
 9235SOL    HW228605   0.810   2.594   3.559
 9236SOL     OW28606   3.854   2.308   5.688
 9236SOL    HW128607   3.871   2.239   5.618
 9236SOL    HW228608   3.772   2.361   5.663
 9237SOL     OW28609   1.773   3.757   2.927
 9237SOL    HW128610   1.811   3.781   2.838
 9237SOL    HW228611   1.674   3.744   2.920
 9238SOL     OW28612   4.314   3.499   6.633
 9238SOL    HW128613   4.391   3.443   6.665
 9238SOL    HW228614   4.327   3.593   6.664
 9239SOL     OW28615   1.555   3.186   6.423
 9239SOL    HW128616   1.605   3.271   6.439
 9239SOL    HW228617   1.580   3.119   6.493
 9240SOL     OW28618   4.761   0.881   2.125
 9240SOL    HW128619   4.699   0.946   2.170
 9240SOL    HW228620   4.851   0.885   2.169
 9241SOL     OW28621   0.823   5.439   6.051
 9241SOL    HW128622   0.772   5.446   5.966
 9241SOL    HW228623   0.919   5.422   6.030
 9242SOL     OW28624   5.964   6.508   1.437
 9242SOL    HW128625   6.037   6.498   1.370
 9242SOL    HW228626   5.944   6.419   1.478
 9243SOL     OW28627   5.443   6.912   4.203
 9243SOL    HW128628   5.372   6.924   4.133
 9243SOL    HW228629   5.468   7.000   4.241
 9244SOL     OW28630   4.149   5.599   0.428
 9244SOL    HW128631   4.166   5.501   0.425
 9244SOL    HW228632   4.175   5.634   0.519
 9245SOL     OW28633   0.328   6.816   1.981
 9245SOL    HW128634   0.277   6.877   1.921
 9245SOL    HW228635   0.337   6.726   1.938
 9246SOL     OW28636   7.019   4.973   3.927
 9246SOL    HW128637   0.009   4.919   4.011
 9246SOL    HW228638   6.924   4.967   3.895
 9247SOL     OW28639   1.343   0.218   3.407
 9247SOL    HW128640   1.392   0.138   3.441
 9247SOL    HW228641   1.301   0.267   3.483
 9248SOL     OW28642   4.079   1.541   6.186
 9248SOL    HW128643   4.097   1.459   6.130
 9248SOL    HW228644   3.983   1.544   6.212
 9249SOL     OW28645   4.246   6.677   3.650
 9249SOL    HW128646   4.215   6.738   3.723
 9249SOL    HW228647   4.248   6.727   3.563
 9250SOL     OW28648   5.093   3.894   3.181
 9250SOL    HW128649   5.078   3.971   3.244
 9250SOL    HW228650   5.145   3.926   3.102
 9251SOL     OW28651   3.795   1.862   2.509
 9251SOL    HW128652   3.746   1.920   2.574
 9251SOL    HW228653   3.732   1.826   2.441
 9252SOL     OW28654   1.329   6.907   4.357
 9252SOL    HW128655   1.411   6.956   4.327
 9252SOL    HW228656   1.248   6.955   4.324
 9253SOL     OW28657   1.454   6.875   6.013
 9253SOL    HW128658   1.433   6.864   5.916
 9253SOL    HW228659   1.553   6.871   6.026
 9254SOL     OW28660   5.274   2.239   1.112
 9254SOL    HW128661   5.291   2.336   1.130
 9254SOL    HW228662   5.205   2.230   1.040
 9255SOL     OW28663   0.078   5.336   0.558
 9255SOL    HW128664   0.032   5.395   0.624
 9255SOL    HW228665   0.081   5.243   0.594
 9256SOL     OW28666   3.681   5.453   2.371
 9256SOL    HW128667   3.594   5.494   2.394
 9256SOL    HW228668   3.677   5.354   2.386
 9257SOL     OW28669   0.779   3.441   0.919
 9257SOL    HW128670   0.797   3.539   0.908
 9257SOL    HW228671   0.738   3.405   0.835
 9258SOL     OW28672   2.921   3.240   4.069
 9258SOL    HW128673   3.019   3.221   4.062
 9258SOL    HW228674   2.892   3.230   4.164
 9259SOL     OW28675   1.616   2.285   0.472
 9259SOL    HW128676   1.622   2.381   0.445
 9259SOL    HW228677   1.528   2.247   0.442
 9260SOL     OW28678   6.440   4.058   6.799
 9260SOL    HW128679   6.532   4.068   6.761
 9260SOL    HW228680   6.405   3.967   6.776
 9261SOL     OW28681   3.254   6.726   6.093
 9261SOL    HW128682   3.321   6.654   6.077
 9261SOL    HW228683   3.297   6.800   6.145
 9262SOL     OW28684   5.603   0.619   6.077
 9262SOL    HW128685   5.584   0.538   6.133
 9262SOL    HW228686   5.562   0.699   6.120
 9263SOL     OW28687   6.042   3.996   1.856
 9263SOL    HW128688   6.101   3.916   1.839
 9263SOL    HW228689   6.015   3.997   1.952
 9264SOL     OW28690   6.032   2.549   0.085
 9264SOL    HW128691   6.097   2.502   0.146
 9264SOL    HW228692   6.081   2.615   0.029
 9265SOL     OW28693   1.479   1.595   5.628
 9265SOL    HW128694   1.513   1.507   5.662
 9265SOL    HW228695   1.545   1.634   5.563
 9266SOL     OW28696   2.541   6.069   2.196
 9266SOL    HW128697   2.554   6.072   2.097
 9266SOL    HW228698   2.443   6.062   2.217
 9267SOL     OW28699   2.528   5.018   5.728
 9267SOL    HW128700   2.575   5.051   5.809
 9267SOL    HW228701   2.484   4.930   5.748
 9268SOL     OW28702   1.224   1.421   3.042
 9268SOL    HW128703   1.192   1.508   3.077
 9268SOL    HW228704   1.292   1.382   3.104
 9269SOL     OW28705   4.342   1.705   5.196
 9269SOL    HW128706   4.385   1.742   5.278
 9269SOL    HW228707   4.253   1.665   5.220
 9270SOL     OW28708   1.447   0.386   5.877
 9270SOL    HW128709   1.360   0.384   5.829
 9270SOL    HW228710   1.522   0.388   5.811
 9271SOL     OW28711   0.498   4.815   6.006
 9271SOL    HW128712   0.445   4.743   5.962
 9271SOL    HW228713   0.596   4.792   6.001
 9272SOL     OW28714   2.294   5.043   6.804
 9272SOL    HW128715   2.248   5.022   6.717
 9272SOL    HW228716   2.240   5.111   6.854
 9273SOL     OW28717   3.950   5.877   5.827
 9273SOL    HW128718   4.019   5.879   5.754
 9273SOL    HW228719   3.930   5.782   5.850
 9274SOL     OW28720   5.649   2.576   1.534
 9274SOL    HW128721   5.739   2.569   1.577
 9274SOL    HW228722   5.586   2.625   1.594
 9275SOL     OW28723   0.392   0.351   5.935
 9275SOL    HW128724   0.434   0.412   6.002
 9275SOL    HW228725   0.336   0.405   5.872
 9276SOL     OW28726   4.740   6.757   3.590
 9276SOL    HW128727   4.740   6.689   3.516
 9276SOL    HW228728   4.654   6.752   3.639
 9277SOL     OW28729   3.889   2.804   0.309
 9277SOL    HW128730   3.933   2.885   0.347
 9277SOL    HW228731   3.862   2.822   0.215
 9278SOL     OW28732   1.545   2.430   1.253
 9278SOL    HW128733   1.498   2.385   1.328
 9278SOL    HW228734   1.638   2.453   1.281
 9279SOL     OW28735   1.852   6.437   0.786
 9279SOL    HW128736   1.908   6.520   0.798
 9279SOL    HW228737   1.871   6.397   0.697
 9280SOL     OW28738   1.524   0.394   2.847
 9280SOL    HW128739   1.585   0.369   2.923
 9280SOL    HW228740   1.538   0.330   2.771
 9281SOL     OW28741   2.353   2.302   0.400
 9281SOL    HW128742   2.382   2.236   0.469
 9281SOL    HW228743   2.372   2.395   0.432
 9282SOL     OW28744   4.651   1.185   6.677
 9282SOL    HW128745   4.580   1.242   6.716
 9282SOL    HW228746   4.614   1.094   6.655
 9283SOL     OW28747   5.417   2.725   2.811
 9283SOL    HW128748   5.409   2.824   2.818
 9283SOL    HW228749   5.327   2.683   2.820
 9284SOL     OW28750   3.397   3.946   1.973
 9284SOL    HW128751   3.453   4.029   1.963
 9284SOL    HW228752   3.444   3.869   1.929
 9285SOL     OW28753   6.657   2.822   6.281
 9285SOL    HW128754   6.567   2.778   6.274
 9285SOL    HW228755   6.648   2.904   6.338
 9286SOL     OW28756   5.553   5.290   4.699
 9286SOL    HW128757   5.534   5.374   4.750
 9286SOL    HW228758   5.646   5.294   4.662
 9287SOL     OW28759   2.502   0.244   2.177
 9287SOL    HW128760   2.447   0.217   2.257
 9287SOL    HW228761   2.597   0.255   2.205
 9288SOL     OW28762   4.899   2.164   6.027
 9288SOL    HW128763   4.810   2.200   6.056
 9288SOL    HW228764   4.962   2.165   6.104
 9289SOL     OW28765   5.754   4.298   2.688
 9289SOL    HW128766   5.739   4.305   2.787
 9289SOL    HW228767   5.706   4.218   2.652
 9290SOL     OW28768   4.734   1.893   4.054
 9290SOL    HW128769   4.727   1.820   3.986
 9290SOL    HW228770   4.681   1.870   4.135
 9291SOL     OW28771   0.853   1.711   4.844
 9291SOL    HW128772   0.775   1.746   4.897
 9291SOL    HW228773   0.938   1.734   4.891
 9292SOL     OW28774   0.240   4.085   7.007
 9292SOL    HW128775   0.307   4.019   0.023
 9292SOL    HW228776   0.270   4.119   6.918
 9293SOL     OW28777   6.462   3.820   6.019
 9293SOL    HW128778   6.467   3.827   5.920
 9293SOL    HW228779   6.548   3.785   6.055
 9294SOL     OW28780   5.316   6.031   6.287
 9294SOL    HW128781   5.354   5.943   6.258
 9294SOL    HW228782   5.251   6.015   6.362
 9295SOL     OW28783   4.851   2.352   3.356
 9295SOL    HW128784   4.823   2.260   3.329
 9295SOL    HW228785   4.805   2.377   3.441
 9296SOL     OW28786   6.769   0.052   5.053
 9296SOL    HW128787   6.715   0.135   5.068
 9296SOL    HW228788   6.781   0.004   5.140
 9297SOL     OW28789   0.907   0.765   1.633
 9297SOL    HW128790   0.988   0.823   1.640
 9297SOL    HW228791   0.825   0.822   1.626
 9298SOL     OW28792   0.532   5.924   5.022
 9298SOL    HW128793   0.623   5.933   4.981
 9298SOL    HW228794   0.465   5.974   4.967
 9299SOL     OW28795   1.849   3.295   4.232
 9299SOL    HW128796   1.869   3.294   4.135
 9299SOL    HW228797   1.860   3.204   4.270
 9300SOL     OW28798   5.670   4.357   3.800
 9300SOL    HW128799   5.622   4.273   3.774
 9300SOL    HW228800   5.657   4.373   3.898
 9301SOL     OW28801   6.279   4.672   1.481
 9301SOL    HW128802   6.277   4.588   1.535
 9301SOL    HW228803   6.234   4.656   1.393
 9302SOL     OW28804   1.665   2.209   2.361
 9302SOL    HW128805   1.573   2.229   2.397
 9302SOL    HW228806   1.717   2.158   2.430
 9303SOL     OW28807   4.821   4.064   0.689
 9303SOL    HW128808   4.741   4.122   0.704
 9303SOL    HW228809   4.794   3.968   0.691
 9304SOL     OW28810   4.422   3.542   0.451
 9304SOL    HW128811   4.422   3.469   0.383
 9304SOL    HW228812   4.333   3.545   0.496
 9305SOL     OW28813   4.883   3.886   2.079
 9305SOL    HW128814   4.826   3.887   1.996
 9305SOL    HW228815   4.926   3.975   2.090
 9306SOL     OW28816   6.082   5.747   4.178
 9306SOL    HW128817   6.116   5.811   4.246
 9306SOL    HW228818   6.040   5.669   4.223
 9307SOL     OW28819   2.426   0.701   5.837
 9307SOL    HW128820   2.523   0.682   5.854
 9307SOL    HW228821   2.386   0.743   5.919
 9308SOL     OW28822   6.990   2.231   0.581
 9308SOL    HW128823   6.956   2.317   0.543
 9308SOL    HW228824   6.953   2.219   0.674
 9309SOL     OW28825   4.900   2.541   6.402
 9309SOL    HW128826   4.998   2.547   6.423
 9309SOL    HW228827   4.870   2.627   6.361
 9310SOL     OW28828   4.372   6.616   1.174
 9310SOL    HW128829   4.457   6.635   1.224
 9310SOL    HW228830   4.330   6.703   1.147
 9311SOL     OW28831   6.859   3.601   1.566
 9311SOL    HW128832   6.891   3.663   1.495
 9311SOL    HW228833   6.759   3.600   1.567
 9312SOL     OW28834   2.012   4.238   4.961
 9312SOL    HW128835   2.084   4.210   4.898
 9312SOL    HW228836   1.994   4.336   4.949
 9313SOL     OW28837   6.079   6.673   2.451
 9313SOL    HW128838   6.085   6.600   2.383
 9313SOL    HW228839   6.145   6.745   2.430
 9314SOL     OW28840   6.354   3.929   0.199
 9314SOL    HW128841   6.431   3.933   0.262
 9314SOL    HW228842   6.268   3.919   0.250
 9315SOL     OW28843   0.356   6.560   6.694
 9315SOL    HW128844   0.375   6.658   6.685
 9315SOL    HW228845   0.358   6.516   6.604
 9316SOL     OW28846   3.419   5.695   4.648
 9316SOL    HW128847   3.466   5.629   4.707
 9316SOL    HW228848   3.454   5.687   4.554
 9317SOL     OW28849   4.600   4.032   5.268
 9317SOL    HW128850   4.644   4.015   5.356
 9317SOL    HW228851   4.670   4.038   5.196
 9318SOL     OW28852   6.936   6.552   5.957
 9318SOL    HW128853   6.916   6.522   6.050
 9318SOL    HW228854   6.864   6.522   5.895
 9319SOL     OW28855   5.947   3.182   4.795
 9319SOL    HW128856   5.881   3.108   4.784
 9319SOL    HW228857   5.930   3.230   4.881
 9320SOL     OW28858   4.151   2.788   6.108
 9320SOL    HW128859   4.058   2.805   6.139
 9320SOL    HW228860   4.179   2.862   6.046
 9321SOL     OW28861   5.501   5.926   4.074
 9321SOL    HW128862   5.456   5.885   4.153
 9321SOL    HW228863   5.571   5.990   4.105
 9322SOL     OW28864   1.232   6.331   0.596
 9322SOL    HW128865   1.309   6.280   0.560
 9322SOL    HW228866   1.158   6.268   0.621
 9323SOL     OW28867   0.613   1.241   6.505
 9323SOL    HW128868   0.661   1.154   6.518
 9323SOL    HW228869   0.593   1.282   6.595
 9324SOL     OW28870   1.579   5.263   6.675
 9324SOL    HW128871   1.661   5.314   6.650
 9324SOL    HW228872   1.566   5.267   6.774
 9325SOL     OW28873   0.068   2.532   0.594
 9325SOL    HW128874   0.120   2.551   0.677
 9325SOL    HW228875   0.130   2.505   0.520
 9326SOL     OW28876   2.415   5.565   1.407
 9326SOL    HW128877   2.453   5.482   1.450
 9326SOL    HW228878   2.488   5.617   1.365
 9327SOL     OW28879   3.009   1.609   3.597
 9327SOL    HW128880   2.973   1.607   3.691
 9327SOL    HW228881   2.946   1.560   3.537
 9328SOL     OW28882   2.630   0.619   2.285
 9328SOL    HW128883   2.590   0.631   2.194
 9328SOL    HW228884   2.672   0.528   2.290
 9329SOL     OW28885   0.866   4.083   1.988
 9329SOL    HW128886   0.955   4.040   2.007
 9329SOL    HW228887   0.824   4.111   2.074
 9330SOL     OW28888   5.537   6.684   6.474
 9330SOL    HW128889   5.600   6.686   6.551
 9330SOL    HW228890   5.582   6.643   6.395
 9331SOL     OW28891   0.776   2.139   0.185
 9331SOL    HW128892   0.864   2.096   0.206
 9331SOL    HW228893   0.726   2.083   0.119
 9332SOL     OW28894   3.720   3.607   5.236
 9332SOL    HW128895   3.677   3.558   5.313
 9332SOL    HW228896   3.790   3.669   5.272
 9333SOL     OW28897   4.986   5.479   0.845
 9333SOL    HW128898   5.002   5.536   0.926
 9333SOL    HW228899   4.888   5.470   0.829
 9334SOL     OW28900   2.677   0.291   4.519
 9334SOL    HW128901   2.655   0.277   4.615
 9334SOL    HW228902   2.700   0.204   4.476
 9335SOL     OW28903   0.999   1.474   2.012
 9335SOL    HW128904   0.992   1.510   1.919
 9335SOL    HW228905   1.057   1.533   2.067
 9336SOL     OW28906   3.556   0.039   5.325
 9336SOL    HW128907   3.522   6.981   5.378
 9336SOL    HW228908   3.641   0.073   5.367
 9337SOL     OW28909   4.664   0.321   2.592
 9337SOL    HW128910   4.746   0.347   2.643
 9337SOL    HW228911   4.626   0.401   2.546
 9338SOL     OW28912   3.493   6.730   1.924
 9338SOL    HW128913   3.441   6.660   1.973
 9338SOL    HW228914   3.590   6.718   1.942
 9339SOL     OW28915   3.634   5.451   1.242
 9339SOL    HW128916   3.579   5.517   1.191
 9339SOL    HW228917   3.593   5.360   1.235
 9340SOL     OW28918   6.426   3.240   0.848
 9340SOL    HW128919   6.387   3.291   0.772
 9340SOL    HW228920   6.474   3.302   0.910
 9341SOL     OW28921   0.025   4.073   5.637
 9341SOL    HW128922   0.077   4.159   5.641
 9341SOL    HW228923   0.077   4.001   5.683
 9342SOL     OW28924   1.659   0.343   6.687
 9342SOL    HW128925   1.577   0.397   6.666
 9342SOL    HW228926   1.710   0.327   6.603
 9343SOL     OW28927   5.629   6.402   4.023
 9343SOL    HW128928   5.723   6.384   4.052
 9343SOL    HW228929   5.615   6.369   3.930
 9344SOL     OW28930   5.222   6.643   0.890
 9344SOL    HW128931   5.155   6.704   0.848
 9344SOL    HW228932   5.292   6.618   0.823
 9345SOL     OW28933   0.479   2.975   0.605
 9345SOL    HW128934   0.552   2.920   0.563
 9345SOL    HW228935   0.484   2.966   0.704
 9346SOL     OW28936   6.030   0.791   0.655
 9346SOL    HW128937   5.991   0.883   0.643
 9346SOL    HW228938   6.030   0.744   0.567
 9347SOL     OW28939   2.128   6.568   2.194
 9347SOL    HW128940   2.056   6.574   2.124
 9347SOL    HW228941   2.124   6.649   2.253
 9348SOL     OW28942   2.929   4.823   0.509
 9348SOL    HW128943   2.869   4.840   0.587
 9348SOL    HW228944   2.931   4.904   0.450
 9349SOL     OW28945   1.698   6.087   2.375
 9349SOL    HW128946   1.788   6.105   2.413
 9349SOL    HW228947   1.665   5.999   2.409
 9350SOL     OW28948   0.222   3.212   5.866
 9350SOL    HW128949   0.126   3.229   5.842
 9350SOL    HW228950   0.237   3.115   5.881
 9351SOL     OW28951   3.091   0.516   6.628
 9351SOL    HW128952   3.092   0.540   6.531
 9351SOL    HW228953   2.998   0.492   6.656
 9352SOL     OW28954   2.683   5.123   5.983
 9352SOL    HW128955   2.764   5.180   5.995
 9352SOL    HW228956   2.676   5.060   6.060
 9353SOL     OW28957   6.025   1.059   1.107
 9353SOL    HW128958   5.947   1.077   1.046
 9353SOL    HW228959   6.110   1.075   1.057
 9354SOL     OW28960   1.014   1.234   6.416
 9354SOL    HW128961   0.969   1.207   6.332
 9354SOL    HW228962   1.024   1.155   6.476
 9355SOL     OW28963   0.758   1.468   4.986
 9355SOL    HW128964   0.809   1.450   4.902
 9355SOL    HW228965   0.673   1.515   4.963
 9356SOL     OW28966   4.516   6.753   3.726
 9356SOL    HW128967   4.434   6.742   3.669
 9356SOL    HW228968   4.506   6.699   3.809
 9357SOL     OW28969   1.462   1.909   0.220
 9357SOL    HW128970   1.417   1.820   0.232
 9357SOL    HW228971   1.540   1.899   0.159
 9358SOL     OW28972   1.211   2.113   1.344
 9358SOL    HW128973   1.179   2.023   1.315
 9358SOL    HW228974   1.148   2.184   1.312
 9359SOL     OW28975   0.908   0.399   5.223
 9359SOL    HW128976   0.871   0.489   5.249
 9359SOL    HW228977   0.838   0.346   5.177
 9360SOL     OW28978   0.277   0.642   5.988
 9360SOL    HW128979   0.198   0.584   5.966
 9360SOL    HW228980   0.246   0.729   6.026
 9361SOL     OW28981   2.105   5.562   4.423
 9361SOL    HW128982   2.192   5.591   4.383
 9361SOL    HW228983   2.059   5.499   4.360
 9362SOL     OW28984   1.869   0.381   2.440
 9362SOL    HW128985   1.851   0.322   2.362
 9362SOL    HW228986   1.904   0.469   2.408
 9363SOL     OW28987   1.581   3.143   2.299
 9363SOL    HW128988   1.503   3.109   2.246
 9363SOL    HW228989   1.665   3.103   2.264
 9364SOL     OW28990   0.105   2.310   0.048
 9364SOL    HW128991   0.106   2.237   0.117
 9364SOL    HW228992   0.019   2.360   0.055
 9365SOL     OW28993   2.120   0.716   5.419
 9365SOL    HW128994   2.056   0.738   5.493
 9365SOL    HW228995   2.210   0.696   5.457
 9366SOL     OW28996   3.948   6.755   2.446
 9366SOL    HW128997   4.036   6.728   2.406
 9366SOL    HW228998   3.932   6.702   2.530
 9367SOL     OW28999   6.809   0.626   1.471
 9367SOL    HW129000   6.885   0.564   1.453
 9367SOL    HW229001   6.768   0.604   1.560
 9368SOL     OW29002   2.433   0.430   2.834
 9368SOL    HW129003   2.524   0.441   2.876
 9368SOL    HW229004   2.376   0.509   2.857
 9369SOL     OW29005   3.724   5.177   1.001
 9369SOL    HW129006   3.813   5.223   0.993
 9369SOL    HW229007   3.735   5.080   0.979
 9370SOL     OW29008   4.434   2.325   5.122
 9370SOL    HW129009   4.478   2.415   5.122
 9370SOL    HW229010   4.355   2.328   5.060
 9371SOL     OW29011   4.130   4.685   0.797
 9371SOL    HW129012   4.137   4.653   0.702
 9371SOL    HW229013   4.055   4.636   0.842
 9372SOL     OW29014   4.333   6.377   1.044
 9372SOL    HW129015   4.287   6.305   1.094
 9372SOL    HW229016   4.333   6.461   1.098
 9373SOL     OW29017   0.527   2.476   1.771
 9373SOL    HW129018   0.622   2.447   1.762
 9373SOL    HW229019   0.474   2.404   1.817
 9374SOL     OW29020   0.090   5.187   6.206
 9374SOL    HW129021   0.120   5.097   6.239
 9374SOL    HW229022   0.066   5.245   6.284
 9375SOL     OW29023   1.084   1.117   0.134
 9375SOL    HW129024   0.989   1.093   0.119
 9375SOL    HW229025   1.100   1.212   0.105
 9376SOL     OW29026   2.786   3.229   0.606
 9376SOL    HW129027   2.859   3.220   0.674
 9376SOL    HW229028   2.825   3.262   0.520
 9377SOL     OW29029   1.062   0.694   3.179
 9377SOL    HW129030   0.978   0.657   3.141
 9377SOL    HW229031   1.046   0.723   3.274
 9378SOL     OW29032   3.804   1.523   4.932
 9378SOL    HW129033   3.811   1.503   4.835
 9378SOL    HW229034   3.874   1.590   4.958
 9379SOL     OW29035   4.138   0.545   4.569
 9379SOL    HW129036   4.155   0.492   4.486
 9379SOL    HW229037   4.200   0.623   4.573
 9380SOL     OW29038   5.140   5.398   1.354
 9380SOL    HW129039   5.222   5.451   1.331
 9380SOL    HW229040   5.101   5.359   1.270
 9381SOL     OW29041   5.517   0.998   5.070
 9381SOL    HW129042   5.569   0.952   5.142
 9381SOL    HW229043   5.573   1.072   5.032
 9382SOL     OW29044   3.527   5.489   6.177
 9382SOL    HW129045   3.521   5.397   6.139
 9382SOL    HW229046   3.485   5.491   6.267
 9383SOL     OW29047   6.186   3.709   1.635
 9383SOL    HW129048   6.186   3.718   1.735
 9383SOL    HW229049   6.125   3.778   1.595
 9384SOL     OW29050   4.052   6.988   0.493
 9384SOL    HW129051   3.965   6.941   0.480
 9384SOL    HW229052   4.074   6.991   0.591
 9385SOL     OW29053   4.203   2.190   3.910
 9385SOL    HW129054   4.275   2.258   3.923
 9385SOL    HW229055   4.167   2.162   3.999
 9386SOL     OW29056   5.704   6.862   1.242
 9386SOL    HW129057   5.800   6.862   1.212
 9386SOL    HW229058   5.649   6.913   1.176
 9387SOL     OW29059   2.231   1.778   6.559
 9387SOL    HW129060   2.242   1.877   6.566
 9387SOL    HW229061   2.138   1.757   6.529
 9388SOL     OW29062   2.466   0.157   4.306
 9388SOL    HW129063   2.488   0.249   4.273
 9388SOL    HW229064   2.394   0.118   4.249
 9389SOL     OW29065   2.236   4.288   2.108
 9389SOL    HW129066   2.200   4.205   2.150
 9389SOL    HW229067   2.274   4.347   2.179
 9390SOL     OW29068   5.702   4.659   4.086
 9390SOL    HW129069   5.607   4.660   4.055
 9390SOL    HW229070   5.749   4.740   4.051
 9391SOL     OW29071   1.491   4.353   4.438
 9391SOL    HW129072   1.523   4.259   4.429
 9391SOL    HW229073   1.435   4.361   4.521
 9392SOL     OW29074   4.429   4.786   2.340
 9392SOL    HW129075   4.479   4.701   2.324
 9392SOL    HW229076   4.457   4.824   2.429
 9393SOL     OW29077   1.880   4.852   6.759
 9393SOL    HW129078   1.906   4.840   6.855
 9393SOL    HW229079   1.890   4.948   6.734
 9394SOL     OW29080   4.724   0.259   0.086
 9394SOL    HW129081   4.679   0.289   0.170
 9394SOL    HW229082   4.731   0.336   0.023
 9395SOL     OW29083   1.155   1.645   1.449
 9395SOL    HW129084   1.193   1.717   1.507
 9395SOL    HW229085   1.062   1.625   1.477
 9396SOL     OW29086   1.154   0.762   6.441
 9396SOL    HW129087   1.210   0.692   6.397
 9396SOL    HW229088   1.128   0.831   6.373
 9397SOL     OW29089   3.158   1.457   4.634
 9397SOL    HW129090   3.107   1.381   4.594
 9397SOL    HW229091   3.094   1.521   4.677
 9398SOL     OW29092   6.893   1.736   0.059
 9398SOL    HW129093   6.912   1.825   0.100
 9398SOL    HW229094   6.848   1.678   0.126
 9399SOL     OW29095   1.374   1.937   4.744
 9399SOL    HW129096   1.301   1.980   4.797
 9399SOL    HW229097   1.428   2.008   4.698
 9400SOL     OW29098   5.726   1.501   1.420
 9400SOL    HW129099   5.808   1.478   1.473
 9400SOL    HW229100   5.658   1.429   1.429
 9401SOL     OW29101   0.068   2.340   3.520
 9401SOL    HW129102   0.036   2.348   3.426
 9401SOL    HW229103   0.166   2.321   3.521
 9402SOL     OW29104   3.414   6.146   5.242
 9402SOL    HW129105   3.423   6.226   5.301
 9402SOL    HW229106   3.407   6.176   5.147
 9403SOL     OW29107   5.638   2.209   1.195
 9403SOL    HW129108   5.721   2.188   1.144
 9403SOL    HW229109   5.653   2.288   1.254
 9404SOL     OW29110   2.413   2.565   0.495
 9404SOL    HW129111   2.419   2.621   0.412
 9404SOL    HW229112   2.484   2.592   0.559
 9405SOL     OW29113   6.171   5.962   5.138
 9405SOL    HW129114   6.244   5.921   5.192
 9405SOL    HW229115   6.195   5.959   5.041
 9406SOL     OW29116   1.540   1.390   0.903
 9406SOL    HW129117   1.511   1.304   0.944
 9406SOL    HW229118   1.607   1.434   0.963
 9407SOL     OW29119   1.616   4.601   4.666
 9407SOL    HW129120   1.579   4.533   4.729
 9407SOL    HW229121   1.550   4.676   4.655
 9408SOL     OW29122   5.376   4.583   4.254
 9408SOL    HW129123   5.398   4.658   4.192
 9408SOL    HW229124   5.379   4.497   4.204
 9409SOL     OW29125   5.580   5.751   1.424
 9409SOL    HW129126   5.658   5.791   1.376
 9409SOL    HW229127   5.505   5.737   1.359
 9410SOL     OW29128   4.455   0.089   1.009
 9410SOL    HW129129   4.448   0.130   1.100
 9410SOL    HW229130   4.542   0.040   1.001
 9411SOL     OW29131   3.327   4.140   3.861
 9411SOL    HW129132   3.262   4.153   3.936
 9411SOL    HW229133   3.419   4.165   3.891
 9412SOL     OW29134   4.365   0.231   1.535
 9412SOL    HW129135   4.364   0.150   1.593
 9412SOL    HW229136   4.305   0.301   1.575
 9413SOL     OW29137   3.824   4.889   3.568
 9413SOL    HW129138   3.914   4.845   3.575
 9413SOL    HW229139   3.783   4.866   3.479
 9414SOL     OW29140   1.803   1.362   2.373
 9414SOL    HW129141   1.858   1.395   2.450
 9414SOL    HW229142   1.750   1.438   2.335
 9415SOL     OW29143   5.163   0.532   1.528
 9415SOL    HW129144   5.206   0.598   1.467
 9415SOL    HW229145   5.216   0.524   1.612
 9416SOL     OW29146   6.474   4.855   5.679
 9416SOL    HW129147   6.570   4.833   5.663
 9416SOL    HW229148   6.466   4.916   5.758
 9417SOL     OW29149   3.794   6.187   2.608
 9417SOL    HW129150   3.801   6.251   2.685
 9417SOL    HW229151   3.783   6.094   2.644
 9418SOL     OW29152   3.230   2.176   4.757
 9418SOL    HW129153   3.208   2.211   4.848
 9418SOL    HW229154   3.307   2.113   4.763
 9419SOL     OW29155   2.373   2.689   5.997
 9419SOL    HW129156   2.332   2.728   6.080
 9419SOL    HW229157   2.305   2.631   5.951
 9420SOL     OW29158   5.443   3.414   5.801
 9420SOL    HW129159   5.521   3.369   5.846
 9420SOL    HW229160   5.470   3.507   5.774
 9421SOL     OW29161   4.000   6.758   6.955
 9421SOL    HW129162   4.076   6.782   7.015
 9421SOL    HW229163   3.948   6.682   6.995
 9422SOL     OW29164   2.392   6.770   5.983
 9422SOL    HW129165   2.367   6.755   6.079
 9422SOL    HW229166   2.409   6.682   5.939
 9423SOL     OW29167   4.230   4.642   1.056
 9423SOL    HW129168   4.254   4.721   1.113
 9423SOL    HW229169   4.201   4.675   0.966
 9424SOL     OW29170   6.117   0.381   3.963
 9424SOL    HW129171   6.198   0.423   3.922
 9424SOL    HW229172   6.136   0.285   3.983
 9425SOL     OW29173   0.114   5.291   0.977
 9425SOL    HW129174   0.108   5.207   0.923
 9425SOL    HW229175   0.199   5.291   1.030
 9426SOL     OW29176   4.439   2.114   6.344
 9426SOL    HW129177   4.504   2.045   6.374
 9426SOL    HW229178   4.347   2.091   6.378
 9427SOL     OW29179   3.706   5.334   2.086
 9427SOL    HW129180   3.702   5.297   2.179
 9427SOL    HW229181   3.746   5.426   2.088
 9428SOL     OW29182   0.555   5.996   5.285
 9428SOL    HW129183   0.637   6.053   5.286
 9428SOL    HW229184   0.529   5.977   5.190
 9429SOL     OW29185   2.858   2.302   3.804
 9429SOL    HW129186   2.825   2.297   3.898
 9429SOL    HW229187   2.949   2.262   3.799
 9430SOL     OW29188   0.956   6.808   4.187
 9430SOL    HW129189   0.976   6.712   4.207
 9430SOL    HW229190   0.936   6.818   4.090
 9431SOL     OW29191   1.516   5.091   4.707
 9431SOL    HW129192   1.606   5.110   4.667
 9431SOL    HW229193   1.454   5.058   4.636
 9432SOL     OW29194   6.875   1.294   3.387
 9432SOL    HW129195   6.923   1.266   3.304
 9432SOL    HW229196   6.785   1.251   3.389
 9433SOL     OW29197   4.397   5.379   1.929
 9433SOL    HW129198   4.341   5.304   1.895
 9433SOL    HW229199   4.430   5.358   2.021
 9434SOL     OW29200   4.232   5.904   5.193
 9434SOL    HW129201   4.149   5.857   5.224
 9434SOL    HW229202   4.214   5.948   5.105
 9435SOL     OW29203   6.221   4.480   6.613
 9435SOL    HW129204   6.230   4.456   6.710
 9435SOL    HW229205   6.224   4.397   6.558
 9436SOL     OW29206   2.852   1.427   2.602
 9436SOL    HW129207   2.816   1.475   2.682
 9436SOL    HW229208   2.930   1.477   2.566
 9437SOL     OW29209   5.320   1.297   4.291
 9437SOL    HW129210   5.295   1.340   4.378
 9437SOL    HW229211   5.418   1.277   4.291
 9438SOL     OW29212   5.099   0.248   2.515
 9438SOL    HW129213   5.130   0.260   2.421
 9438SOL    HW229214   5.027   0.179   2.518
 9439SOL     OW29215   2.282   4.741   0.955
 9439SOL    HW129216   2.258   4.671   1.023
 9439SOL    HW229217   2.374   4.775   0.972
 9440SOL     OW29218   2.068   5.499   5.515
 9440SOL    HW129219   1.994   5.454   5.564
 9440SOL    HW229220   2.139   5.527   5.580
 9441SOL     OW29221   6.814   6.265   3.920
 9441SOL    HW129222   6.812   6.253   4.020
 9441SOL    HW229223   6.727   6.302   3.890
 9442SOL     OW29224   6.312   2.754   1.110
 9442SOL    HW129225   6.411   2.739   1.108
 9442SOL    HW229226   6.291   2.827   1.175
 9443SOL     OW29227   2.420   4.638   1.268
 9443SOL    HW129228   2.367   4.589   1.199
 9443SOL    HW229229   2.358   4.689   1.328
 9444SOL     OW29230   2.108   5.923   6.297
 9444SOL    HW129231   2.049   5.888   6.370
 9444SOL    HW229232   2.150   5.846   6.248
 9445SOL     OW29233   0.426   0.879   3.805
 9445SOL    HW129234   0.374   0.800   3.837
 9445SOL    HW229235   0.496   0.901   3.873
 9446SOL     OW29236   5.750   5.071   4.164
 9446SOL    HW129237   5.668   5.092   4.217
 9446SOL    HW229238   5.829   5.065   4.225
 9447SOL     OW29239   5.610   5.248   2.522
 9447SOL    HW129240   5.564   5.248   2.611
 9447SOL    HW229241   5.699   5.203   2.531
 9448SOL     OW29242   4.710   2.411   6.523
 9448SOL    HW129243   4.789   2.438   6.468
 9448SOL    HW229244   4.722   2.445   6.617
 9449SOL     OW29245   4.652   6.360   2.834
 9449SOL    HW129246   4.617   6.429   2.770
 9449SOL    HW229247   4.641   6.270   2.793
 9450SOL     OW29248   0.935   0.435   2.035
 9450SOL    HW129249   0.934   0.509   1.968
 9450SOL    HW229250   0.928   0.347   1.988
 9451SOL     OW29251   4.213   5.075   0.329
 9451SOL    HW129252   4.284   5.079   0.399
 9451SOL    HW229253   4.126   5.048   0.370
 9452SOL     OW29254   6.166   3.280   6.318
 9452SOL    HW129255   6.121   3.279   6.407
 9452SOL    HW229256   6.264   3.264   6.329
 9453SOL     OW29257   6.923   4.882   2.202
 9453SOL    HW129258   6.869   4.890   2.285
 9453SOL    HW229259   6.995   4.814   2.215
 9454SOL     OW29260   5.313   5.333   0.416
 9454SOL    HW129261   5.224   5.296   0.441
 9454SOL    HW229262   5.385   5.272   0.449
 9455SOL     OW29263   4.755   0.405   1.195
 9455SOL    HW129264   4.840   0.433   1.239
 9455SOL    HW229265   4.682   0.402   1.262
 9456SOL     OW29266   6.865   2.591   2.697
 9456SOL    HW129267   6.777   2.610   2.654
 9456SOL    HW229268   6.866   2.631   2.789
 9457SOL     OW29269   6.505   6.468   4.462
 9457SOL    HW129270   6.585   6.506   4.416
 9457SOL    HW229271   6.427   6.530   4.450
 9458SOL     OW29272   0.012   4.211   0.030
 9458SOL    HW129273   0.097   4.158   0.024
 9458SOL    HW229274   7.002   4.216   0.125
 9459SOL     OW29275   5.337   4.562   5.042
 9459SOL    HW129276   5.356   4.588   5.137
 9459SOL    HW229277   5.364   4.637   4.981
 9460SOL     OW29278   1.792   2.828   3.058
 9460SOL    HW129279   1.869   2.790   3.006
 9460SOL    HW229280   1.733   2.753   3.089
 9461SOL     OW29281   2.665   1.662   1.505
 9461SOL    HW129282   2.743   1.629   1.451
 9461SOL    HW229283   2.582   1.616   1.474
 9462SOL     OW29284   0.040   1.502   5.592
 9462SOL    HW129285   0.137   1.489   5.571
 9462SOL    HW229286   7.004   1.448   5.528
 9463SOL     OW29287   6.584   5.067   0.594
 9463SOL    HW129288   6.672   5.043   0.553
 9463SOL    HW229289   6.543   4.986   0.635
 9464SOL     OW29290   1.190   0.126   2.341
 9464SOL    HW129291   1.178   0.088   2.249
 9464SOL    HW229292   1.122   0.198   2.356
 9465SOL     OW29293   0.105   5.657   0.434
 9465SOL    HW129294   0.130   5.704   0.349
 9465SOL    HW229295   0.102   5.559   0.419
 9466SOL     OW29296   4.207   4.002   5.752
 9466SOL    HW129297   4.154   4.086   5.767
 9466SOL    HW229298   4.248   4.005   5.661
 9467SOL     OW29299   1.277   4.014   1.100
 9467SOL    HW129300   1.239   3.981   1.186
 9467SOL    HW229301   1.222   3.980   1.023
 9468SOL     OW29302   6.392   1.558   1.382
 9468SOL    HW129303   6.318   1.505   1.423
 9468SOL    HW229304   6.404   1.644   1.432
 9469SOL     OW29305   6.004   6.669   2.074
 9469SOL    HW129306   6.078   6.604   2.091
 9469SOL    HW229307   5.976   6.663   1.978
 9470SOL     OW29308   3.646   3.314   1.465
 9470SOL    HW129309   3.705   3.246   1.508
 9470SOL    HW229310   3.699   3.367   1.399
 9471SOL     OW29311   6.348   3.246   4.514
 9471SOL    HW129312   6.370   3.264   4.418
 9471SOL    HW229313   6.276   3.176   4.519
 9472SOL     OW29314   2.551   3.559   6.529
 9472SOL    HW129315   2.551   3.635   6.464
 9472SOL    HW229316   2.572   3.593   6.621
 9473SOL     OW29317   3.165   3.137   1.321
 9473SOL    HW129318   3.259   3.114   1.298
 9473SOL    HW229319   3.106   3.119   1.241
 9474SOL     OW29320   5.706   4.565   0.740
 9474SOL    HW129321   5.779   4.596   0.801
 9474SOL    HW229322   5.689   4.468   0.755
 9475SOL     OW29323   6.019   3.259   6.856
 9475SOL    HW129324   5.928   3.294   6.879
 9475SOL    HW229325   6.050   3.302   6.771
 9476SOL     OW29326   3.657   4.068   0.821
 9476SOL    HW129327   3.670   4.016   0.905
 9476SOL    HW229328   3.670   4.165   0.840
 9477SOL     OW29329   1.425   5.108   0.537
 9477SOL    HW129330   1.471   5.023   0.561
 9477SOL    HW229331   1.492   5.176   0.510
 9478SOL     OW29332   6.679   3.074   5.642
 9478SOL    HW129333   6.713   3.144   5.704
 9478SOL    HW229334   6.724   2.987   5.663
 9479SOL     OW29335   4.281   1.003   2.065
 9479SOL    HW129336   4.272   0.940   2.142
 9479SOL    HW229337   4.317   1.091   2.097
 9480SOL     OW29338   5.526   0.303   0.841
 9480SOL    HW129339   5.428   0.322   0.853
 9480SOL    HW229340   5.579   0.362   0.901
 9481SOL     OW29341   4.527   0.279   3.749
 9481SOL    HW129342   4.443   0.279   3.695
 9481SOL    HW229343   4.504   0.268   3.846
 9482SOL     OW29344   6.388   4.476   5.323
 9482SOL    HW129345   6.480   4.454   5.356
 9482SOL    HW229346   6.321   4.453   5.393
 9483SOL     OW29347   6.083   5.107   6.670
 9483SOL    HW129348   6.042   5.172   6.606
 9483SOL    HW229349   6.011   5.066   6.725
 9484SOL     OW29350   1.568   6.305   4.039
 9484SOL    HW129351   1.533   6.269   3.952
 9484SOL    HW229352   1.608   6.230   4.092
 9485SOL     OW29353   0.191   0.933   4.663
 9485SOL    HW129354   0.286   0.905   4.681
 9485SOL    HW229355   0.186   1.033   4.658
 9486SOL     OW29356   6.848   5.617   0.166
 9486SOL    HW129357   6.773   5.552   0.153
 9486SOL    HW229358   6.810   5.709   0.175
 9487SOL     OW29359   3.224   3.638   3.786
 9487SOL    HW129360   3.231   3.543   3.755
 9487SOL    HW229361   3.129   3.668   3.780
 9488SOL     OW29362   1.023   1.070   2.239
 9488SOL    HW129363   1.026   1.168   2.257
 9488SOL    HW229364   1.044   1.053   2.143
 9489SOL     OW29365   6.533   4.455   6.499
 9489SOL    HW129366   6.534   4.384   6.428
 9489SOL    HW229367   6.439   4.476   6.524
 9490SOL     OW29368   5.488   3.720   4.675
 9490SOL    HW129369   5.460   3.644   4.734
 9490SOL    HW229370   5.542   3.786   4.727
 9491SOL     OW29371   5.456   0.126   2.363
 9491SOL    HW129372   5.480   0.065   2.438
 9491SOL    HW229373   5.510   0.210   2.369
 9492SOL     OW29374   4.688   2.836   4.112
 9492SOL    HW129375   4.681   2.829   4.211
 9492SOL    HW229376   4.671   2.930   4.083
 9493SOL     OW29377   2.657   6.028   2.424
 9493SOL    HW129378   2.681   5.931   2.432
 9493SOL    HW229379   2.635   6.049   2.329
 9494SOL     OW29380   4.679   2.806   2.686
 9494SOL    HW129381   4.678   2.810   2.786
 9494SOL    HW229382   4.651   2.894   2.649
 9495SOL     OW29383   4.971   3.352   1.100
 9495SOL    HW129384   5.063   3.341   1.063
 9495SOL    HW229385   4.904   3.328   1.029
 9496SOL     OW29386   5.825   3.285   1.115
 9496SOL    HW129387   5.897   3.295   1.046
 9496SOL    HW229388   5.801   3.188   1.124
 9497SOL     OW29389   4.981   4.405   5.459
 9497SOL    HW129390   4.923   4.412   5.540
 9497SOL    HW229391   5.061   4.464   5.470
 9498SOL     OW29392   0.787   5.764   5.845
 9498SOL    HW129393   0.746   5.804   5.926
 9498SOL    HW229394   0.882   5.796   5.836
 9499SOL     OW29395   5.191   6.670   4.033
 9499SOL    HW129396   5.093   6.689   4.026
 9499SOL    HW229397   5.221   6.619   3.953
 9500SOL     OW29398   2.879   1.493   0.943
 9500SOL    HW129399   2.973   1.492   0.909
 9500SOL    HW229400   2.825   1.560   0.892
 9501SOL     OW29401   1.613   3.364   5.388
 9501SOL    HW129402   1.607   3.308   5.305
 9501SOL    HW229403   1.535   3.427   5.390
 9502SOL     OW29404   5.883   4.525   3.753
 9502SOL    HW129405   5.800   4.469   3.750
 9502SOL    HW229406   5.905   4.547   3.848
 9503SOL     OW29407   5.944   1.208   0.129
 9503SOL    HW129408   6.020   1.233   0.189
 9503SOL    HW229409   5.869   1.273   0.143
 9504SOL     OW29410   6.236   5.366   2.618
 9504SOL    HW129411   6.335   5.349   2.618
 9504SOL    HW229412   6.219   5.463   2.603
 9505SOL     OW29413   4.538   3.362   6.704
 9505SOL    HW129414   4.586   3.397   6.784
 9505SOL    HW229415   4.565   3.414   6.623
 9506SOL     OW29416   3.573   1.554   1.916
 9506SOL    HW129417   3.645   1.486   1.899
 9506SOL    HW229418   3.581   1.628   1.849
 9507SOL     OW29419   0.071   6.146   1.497
 9507SOL    HW129420   0.014   6.125   1.417
 9507SOL    HW229421   0.013   6.157   1.578
 9508SOL     OW29422   5.151   1.263   2.010
 9508SOL    HW129423   5.216   1.260   1.933
 9508SOL    HW229424   5.069   1.313   1.982
 9509SOL     OW29425   6.113   1.540   3.989
 9509SOL    HW129426   6.181   1.470   4.010
 9509SOL    HW229427   6.035   1.530   4.050
 9510SOL     OW29428   1.502   3.582   2.395
 9510SOL    HW129429   1.418   3.632   2.373
 9510SOL    HW229430   1.479   3.501   2.449
 9511SOL     OW29431   1.105   1.743   1.054
 9511SOL    HW129432   1.166   1.668   1.025
 9511SOL    HW229433   1.101   1.812   0.982
 9512SOL     OW29434   6.548   2.414   1.327
 9512SOL    HW129435   6.554   2.510   1.355
 9512SOL    HW229436   6.522   2.409   1.231
 9513SOL     OW29437   4.850   4.179   4.972
 9513SOL    HW129438   4.871   4.233   5.054
 9513SOL    HW229439   4.765   4.213   4.930
 9514SOL     OW29440   3.839   3.123   1.514
 9514SOL    HW129441   3.935   3.131   1.486
 9514SOL    HW229442   3.811   3.027   1.511
 9515SOL     OW29443   6.918   6.200   2.874
 9515SOL    HW129444   6.940   6.203   2.777
 9515SOL    HW229445   6.837   6.257   2.891
 9516SOL     OW29446   0.574   3.575   5.998
 9516SOL    HW129447   0.507   3.505   5.974
 9516SOL    HW229448   0.666   3.536   5.988
 9517SOL     OW29449   1.169   5.906   1.863
 9517SOL    HW129450   1.253   5.952   1.836
 9517SOL    HW229451   1.190   5.837   1.933
 9518SOL     OW29452   0.787   0.803   1.102
 9518SOL    HW129453   0.824   0.710   1.102
 9518SOL    HW229454   0.831   0.856   1.029
 9519SOL     OW29455   1.734   2.371   5.699
 9519SOL    HW129456   1.706   2.341   5.608
 9519SOL    HW229457   1.653   2.399   5.751
 9520SOL     OW29458   4.298   6.875   2.022
 9520SOL    HW129459   4.239   6.797   2.043
 9520SOL    HW229460   4.279   6.907   1.930
 9521SOL     OW29461   5.262   4.581   2.976
 9521SOL    HW129462   5.205   4.546   2.900
 9521SOL    HW229463   5.358   4.565   2.955
 9522SOL     OW29464   3.165   5.365   5.841
 9522SOL    HW129465   3.149   5.349   5.744
 9522SOL    HW229466   3.184   5.278   5.887
 9523SOL     OW29467   1.789   0.010   4.871
 9523SOL    HW129468   1.702   6.979   4.865
 9523SOL    HW229469   1.859   6.981   4.817
 9524SOL     OW29470   6.151   3.294   0.471
 9524SOL    HW129471   6.108   3.206   0.448
 9524SOL    HW229472   6.218   3.317   0.400
 9525SOL     OW29473   3.885   0.742   4.667
 9525SOL    HW129474   3.940   0.680   4.610
 9525SOL    HW229475   3.945   0.808   4.711
 9526SOL     OW29476   5.002   5.054   0.514
 9526SOL    HW129477   5.095   5.055   0.550
 9526SOL    HW229478   4.940   5.100   0.578
 9527SOL     OW29479   0.100   2.123   0.241
 9527SOL    HW129480   0.183   2.083   0.202
 9527SOL    HW229481   0.068   2.065   0.316
 9528SOL     OW29482   6.031   0.745   1.756
 9528SOL    HW129483   6.047   0.735   1.657
 9528SOL    HW229484   6.119   0.760   1.802
 9529SOL     OW29485   1.593   2.097   5.577
 9529SOL    HW129486   1.561   2.096   5.671
 9529SOL    HW229487   1.515   2.097   5.515
 9530SOL     OW29488   2.416   1.479   3.872
 9530SOL    HW129489   2.382   1.432   3.953
 9530SOL    HW229490   2.495   1.430   3.835
 9531SOL     OW29491   2.790   6.652   3.814
 9531SOL    HW129492   2.852   6.600   3.873
 9531SOL    HW229493   2.821   6.747   3.810
 9532SOL     OW29494   3.771   1.370   1.901
 9532SOL    HW129495   3.861   1.412   1.896
 9532SOL    HW229496   3.777   1.282   1.948
 9533SOL     OW29497   0.226   1.825   3.985
 9533SOL    HW129498   0.136   1.856   3.954
 9533SOL    HW229499   0.230   1.829   4.084
 9534SOL     OW29500   5.669   1.549   4.314
 9534SOL    HW129501   5.614   1.498   4.380
 9534SOL    HW229502   5.622   1.552   4.226
 9535SOL     OW29503   2.964   1.634   4.752
 9535SOL    HW129504   2.974   1.612   4.849
 9535SOL    HW229505   2.874   1.675   4.736
 9536SOL     OW29506   2.185   6.321   6.657
 9536SOL    HW129507   2.278   6.296   6.631
 9536SOL    HW229508   2.162   6.279   6.745
 9537SOL     OW29509   2.079   0.862   0.845
 9537SOL    HW129510   1.992   0.864   0.894
 9537SOL    HW229511   2.076   0.792   0.773
 9538SOL     OW29512   6.385   3.879   2.561
 9538SOL    HW129513   6.316   3.952   2.567
 9538SOL    HW229514   6.394   3.834   2.650
 9539SOL     OW29515   0.474   3.688   6.947
 9539SOL    HW129516   0.387   3.718   6.986
 9539SOL    HW229517   0.461   3.600   6.900
 9540SOL     OW29518   5.397   3.165   5.663
 9540SOL    HW129519   5.393   3.257   5.701
 9540SOL    HW229520   5.490   3.128   5.675
 9541SOL     OW29521   6.341   2.162   3.416
 9541SOL    HW129522   6.261   2.103   3.406
 9541SOL    HW229523   6.381   2.181   3.326
 9542SOL     OW29524   4.914   3.767   4.559
 9542SOL    HW129525   5.011   3.793   4.565
 9542SOL    HW229526   4.906   3.667   4.563
 9543SOL     OW29527   4.183   2.081   0.528
 9543SOL    HW129528   4.173   2.013   0.455
 9543SOL    HW229529   4.095   2.094   0.574
 9544SOL     OW29530   5.502   0.677   1.592
 9544SOL    HW129531   5.565   0.731   1.537
 9544SOL    HW229532   5.540   0.586   1.606
 9545SOL     OW29533   1.194   6.730   4.545
 9545SOL    HW129534   1.097   6.719   4.563
 9545SOL    HW229535   1.207   6.798   4.472
 9546SOL     OW29536   2.905   4.067   1.676
 9546SOL    HW129537   2.812   4.056   1.710
 9546SOL    HW229538   2.970   4.052   1.751
 9547SOL     OW29539   5.075   6.321   2.478
 9547SOL    HW129540   5.022   6.321   2.394
 9547SOL    HW229541   5.083   6.414   2.513
 9548SOL     OW29542   5.667   6.875   2.124
 9548SOL    HW129543   5.729   6.821   2.181
 9548SOL    HW229544   5.584   6.897   2.177
 9549SOL     OW29545   1.913   5.750   0.174
 9549SOL    HW129546   1.841   5.820   0.166
 9549SOL    HW229547   1.980   5.763   0.101
 9550SOL     OW29548   1.658   0.671   0.219
 9550SOL    HW129549   1.662   0.652   0.121
 9550SOL    HW229550   1.621   0.592   0.267
 9551SOL     OW29551   1.393   5.530   4.928
 9551SOL    HW129552   1.403   5.465   5.003
 9551SOL    HW229553   1.391   5.481   4.841
 9552SOL     OW29554   6.697   5.555   2.980
 9552SOL    HW129555   6.632   5.501   3.034
 9552SOL    HW229556   6.688   5.531   2.883
 9553SOL     OW29557   5.615   4.532   6.830
 9553SOL    HW129558   5.695   4.554   6.885
 9553SOL    HW229559   5.642   4.523   6.734
 9554SOL     OW29560   1.706   2.288   1.866
 9554SOL    HW129561   1.795   2.310   1.826
 9554SOL    HW229562   1.719   2.231   1.947
 9555SOL     OW29563   6.902   2.837   6.508
 9555SOL    HW129564   6.902   2.890   6.423
 9555SOL    HW229565   6.824   2.775   6.509
 9556SOL     OW29566   6.611   0.496   0.981
 9556SOL    HW129567   6.616   0.402   1.014
 9556SOL    HW229568   6.516   0.519   0.961
 9557SOL     OW29569   5.202   1.781   1.811
 9557SOL    HW129570   5.139   1.710   1.777
 9557SOL    HW229571   5.199   1.860   1.749
 9558SOL     OW29572   6.857   3.987   1.053
 9558SOL    HW129573   6.866   4.066   0.992
 9558SOL    HW229574   6.787   4.005   1.122
 9559SOL     OW29575   0.315   4.546   2.839
 9559SOL    HW129576   0.307   4.489   2.920
 9559SOL    HW229577   0.317   4.488   2.757
 9560SOL     OW29578   3.937   1.802   5.728
 9560SOL    HW129579   3.975   1.889   5.760
 9560SOL    HW229580   3.990   1.726   5.766
 9561SOL     OW29581   3.582   4.985   0.008
 9561SOL    HW129582   3.661   4.985   0.070
 9561SOL    HW229583   3.526   5.066   0.025
 9562SOL     OW29584   6.431   5.749   3.956
 9562SOL    HW129585   6.449   5.708   3.866
 9562SOL    HW229586   6.484   5.833   3.966
 9563SOL     OW29587   0.908   6.995   6.092
 9563SOL    HW129588   0.996   0.017   6.071
 9563SOL    HW229589   0.839   0.048   6.101
 9564SOL     OW29590   0.888   0.524   5.939
 9564SOL    HW129591   0.824   0.553   5.868
 9564SOL    HW229592   0.939   0.603   5.973
 9565SOL     OW29593   2.888   5.768   5.058
 9565SOL    HW129594   2.951   5.721   5.120
 9565SOL    HW229595   2.795   5.764   5.095
 9566SOL     OW29596   2.537   5.934   4.922
 9566SOL    HW129597   2.607   5.963   4.856
 9566SOL    HW229598   2.532   5.834   4.923
 9567SOL     OW29599   5.848   5.334   4.574
 9567SOL    HW129600   5.789   5.264   4.534
 9567SOL    HW229601   5.804   5.423   4.568
 9568SOL     OW29602   5.699   3.338   5.367
 9568SOL    HW129603   5.665   3.244   5.379
 9568SOL    HW229604   5.677   3.392   5.448
 9569SOL     OW29605   5.206   6.827   1.783
 9569SOL    HW129606   5.155   6.802   1.866
 9569SOL    HW229607   5.285   6.767   1.773
 9570SOL     OW29608   0.577   2.613   6.794
 9570SOL    HW129609   0.670   2.637   6.770
 9570SOL    HW229610   0.522   2.604   6.711
 9571SOL     OW29611   3.959   1.652   0.325
 9571SOL    HW129612   3.942   1.744   0.291
 9571SOL    HW229613   4.056   1.629   0.313
 9572SOL     OW29614   0.847   3.713   0.933
 9572SOL    HW129615   0.946   3.703   0.928
 9572SOL    HW229616   0.822   3.806   0.906
 9573SOL     OW29617   5.111   2.271   1.843
 9573SOL    HW129618   5.184   2.203   1.831
 9573SOL    HW229619   5.025   2.233   1.810
 9574SOL     OW29620   2.626   1.688   4.005
 9574SOL    HW129621   2.618   1.697   3.906
 9574SOL    HW229622   2.638   1.592   4.029
 9575SOL     OW29623   3.276   1.361   2.727
 9575SOL    HW129624   3.232   1.439   2.683
 9575SOL    HW229625   3.336   1.393   2.801
 9576SOL     OW29626   4.158   3.349   5.997
 9576SOL    HW129627   4.096   3.427   6.009
 9576SOL    HW229628   4.189   3.318   6.087
 9577SOL     OW29629   0.352   5.437   3.646
 9577SOL    HW129630   0.273   5.395   3.691
 9577SOL    HW229631   0.414   5.366   3.615
 9578SOL     OW29632   6.718   4.299   1.405
 9578SOL    HW129633   6.710   4.211   1.357
 9578SOL    HW229634   6.795   4.295   1.470
 9579SOL     OW29635   1.518   4.343   2.868
 9579SOL    HW129636   1.528   4.388   2.957
 9579SOL    HW229637   1.522   4.244   2.881
 9580SOL     OW29638   4.069   4.043   5.160
 9580SOL    HW129639   4.112   3.954   5.176
 9580SOL    HW229640   3.988   4.031   5.103
 9581SOL     OW29641   1.295   6.913   6.250
 9581SOL    HW129642   1.207   6.868   6.235
 9581SOL    HW229643   1.351   6.905   6.168
 9582SOL     OW29644   4.053   6.045   3.465
 9582SOL    HW129645   4.006   6.051   3.553
 9582SOL    HW229646   4.139   6.095   3.470
 9583SOL     OW29647   1.314   4.761   2.202
 9583SOL    HW129648   1.281   4.809   2.283
 9583SOL    HW229649   1.344   4.828   2.134
 9584SOL     OW29650   5.438   3.899   7.001
 9584SOL    HW129651   5.379   3.826   6.967
 9584SOL    HW229652   5.488   3.941   6.925
 9585SOL     OW29653   5.841   1.320   3.169
 9585SOL    HW129654   5.843   1.283   3.262
 9585SOL    HW229655   5.746   1.327   3.137
 9586SOL     OW29656   4.724   4.320   2.572
 9586SOL    HW129657   4.658   4.375   2.624
 9586SOL    HW229658   4.707   4.331   2.475
 9587SOL     OW29659   4.313   6.323   1.651
 9587SOL    HW129660   4.396   6.368   1.684
 9587SOL    HW229661   4.274   6.375   1.575
 9588SOL     OW29662   5.875   1.295   3.714
 9588SOL    HW129663   5.857   1.272   3.618
 9588SOL    HW229664   5.968   1.268   3.738
 9589SOL     OW29665   4.057   1.867   5.230
 9589SOL    HW129666   4.082   1.772   5.249
 9589SOL    HW229667   3.958   1.878   5.238
 9590SOL     OW29668   0.075   4.922   4.579
 9590SOL    HW129669   0.033   4.900   4.667
 9590SOL    HW229670   0.172   4.897   4.581
 9591SOL     OW29671   6.729   4.446   2.660
 9591SOL    HW129672   6.703   4.396   2.577
 9591SOL    HW229673   6.827   4.465   2.658
 9592SOL     OW29674   3.976   5.293   0.184
 9592SOL    HW129675   3.893   5.290   0.240
 9592SOL    HW229676   4.044   5.350   0.228
 9593SOL     OW29677   1.940   2.230   3.664
 9593SOL    HW129678   1.953   2.297   3.738
 9593SOL    HW229679   1.845   2.234   3.633
 9594SOL     OW29680   5.657   0.095   0.974
 9594SOL    HW129681   5.607   0.158   0.915
 9594SOL    HW229682   5.736   0.143   1.014
 9595SOL     OW29683   2.397   5.134   5.508
 9595SOL    HW129684   2.309   5.167   5.542
 9595SOL    HW229685   2.427   5.056   5.562
 9596SOL     OW29686   5.519   5.006   2.231
 9596SOL    HW129687   5.442   4.985   2.291
 9596SOL    HW229688   5.601   4.957   2.262
 9597SOL     OW29689   1.988   4.289   1.852
 9597SOL    HW129690   1.943   4.281   1.763
 9597SOL    HW229691   1.933   4.243   1.922
 9598SOL     OW29692   0.910   6.078   5.511
 9598SOL    HW129693   0.964   6.152   5.472
 9598SOL    HW229694   0.814   6.107   5.516
 9599SOL     OW29695   3.551   1.972   5.580
 9599SOL    HW129696   3.502   2.037   5.522
 9599SOL    HW229697   3.639   1.950   5.539
 9600SOL     OW29698   1.325   5.911   6.965
 9600SOL    HW129699   1.240   5.959   6.941
 9600SOL    HW229700   1.393   5.927   6.894
 9601SOL     OW29701   1.497   6.897   4.918
 9601SOL    HW129702   1.513   6.799   4.931
 9601SOL    HW229703   1.412   6.910   4.868
 9602SOL     OW29704   1.199   5.904   6.354
 9602SOL    HW129705   1.183   5.870   6.447
 9602SOL    HW229706   1.147   5.848   6.289
 9603SOL     OW29707   1.182   5.276   1.918
 9603SOL    HW129708   1.130   5.201   1.958
 9603SOL    HW229709   1.206   5.342   1.989
 9604SOL     OW29710   6.957   0.464   6.232
 9604SOL    HW129711   6.870   0.512   6.221
 9604SOL    HW229712   7.012   0.475   6.150
 9605SOL     OW29713   3.921   4.584   0.933
 9605SOL    HW129714   3.921   4.506   0.996
 9605SOL    HW229715   3.831   4.591   0.890
 9606SOL     OW29716   6.889   1.616   5.034
 9606SOL    HW129717   6.964   1.608   5.100
 9606SOL    HW229718   6.916   1.571   4.948
 9607SOL     OW29719   6.774   2.623   3.648
 9607SOL    HW129720   6.676   2.618   3.667
 9607SOL    HW229721   6.825   2.575   3.719
 9608SOL     OW29722   6.036   0.752   1.477
 9608SOL    HW129723   6.054   0.663   1.433
 9608SOL    HW229724   6.086   0.823   1.428
 9609SOL     OW29725   1.293   2.218   4.443
 9609SOL    HW129726   1.377   2.271   4.450
 9609SOL    HW229727   1.288   2.152   4.518
 9610SOL     OW29728   5.324   0.786   5.680
 9610SOL    HW129729   5.353   0.879   5.659
 9610SOL    HW229730   5.367   0.722   5.615
 9611SOL     OW29731   4.734   5.738   1.513
 9611SOL    HW129732   4.810   5.699   1.565
 9611SOL    HW229733   4.649   5.696   1.542
 9612SOL     OW29734   5.339   4.007   3.830
 9612SOL    HW129735   5.434   4.034   3.816
 9612SOL    HW229736   5.279   4.077   3.790
 9613SOL     OW29737   5.350   0.689   5.057
 9613SOL    HW129738   5.401   0.750   4.996
 9613SOL    HW229739   5.405   0.609   5.079
 9614SOL     OW29740   3.011   2.257   0.642
 9614SOL    HW129741   2.945   2.283   0.572
 9614SOL    HW229742   2.982   2.293   0.731
 9615SOL     OW29743   6.602   6.128   3.377
 9615SOL    HW129744   6.589   6.209   3.319
 9615SOL    HW229745   6.662   6.063   3.331
 9616SOL     OW29746   0.439   2.190   1.218
 9616SOL    HW129747   0.503   2.264   1.240
 9616SOL    HW229748   0.444   2.169   1.121
 9617SOL     OW29749   0.175   3.309   3.727
 9617SOL    HW129750   0.116   3.361   3.665
 9617SOL    HW229751   0.176   3.213   3.699
 9618SOL     OW29752   5.101   3.960   2.365
 9618SOL    HW129753   5.135   4.005   2.282
 9618SOL    HW229754   5.019   4.008   2.397
 9619SOL     OW29755   1.309   0.757   1.031
 9619SOL    HW129756   1.395   0.793   0.994
 9619SOL    HW229757   1.286   0.805   1.116
 9620SOL     OW29758   4.382   1.069   6.449
 9620SOL    HW129759   4.344   1.048   6.539
 9620SOL    HW229760   4.308   1.087   6.385
 9621SOL     OW29761   6.641   1.285   1.311
 9621SOL    HW129762   6.565   1.291   1.376
 9621SOL    HW229763   6.728   1.293   1.360
 9622SOL     OW29764   6.656   6.429   4.712
 9622SOL    HW129765   6.584   6.459   4.648
 9622SOL    HW229766   6.745   6.451   4.673
 9623SOL     OW29767   2.223   6.170   6.226
 9623SOL    HW129768   2.164   6.232   6.276
 9623SOL    HW229769   2.186   6.077   6.230
 9624SOL     OW29770   4.352   4.669   6.830
 9624SOL    HW129771   4.375   4.731   6.905
 9624SOL    HW229772   4.262   4.692   6.793
 9625SOL     OW29773   5.335   4.561   6.021
 9625SOL    HW129774   5.294   4.652   6.025
 9625SOL    HW229775   5.285   4.499   6.081
 9626SOL     OW29776   2.615   2.858   6.701
 9626SOL    HW129777   2.539   2.917   6.727
 9626SOL    HW229778   2.614   2.845   6.602
 9627SOL     OW29779   6.763   5.969   0.436
 9627SOL    HW129780   6.799   6.052   0.394
 9627SOL    HW229781   6.693   5.994   0.504
 9628SOL     OW29782   5.898   1.713   5.158
 9628SOL    HW129783   5.826   1.643   5.164
 9628SOL    HW229784   5.952   1.712   5.242
 9629SOL     OW29785   0.443   5.330   4.064
 9629SOL    HW129786   0.498   5.375   4.135
 9629SOL    HW229787   0.504   5.280   4.002
 9630SOL     OW29788   6.117   0.357   6.260
 9630SOL    HW129789   6.139   0.394   6.170
 9630SOL    HW229790   6.146   0.261   6.265
 9631SOL     OW29791   5.132   5.768   0.454
 9631SOL    HW129792   5.045   5.748   0.499
 9631SOL    HW229793   5.148   5.866   0.454
 9632SOL     OW29794   3.147   5.289   2.579
 9632SOL    HW129795   3.239   5.298   2.618
 9632SOL    HW229796   3.153   5.289   2.479
 9633SOL     OW29797   3.477   3.110   5.198
 9633SOL    HW129798   3.389   3.083   5.238
 9633SOL    HW229799   3.548   3.107   5.269
 9634SOL     OW29800   6.241   4.711   2.515
 9634SOL    HW129801   6.230   4.679   2.421
 9634SOL    HW229802   6.260   4.809   2.515
 9635SOL     OW29803   0.611   5.449   4.217
 9635SOL    HW129804   0.669   5.411   4.289
 9635SOL    HW229805   0.621   5.549   4.216
 9636SOL     OW29806   5.207   3.407   3.902
 9636SOL    HW129807   5.274   3.447   3.964
 9636SOL    HW229808   5.188   3.313   3.931
 9637SOL     OW29809   2.993   2.450   6.236
 9637SOL    HW129810   3.036   2.476   6.322
 9637SOL    HW229811   2.913   2.507   6.219
 9638SOL     OW29812   0.427   4.455   5.615
 9638SOL    HW129813   0.399   4.510   5.693
 9638SOL    HW229814   0.486   4.510   5.555
 9639SOL     OW29815   5.113   2.817   1.219
 9639SOL    HW129816   5.104   2.719   1.235
 9639SOL    HW229817   5.022   2.858   1.214
 9640SOL     OW29818   3.122   0.089   3.374
 9640SOL    HW129819   3.048   0.036   3.333
 9640SOL    HW229820   3.121   0.076   3.473
 9641SOL     OW29821   0.783   2.453   4.657
 9641SOL    HW129822   0.845   2.430   4.583
 9641SOL    HW229823   0.704   2.503   4.621
 9642SOL     OW29824   0.606   2.948   5.470
 9642SOL    HW129825   0.685   2.964   5.412
 9642SOL    HW229826   0.633   2.956   5.566
 9643SOL     OW29827   6.094   5.448   4.569
 9643SOL    HW129828   6.109   5.520   4.637
 9643SOL    HW229829   6.011   5.397   4.592
 9644SOL     OW29830   0.502   4.475   3.655
 9644SOL    HW129831   0.422   4.416   3.659
 9644SOL    HW229832   0.566   4.450   3.728
 9645SOL     OW29833   1.208   4.837   0.155
 9645SOL    HW129834   1.114   4.856   0.127
 9645SOL    HW229835   1.241   4.910   0.215
 9646SOL     OW29836   2.777   4.879   0.729
 9646SOL    HW129837   2.724   4.796   0.749
 9646SOL    HW229838   2.765   4.945   0.803
 9647SOL     OW29839   5.665   6.964   2.938
 9647SOL    HW129840   5.685   6.872   2.973
 9647SOL    HW229841   5.747   7.002   2.894
 9648SOL     OW29842   3.517   2.595   1.016
 9648SOL    HW129843   3.448   2.548   0.961
 9648SOL    HW229844   3.582   2.527   1.052
 9649SOL     OW29845   0.090   6.028   0.769
 9649SOL    HW129846   0.093   6.041   0.869
 9649SOL    HW229847   0.145   5.949   0.744
 9650SOL     OW29848   0.572   5.240   4.760
 9650SOL    HW129849   0.648   5.262   4.700
 9650SOL    HW229850   0.539   5.147   4.740
 9651SOL     OW29851   4.424   1.296   6.754
 9651SOL    HW129852   4.455   1.343   6.837
 9651SOL    HW229853   4.327   1.319   6.738
 9652SOL     OW29854   6.926   3.568   0.676
 9652SOL    HW129855   6.955   3.654   0.634
 9652SOL    HW229856   6.826   3.563   0.677
 9653SOL     OW29857   5.277   3.817   5.361
 9653SOL    HW129858   5.264   3.885   5.433
 9653SOL    HW229859   5.359   3.839   5.309
 9654SOL     OW29860   3.986   3.441   4.524
 9654SOL    HW129861   3.998   3.522   4.467
 9654SOL    HW229862   4.031   3.455   4.612
 9655SOL     OW29863   4.919   0.045   0.986
 9655SOL    HW129864   4.829   0.008   1.012
 9655SOL    HW229865   4.906   0.119   0.921
 9656SOL     OW29866   5.781   4.544   5.956
 9656SOL    HW129867   5.702   4.506   6.003
 9656SOL    HW229868   5.790   4.642   5.977
 9657SOL     OW29869   4.923   5.210   3.014
 9657SOL    HW129870   4.975   5.276   3.069
 9657SOL    HW229871   4.964   5.119   3.025
 9658SOL     OW29872   5.367   0.882   2.820
 9658SOL    HW129873   5.436   0.922   2.760
 9658SOL    HW229874   5.409   0.855   2.906
 9659SOL     OW29875   3.393   2.668   0.480
 9659SOL    HW129876   3.347   2.599   0.423
 9659SOL    HW229877   3.356   2.664   0.573
 9660SOL     OW29878   2.847   0.011   1.428
 9660SOL    HW129879   2.772   6.968   1.450
 9660SOL    HW229880   2.898   6.994   1.350
 9661SOL     OW29881   4.156   3.540   2.281
 9661SOL    HW129882   4.104   3.455   2.286
 9661SOL    HW229883   4.161   3.582   2.371
 9662SOL     OW29884   4.147   0.786   4.999
 9662SOL    HW129885   4.203   0.842   5.061
 9662SOL    HW229886   4.060   0.765   5.043
 9663SOL     OW29887   1.283   5.798   2.760
 9663SOL    HW129888   1.250   5.854   2.684
 9663SOL    HW229889   1.353   5.849   2.811
 9664SOL     OW29890   2.283   4.642   3.504
 9664SOL    HW129891   2.188   4.636   3.534
 9664SOL    HW229892   2.290   4.709   3.430
 9665SOL     OW29893   6.103   4.022   6.336
 9665SOL    HW129894   6.037   3.988   6.402
 9665SOL    HW229895   6.168   3.950   6.313
 9666SOL     OW29896   5.087   3.952   0.669
 9666SOL    HW129897   5.072   3.959   0.570
 9666SOL    HW229898   5.026   4.015   0.716
 9667SOL     OW29899   5.857   6.283   6.663
 9667SOL    HW129900   5.778   6.330   6.621
 9667SOL    HW229901   5.856   6.187   6.637
 9668SOL     OW29902   2.479   0.009   0.088
 9668SOL    HW129903   2.500   6.932   0.075
 9668SOL    HW229904   2.381   0.022   0.100
 9669SOL     OW29905   3.676   0.190   0.429
 9669SOL    HW129906   3.606   0.182   0.499
 9669SOL    HW229907   3.709   0.099   0.404
 9670SOL     OW29908   0.950   6.865   2.160
 9670SOL    HW129909   1.043   6.901   2.165
 9670SOL    HW229910   0.917   6.872   2.065
 9671SOL     OW29911   0.896   6.448   6.172
 9671SOL    HW129912   0.800   6.473   6.182
 9671SOL    HW229913   0.916   6.369   6.230
 9672SOL     OW29914   0.980   4.559   4.658
 9672SOL    HW129915   0.886   4.589   4.641
 9672SOL    HW229916   1.042   4.608   4.598
 9673SOL     OW29917   2.147   3.109   5.761
 9673SOL    HW129918   2.194   3.181   5.709
 9673SOL    HW229919   2.052   3.134   5.775
 9674SOL     OW29920   1.505   0.054   3.677
 9674SOL    HW129921   1.558   0.080   3.596
 9674SOL    HW229922   1.542   6.989   3.715
 9675SOL     OW29923   5.921   4.093   5.878
 9675SOL    HW129924   5.969   4.120   5.961
 9675SOL    HW229925   5.886   4.000   5.889
 9676SOL     OW29926   1.049   3.165   6.025
 9676SOL    HW129927   1.014   3.166   5.932
 9676SOL    HW229928   0.975   3.188   6.089
 9677SOL     OW29929   0.482   4.792   2.614
 9677SOL    HW129930   0.530   4.796   2.702
 9677SOL    HW229931   0.466   4.697   2.589
 9678SOL     OW29932   4.535   2.748   6.017
 9678SOL    HW129933   4.491   2.801   6.090
 9678SOL    HW229934   4.465   2.716   5.954
 9679SOL     OW29935   1.210   1.189   4.429
 9679SOL    HW129936   1.175   1.146   4.346
 9679SOL    HW229937   1.284   1.134   4.467
 9680SOL     OW29938   4.556   0.211   1.878
 9680SOL    HW129939   4.510   0.296   1.904
 9680SOL    HW229940   4.591   0.166   1.961
 9681SOL     OW29941   0.462   3.297   1.557
 9681SOL    HW129942   0.382   3.350   1.529
 9681SOL    HW229943   0.523   3.355   1.612
 9682SOL     OW29944   3.713   6.355   5.275
 9682SOL    HW129945   3.807   6.383   5.295
 9682SOL    HW229946   3.715   6.284   5.204
 9683SOL     OW29947   3.193   5.747   3.510
 9683SOL    HW129948   3.180   5.707   3.600
 9683SOL    HW229949   3.289   5.737   3.483
 9684SOL     OW29950   1.033   2.791   6.448
 9684SOL    HW129951   1.031   2.831   6.356
 9684SOL    HW229952   1.015   2.862   6.516
 9685SOL     OW29953   3.588   4.323   1.783
 9685SOL    HW129954   3.584   4.422   1.792
 9685SOL    HW229955   3.511   4.291   1.727
 9686SOL     OW29956   0.693   1.906   5.949
 9686SOL    HW129957   0.721   1.948   5.863
 9686SOL    HW229958   0.630   1.830   5.930
 9687SOL     OW29959   5.413   0.867   3.779
 9687SOL    HW129960   5.409   0.965   3.759
 9687SOL    HW229961   5.370   0.849   3.867
 9688SOL     OW29962   0.434   5.078   2.442
 9688SOL    HW129963   0.350   5.056   2.492
 9688SOL    HW229964   0.454   5.175   2.450
 9689SOL     OW29965   2.027   5.687   1.408
 9689SOL    HW129966   2.095   5.731   1.466
 9689SOL    HW229967   2.069   5.612   1.358
 9690SOL     OW29968   6.174   4.518   5.186
 9690SOL    HW129969   6.111   4.593   5.202
 9690SOL    HW229970   6.252   4.526   5.248
 9691SOL     OW29971   3.786   3.281   2.183
 9691SOL    HW129972   3.769   3.380   2.184
 9691SOL    HW229973   3.699   3.233   2.193
 9692SOL     OW29974   5.241   5.072   0.612
 9692SOL    HW129975   5.326   5.124   0.603
 9692SOL    HW229976   5.262   4.980   0.647
 9693SOL     OW29977   4.359   3.158   6.603
 9693SOL    HW129978   4.418   3.230   6.638
 9693SOL    HW229979   4.296   3.128   6.675
 9694SOL     OW29980   2.643   6.632   0.848
 9694SOL    HW129981   2.705   6.603   0.775
 9694SOL    HW229982   2.579   6.558   0.869
 9695SOL     OW29983   1.965   2.653   3.771
 9695SOL    HW129984   1.885   2.674   3.715
 9695SOL    HW229985   1.987   2.732   3.829
 9696SOL     OW29986   4.941   3.607   3.432
 9696SOL    HW129987   4.941   3.706   3.417
 9696SOL    HW229988   4.926   3.587   3.529
 9697SOL     OW29989   6.754   6.976   2.018
 9697SOL    HW129990   6.735   0.009   1.935
 9697SOL    HW229991   6.785   6.884   1.994
 9698SOL     OW29992   6.878   3.073   1.807
 9698SOL    HW129993   6.862   3.000   1.874
 9698SOL    HW229994   6.792   3.119   1.785
 9699SOL     OW29995   1.622   6.932   2.116
 9699SOL    HW129996   1.635   6.834   2.103
 9699SOL    HW229997   1.695   6.982   2.068
 9700SOL     OW29998   6.413   0.274   5.677
 9700SOL    HW129999   6.387   0.218   5.599
 9700SOL    HW230000   6.510   0.258   5.699
 9701SOL     OW30001   5.309   3.680   6.895
 9701SOL    HW130002   5.251   3.628   6.833
 9701SOL    HW230003   5.403   3.680   6.860
 9702SOL     OW30004   2.961   3.831   1.878
 9702SOL    HW130005   3.049   3.791   1.853
 9702SOL    HW230006   2.887   3.774   1.842
 9703SOL     OW30007   6.161   5.403   3.040
 9703SOL    HW130008   6.105   5.468   2.988
 9703SOL    HW230009   6.167   5.434   3.135
 9704SOL     OW30010   0.501   4.481   2.250
 9704SOL    HW130011   0.408   4.463   2.284
 9704SOL    HW230012   0.504   4.465   2.152
 9705SOL     OW30013   6.799   3.494   5.958
 9705SOL    HW130014   6.897   3.481   5.969
 9705SOL    HW230015   6.767   3.442   5.878
 9706SOL     OW30016   1.061   6.392   1.730
 9706SOL    HW130017   0.971   6.433   1.743
 9706SOL    HW230018   1.126   6.433   1.793
 9707SOL     OW30019   1.203   5.108   2.291
 9707SOL    HW130020   1.206   5.016   2.331
 9707SOL    HW230021   1.276   5.164   2.330
 9708SOL     OW30022   2.533   1.190   1.992
 9708SOL    HW130023   2.548   1.112   2.054
 9708SOL    HW230024   2.608   1.255   2.003
 9709SOL     OW30025   4.609   1.649   2.076
 9709SOL    HW130026   4.662   1.671   1.994
 9709SOL    HW230027   4.568   1.558   2.064
 9710SOL     OW30028   4.597   4.370   4.343
 9710SOL    HW130029   4.625   4.292   4.286
 9710SOL    HW230030   4.537   4.429   4.289
 9711SOL     OW30031   2.994   0.423   6.995
 9711SOL    HW130032   2.933   0.350   6.964
 9711SOL    HW230033   2.941   0.508   7.007
 9712SOL     OW30034   4.892   6.738   5.412
 9712SOL    HW130035   4.813   6.709   5.466
 9712SOL    HW230036   4.862   6.804   5.343
 9713SOL     OW30037   0.919   0.671   2.809
 9713SOL    HW130038   0.908   0.754   2.863
 9713SOL    HW230039   0.844   0.664   2.743
 9714SOL     OW30040   2.256   2.772   4.033
 9714SOL    HW130041   2.209   2.801   4.117
 9714SOL    HW230042   2.324   2.701   4.056
 9715SOL     OW30043   0.244   2.000   6.315
 9715SOL    HW130044   0.152   1.967   6.297
 9715SOL    HW230045   0.309   1.925   6.307
 9716SOL     OW30046   1.927   6.685   0.734
 9716SOL    HW130047   1.950   6.764   0.792
 9716SOL    HW230048   1.828   6.671   0.735
 9717SOL     OW30049   4.331   2.205   6.121
 9717SOL    HW130050   4.400   2.175   6.187
 9717SOL    HW230051   4.240   2.198   6.163
 9718SOL     OW30052   3.314   1.894   6.356
 9718SOL    HW130053   3.275   1.829   6.421
 9718SOL    HW230054   3.267   1.982   6.365
 9719SOL     OW30055   3.883   0.004   5.238
 9719SOL    HW130056   3.864   6.957   5.311
 9719SOL    HW230057   3.799   0.021   5.186
 9720SOL     OW30058   1.781   2.997   2.225
 9720SOL    HW130059   1.855   2.983   2.290
 9720SOL    HW230060   1.768   2.913   2.171
 9721SOL     OW30061   0.658   2.363   1.356
 9721SOL    HW130062   0.640   2.305   1.436
 9721SOL    HW230063   0.722   2.317   1.295
 9722SOL     OW30064   3.396   2.808   5.473
 9722SOL    HW130065   3.377   2.822   5.376
 9722SOL    HW230066   3.491   2.777   5.485
 9723SOL     OW30067   5.739   0.185   5.087
 9723SOL    HW130068   5.798   0.245   5.033
 9723SOL    HW230069   5.778   0.173   5.179
 9724SOL     OW30070   2.179   5.298   1.602
 9724SOL    HW130071   2.107   5.252   1.654
 9724SOL    HW230072   2.215   5.235   1.533
 9725SOL     OW30073   5.557   5.490   3.893
 9725SOL    HW130074   5.458   5.502   3.902
 9725SOL    HW230075   5.604   5.557   3.950
 9726SOL     OW30076   6.967   0.180   3.345
 9726SOL    HW130077   7.001   0.087   3.333
 9726SOL    HW230078   6.893   0.197   3.280
 9727SOL     OW30079   6.671   2.583   1.690
 9727SOL    HW130080   6.694   2.662   1.633
 9727SOL    HW230081   6.574   2.587   1.714
 9728SOL     OW30082   6.267   1.668   4.863
 9728SOL    HW130083   6.292   1.571   4.861
 9728SOL    HW230084   6.202   1.686   4.789
 9729SOL     OW30085   0.059   3.729   2.704
 9729SOL    HW130086   0.046   3.806   2.767
 9729SOL    HW230087   7.019   3.741   2.624
 9730SOL     OW30088   0.703   5.709   3.529
 9730SOL    HW130089   0.777   5.721   3.595
 9730SOL    HW230090   0.712   5.620   3.485
 9731SOL     OW30091   6.800   1.714   1.335
 9731SOL    HW130092   6.892   1.711   1.294
 9731SOL    HW230093   6.732   1.695   1.264
 9732SOL     OW30094   0.313   2.951   3.382
 9732SOL    HW130095   0.248   2.964   3.307
 9732SOL    HW230096   0.298   2.862   3.425
 9733SOL     OW30097   5.746   5.603   0.733
 9733SOL    HW130098   5.699   5.685   0.698
 9733SOL    HW230099   5.724   5.590   0.829
 9734SOL     OW30100   3.918   3.658   0.012
 9734SOL    HW130101   3.936   3.678   6.935
 9734SOL    HW230102   3.820   3.641   0.025
 9735SOL     OW30103   0.880   1.575   0.408
 9735SOL    HW130104   0.912   1.625   0.488
 9735SOL    HW230105   0.916   1.617   0.325
 9736SOL     OW30106   4.979   1.967   5.495
 9736SOL    HW130107   4.930   1.894   5.543
 9736SOL    HW230108   5.077   1.953   5.504
 9737SOL     OW30109   5.247   3.320   4.849
 9737SOL    HW130110   5.265   3.416   4.829
 9737SOL    HW230111   5.172   3.287   4.792
 9738SOL     OW30112   2.807   6.001   1.362
 9738SOL    HW130113   2.781   6.079   1.420
 9738SOL    HW230114   2.906   5.997   1.355
 9739SOL     OW30115   5.548   6.589   0.296
 9739SOL    HW130116   5.592   6.675   0.272
 9739SOL    HW230117   5.590   6.552   0.379
 9740SOL     OW30118   6.721   1.263   0.817
 9740SOL    HW130119   6.709   1.275   0.718
 9740SOL    HW230120   6.811   1.295   0.844
 9741SOL     OW30121   2.188   2.828   3.064
 9741SOL    HW130122   2.224   2.789   3.148
 9741SOL    HW230123   2.186   2.928   3.071
 9742SOL     OW30124   4.179   0.718   6.809
 9742SOL    HW130125   4.166   0.620   6.792
 9742SOL    HW230126   4.102   0.752   6.864
 9743SOL     OW30127   6.828   3.754   4.566
 9743SOL    HW130128   6.759   3.701   4.517
 9743SOL    HW230129   6.917   3.739   4.524
 9744SOL     OW30130   1.639   2.486   2.042
 9744SOL    HW130131   1.642   2.411   1.976
 9744SOL    HW230132   1.686   2.459   2.126
 9745SOL     OW30133   1.427   6.403   5.878
 9745SOL    HW130134   1.331   6.379   5.894
 9745SOL    HW230135   1.480   6.320   5.860
 9746SOL     OW30136   3.607   6.327   6.238
 9746SOL    HW130137   3.548   6.249   6.218
 9746SOL    HW230138   3.619   6.335   6.337
 9747SOL     OW30139   4.107   1.743   3.296
 9747SOL    HW130140   4.031   1.801   3.267
 9747SOL    HW230141   4.166   1.793   3.359
 9748SOL     OW30142   0.252   2.058   3.154
 9748SOL    HW130143   0.281   2.041   3.249
 9748SOL    HW230144   0.315   2.124   3.112
 9749SOL     OW30145   6.959   0.366   1.151
 9749SOL    HW130146   6.871   0.324   1.174
 9749SOL    HW230147   6.944   0.453   1.105
 9750SOL     OW30148   5.891   1.967   4.925
 9750SOL    HW130149   5.873   2.000   5.017
 9750SOL    HW230150   5.898   1.868   4.925
 9751SOL     OW30151   2.884   6.076   0.933
 9751SOL    HW130152   2.981   6.074   0.912
 9751SOL    HW230153   2.859   5.992   0.982
 9752SOL     OW30154   3.710   3.894   1.027
 9752SOL    HW130155   3.741   3.802   1.003
 9752SOL    HW230156   3.761   3.927   1.107
 9753SOL     OW30157   6.182   6.366   3.165
 9753SOL    HW130158   6.213   6.384   3.258
 9753SOL    HW230159   6.255   6.385   3.100
 9754SOL     OW30160   3.325   0.573   1.649
 9754SOL    HW130161   3.260   0.537   1.716
 9754SOL    HW230162   3.275   0.613   1.572
 9755SOL     OW30163   2.710   4.018   1.159
 9755SOL    HW130164   2.753   4.093   1.210
 9755SOL    HW230165   2.778   3.949   1.138
 9756SOL     OW30166   5.146   6.922   6.767
 9756SOL    HW130167   5.088   6.883   6.839
 9756SOL    HW230168   5.240   6.892   6.780
 9757SOL     OW30169   5.012   4.087   4.163
 9757SOL    HW130170   4.987   4.003   4.212
 9757SOL    HW230171   5.056   4.151   4.226
 9758SOL     OW30172   3.723   1.099   1.939
 9758SOL    HW130173   3.725   1.074   1.842
 9758SOL    HW230174   3.766   1.027   1.993
 9759SOL     OW30175   6.951   2.141   1.090
 9759SOL    HW130176   0.001   2.136   1.163
 9759SOL    HW230177   6.874   2.196   1.121
 9760SOL     OW30178   4.848   0.513   6.500
 9760SOL    HW130179   4.865   0.517   6.402
 9760SOL    HW230180   4.877   0.598   6.543
 9761SOL     OW30181   0.979   1.897   2.017
 9761SOL    HW130182   0.990   1.977   2.076
 9761SOL    HW230183   1.068   1.868   1.982
 9762SOL     OW30184   4.010   0.852   6.030
 9762SOL    HW130185   3.987   0.820   6.121
 9762SOL    HW230186   4.106   0.829   6.010
 9763SOL     OW30187   5.893   2.026   1.021
 9763SOL    HW130188   5.917   1.960   0.950
 9763SOL    HW230189   5.863   1.977   1.103
 9764SOL     OW30190   0.355   2.372   3.282
 9764SOL    HW130191   0.255   2.372   3.272
 9764SOL    HW230192   0.394   2.450   3.233
 9765SOL     OW30193   6.407   2.160   1.419
 9765SOL    HW130194   6.322   2.208   1.398
 9765SOL    HW230195   6.484   2.209   1.377
 9766SOL     OW30196   0.232   2.573   2.877
 9766SOL    HW130197   0.175   2.630   2.817
 9766SOL    HW230198   0.310   2.538   2.825
 9767SOL     OW30199   3.922   1.781   4.698
 9767SOL    HW130200   3.959   1.772   4.790
 9767SOL    HW230201   3.919   1.877   4.672
 9768SOL     OW30202   5.011   1.899   6.639
 9768SOL    HW130203   4.972   1.834   6.573
 9768SOL    HW230204   4.978   1.877   6.730
 9769SOL     OW30205   4.042   1.085   5.369
 9769SOL    HW130206   3.989   1.168   5.387
 9769SOL    HW230207   4.123   1.109   5.315
 9770SOL     OW30208   1.967   3.168   5.250
 9770SOL    HW130209   1.974   3.266   5.232
 9770SOL    HW230210   2.026   3.118   5.186
 9771SOL     OW30211   3.267   0.914   1.927
 9771SOL    HW130212   3.296   1.002   1.964
 9771SOL    HW230213   3.315   0.840   1.975
 9772SOL     OW30214   0.080   0.516   2.035
 9772SOL    HW130215   0.125   0.579   2.098
 9772SOL    HW230216   0.087   0.423   2.070
 9773SOL     OW30217   5.234   6.083   1.804
 9773SOL    HW130218   5.310   6.022   1.827
 9773SOL    HW230219   5.196   6.057   1.716
 9774SOL     OW30220   1.843   5.797   4.664
 9774SOL    HW130221   1.771   5.755   4.720
 9774SOL    HW230222   1.921   5.819   4.722
 9775SOL     OW30223   1.444   1.087   3.330
 9775SOL    HW130224   1.424   1.024   3.404
 9775SOL    HW230225   1.421   1.045   3.242
 9776SOL     OW30226   1.629   5.924   1.536
 9776SOL    HW130227   1.580   5.839   1.519
 9776SOL    HW230228   1.691   5.912   1.614
 9777SOL     OW30229   4.479   1.668   4.965
 9777SOL    HW130230   4.440   1.686   5.055
 9777SOL    HW230231   4.535   1.746   4.936
 9778SOL     OW30232   1.284   3.777   2.888
 9778SOL    HW130233   1.359   3.804   2.948
 9778SOL    HW230234   1.238   3.697   2.925
 9779SOL     OW30235   2.508   1.038   2.979
 9779SOL    HW130236   2.413   1.006   2.980
 9779SOL    HW230237   2.543   1.040   3.073
 9780SOL     OW30238   1.047   1.700   0.601
 9780SOL    HW130239   1.142   1.709   0.572
 9780SOL    HW230240   1.001   1.789   0.594
 9781SOL     OW30241   1.211   1.366   2.285
 9781SOL    HW130242   1.217   1.333   2.379
 9781SOL    HW230243   1.278   1.320   2.229
 9782SOL     OW30244   6.888   2.507   0.416
 9782SOL    HW130245   6.875   2.579   0.349
 9782SOL    HW230246   6.958   2.535   0.482
 9783SOL     OW30247   5.017   1.787   2.397
 9783SOL    HW130248   5.006   1.701   2.348
 9783SOL    HW230249   5.097   1.782   2.456
 9784SOL     OW30250   1.970   1.300   0.554
 9784SOL    HW130251   1.934   1.285   0.462
 9784SOL    HW230252   2.014   1.389   0.559
 9785SOL     OW30253   1.343   3.507   4.568
 9785SOL    HW130254   1.255   3.547   4.542
 9785SOL    HW230255   1.416   3.573   4.550
 9786SOL     OW30256   2.991   4.503   6.599
 9786SOL    HW130257   2.911   4.454   6.634
 9786SOL    HW230258   2.989   4.506   6.499
 9787SOL     OW30259   2.535   3.292   0.564
 9787SOL    HW130260   2.514   3.385   0.594
 9787SOL    HW230261   2.619   3.260   0.609
 9788SOL     OW30262   2.892   6.824   2.482
 9788SOL    HW130263   2.828   6.752   2.509
 9788SOL    HW230264   2.942   6.857   2.562
 9789SOL     OW30265   4.486   2.025   0.508
 9789SOL    HW130266   4.583   2.047   0.512
 9789SOL    HW230267   4.442   2.047   0.595
 9790SOL     OW30268   4.690   5.769   5.126
 9790SOL    HW130269   4.734   5.725   5.204
 9790SOL    HW230270   4.608   5.816   5.156
 9791SOL     OW30271   0.464   1.150   1.668
 9791SOL    HW130272   0.437   1.246   1.662
 9791SOL    HW230273   0.557   1.139   1.636
 9792SOL     OW30274   3.158   3.754   0.668
 9792SOL    HW130275   3.091   3.701   0.616
 9792SOL    HW230276   3.123   3.847   0.682
 9793SOL     OW30277   5.917   1.240   1.743
 9793SOL    HW130278   5.983   1.185   1.794
 9793SOL    HW230279   5.909   1.331   1.785
 9794SOL     OW30280   4.263   5.802   4.543
 9794SOL    HW130281   4.179   5.855   4.556
 9794SOL    HW230282   4.294   5.767   4.632
 9795SOL     OW30283   2.107   4.541   3.277
 9795SOL    HW130284   2.200   4.514   3.302
 9795SOL    HW230285   2.066   4.595   3.351
 9796SOL     OW30286   3.603   3.523   4.628
 9796SOL    HW130287   3.621   3.565   4.539
 9796SOL    HW230288   3.513   3.480   4.627
 9797SOL     OW30289   3.485   5.530   6.636
 9797SOL    HW130290   3.540   5.611   6.615
 9797SOL    HW230291   3.474   5.522   6.735
 9798SOL     OW30292   0.124   4.058   6.276
 9798SOL    HW130293   0.097   4.029   6.184
 9798SOL    HW230294   0.042   4.075   6.330
 9799SOL     OW30295   3.997   6.348   6.877
 9799SOL    HW130296   4.008   6.434   6.828
 9799SOL    HW230297   3.928   6.292   6.832
 9800SOL     OW30298   6.763   4.495   5.028
 9800SOL    HW130299   6.704   4.522   4.951
 9800SOL    HW230300   6.739   4.402   5.056
 9801SOL     OW30301   4.279   0.496   0.495
 9801SOL    HW130302   4.199   0.437   0.488
 9801SOL    HW230303   4.320   0.485   0.586
 9802SOL     OW30304   3.891   3.210   0.577
 9802SOL    HW130305   3.833   3.212   0.659
 9802SOL    HW230306   3.902   3.302   0.541
 9803SOL     OW30307   2.926   3.367   0.099
 9803SOL    HW130308   2.826   3.358   0.093
 9803SOL    HW230309   2.969   3.288   0.055
 9804SOL     OW30310   0.848   4.369   3.193
 9804SOL    HW130311   0.926   4.311   3.166
 9804SOL    HW230312   0.849   4.453   3.139
 9805SOL     OW30313   0.419   5.452   4.651
 9805SOL    HW130314   0.323   5.429   4.635
 9805SOL    HW230315   0.463   5.377   4.701
 9806SOL     OW30316   3.463   1.242   6.598
 9806SOL    HW130317   3.551   1.284   6.621
 9806SOL    HW230318   3.477   1.171   6.529
 9807SOL     OW30319   3.192   3.245   3.993
 9807SOL    HW130320   3.202   3.315   4.064
 9807SOL    HW230321   3.276   3.240   3.938
 9808SOL     OW30322   3.149   5.965   2.469
 9808SOL    HW130323   3.123   6.038   2.532
 9808SOL    HW230324   3.248   5.965   2.455
 9809SOL     OW30325   6.204   3.049   1.451
 9809SOL    HW130326   6.263   3.044   1.371
 9809SOL    HW230327   6.120   2.997   1.434
 9810SOL     OW30328   3.747   2.797   1.172
 9810SOL    HW130329   3.799   2.861   1.116
 9810SOL    HW230330   3.657   2.782   1.133
 9811SOL     OW30331   5.123   3.711   3.894
 9811SOL    HW130332   5.159   3.625   3.930
 9811SOL    HW230333   5.138   3.785   3.960
 9812SOL     OW30334   3.545   5.253   6.591
 9812SOL    HW130335   3.554   5.188   6.666
 9812SOL    HW230336   3.493   5.333   6.622
 9813SOL     OW30337   4.321   1.225   2.221
 9813SOL    HW130338   4.234   1.266   2.195
 9813SOL    HW230339   4.312   1.178   2.309
 9814SOL     OW30340   6.788   1.898   6.112
 9814SOL    HW130341   6.691   1.877   6.101
 9814SOL    HW230342   6.831   1.904   6.022
 9815SOL     OW30343   5.595   2.599   4.407
 9815SOL    HW130344   5.631   2.661   4.477
 9815SOL    HW230345   5.497   2.615   4.396
 9816SOL     OW30346   3.343   0.823   0.288
 9816SOL    HW130347   3.302   0.810   0.379
 9816SOL    HW230348   3.373   0.735   0.252
 9817SOL     OW30349   6.708   0.152   1.414
 9817SOL    HW130350   6.788   0.091   1.416
 9817SOL    HW230351   6.625   0.097   1.404
 9818SOL     OW30352   3.702   2.320   5.350
 9818SOL    HW130353   3.649   2.395   5.311
 9818SOL    HW230354   3.640   2.257   5.396
 9819SOL     OW30355   2.561   0.626   1.528
 9819SOL    HW130356   2.592   0.553   1.467
 9819SOL    HW230357   2.545   0.588   1.619
 9820SOL     OW30358   3.667   2.517   6.918
 9820SOL    HW130359   3.643   2.531   7.014
 9820SOL    HW230360   3.750   2.568   6.896
 9821SOL     OW30361   0.177   5.727   6.991
 9821SOL    HW130362   0.117   5.788   6.940
 9821SOL    HW230363   0.220   5.662   6.929
 9822SOL     OW30364   0.134   0.739   2.266
 9822SOL    HW130365   0.057   0.724   2.327
 9822SOL    HW230366   0.219   0.718   2.315
 9823SOL     OW30367   3.515   6.928   1.673
 9823SOL    HW130368   3.520   6.867   1.752
 9823SOL    HW230369   3.592   6.910   1.612
 9824SOL     OW30370   2.063   3.936   5.455
 9824SOL    HW130371   2.075   3.849   5.502
 9824SOL    HW230372   2.064   3.922   5.356
 9825SOL     OW30373   3.799   5.533   5.073
 9825SOL    HW130374   3.892   5.569   5.078
 9825SOL    HW230375   3.803   5.434   5.059
 9826SOL     OW30376   5.925   6.569   5.668
 9826SOL    HW130377   5.899   6.620   5.750
 9826SOL    HW230378   5.926   6.471   5.689
 9827SOL     OW30379   0.955   5.202   4.826
 9827SOL    HW130380   0.985   5.295   4.804
 9827SOL    HW230381   1.034   5.142   4.834
 9828SOL     OW30382   2.902   1.587   6.673
 9828SOL    HW130383   2.932   1.657   6.737
 9828SOL    HW230384   2.832   1.625   6.612
 9829SOL     OW30385   2.613   4.063   1.705
 9829SOL    HW130386   2.635   4.123   1.629
 9829SOL    HW230387   2.519   4.079   1.734
 9830SOL     OW30388   6.302   1.467   1.039
 9830SOL    HW130389   6.211   1.505   1.056
 9830SOL    HW230390   6.370   1.521   1.089
 9831SOL     OW30391   6.260   6.391   1.243
 9831SOL    HW130392   6.323   6.327   1.287
 9831SOL    HW230393   6.175   6.344   1.219
 9832SOL     OW30394   3.354   4.114   0.681
 9832SOL    HW130395   3.429   4.049   0.695
 9832SOL    HW230396   3.325   4.111   0.585
 9833SOL     OW30397   4.509   4.336   6.448
 9833SOL    HW130398   4.513   4.400   6.524
 9833SOL    HW230399   4.506   4.387   6.362
 9834SOL     OW30400   2.204   2.408   4.165
 9834SOL    HW130401   2.222   2.490   4.219
 9834SOL    HW230402   2.275   2.398   4.094
 9835SOL     OW30403   5.640   1.594   4.869
 9835SOL    HW130404   5.668   1.531   4.942
 9835SOL    HW230405   5.720   1.620   4.815
 9836SOL     OW30406   5.422   5.445   1.363
 9836SOL    HW130407   5.485   5.521   1.377
 9836SOL    HW230408   5.432   5.380   1.438
 9837SOL     OW30409   2.299   6.141   5.785
 9837SOL    HW130410   2.334   6.199   5.712
 9837SOL    HW230411   2.357   6.061   5.796
 9838SOL     OW30412   6.584   5.860   4.957
 9838SOL    HW130413   6.531   5.787   4.914
 9838SOL    HW230414   6.629   5.824   5.039
 9839SOL     OW30415   5.563   3.320   2.504
 9839SOL    HW130416   5.654   3.299   2.542
 9839SOL    HW230417   5.503   3.352   2.577
 9840SOL     OW30418   5.686   0.536   0.530
 9840SOL    HW130419   5.610   0.564   0.589
 9840SOL    HW230420   5.730   0.618   0.492
 9841SOL     OW30421   2.241   2.968   4.610
 9841SOL    HW130422   2.189   3.053   4.614
 9841SOL    HW230423   2.270   2.942   4.702
 9842SOL     OW30424   3.355   3.686   4.028
 9842SOL    HW130425   3.424   3.753   3.999
 9842SOL    HW230426   3.301   3.658   3.948
 9843SOL     OW30427   5.881   4.736   3.363
 9843SOL    HW130428   5.961   4.685   3.332
 9843SOL    HW230429   5.889   4.756   3.461
 9844SOL     OW30430   5.000   0.263   2.137
 9844SOL    HW130431   5.089   0.251   2.183
 9844SOL    HW230432   5.002   0.215   2.050
 9845SOL     OW30433   1.606   1.720   3.747
 9845SOL    HW130434   1.629   1.712   3.650
 9845SOL    HW230435   1.555   1.639   3.776
 9846SOL     OW30436   2.953   3.712   3.835
 9846SOL    HW130437   2.904   3.626   3.817
 9846SOL    HW230438   2.962   3.725   3.933
 9847SOL     OW30439   2.362   4.376   4.882
 9847SOL    HW130440   2.280   4.363   4.938
 9847SOL    HW230441   2.365   4.306   4.811
 9848SOL     OW30442   6.102   3.807   0.323
 9848SOL    HW130443   6.007   3.829   0.348
 9848SOL    HW230444   6.103   3.759   0.235
 9849SOL     OW30445   6.722   6.255   5.620
 9849SOL    HW130446   6.814   6.229   5.649
 9849SOL    HW230447   6.712   6.236   5.522
 9850SOL     OW30448   4.805   0.265   3.007
 9850SOL    HW130449   4.790   0.328   3.083
 9850SOL    HW230450   4.837   0.316   2.927
 9851SOL     OW30451   5.226   2.562   5.562
 9851SOL    HW130452   5.157   2.632   5.576
 9851SOL    HW230453   5.190   2.491   5.502
 9852SOL     OW30454   5.800   1.616   4.654
 9852SOL    HW130455   5.876   1.679   4.638
 9852SOL    HW230456   5.747   1.605   4.570
 9853SOL     OW30457   0.736   4.691   1.227
 9853SOL    HW130458   0.681   4.714   1.308
 9853SOL    HW230459   0.824   4.738   1.233
 9854SOL     OW30460   3.784   6.814   3.677
 9854SOL    HW130461   3.794   6.873   3.597
 9854SOL    HW230462   3.688   6.786   3.686
 9855SOL     OW30463   1.813   4.342   0.807
 9855SOL    HW130464   1.790   4.329   0.711
 9855SOL    HW230465   1.805   4.439   0.831
 9856SOL     OW30466   3.820   3.234   1.787
 9856SOL    HW130467   3.723   3.257   1.778
 9856SOL    HW230468   3.857   3.211   1.697
 9857SOL     OW30469   6.171   4.713   2.952
 9857SOL    HW130470   6.157   4.649   2.876
 9857SOL    HW230471   6.266   4.744   2.952
 9858SOL     OW30472   3.696   1.729   1.496
 9858SOL    HW130473   3.688   1.634   1.466
 9858SOL    HW230474   3.635   1.746   1.573
 9859SOL     OW30475   0.106   0.104   1.603
 9859SOL    HW130476   0.164   0.058   1.670
 9859SOL    HW230477   0.057   0.179   1.648
 9860SOL     OW30478   0.762   1.159   2.757
 9860SOL    HW130479   0.682   1.167   2.699
 9860SOL    HW230480   0.835   1.111   2.707
 9861SOL     OW30481   3.188   6.404   4.135
 9861SOL    HW130482   3.164   6.327   4.195
 9861SOL    HW230483   3.273   6.445   4.166
 9862SOL     OW30484   0.474   2.108   0.881
 9862SOL    HW130485   0.557   2.103   0.826
 9862SOL    HW230486   0.424   2.021   0.874
 9863SOL     OW30487   3.590   0.142   0.077
 9863SOL    HW130488   3.626   0.114   7.007
 9863SOL    HW230489   3.504   0.095   0.095
 9864SOL     OW30490   4.456   6.167   3.326
 9864SOL    HW130491   4.548   6.154   3.363
 9864SOL    HW230492   4.461   6.179   3.227
 9865SOL     OW30493   1.824   3.138   3.845
 9865SOL    HW130494   1.824   3.081   3.762
 9865SOL    HW230495   1.835   3.080   3.925
 9866SOL     OW30496   3.228   4.946   3.489
 9866SOL    HW130497   3.193   4.929   3.582
 9866SOL    HW230498   3.327   4.932   3.488
 9867SOL     OW30499   4.100   6.646   6.301
 9867SOL    HW130500   4.144   6.712   6.361
 9867SOL    HW230501   4.115   6.672   6.205
 9868SOL     OW30502   1.299   5.153   5.648
 9868SOL    HW130503   1.223   5.108   5.695
 9868SOL    HW230504   1.343   5.087   5.587
 9869SOL     OW30505   1.378   4.123   3.070
 9869SOL    HW130506   1.349   4.088   3.159
 9869SOL    HW230507   1.343   4.217   3.060
 9870SOL     OW30508   4.274   4.939   1.856
 9870SOL    HW130509   4.224   4.860   1.892
 9870SOL    HW230510   4.316   4.915   1.769
 9871SOL     OW30511   1.776   1.897   5.768
 9871SOL    HW130512   1.809   1.872   5.677
 9871SOL    HW230513   1.817   1.837   5.836
 9872SOL     OW30514   1.246   4.205   3.585
 9872SOL    HW130515   1.150   4.232   3.592
 9872SOL    HW230516   1.266   4.133   3.651
 9873SOL     OW30517   1.459   1.664   0.423
 9873SOL    HW130518   1.523   1.651   0.347
 9873SOL    HW230519   1.480   1.599   0.496
 9874SOL     OW30520   0.929   3.951   5.028
 9874SOL    HW130521   0.837   3.932   5.063
 9874SOL    HW230522   0.991   3.877   5.057
 9875SOL     OW30523   1.117   1.108   3.007
 9875SOL    HW130524   1.164   1.135   3.091
 9875SOL    HW230525   1.041   1.171   2.989
 9876SOL     OW30526   0.238   5.403   2.303
 9876SOL    HW130527   0.160   5.359   2.348
 9876SOL    HW230528   0.238   5.378   2.206
 9877SOL     OW30529   4.037   0.393   1.286
 9877SOL    HW130530   4.050   0.302   1.325
 9877SOL    HW230531   3.964   0.440   1.336
 9878SOL     OW30532   0.217   0.620   4.880
 9878SOL    HW130533   0.213   0.678   4.798
 9878SOL    HW230534   0.312   0.595   4.898
 9879SOL     OW30535   5.448   5.531   5.110
 9879SOL    HW130536   5.401   5.562   5.192
 9879SOL    HW230537   5.420   5.588   5.032
 9880SOL     OW30538   1.826   1.868   3.859
 9880SOL    HW130539   1.747   1.806   3.856
 9880SOL    HW230540   1.897   1.828   3.917
 9881SOL     OW30541   0.285   1.533   6.225
 9881SOL    HW130542   0.274   1.484   6.311
 9881SOL    HW230543   0.290   1.468   6.149
 9882SOL     OW30544   2.442   2.130   3.170
 9882SOL    HW130545   2.468   2.053   3.113
 9882SOL    HW230546   2.420   2.097   3.262
 9883SOL     OW30547   2.946   1.064   2.414
 9883SOL    HW130548   2.915   0.992   2.352
 9883SOL    HW230549   2.963   1.148   2.363
 9884SOL     OW30550   3.493   0.491   4.049
 9884SOL    HW130551   3.558   0.563   4.075
 9884SOL    HW230552   3.400   0.525   4.060
 9885SOL     OW30553   6.728   4.037   4.267
 9885SOL    HW130554   6.728   4.038   4.167
 9885SOL    HW230555   6.704   4.128   4.301
 9886SOL     OW30556   0.581   3.064   1.931
 9886SOL    HW130557   0.484   3.059   1.905
 9886SOL    HW230558   0.594   3.139   1.996
 9887SOL     OW30559   4.525   6.500   6.041
 9887SOL    HW130560   4.481   6.446   5.969
 9887SOL    HW230561   4.502   6.596   6.028
 9888SOL     OW30562   6.589   5.269   6.833
 9888SOL    HW130563   6.602   5.210   6.913
 9888SOL    HW230564   6.496   5.257   6.798
 9889SOL     OW30565   0.308   5.461   0.700
 9889SOL    HW130566   0.294   5.376   0.648
 9889SOL    HW230567   0.220   5.498   0.729
 9890SOL     OW30568   0.783   3.060   0.628
 9890SOL    HW130569   0.738   3.027   0.546
 9890SOL    HW230570   0.743   3.017   0.709
 9891SOL     OW30571   4.883   1.350   2.010
 9891SOL    HW130572   4.800   1.362   1.955
 9891SOL    HW230573   4.873   1.400   2.096
 9892SOL     OW30574   0.976   6.404   6.864
 9892SOL    HW130575   1.021   6.494   6.866
 9892SOL    HW230576   0.931   6.392   6.776
 9893SOL     OW30577   2.308   1.274   0.088
 9893SOL    HW130578   2.286   1.333   0.010
 9893SOL    HW230579   2.311   1.178   0.057
 9894SOL     OW30580   1.854   0.823   1.804
 9894SOL    HW130581   1.854   0.778   1.894
 9894SOL    HW230582   1.890   0.915   1.814
 9895SOL     OW30583   4.387   2.773   5.419
 9895SOL    HW130584   4.292   2.741   5.420
 9895SOL    HW230585   4.389   2.869   5.388
 9896SOL     OW30586   6.602   6.276   6.063
 9896SOL    HW130587   6.577   6.318   5.975
 9896SOL    HW230588   6.680   6.215   6.049
 9897SOL     OW30589   5.362   5.069   4.661
 9897SOL    HW130590   5.293   5.042   4.728
 9897SOL    HW230591   5.424   5.136   4.702
 9898SOL     OW30592   2.619   6.534   5.507
 9898SOL    HW130593   2.675   6.453   5.493
 9898SOL    HW230594   2.597   6.542   5.604
 9899SOL     OW30595   0.229   4.811   6.983
 9899SOL    HW130596   0.167   4.763   0.025
 9899SOL    HW230597   0.313   4.757   6.971
 9900SOL     OW30598   2.318   4.301   3.784
 9900SOL    HW130599   2.277   4.217   3.820
 9900SOL    HW230600   2.405   4.279   3.742
 9901SOL     OW30601   1.860   3.162   5.781
 9901SOL    HW130602   1.837   3.102   5.704
 9901SOL    HW230603   1.789   3.155   5.851
 9902SOL     OW30604   2.653   4.622   0.741
 9902SOL    HW130605   2.615   4.597   0.652
 9902SOL    HW230606   2.717   4.551   0.771
 9903SOL     OW30607   5.491   1.042   4.505
 9903SOL    HW130608   5.412   0.982   4.516
 9903SOL    HW230609   5.573   0.987   4.485
 9904SOL     OW30610   6.264   2.131   0.645
 9904SOL    HW130611   6.344   2.156   0.591
 9904SOL    HW230612   6.293   2.085   0.728
 9905SOL     OW30613   5.072   0.229   0.494
 9905SOL    HW130614   5.142   0.208   0.562
 9905SOL    HW230615   5.101   0.196   0.404
 9906SOL     OW30616   3.319   3.146   4.878
 9906SOL    HW130617   3.233   3.095   4.881
 9906SOL    HW230618   3.302   3.241   4.905
 9907SOL     OW30619   1.281   6.876   1.541
 9907SOL    HW130620   1.225   6.904   1.620
 9907SOL    HW230621   1.303   6.779   1.550
 9908SOL     OW30622   5.115   3.716   2.086
 9908SOL    HW130623   5.030   3.767   2.101
 9908SOL    HW230624   5.100   3.643   2.020
 9909SOL     OW30625   2.050   0.330   5.001
 9909SOL    HW130626   2.062   0.344   5.100
 9909SOL    HW230627   2.139   0.315   4.958
 9910SOL     OW30628   6.867   5.319   3.669
 9910SOL    HW130629   6.870   5.262   3.587
 9910SOL    HW230630   6.808   5.276   3.737
 9911SOL     OW30631   2.988   5.835   2.654
 9911SOL    HW130632   3.027   5.862   2.566
 9911SOL    HW230633   3.056   5.784   2.707
 9912SOL     OW30634   4.876   0.762   6.565
 9912SOL    HW130635   4.900   0.831   6.497
 9912SOL    HW230636   4.877   0.804   6.656
 9913SOL     OW30637   4.902   3.552   0.295
 9913SOL    HW130638   4.875   3.637   0.340
 9913SOL    HW230639   4.867   3.552   0.201
 9914SOL     OW30640   0.187   4.304   4.794
 9914SOL    HW130641   0.125   4.366   4.842
 9914SOL    HW230642   0.206   4.225   4.853
 9915SOL     OW30643   5.039   1.326   3.614
 9915SOL    HW130644   5.018   1.317   3.711
 9915SOL    HW230645   5.087   1.244   3.582
 9916SOL     OW30646   1.346   3.130   1.945
 9916SOL    HW130647   1.343   3.076   2.029
 9916SOL    HW230648   1.311   3.077   1.868
 9917SOL     OW30649   5.955   4.513   4.811
 9917SOL    HW130650   5.895   4.434   4.804
 9917SOL    HW230651   6.031   4.492   4.874
 9918SOL     OW30652   4.836   2.907   2.249
 9918SOL    HW130653   4.927   2.881   2.217
 9918SOL    HW230654   4.793   2.968   2.182
 9919SOL     OW30655   5.966   5.967   0.720
 9919SOL    HW130656   6.063   5.949   0.704
 9919SOL    HW230657   5.920   5.982   0.633
 9920SOL     OW30658   4.748   2.101   2.687
 9920SOL    HW130659   4.762   2.161   2.608
 9920SOL    HW230660   4.652   2.100   2.712
 9921SOL     OW30661   3.909   4.993   6.261
 9921SOL    HW130662   3.947   4.996   6.354
 9921SOL    HW230663   3.854   5.075   6.245
 9922SOL     OW30664   0.404   6.025   1.248
 9922SOL    HW130665   0.450   5.997   1.164
 9922SOL    HW230666   0.318   5.975   1.257
 9923SOL     OW30667   5.846   4.208   0.934
 9923SOL    HW130668   5.827   4.288   0.991
 9923SOL    HW230669   5.759   4.162   0.913
 9924SOL     OW30670   1.020   3.714   4.764
 9924SOL    HW130671   1.089   3.777   4.799
 9924SOL    HW230672   1.011   3.636   4.826
 9925SOL     OW30673   5.510   1.728   3.671
 9925SOL    HW130674   5.432   1.786   3.692
 9925SOL    HW230675   5.567   1.718   3.753
 9926SOL     OW30676   3.051   5.225   0.869
 9926SOL    HW130677   3.119   5.251   0.800
 9926SOL    HW230678   3.056   5.126   0.885
 9927SOL     OW30679   4.804   7.014   4.037
 9927SOL    HW130680   4.739   0.008   4.112
 9927SOL    HW230681   4.767   6.948   3.971
 9928SOL     OW30682   4.771   4.683   2.030
 9928SOL    HW130683   4.764   4.762   2.091
 9928SOL    HW230684   4.839   4.701   1.959
 9929SOL     OW30685   0.850   4.295   2.854
 9929SOL    HW130686   0.930   4.323   2.802
 9929SOL    HW230687   0.858   4.199   2.880
 9930SOL     OW30688   5.551   0.836   3.434
 9930SOL    HW130689   5.625   0.781   3.396
 9930SOL    HW230690   5.477   0.776   3.466
 9931SOL     OW30691   0.728   5.162   5.877
 9931SOL    HW130692   0.826   5.160   5.860
 9931SOL    HW230693   0.679   5.176   5.790
 9932SOL     OW30694   0.761   6.165   5.222
 9932SOL    HW130695   0.769   6.228   5.145
 9932SOL    HW230696   0.788   6.211   5.306
 9933SOL     OW30697   0.363   6.574   2.383
 9933SOL    HW130698   0.282   6.588   2.441
 9933SOL    HW230699   0.399   6.482   2.397
 9934SOL     OW30700   6.932   2.199   5.204
 9934SOL    HW130701   6.846   2.191   5.254
 9934SOL    HW230702   6.913   2.202   5.106
 9935SOL     OW30703   2.453   0.378   6.246
 9935SOL    HW130704   2.363   0.344   6.270
 9935SOL    HW230705   2.504   0.307   6.196
 9936SOL     OW30706   1.030   4.149   4.115
 9936SOL    HW130707   1.117   4.195   4.129
 9936SOL    HW230708   1.037   4.053   4.145
 9937SOL     OW30709   6.791   2.575   6.231
 9937SOL    HW130710   6.889   2.553   6.235
 9937SOL    HW230711   6.774   2.659   6.283
 9938SOL     OW30712   0.025   6.182   2.613
 9938SOL    HW130713   6.991   6.264   2.590
 9938SOL    HW230714   0.121   6.198   2.591
 9939SOL     OW30715   3.417   3.507   2.965
 9939SOL    HW130716   3.402   3.570   3.042
 9939SOL    HW230717   3.376   3.545   2.882
 9940SOL     OW30718   0.341   0.918   1.078
 9940SOL    HW130719   0.246   0.898   1.054
 9940SOL    HW230720   0.365   0.873   1.164
 9941SOL     OW30721   3.138   5.584   4.702
 9941SOL    HW130722   3.223   5.611   4.656
 9941SOL    HW230723   3.067   5.568   4.633
 9942SOL     OW30724   2.354   5.555   3.993
 9942SOL    HW130725   2.324   5.594   4.080
 9942SOL    HW230726   2.415   5.619   3.947
 9943SOL     OW30727   0.313   0.145   4.945
 9943SOL    HW130728   0.335   0.202   4.866
 9943SOL    HW230729   0.274   0.202   5.018
 9944SOL     OW30730   1.663   4.625   6.312
 9944SOL    HW130731   1.625   4.715   6.334
 9944SOL    HW230732   1.707   4.586   6.392
 9945SOL     OW30733   0.032   5.539   6.699
 9945SOL    HW130734   0.130   5.522   6.687
 9945SOL    HW230735   7.001   5.455   6.679
 9946SOL     OW30736   5.952   1.256   4.612
 9946SOL    HW130737   5.990   1.177   4.659
 9946SOL    HW230738   5.858   1.270   4.642
 9947SOL     OW30739   6.090   4.608   3.218
 9947SOL    HW130740   6.156   4.559   3.274
 9947SOL    HW230741   6.114   4.598   3.121
 9948SOL     OW30742   5.882   3.875   4.235
 9948SOL    HW130743   5.946   3.940   4.275
 9948SOL    HW230744   5.850   3.909   4.146
 9949SOL     OW30745   5.851   5.245   1.770
 9949SOL    HW130746   5.910   5.215   1.845
 9949SOL    HW230747   5.764   5.279   1.807
 9950SOL     OW30748   3.162   6.205   6.601
 9950SOL    HW130749   3.217   6.126   6.628
 9950SOL    HW230750   3.065   6.183   6.609
 9951SOL     OW30751   6.591   2.712   2.873
 9951SOL    HW130752   6.587   2.671   2.782
 9951SOL    HW230753   6.676   2.685   2.918
 9952SOL     OW30754   6.873   4.296   5.906
 9952SOL    HW130755   6.955   4.240   5.899
 9952SOL    HW230756   6.796   4.249   5.863
 9953SOL     OW30757   5.809   2.875   3.792
 9953SOL    HW130758   5.771   2.787   3.823
 9953SOL    HW230759   5.789   2.888   3.695
 9954SOL     OW30760   3.922   0.981   4.832
 9954SOL    HW130761   3.912   0.902   4.893
 9954SOL    HW230762   3.946   1.062   4.886
 9955SOL     OW30763   0.572   4.701   4.165
 9955SOL    HW130764   0.621   4.776   4.211
 9955SOL    HW230765   0.571   4.621   4.224
 9956SOL     OW30766   1.116   6.078   0.409
 9956SOL    HW130767   1.101   5.979   0.398
 9956SOL    HW230768   1.079   6.108   0.497
 9957SOL     OW30769   5.613   5.470   2.363
 9957SOL    HW130770   5.701   5.441   2.325
 9957SOL    HW230771   5.576   5.397   2.421
 9958SOL     OW30772   2.969   4.536   1.083
 9958SOL    HW130773   3.018   4.558   0.999
 9958SOL    HW230774   2.870   4.543   1.067
 9959SOL     OW30775   3.360   3.897   1.295
 9959SOL    HW130776   3.353   3.907   1.195
 9959SOL    HW230777   3.273   3.864   1.331
 9960SOL     OW30778   0.560   0.821   2.464
 9960SOL    HW130779   0.638   0.851   2.409
 9960SOL    HW230780   0.588   0.813   2.559
 9961SOL     OW30781   2.149   3.769   4.846
 9961SOL    HW130782   2.172   3.780   4.749
 9961SOL    HW230783   2.190   3.844   4.898
 9962SOL     OW30784   5.012   6.632   4.671
 9962SOL    HW130785   5.067   6.554   4.640
 9962SOL    HW230786   5.005   6.699   4.597
 9963SOL     OW30787   3.267   1.334   0.714
 9963SOL    HW130788   3.265   1.337   0.614
 9963SOL    HW230789   3.230   1.247   0.746
 9964SOL     OW30790   5.465   6.505   4.878
 9964SOL    HW130791   5.383   6.558   4.858
 9964SOL    HW230792   5.475   6.495   4.977
 9965SOL     OW30793   5.282   6.666   0.336
 9965SOL    HW130794   5.241   6.691   0.249
 9965SOL    HW230795   5.379   6.644   0.322
 9966SOL     OW30796   6.141   0.851   2.860
 9966SOL    HW130797   6.133   0.874   2.763
 9966SOL    HW230798   6.215   0.785   2.872
 9967SOL     OW30799   0.982   5.133   0.520
 9967SOL    HW130800   0.970   5.150   0.423
 9967SOL    HW230801   0.903   5.083   0.556
 9968SOL     OW30802   3.476   3.813   2.822
 9968SOL    HW130803   3.426   3.856   2.897
 9968SOL    HW230804   3.411   3.780   2.753
 9969SOL     OW30805   1.550   3.347   1.292
 9969SOL    HW130806   1.527   3.258   1.331
 9969SOL    HW230807   1.599   3.334   1.205
 9970SOL     OW30808   6.122   5.018   1.919
 9970SOL    HW130809   6.068   5.097   1.946
 9970SOL    HW230810   6.073   4.966   1.849
 9971SOL     OW30811   2.764   6.769   6.650
 9971SOL    HW130812   2.689   6.708   6.675
 9971SOL    HW230813   2.851   6.729   6.680
 9972SOL     OW30814   6.492   5.170   1.387
 9972SOL    HW130815   6.559   5.101   1.412
 9972SOL    HW230816   6.520   5.214   1.302
 9973SOL     OW30817   5.217   6.766   3.653
 9973SOL    HW130818   5.143   6.711   3.692
 9973SOL    HW230819   5.278   6.706   3.602
 9974SOL     OW30820   2.096   0.347   4.081
 9974SOL    HW130821   2.112   0.442   4.108
 9974SOL    HW230822   1.998   0.333   4.066
 9975SOL     OW30823   0.103   4.305   1.199
 9975SOL    HW130824   0.125   4.247   1.278
 9975SOL    HW230825   0.107   4.251   1.116
 9976SOL     OW30826   2.878   6.714   4.217
 9976SOL    HW130827   2.925   6.670   4.140
 9976SOL    HW230828   2.780   6.696   4.212
 9977SOL     OW30829   6.496   4.435   3.772
 9977SOL    HW130830   6.465   4.487   3.852
 9977SOL    HW230831   6.590   4.403   3.787
 9978SOL     OW30832   6.444   2.672   4.431
 9978SOL    HW130833   6.503   2.601   4.470
 9978SOL    HW230834   6.455   2.673   4.331
 9979SOL     OW30835   0.715   4.140   5.276
 9979SOL    HW130836   0.696   4.061   5.335
 9979SOL    HW230837   0.812   4.143   5.254
 9980SOL     OW30838   2.794   6.295   5.248
 9980SOL    HW130839   2.805   6.256   5.340
 9980SOL    HW230840   2.698   6.288   5.221
 9981SOL     OW30841   4.139   2.293   3.598
 9981SOL    HW130842   4.075   2.262   3.668
 9981SOL    HW230843   4.093   2.293   3.509
 9982SOL     OW30844   6.629   6.658   2.967
 9982SOL    HW130845   6.618   6.703   3.055
 9982SOL    HW230846   6.575   6.706   2.898
 9983SOL     OW30847   6.573   0.804   1.054
 9983SOL    HW130848   6.546   0.868   0.983
 9983SOL    HW230849   6.591   0.714   1.014
 9984SOL     OW30850   3.258   0.820   6.649
 9984SOL    HW130851   3.287   0.741   6.594
 9984SOL    HW230852   3.164   0.844   6.625
 9985SOL     OW30853   2.419   1.525   1.472
 9985SOL    HW130854   2.408   1.497   1.567
 9985SOL    HW230855   2.358   1.471   1.414
 9986SOL     OW30856   4.759   4.035   4.474
 9986SOL    HW130857   4.800   3.944   4.480
 9986SOL    HW230858   4.664   4.027   4.444
 9987SOL     OW30859   0.233   4.128   5.312
 9987SOL    HW130860   0.217   4.192   5.386
 9987SOL    HW230861   0.148   4.114   5.261
 9988SOL     OW30862   6.572   0.536   4.173
 9988SOL    HW130863   6.589   0.594   4.253
 9988SOL    HW230864   6.519   0.456   4.201
 9989SOL     OW30865   1.659   2.742   4.629
 9989SOL    HW130866   1.739   2.769   4.683
 9989SOL    HW230867   1.642   2.810   4.558
 9990SOL     OW30868   1.325   4.905   1.740
 9990SOL    HW130869   1.350   5.002   1.744
 9990SOL    HW230870   1.401   4.853   1.701
 9991SOL     OW30871   3.605   1.649   3.531
 9991SOL    HW130872   3.654   1.729   3.495
 9991SOL    HW230873   3.541   1.679   3.602
 9992SOL     OW30874   5.909   5.505   6.732
 9992SOL    HW130875   5.898   5.435   6.662
 9992SOL    HW230876   5.832   5.569   6.728
 9993SOL     OW30877   1.193   0.483   2.109
 9993SOL    HW130878   1.095   0.477   2.126
 9993SOL    HW230879   1.221   0.579   2.113
 9994SOL     OW30880   6.532   4.607   3.375
 9994SOL    HW130881   6.450   4.550   3.377
 9994SOL    HW230882   6.609   4.556   3.413
 9995SOL     OW30883   5.662   1.862   4.778
 9995SOL    HW130884   5.607   1.791   4.823
 9995SOL    HW230885   5.727   1.900   4.843
 9996SOL     OW30886   3.136   3.087   0.205
 9996SOL    HW130887   3.139   2.997   0.247
 9996SOL    HW230888   3.192   3.151   0.257
 9997SOL     OW30889   2.020   0.856   4.315
 9997SOL    HW130890   2.047   0.882   4.407
 9997SOL    HW230891   2.064   0.769   4.291
 9998SOL     OW30892   5.873   6.299   4.860
 9998SOL    HW130893   5.948   6.292   4.926
 9998SOL    HW230894   5.874   6.390   4.817
 9999SOL     OW30895   6.953   1.019   4.864
 9999SOL    HW130896   6.943   0.954   4.789
 9999SOL    HW230897   7.008   0.978   4.937
10000SOL     OW30898   6.930   4.797   0.649
10000SOL    HW130899   7.008   4.827   0.596
10000SOL    HW230900   6.930   4.697   0.654
10001SOL     OW30901   4.175   0.772   3.478
10001SOL    HW130902   4.140   0.723   3.558
10001SOL    HW230903   4.267   0.738   3.456
10002SOL     OW30904   1.350   1.891   1.532
10002SOL    HW130905   1.394   1.935   1.453
10002SOL    HW230906   1.279   1.951   1.568
10003SOL     OW30907   5.149   3.678   2.444
10003SOL    HW130908   5.084   3.606   2.420
10003SOL    HW230909   5.107   3.768   2.431
10004SOL     OW30910   6.669   3.402   3.985
10004SOL    HW130911   6.577   3.419   3.950
10004SOL    HW230912   6.707   3.487   4.022
10005SOL     OW30913   4.431   0.549   3.898
10005SOL    HW130914   4.383   0.527   3.813
10005SOL    HW230915   4.442   0.648   3.906
10006SOL     OW30916   4.970   2.185   3.844
10006SOL    HW130917   4.898   2.212   3.908
10006SOL    HW230918   4.957   2.090   3.817
10007SOL     OW30919   5.446   4.954   4.275
10007SOL    HW130920   5.404   5.037   4.312
10007SOL    HW230921   5.470   4.893   4.351
10008SOL     OW30922   3.158   0.248   4.036
10008SOL    HW130923   3.127   0.156   4.011
10008SOL    HW230924   3.105   0.282   4.113
10009SOL     OW30925   2.545   4.295   1.261
10009SOL    HW130926   2.593   4.375   1.296
10009SOL    HW230927   2.569   4.282   1.165
10010SOL     OW30928   6.080   1.026   6.375
10010SOL    HW130929   6.090   1.033   6.474
10010SOL    HW230930   6.148   0.963   6.339
10011SOL     OW30931   0.044   6.608   3.520
10011SOL    HW130932   0.085   6.619   3.430
10011SOL    HW230933   0.055   6.514   3.551
10012SOL     OW30934   5.292   0.309   4.877
10012SOL    HW130935   5.241   0.224   4.863
10012SOL    HW230936   5.374   0.290   4.932
10013SOL     OW30937   1.014   0.474   1.560
10013SOL    HW130938   1.098   0.485   1.612
10013SOL    HW230939   0.970   0.387   1.585
10014SOL     OW30940   1.493   4.636   5.991
10014SOL    HW130941   1.584   4.609   5.959
10014SOL    HW230942   1.471   4.587   6.076
10015SOL     OW30943   2.497   5.825   5.934
10015SOL    HW130944   2.549   5.886   5.875
10015SOL    HW230945   2.446   5.760   5.879
10016SOL     OW30946   2.229   1.384   4.926
10016SOL    HW130947   2.186   1.372   4.836
10016SOL    HW230948   2.293   1.461   4.922
10017SOL     OW30949   7.013   1.799   3.560
10017SOL    HW130950   0.042   1.879   3.525
10017SOL    HW230951   6.915   1.811   3.549
10018SOL     OW30952   5.362   6.845   6.345
10018SOL    HW130953   5.416   6.807   6.420
10018SOL    HW230954   5.299   6.775   6.311
10019SOL     OW30955   0.943   0.925   2.897
10019SOL    HW130956   1.019   0.962   2.951
10019SOL    HW230957   0.856   0.945   2.943
10020SOL     OW30958   0.329   3.636   0.262
10020SOL    HW130959   0.316   3.712   0.325
10020SOL    HW230960   0.280   3.556   0.295
10021SOL     OW30961   4.881   2.943   1.173
10021SOL    HW130962   4.843   2.963   1.083
10021SOL    HW230963   4.807   2.939   1.240
10022SOL     OW30964   1.811   0.859   6.207
10022SOL    HW130965   1.835   0.930   6.274
10022SOL    HW230966   1.891   0.840   6.150
10023SOL     OW30967   0.624   3.627   0.683
10023SOL    HW130968   0.697   3.685   0.647
10023SOL    HW230969   0.613   3.643   0.781
10024SOL     OW30970   0.788   3.722   2.848
10024SOL    HW130971   0.754   3.650   2.789
10024SOL    HW230972   0.712   3.763   2.899
10025SOL     OW30973   0.578   1.487   0.667
10025SOL    HW130974   0.623   1.433   0.596
10025SOL    HW230975   0.636   1.565   0.691
10026SOL     OW30976   6.356   0.844   4.363
10026SOL    HW130977   6.401   0.928   4.332
10026SOL    HW230978   6.267   0.867   4.403
10027SOL     OW30979   5.973   2.843   5.898
10027SOL    HW130980   6.051   2.876   5.845
10027SOL    HW230981   5.891   2.843   5.840
10028SOL     OW30982   2.045   1.332   1.670
10028SOL    HW130983   2.057   1.358   1.574
10028SOL    HW230984   2.130   1.348   1.720
10029SOL     OW30985   3.765   1.341   4.236
10029SOL    HW130986   3.781   1.251   4.274
10029SOL    HW230987   3.812   1.410   4.291
10030SOL     OW30988   1.295   1.104   2.722
10030SOL    HW130989   1.338   1.028   2.674
10030SOL    HW230990   1.202   1.077   2.748
10031SOL     OW30991   0.047   4.615   3.148
10031SOL    HW130992   0.100   4.664   3.079
10031SOL    HW230993   7.010   4.680   3.200
10032SOL     OW30994   3.697   2.097   5.113
10032SOL    HW130995   3.616   2.141   5.152
10032SOL    HW230996   3.780   2.140   5.149
10033SOL     OW30997   5.775   3.153   3.883
10033SOL    HW130998   5.754   3.192   3.794
10033SOL    HW230999   5.780   3.053   3.875
10034SOL     OW31000   3.953   6.094   5.988
10034SOL    HW131001   3.967   6.010   5.935
10034SOL    HW231002   3.881   6.079   6.055
10035SOL     OW31003   0.588   6.603   3.870
10035SOL    HW131004   0.626   6.576   3.781
10035SOL    HW231005   0.498   6.563   3.882
10036SOL     OW31006   6.184   0.664   0.433
10036SOL    HW131007   6.251   0.709   0.493
10036SOL    HW231008   6.193   0.700   0.340
10037SOL     OW31009   6.841   6.587   1.296
10037SOL    HW131010   6.790   6.656   1.346
10037SOL    HW231011   6.872   6.626   1.209
10038SOL     OW31012   6.272   0.205   1.234
10038SOL    HW131013   6.296   0.301   1.226
10038SOL    HW231014   6.288   0.158   1.147
10039SOL     OW31015   4.235   1.019   2.578
10039SOL    HW131016   4.161   0.960   2.611
10039SOL    HW231017   4.202   1.113   2.569
10040SOL     OW31018   0.802   2.373   0.470
10040SOL    HW131019   0.774   2.467   0.455
10040SOL    HW231020   0.828   2.361   0.566
10041SOL     OW31021   1.163   6.686   0.375
10041SOL    HW131022   1.221   6.647   0.302
10041SOL    HW231023   1.092   6.621   0.399
10042SOL     OW31024   6.334   1.880   3.590
10042SOL    HW131025   6.254   1.901   3.647
10042SOL    HW231026   6.404   1.950   3.604
10043SOL     OW31027   2.210   2.480   5.865
10043SOL    HW131028   2.204   2.382   5.845
10043SOL    HW231029   2.149   2.531   5.805
10044SOL     OW31030   4.602   1.033   0.058
10044SOL    HW131031   4.624   0.969   7.004
10044SOL    HW231032   4.661   1.113   0.051
10045SOL     OW31033   2.147   0.805   1.420
10045SOL    HW131034   2.121   0.876   1.486
10045SOL    HW231035   2.236   0.767   1.445
10046SOL     OW31036   0.374   5.703   0.151
10046SOL    HW131037   0.283   5.723   0.114
10046SOL    HW231038   0.421   5.640   0.090
10047SOL     OW31039   1.663   3.606   0.894
10047SOL    HW131040   1.678   3.528   0.955
10047SOL    HW231041   1.572   3.600   0.854
10048SOL     OW31042   5.617   3.641   1.773
10048SOL    HW131043   5.714   3.657   1.793
10048SOL    HW231044   5.586   3.561   1.824
10049SOL     OW31045   6.533   1.905   5.154
10049SOL    HW131046   6.577   1.979   5.104
10049SOL    HW231047   6.437   1.899   5.127
10050SOL     OW31048   0.036   2.593   6.249
10050SOL    HW131049   0.087   2.639   6.176
10050SOL    HW231050   0.090   2.595   6.333
10051SOL     OW31051   1.708   0.540   3.446
10051SOL    HW131052   1.735   0.480   3.522
10051SOL    HW231053   1.609   0.550   3.447
10052SOL     OW31054   0.970   0.447   3.634
10052SOL    HW131055   0.927   0.421   3.548
10052SOL    HW231056   0.918   0.523   3.675
10053SOL     OW31057   6.375   5.656   2.706
10053SOL    HW131058   6.296   5.637   2.765
10053SOL    HW231059   6.414   5.745   2.731
10054SOL     OW31060   5.629   4.096   3.707
10054SOL    HW131061   5.728   4.104   3.693
10054SOL    HW231062   5.591   4.033   3.639
10055SOL     OW31063   1.703   1.866   0.056
10055SOL    HW131064   1.687   1.836   6.981
10055SOL    HW231065   1.787   1.824   0.090
10056SOL     OW31066   5.213   2.082   4.203
10056SOL    HW131067   5.166   1.995   4.190
10056SOL    HW231068   5.148   2.158   4.191
10057SOL     OW31069   5.769   4.317   4.752
10057SOL    HW131070   5.789   4.347   4.659
10057SOL    HW231071   5.677   4.347   4.778
10058SOL     OW31072   6.322   4.018   3.607
10058SOL    HW131073   6.230   3.979   3.602
10058SOL    HW231074   6.362   3.997   3.696
10059SOL     OW31075   5.467   5.921   5.693
10059SOL    HW131076   5.443   6.006   5.646
10059SOL    HW231077   5.472   5.938   5.792
10060SOL     OW31078   2.854   1.869   2.051
10060SOL    HW131079   2.878   1.793   2.111
10060SOL    HW231080   2.757   1.889   2.060
10061SOL     OW31081   3.817   0.041   3.513
10061SOL    HW131082   3.912   0.024   3.486
10061SOL    HW231083   3.809   0.134   3.548
10062SOL     OW31084   6.567   6.750   4.660
10062SOL    HW131085   6.552   6.793   4.571
10062SOL    HW231086   6.492   6.688   4.681
10063SOL     OW31087   3.532   2.147   3.987
10063SOL    HW131088   3.511   2.240   4.017
10063SOL    HW231089   3.602   2.107   4.048
10064SOL     OW31090   2.315   6.348   2.291
10064SOL    HW131091   2.414   6.348   2.279
10064SOL    HW231092   2.279   6.439   2.272
10065SOL     OW31093   6.341   2.005   1.646
10065SOL    HW131094   6.377   2.047   1.563
10065SOL    HW231095   6.417   1.978   1.706
10066SOL     OW31096   6.498   4.139   3.432
10066SOL    HW131097   6.429   4.112   3.499
10066SOL    HW231098   6.589   4.132   3.473
10067SOL     OW31099   5.298   3.267   5.106
10067SOL    HW131100   5.277   3.291   5.011
10067SOL    HW231101   5.371   3.199   5.109
10068SOL     OW31102   1.925   3.588   3.154
10068SOL    HW131103   1.889   3.673   3.190
10068SOL    HW231104   1.856   3.516   3.160
10069SOL     OW31105   3.015   5.194   1.902
10069SOL    HW131106   3.086   5.156   1.843
10069SOL    HW231107   2.925   5.170   1.865
10070SOL     OW31108   5.209   6.906   0.474
10070SOL    HW131109   5.234   6.820   0.429
10070SOL    HW231110   5.112   6.925   0.458
10071SOL     OW31111   5.007   0.565   5.422
10071SOL    HW131112   5.034   0.588   5.516
10071SOL    HW231113   5.036   0.638   5.361
10072SOL     OW31114   5.499   3.176   1.860
10072SOL    HW131115   5.412   3.149   1.900
10072SOL    HW231116   5.568   3.107   1.879
10073SOL     OW31117   5.533   5.908   5.282
10073SOL    HW131118   5.629   5.889   5.302
10073SOL    HW231119   5.513   5.883   5.188
10074SOL     OW31120   1.558   4.635   1.090
10074SOL    HW131121   1.468   4.651   1.048
10074SOL    HW231122   1.547   4.612   1.186
10075SOL     OW31123   0.962   3.293   2.039
10075SOL    HW131124   0.982   3.228   2.113
10075SOL    HW231125   1.045   3.309   1.985
10076SOL     OW31126   5.877   4.798   3.632
10076SOL    HW131127   5.803   4.737   3.601
10076SOL    HW231128   5.918   4.761   3.715
10077SOL     OW31129   4.103   3.601   6.441
10077SOL    HW131130   4.170   3.538   6.480
10077SOL    HW231131   4.138   3.638   6.355
10078SOL     OW31132   5.833   5.712   4.052
10078SOL    HW131133   5.853   5.643   3.982
10078SOL    HW231134   5.914   5.727   4.109
10079SOL     OW31135   5.709   5.436   2.984
10079SOL    HW131136   5.771   5.513   2.974
10079SOL    HW231137   5.721   5.395   3.074
10080SOL     OW31138   5.267   2.657   5.038
10080SOL    HW131139   5.357   2.700   5.051
10080SOL    HW231140   5.198   2.710   5.086
10081SOL     OW31141   1.280   4.761   0.685
10081SOL    HW131142   1.289   4.784   0.782
10081SOL    HW231143   1.274   4.662   0.674
10082SOL     OW31144   0.651   4.766   1.534
10082SOL    HW131145   0.681   4.692   1.593
10082SOL    HW231146   0.553   4.757   1.515
10083SOL     OW31147   3.111   6.178   2.651
10083SOL    HW131148   3.103   6.140   2.743
10083SOL    HW231149   3.032   6.236   2.632
10084SOL     OW31150   1.789   2.651   4.929
10084SOL    HW131151   1.795   2.560   4.887
10084SOL    HW231152   1.871   2.668   4.983
10085SOL     OW31153   4.066   0.012   1.314
10085SOL    HW131154   4.045   6.980   1.397
10085SOL    HW231155   4.135   0.081   1.335
10086SOL     OW31156   2.828   1.016   3.214
10086SOL    HW131157   2.892   1.042   3.286
10086SOL    HW231158   2.746   0.976   3.255
10087SOL     OW31159   1.787   5.343   6.372
10087SOL    HW131160   1.872   5.290   6.370
10087SOL    HW231161   1.709   5.281   6.360
10088SOL     OW31162   5.887   1.921   0.759
10088SOL    HW131163   5.816   1.880   0.703
10088SOL    HW231164   5.856   2.011   0.791
10089SOL     OW31165   3.756   6.546   1.994
10089SOL    HW131166   3.683   6.502   2.047
10089SOL    HW231167   3.837   6.558   2.052
10090SOL     OW31168   3.158   5.854   1.957
10090SOL    HW131169   3.189   5.763   1.984
10090SOL    HW231170   3.065   5.848   1.919
10091SOL     OW31171   5.573   6.122   2.837
10091SOL    HW131172   5.527   6.036   2.857
10091SOL    HW231173   5.539   6.193   2.898
10092SOL     OW31174   7.005   1.692   2.541
10092SOL    HW131175   6.930   1.659   2.598
10092SOL    HW231176   0.001   1.628   2.465
10093SOL     OW31177   4.474   4.528   6.231
10093SOL    HW131178   4.378   4.550   6.212
10093SOL    HW231179   4.518   4.607   6.273
10094SOL     OW31180   3.616   2.446   0.723
10094SOL    HW131181   3.690   2.416   0.782
10094SOL    HW231182   3.643   2.531   0.676
10095SOL     OW31183   4.501   2.598   5.179
10095SOL    HW131184   4.402   2.591   5.191
10095SOL    HW231185   4.541   2.638   5.262
10096SOL     OW31186   6.922   4.905   1.932
10096SOL    HW131187   6.902   4.901   2.030
10096SOL    HW231188   6.853   4.960   1.886
10097SOL     OW31189   1.308   1.219   1.334
10097SOL    HW131190   1.221   1.170   1.332
10097SOL    HW231191   1.364   1.186   1.410
10098SOL     OW31192   4.435   5.276   0.203
10098SOL    HW131193   4.369   5.217   0.249
10098SOL    HW231194   4.523   5.228   0.194
10099SOL     OW31195   6.787   6.542   3.348
10099SOL    HW131196   6.866   6.592   3.384
10099SOL    HW231197   6.819   6.468   3.288
10100SOL     OW31198   5.139   5.588   4.281
10100SOL    HW131199   5.168   5.565   4.189
10100SOL    HW231200   5.091   5.510   4.322
10101SOL     OW31201   0.172   2.393   6.829
10101SOL    HW131202   0.187   2.322   6.760
10101SOL    HW231203   0.148   2.350   6.916
10102SOL     OW31204   0.177   4.935   2.877
10102SOL    HW131205   0.209   4.911   2.969
10102SOL    HW231206   0.147   5.030   2.876
10103SOL     OW31207   0.243   6.964   0.087
10103SOL    HW131208   0.297   0.028   0.097
10103SOL    HW231209   0.287   6.904   0.019
10104SOL     OW31210   2.660   1.355   4.832
10104SOL    HW131211   2.654   1.264   4.875
10104SOL    HW231212   2.717   1.415   4.889
10105SOL     OW31213   3.403   1.576   4.179
10105SOL    HW131214   3.313   1.612   4.155
10105SOL    HW231215   3.397   1.524   4.264
10106SOL     OW31216   6.274   4.005   1.124
10106SOL    HW131217   6.362   3.960   1.115
10106SOL    HW231218   6.287   4.097   1.161
10107SOL     OW31219   5.004   5.963   5.817
10107SOL    HW131220   4.980   5.867   5.833
10107SOL    HW231221   5.072   5.969   5.744
10108SOL     OW31222   2.872   1.934   4.812
10108SOL    HW131223   2.889   1.985   4.728
10108SOL    HW231224   2.808   1.859   4.793
10109SOL     OW31225   1.001   2.931   1.024
10109SOL    HW131226   1.094   2.895   1.015
10109SOL    HW231227   0.977   2.939   1.120
10110SOL     OW31228   5.903   6.311   1.709
10110SOL    HW131229   5.928   6.223   1.668
10110SOL    HW231230   5.806   6.309   1.733
10111SOL     OW31231   6.580   2.697   2.041
10111SOL    HW131232   6.651   2.628   2.023
10111SOL    HW231233   6.542   2.729   1.954
10112SOL     OW31234   0.063   2.787   4.084
10112SOL    HW131235   0.025   2.697   4.061
10112SOL    HW231236   0.018   2.822   4.166
10113SOL     OW31237   0.088   6.627   6.482
10113SOL    HW131238   0.183   6.654   6.466
10113SOL    HW231239   0.028   6.703   6.459
10114SOL     OW31240   5.761   4.313   1.473
10114SOL    HW131241   5.686   4.265   1.518
10114SOL    HW231242   5.729   4.402   1.442
10115SOL     OW31243   3.884   1.761   6.509
10115SOL    HW131244   3.822   1.836   6.486
10115SOL    HW231245   3.911   1.767   6.605
10116SOL     OW31246   0.883   6.724   6.723
10116SOL    HW131247   0.938   6.670   6.659
10116SOL    HW231248   0.870   6.816   6.687
10117SOL     OW31249   0.471   4.121   1.185
10117SOL    HW131250   0.451   4.163   1.097
10117SOL    HW231251   0.494   4.192   1.252
10118SOL     OW31252   4.109   5.226   3.605
10118SOL    HW131253   4.122   5.294   3.534
10118SOL    HW231254   4.018   5.238   3.647
10119SOL     OW31255   5.524   6.057   6.673
10119SOL    HW131256   5.546   6.052   6.771
10119SOL    HW231257   5.503   6.151   6.648
10120SOL     OW31258   2.337   2.775   2.809
10120SOL    HW131259   2.290   2.758   2.896
10120SOL    HW231260   2.405   2.703   2.794
10121SOL     OW31261   6.625   5.568   1.453
10121SOL    HW131262   6.719   5.533   1.461
10121SOL    HW231263   6.622   5.641   1.385
10122SOL     OW31264   1.878   0.072   3.366
10122SOL    HW131265   1.909   0.034   3.453
10122SOL    HW231266   1.953   0.124   3.324
10123SOL     OW31267   6.314   6.858   6.558
10123SOL    HW131268   6.219   6.829   6.564
10123SOL    HW231269   6.366   6.819   6.634
10124SOL     OW31270   0.629   4.787   3.223
10124SOL    HW131271   0.645   4.880   3.256
10124SOL    HW231272   0.597   4.791   3.128
10125SOL     OW31273   1.806   2.005   4.644
10125SOL    HW131274   1.872   1.977   4.713
10125SOL    HW231275   1.854   2.035   4.561
10126SOL     OW31276   6.810   6.137   4.606
10126SOL    HW131277   6.774   6.221   4.647
10126SOL    HW231278   6.899   6.155   4.564
10127SOL     OW31279   2.146   1.024   4.820
10127SOL    HW131280   2.078   1.083   4.778
10127SOL    HW231281   2.234   1.071   4.825
10128SOL     OW31282   3.184   0.813   0.528
10128SOL    HW131283   3.171   0.911   0.510
10128SOL    HW231284   3.201   0.799   0.625
10129SOL     OW31285   6.490   1.910   5.689
10129SOL    HW131286   6.494   1.913   5.589
10129SOL    HW231287   6.459   1.820   5.719
10130SOL     OW31288   1.452   2.976   3.245
10130SOL    HW131289   1.471   2.882   3.273
10130SOL    HW231290   1.398   2.975   3.161
10131SOL     OW31291   2.031   1.069   5.105
10131SOL    HW131292   2.075   1.047   5.019
10131SOL    HW231293   1.942   1.024   5.110
10132SOL     OW31294   5.974   0.792   2.242
10132SOL    HW131295   5.988   0.864   2.174
10132SOL    HW231296   6.045   0.723   2.233
10133SOL     OW31297   4.771   5.301   1.165
10133SOL    HW131298   4.866   5.277   1.186
10133SOL    HW231299   4.718   5.303   1.249
10134SOL     OW31300   6.184   0.519   3.104
10134SOL    HW131301   6.205   0.545   3.010
10134SOL    HW231302   6.269   0.493   3.152
10135SOL     OW31303   6.052   6.808   3.324
10135SOL    HW131304   6.132   6.868   3.328
10135SOL    HW231305   5.995   6.823   3.406
10136SOL     OW31306   4.825   0.982   3.112
10136SOL    HW131307   4.799   1.054   3.047
10136SOL    HW231308   4.914   0.945   3.087
10137SOL     OW31309   6.466   6.242   2.817
10137SOL    HW131310   6.423   6.189   2.744
10137SOL    HW231311   6.519   6.181   2.875
10138SOL     OW31312   0.272   1.950   2.667
10138SOL    HW131313   0.298   1.996   2.582
10138SOL    HW231314   0.336   1.876   2.685
10139SOL     OW31315   3.928   2.678   0.837
10139SOL    HW131316   4.019   2.698   0.801
10139SOL    HW231317   3.866   2.752   0.813
10140SOL     OW31318   5.774   6.609   3.920
10140SOL    HW131319   5.838   6.541   3.882
10140SOL    HW231320   5.718   6.566   3.990
10141SOL     OW31321   0.863   2.014   4.226
10141SOL    HW131322   0.910   2.021   4.138
10141SOL    HW231323   0.871   2.101   4.275
10142SOL     OW31324   4.503   6.389   1.387
10142SOL    HW131325   4.519   6.488   1.389
10142SOL    HW231326   4.409   6.369   1.415
10143SOL     OW31327   6.905   3.499   0.015
10143SOL    HW131328   6.914   3.578   6.973
10143SOL    HW231329   6.857   3.426   6.986
10144SOL     OW31330   4.430   0.776   1.792
10144SOL    HW131331   4.502   0.843   1.812
10144SOL    HW231332   4.372   0.812   1.719
10145SOL     OW31333   6.288   0.232   4.970
10145SOL    HW131334   6.357   0.270   4.908
10145SOL    HW231335   6.319   0.245   5.064
10146SOL     OW31336   1.438   1.220   5.337
10146SOL    HW131337   1.466   1.126   5.322
10146SOL    HW231338   1.339   1.227   5.329
10147SOL     OW31339   3.180   4.710   0.618
10147SOL    HW131340   3.259   4.656   0.588
10147SOL    HW231341   3.113   4.714   0.545
10148SOL     OW31342   6.863   5.673   6.444
10148SOL    HW131343   6.932   5.744   6.459
10148SOL    HW231344   6.779   5.698   6.492
10149SOL     OW31345   2.863   3.475   3.665
10149SOL    HW131346   2.879   3.381   3.693
10149SOL    HW231347   2.915   3.495   3.581
10150SOL     OW31348   6.054   4.354   0.288
10150SOL    HW131349   6.034   4.354   0.385
10150SOL    HW231350   6.152   4.371   0.274
10151SOL     OW31351   0.279   0.508   0.409
10151SOL    HW131352   0.265   0.452   0.490
10151SOL    HW231353   0.373   0.544   0.408
10152SOL     OW31354   3.470   6.244   3.751
10152SOL    HW131355   3.451   6.296   3.668
10152SOL    HW231356   3.391   6.185   3.771
10153SOL     OW31357   4.759   3.848   1.044
10153SOL    HW131358   4.695   3.924   1.053
10153SOL    HW231359   4.747   3.785   1.120
10154SOL     OW31360   4.942   5.169   6.187
10154SOL    HW131361   4.948   5.216   6.274
10154SOL    HW231362   4.974   5.075   6.197
10155SOL     OW31363   4.910   2.433   4.574
10155SOL    HW131364   4.978   2.379   4.624
10155SOL    HW231365   4.839   2.465   4.636
10156SOL     OW31366   3.435   1.688   0.024
10156SOL    HW131367   3.447   1.647   0.114
10156SOL    HW231368   3.338   1.693   0.002
10157SOL     OW31369   0.331   5.471   1.821
10157SOL    HW131370   0.338   5.432   1.730
10157SOL    HW231371   0.368   5.406   1.888
10158SOL     OW31372   6.639   4.918   6.411
10158SOL    HW131373   6.662   4.830   6.452
10158SOL    HW231374   6.567   4.963   6.464
10159SOL     OW31375   3.909   2.980   1.899
10159SOL    HW131376   3.877   3.068   1.864
10159SOL    HW231377   3.984   2.947   1.842
10160SOL     OW31378   6.854   4.008   2.692
10160SOL    HW131379   6.880   4.105   2.685
10160SOL    HW231380   6.804   3.981   2.609
10161SOL     OW31381   6.591   2.980   0.213
10161SOL    HW131382   6.667   3.034   0.248
10161SOL    HW231383   6.506   3.012   0.253
10162SOL     OW31384   2.279   2.515   1.847
10162SOL    HW131385   2.225   2.553   1.771
10162SOL    HW231386   2.260   2.567   1.930
10163SOL     OW31387   3.170   5.461   4.928
10163SOL    HW131388   3.269   5.452   4.922
10163SOL    HW231389   3.136   5.516   4.851
10164SOL     OW31390   0.535   1.031   3.532
10164SOL    HW131391   0.574   0.979   3.456
10164SOL    HW231392   0.463   0.977   3.576
10165SOL     OW31393   1.961   3.604   3.885
10165SOL    HW131394   1.931   3.540   3.815
10165SOL    HW231395   2.045   3.649   3.856
10166SOL     OW31396   3.081   6.276   3.174
10166SOL    HW131397   3.031   6.362   3.169
10166SOL    HW231398   3.162   6.279   3.116
10167SOL     OW31399   3.993   1.824   6.775
10167SOL    HW131400   3.985   1.750   6.841
10167SOL    HW231401   3.951   1.907   6.812
10168SOL     OW31402   0.779   1.004   6.642
10168SOL    HW131403   0.727   0.919   6.631
10168SOL    HW231404   0.825   1.003   6.731
10169SOL     OW31405   4.496   5.178   2.971
10169SOL    HW131406   4.418   5.170   3.034
10169SOL    HW231407   4.510   5.090   2.925
10170SOL     OW31408   4.868   6.412   6.852
10170SOL    HW131409   4.912   6.474   6.917
10170SOL    HW231410   4.907   6.425   6.761
10171SOL     OW31411   1.442   4.080   2.814
10171SOL    HW131412   1.352   4.115   2.789
10171SOL    HW231413   1.446   4.066   2.913
10172SOL     OW31414   0.751   1.402   3.167
10172SOL    HW131415   0.687   1.343   3.217
10172SOL    HW231416   0.814   1.446   3.231
10173SOL     OW31417   4.481   2.380   4.782
10173SOL    HW131418   4.437   2.438   4.713
10173SOL    HW231419   4.453   2.285   4.769
10174SOL     OW31420   4.736   4.546   1.050
10174SOL    HW131421   4.671   4.569   1.122
10174SOL    HW231422   4.822   4.514   1.090
10175SOL     OW31423   6.309   6.949   3.464
10175SOL    HW131424   6.389   6.991   3.509
10175SOL    HW231425   6.249   0.002   3.429
10176SOL     OW31426   6.627   1.443   5.334
10176SOL    HW131427   6.646   1.467   5.429
10176SOL    HW231428   6.562   1.509   5.295
10177SOL     OW31429   3.251   1.054   4.668
10177SOL    HW131430   3.160   1.036   4.630
10177SOL    HW231431   3.305   1.105   4.602
10178SOL     OW31432   6.695   1.699   2.297
10178SOL    HW131433   6.715   1.796   2.311
10178SOL    HW231434   6.686   1.654   2.387
10179SOL     OW31435   0.328   6.087   0.924
10179SOL    HW131436   0.384   6.005   0.935
10179SOL    HW231437   0.238   6.072   0.966
10180SOL     OW31438   1.801   0.316   6.205
10180SOL    HW131439   1.834   0.396   6.155
10180SOL    HW231440   1.823   0.233   6.153
10181SOL     OW31441   6.911   4.166   2.031
10181SOL    HW131442   6.993   4.113   2.010
10181SOL    HW231443   6.842   4.152   1.960
10182SOL     OW31444   2.920   6.782   6.380
10182SOL    HW131445   2.999   6.721   6.380
10182SOL    HW231446   2.870   6.772   6.466
10183SOL     OW31447   3.821   5.793   6.173
10183SOL    HW131448   3.787   5.886   6.167
10183SOL    HW231449   3.846   5.760   6.082
10184SOL     OW31450   4.889   2.877   3.900
10184SOL    HW131451   4.855   2.857   3.992
10184SOL    HW231452   4.938   2.797   3.864
10185SOL     OW31453   3.008   4.772   1.799
10185SOL    HW131454   2.939   4.712   1.839
10185SOL    HW231455   3.083   4.717   1.763
10186SOL     OW31456   3.247   2.862   2.076
10186SOL    HW131457   3.196   2.909   2.005
10186SOL    HW231458   3.342   2.850   2.047
10187SOL     OW31459   1.627   3.597   5.591
10187SOL    HW131460   1.650   3.694   5.603
10187SOL    HW231461   1.625   3.576   5.494
10188SOL     OW31462   2.461   0.100   6.789
10188SOL    HW131463   2.480   0.057   6.877
10188SOL    HW231464   2.471   0.033   6.716
10189SOL     OW31465   2.162   1.729   5.078
10189SOL    HW131466   2.201   1.783   5.153
10189SOL    HW231467   2.235   1.700   5.017
10190SOL     OW31468   2.759   3.910   0.860
10190SOL    HW131469   2.782   3.996   0.816
10190SOL    HW231470   2.828   3.889   0.930
10191SOL     OW31471   6.062   0.542   6.983
10191SOL    HW131472   6.002   0.493   0.027
10191SOL    HW231473   6.018   0.627   6.954
10192SOL     OW31474   2.943   0.393   4.520
10192SOL    HW131475   2.942   0.482   4.565
10192SOL    HW231476   2.849   0.357   4.517
10193SOL     OW31477   3.701   2.905   3.909
10193SOL    HW131478   3.626   2.931   3.849
10193SOL    HW231479   3.678   2.929   4.004
10194SOL     OW31480   2.956   5.625   3.513
10194SOL    HW131481   2.922   5.611   3.420
10194SOL    HW231482   3.051   5.658   3.508
10195SOL     OW31483   5.219   0.260   2.277
10195SOL    HW131484   5.248   0.356   2.273
10195SOL    HW231485   5.291   0.206   2.321
10196SOL     OW31486   4.519   4.919   3.821
10196SOL    HW131487   4.578   4.896   3.744
10196SOL    HW231488   4.568   4.900   3.906
10197SOL     OW31489   5.121   1.985   3.060
10197SOL    HW131490   5.221   1.986   3.050
10197SOL    HW231491   5.085   2.076   3.039
10198SOL     OW31492   4.035   1.454   1.905
10198SOL    HW131493   4.134   1.435   1.907
10198SOL    HW231494   4.001   1.465   1.998
10199SOL     OW31495   1.041   2.010   0.182
10199SOL    HW131496   1.054   2.075   0.257
10199SOL    HW231497   1.063   1.917   0.214
10200SOL     OW31498   5.302   6.981   3.842
10200SOL    HW131499   5.291   6.893   3.796
10200SOL    HW231500   5.352   0.025   3.783
10201SOL     OW31501   0.848   5.271   3.292
10201SOL    HW131502   0.786   5.202   3.256
10201SOL    HW231503   0.941   5.250   3.261
10202SOL     OW31504   1.340   2.580   3.571
10202SOL    HW131505   1.434   2.550   3.552
10202SOL    HW231506   1.340   2.678   3.590
10203SOL     OW31507   6.519   2.430   1.011
10203SOL    HW131508   6.448   2.365   1.041
10203SOL    HW231509   6.524   2.429   0.911
10204SOL     OW31510   1.514   6.408   4.291
10204SOL    HW131511   1.505   6.373   4.198
10204SOL    HW231512   1.471   6.498   4.298
10205SOL     OW31513   3.554   6.639   0.986
10205SOL    HW131514   3.606   6.591   0.916
10205SOL    HW231515   3.602   6.633   1.073
10206SOL     OW31516   5.931   6.143   0.031
10206SOL    HW131517   6.001   6.131   6.980
10206SOL    HW231518   5.931   6.063   0.091
10207SOL     OW31519   3.457   1.246   2.238
10207SOL    HW131520   3.450   1.240   2.138
10207SOL    HW231521   3.380   1.199   2.279
10208SOL     OW31522   0.393   2.427   6.428
10208SOL    HW131523   0.427   2.340   6.463
10208SOL    HW231524   0.354   2.480   6.503
10209SOL     OW31525   3.407   6.303   7.011
10209SOL    HW131526   3.433   6.274   0.084
10209SOL    HW231527   3.318   6.348   7.014
10210SOL     OW31528   4.470   6.506   6.844
10210SOL    HW131529   4.530   6.456   6.907
10210SOL    HW231530   4.444   6.593   6.885
10211SOL     OW31531   3.513   5.270   5.057
10211SOL    HW131532   3.458   5.351   5.039
10211SOL    HW231533   3.511   5.249   5.155
10212SOL     OW31534   6.108   5.939   5.712
10212SOL    HW131535   6.101   5.998   5.792
10212SOL    HW231536   6.200   5.946   5.672
10213SOL     OW31537   3.935   0.380   4.683
10213SOL    HW131538   3.862   0.429   4.729
10213SOL    HW231539   4.019   0.433   4.686
10214SOL     OW31540   6.932   0.553   0.415
10214SOL    HW131541   6.988   0.531   0.335
10214SOL    HW231542   6.899   0.648   0.408
10215SOL     OW31543   4.666   2.560   0.284
10215SOL    HW131544   4.669   2.553   0.384
10215SOL    HW231545   4.676   2.656   0.257
10216SOL     OW31546   5.072   0.506   2.549
10216SOL    HW131547   5.085   0.409   2.534
10216SOL    HW231548   5.048   0.551   2.462
10217SOL     OW31549   3.123   2.130   5.896
10217SOL    HW131550   3.195   2.062   5.880
10217SOL    HW231551   3.069   2.103   5.976
10218SOL     OW31552   3.685   0.863   6.757
10218SOL    HW131553   3.694   0.820   6.667
10218SOL    HW231554   3.589   0.864   6.784
10219SOL     OW31555   0.108   5.073   0.830
10219SOL    HW131556   0.024   5.033   0.792
10219SOL    HW231557   0.187   5.021   0.797
10220SOL     OW31558   3.952   2.440   6.320
10220SOL    HW131559   3.881   2.506   6.344
10220SOL    HW231560   4.041   2.485   6.320
10221SOL     OW31561   2.410   0.639   4.304
10221SOL    HW131562   2.437   0.715   4.362
10221SOL    HW231563   2.319   0.654   4.268
10222SOL     OW31564   2.499   4.509   5.216
10222SOL    HW131565   2.580   4.465   5.254
10222SOL    HW231566   2.487   4.480   5.121
10223SOL     OW31567   1.500   5.195   5.982
10223SOL    HW131568   1.494   5.239   5.893
10223SOL    HW231569   1.429   5.232   6.043
10224SOL     OW31570   3.624   5.828   5.525
10224SOL    HW131571   3.534   5.866   5.549
10224SOL    HW231572   3.642   5.845   5.428
10225SOL     OW31573   5.202   6.896   4.587
10225SOL    HW131574   5.282   6.922   4.641
10225SOL    HW231575   5.232   6.846   4.506
10226SOL     OW31576   6.562   2.525   6.507
10226SOL    HW131577   6.604   2.613   6.526
10226SOL    HW231578   6.583   2.460   6.580
10227SOL     OW31579   4.612   4.532   5.444
10227SOL    HW131580   4.568   4.453   5.400
10227SOL    HW231581   4.659   4.587   5.375
10228SOL     OW31582   0.994   2.598   1.394
10228SOL    HW131583   1.089   2.596   1.423
10228SOL    HW231584   0.968   2.692   1.372
10229SOL     OW31585   3.055   0.726   1.886
10229SOL    HW131586   3.073   0.630   1.865
10229SOL    HW231587   3.142   0.776   1.887
10230SOL     OW31588   5.218   6.901   3.061
10230SOL    HW131589   5.120   6.914   3.076
10230SOL    HW231590   5.255   6.979   3.012
10231SOL     OW31591   4.928   6.148   4.754
10231SOL    HW131592   4.918   6.056   4.714
10231SOL    HW231593   4.849   6.167   4.813
10232SOL     OW31594   4.089   2.178   3.043
10232SOL    HW131595   4.133   2.159   3.131
10232SOL    HW231596   3.990   2.174   3.053
10233SOL     OW31597   4.488   6.361   5.326
10233SOL    HW131598   4.468   6.335   5.421
10233SOL    HW231599   4.587   6.361   5.311
10234SOL     OW31600   3.972   4.093   0.935
10234SOL    HW131601   3.990   4.009   0.986
10234SOL    HW231602   4.050   4.113   0.876
10235SOL     OW31603   4.982   0.151   0.000
10235SOL    HW131604   4.997   0.170   6.922
10235SOL    HW231605   4.894   0.190   0.029
10236SOL     OW31606   1.346   4.859   1.195
10236SOL    HW131607   1.334   4.877   1.292
10236SOL    HW231608   1.370   4.944   1.148
10237SOL     OW31609   5.804   2.579   3.076
10237SOL    HW131610   5.820   2.628   2.990
10237SOL    HW231611   5.707   2.560   3.086
10238SOL     OW31612   5.239   5.244   6.379
10238SOL    HW131613   5.144   5.243   6.411
10238SOL    HW231614   5.241   5.248   6.279
10239SOL     OW31615   5.535   3.550   4.456
10239SOL    HW131616   5.531   3.627   4.519
10239SOL    HW231617   5.622   3.503   4.466
10240SOL     OW31618   4.927   3.730   2.810
10240SOL    HW131619   4.903   3.741   2.907
10240SOL    HW231620   4.895   3.810   2.759
10241SOL     OW31621   1.337   2.494   2.580
10241SOL    HW131622   1.266   2.511   2.512
10241SOL    HW231623   1.313   2.538   2.667
10242SOL     OW31624   1.153   5.455   6.745
10242SOL    HW131625   1.192   5.371   6.707
10242SOL    HW231626   1.063   5.436   6.784
10243SOL     OW31627   0.315   5.679   3.756
10243SOL    HW131628   0.283   5.658   3.848
10243SOL    HW231629   0.328   5.594   3.705
10244SOL     OW31630   2.541   5.835   7.014
10244SOL    HW131631   2.466   5.773   6.991
10244SOL    HW231632   2.548   5.844   0.094
10245SOL     OW31633   3.558   3.342   1.094
10245SOL    HW131634   3.640   3.370   1.144
10245SOL    HW231635   3.499   3.287   1.154
10246SOL     OW31636   3.507   4.130   5.059
10246SOL    HW131637   3.530   4.092   5.149
10246SOL    HW231638   3.565   4.209   5.041
10247SOL     OW31639   1.318   5.669   6.664
10247SOL    HW131640   1.258   5.590   6.674
10247SOL    HW231641   1.263   5.750   6.647
10248SOL     OW31642   5.872   0.675   3.976
10248SOL    HW131643   5.860   0.585   4.017
10248SOL    HW231644   5.803   0.738   4.012
10249SOL     OW31645   4.643   0.650   6.204
10249SOL    HW131646   4.623   0.645   6.302
10249SOL    HW231647   4.565   0.616   6.152
10250SOL     OW31648   4.476   5.924   0.689
10250SOL    HW131649   4.544   5.891   0.755
10250SOL    HW231650   4.451   6.018   0.712
10251SOL     OW31651   3.685   4.316   1.208
10251SOL    HW131652   3.688   4.248   1.282
10251SOL    HW231653   3.720   4.403   1.242
10252SOL     OW31654   0.240   3.769   0.743
10252SOL    HW131655   0.169   3.807   0.803
10252SOL    HW231656   0.205   3.686   0.699
10253SOL     OW31657   4.671   4.280   6.836
10253SOL    HW131658   4.619   4.202   6.871
10253SOL    HW231659   4.664   4.357   6.898
10254SOL     OW31660   3.063   2.189   5.560
10254SOL    HW131661   3.003   2.167   5.483
10254SOL    HW231662   3.062   2.112   5.625
10255SOL     OW31663   3.277   4.975   4.109
10255SOL    HW131664   3.200   4.937   4.161
10255SOL    HW231665   3.339   5.023   4.171
10256SOL     OW31666   5.367   5.805   0.243
10256SOL    HW131667   5.306   5.810   0.322
10256SOL    HW231668   5.462   5.810   0.274
10257SOL     OW31669   1.731   4.324   5.207
10257SOL    HW131670   1.794   4.399   5.226
10257SOL    HW231671   1.752   4.247   5.268
10258SOL     OW31672   5.031   1.208   2.477
10258SOL    HW131673   4.979   1.131   2.516
10258SOL    HW231674   5.024   1.206   2.377
10259SOL     OW31675   6.123   3.572   4.331
10259SOL    HW131676   6.181   3.549   4.253
10259SOL    HW231677   6.040   3.516   4.328
10260SOL     OW31678   0.305   5.679   2.465
10260SOL    HW131679   0.277   5.589   2.496
10260SOL    HW231680   0.309   5.680   2.365
10261SOL     OW31681   2.108   0.394   2.067
10261SOL    HW131682   2.034   0.416   2.003
10261SOL    HW231683   2.071   0.345   2.145
10262SOL     OW31684   6.796   6.608   3.679
10262SOL    HW131685   6.877   6.600   3.620
10262SOL    HW231686   6.766   6.517   3.707
10263SOL     OW31687   6.253   3.275   4.950
10263SOL    HW131688   6.271   3.181   4.977
10263SOL    HW231689   6.326   3.308   4.891
10264SOL     OW31690   0.516   0.656   0.409
10264SOL    HW131691   0.573   0.606   0.344
10264SOL    HW231692   0.564   0.665   0.496
10265SOL     OW31693   5.023   2.280   4.160
10265SOL    HW131694   5.013   2.370   4.202
10265SOL    HW231695   4.934   2.233   4.158
10266SOL     OW31696   3.502   3.677   0.144
10266SOL    HW131697   3.451   3.680   0.230
10266SOL    HW231698   3.439   3.660   0.069
10267SOL     OW31699   0.031   0.612   6.457
10267SOL    HW131700   6.993   0.690   6.482
10267SOL    HW231701   7.013   0.568   6.375
10268SOL     OW31702   7.009   4.349   0.294
10268SOL    HW131703   6.970   4.436   0.323
10268SOL    HW231704   0.034   4.304   0.371
10269SOL     OW31705   4.435   1.477   5.813
10269SOL    HW131706   4.394   1.509   5.898
10269SOL    HW231707   4.419   1.545   5.741
10270SOL     OW31708   3.802   6.354   2.824
10270SOL    HW131709   3.708   6.320   2.832
10270SOL    HW231710   3.857   6.319   2.900
10271SOL     OW31711   1.955   4.745   1.163
10271SOL    HW131712   1.974   4.647   1.155
10271SOL    HW231713   1.933   4.767   1.258
10272SOL     OW31714   2.036   3.272   3.983
10272SOL    HW131715   1.994   3.200   3.928
10272SOL    HW231716   2.065   3.347   3.924
10273SOL     OW31717   4.479   6.651   3.998
10273SOL    HW131718   4.382   6.628   4.011
10273SOL    HW231719   4.536   6.580   4.039
10274SOL     OW31720   2.158   4.391   6.291
10274SOL    HW131721   2.187   4.479   6.255
10274SOL    HW231722   2.187   4.382   6.387
10275SOL     OW31723   0.880   5.874   1.939
10275SOL    HW131724   0.819   5.817   1.884
10275SOL    HW231725   0.950   5.914   1.881
10276SOL     OW31726   1.670   0.094   0.450
10276SOL    HW131727   1.672   0.184   0.407
10276SOL    HW231728   1.719   0.029   0.392
10277SOL     OW31729   6.579   5.749   2.027
10277SOL    HW131730   6.480   5.740   2.038
10277SOL    HW231731   6.605   5.720   1.935
10278SOL     OW31732   6.422   1.044   5.464
10278SOL    HW131733   6.433   1.099   5.381
10278SOL    HW231734   6.388   0.953   5.439
10279SOL     OW31735   3.748   5.964   4.118
10279SOL    HW131736   3.774   6.051   4.077
10279SOL    HW231737   3.818   5.895   4.096
10280SOL     OW31738   2.835   2.731   0.294
10280SOL    HW131739   2.843   2.814   0.240
10280SOL    HW231740   2.811   2.654   0.234
10281SOL     OW31741   4.285   1.033   4.279
10281SOL    HW131742   4.216   0.988   4.337
10281SOL    HW231743   4.339   0.963   4.232
10282SOL     OW31744   1.617   3.461   4.288
10282SOL    HW131745   1.700   3.421   4.249
10282SOL    HW231746   1.628   3.560   4.296
10283SOL     OW31747   1.323   5.372   6.308
10283SOL    HW131748   1.280   5.318   6.235
10283SOL    HW231749   1.262   5.445   6.336
10284SOL     OW31750   5.031   2.937   0.091
10284SOL    HW131751   5.119   2.958   0.047
10284SOL    HW231752   4.975   2.884   0.027
10285SOL     OW31753   5.152   1.584   1.320
10285SOL    HW131754   5.086   1.655   1.344
10285SOL    HW231755   5.207   1.562   1.401
10286SOL     OW31756   3.647   0.289   4.120
10286SOL    HW131757   3.583   0.365   4.107
10286SOL    HW231758   3.642   0.228   4.041
10287SOL     OW31759   2.174   4.024   2.514
10287SOL    HW131760   2.159   4.062   2.605
10287SOL    HW231761   2.128   3.935   2.506
10288SOL     OW31762   4.209   6.339   4.360
10288SOL    HW131763   4.161   6.254   4.383
10288SOL    HW231764   4.284   6.319   4.297
10289SOL     OW31765   2.396   1.434   1.744
10289SOL    HW131766   2.358   1.387   1.823
10289SOL    HW231767   2.495   1.440   1.753
10290SOL     OW31768   2.972   3.170   3.462
10290SOL    HW131769   2.934   3.169   3.555
10290SOL    HW231770   3.052   3.110   3.459
10291SOL     OW31771   3.903   0.297   4.173
10291SOL    HW131772   3.806   0.302   4.151
10291SOL    HW231773   3.957   0.293   4.088
10292SOL     OW31774   6.381   2.782   4.064
10292SOL    HW131775   6.450   2.713   4.084
10292SOL    HW231776   6.293   2.755   4.103
10293SOL     OW31777   1.244   4.397   2.967
10293SOL    HW131778   1.238   4.450   3.053
10293SOL    HW231779   1.331   4.418   2.922
10294SOL     OW31780   5.756   0.829   3.103
10294SOL    HW131781   5.840   0.847   3.154
10294SOL    HW231782   5.778   0.808   3.008
10295SOL     OW31783   1.757   3.885   3.286
10295SOL    HW131784   1.695   3.806   3.281
10295SOL    HW231785   1.729   3.944   3.361
10296SOL     OW31786   6.261   3.459   1.507
10296SOL    HW131787   6.239   3.551   1.541
10296SOL    HW231788   6.239   3.453   1.410
10297SOL     OW31789   3.678   4.922   5.191
10297SOL    HW131790   3.751   4.958   5.133
10297SOL    HW231791   3.635   4.997   5.241
10298SOL     OW31792   5.758   3.393   3.408
10298SOL    HW131793   5.806   3.314   3.371
10298SOL    HW231794   5.796   3.477   3.369
10299SOL     OW31795   4.168   4.969   2.356
10299SOL    HW131796   4.242   4.906   2.331
10299SOL    HW231797   4.084   4.942   2.309
10300SOL     OW31798   0.573   5.921   2.155
10300SOL    HW131799   0.478   5.913   2.186
10300SOL    HW231800   0.634   5.906   2.233
10301SOL     OW31801   4.507   0.601   1.579
10301SOL    HW131802   4.463   0.574   1.665
10301SOL    HW231803   4.549   0.521   1.537
10302SOL     OW31804   0.430   3.807   3.374
10302SOL    HW131805   0.451   3.729   3.316
10302SOL    HW231806   0.376   3.873   3.322
10303SOL     OW31807   4.682   3.470   0.976
10303SOL    HW131808   4.762   3.500   0.925
10303SOL    HW231809   4.675   3.370   0.970
10304SOL     OW31810   5.441   5.779   3.852
10304SOL    HW131811   5.477   5.806   3.941
10304SOL    HW231812   5.516   5.747   3.794
10305SOL     OW31813   2.501   5.303   1.485
10305SOL    HW131814   2.437   5.239   1.443
10305SOL    HW231815   2.573   5.327   1.419
10306SOL     OW31816   4.996   3.993   6.866
10306SOL    HW131817   5.020   3.903   6.902
10306SOL    HW231818   4.960   3.983   6.774
10307SOL     OW31819   2.826   2.006   5.804
10307SOL    HW131820   2.909   2.048   5.767
10307SOL    HW231821   2.841   1.981   5.900
10308SOL     OW31822   2.735   4.962   4.322
10308SOL    HW131823   2.718   4.880   4.377
10308SOL    HW231824   2.808   4.943   4.257
10309SOL     OW31825   0.357   6.519   3.464
10309SOL    HW131826   0.438   6.468   3.493
10309SOL    HW231827   0.289   6.519   3.537
10310SOL     OW31828   3.735   4.037   4.175
10310SOL    HW131829   3.692   4.074   4.256
10310SOL    HW231830   3.826   4.003   4.198
10311SOL     OW31831   1.297   6.719   0.812
10311SOL    HW131832   1.300   6.776   0.730
10311SOL    HW231833   1.209   6.732   0.858
10312SOL     OW31834   2.770   4.543   0.330
10312SOL    HW131835   2.750   4.641   0.334
10312SOL    HW231836   2.725   4.497   0.407
10313SOL     OW31837   6.516   6.043   3.995
10313SOL    HW131838   6.484   6.064   3.903
10313SOL    HW231839   6.526   6.128   4.047
10314SOL     OW31840   0.018   5.332   5.344
10314SOL    HW131841   0.011   5.232   5.344
10314SOL    HW231842   0.030   5.364   5.438
10315SOL     OW31843   3.948   6.368   5.392
10315SOL    HW131844   3.974   6.380   5.488
10315SOL    HW231845   4.028   6.341   5.339
10316SOL     OW31846   0.308   3.074   4.221
10316SOL    HW131847   0.300   2.996   4.285
10316SOL    HW231848   0.222   3.124   4.220
10317SOL     OW31849   5.889   4.239   6.489
10317SOL    HW131850   5.920   4.223   6.583
10317SOL    HW231851   5.880   4.337   6.473
10318SOL     OW31852   4.904   4.915   2.793
10318SOL    HW131853   4.950   4.832   2.761
10318SOL    HW231854   4.908   4.919   2.893
10319SOL     OW31855   4.709   6.487   3.418
10319SOL    HW131856   4.756   6.399   3.423
10319SOL    HW231857   4.612   6.473   3.436
10320SOL     OW31858   3.779   6.521   1.725
10320SOL    HW131859   3.692   6.560   1.694
10320SOL    HW231860   3.772   6.496   1.821
10321SOL     OW31861   4.713   6.192   4.931
10321SOL    HW131862   4.715   6.258   5.006
10321SOL    HW231863   4.624   6.148   4.927
10322SOL     OW31864   6.948   1.586   6.675
10322SOL    HW131865   6.947   1.657   6.745
10322SOL    HW231866   6.904   1.619   6.592
10323SOL     OW31867   0.690   2.426   5.083
10323SOL    HW131868   0.606   2.457   5.038
10323SOL    HW231869   0.671   2.345   5.138
10324SOL     OW31870   3.006   3.548   4.693
10324SOL    HW131871   3.042   3.608   4.765
10324SOL    HW231872   2.958   3.471   4.735
10325SOL     OW31873   0.543   3.134   3.729
10325SOL    HW131874   0.472   3.108   3.795
10325SOL    HW231875   0.537   3.232   3.710
10326SOL     OW31876   5.750   1.644   1.184
10326SOL    HW131877   5.723   1.598   1.268
10326SOL    HW231878   5.845   1.621   1.163
10327SOL     OW31879   6.022   1.658   3.550
10327SOL    HW131880   6.021   1.757   3.541
10327SOL    HW231881   6.101   1.630   3.604
10328SOL     OW31882   0.027   3.868   2.299
10328SOL    HW131883   7.013   3.812   2.374
10328SOL    HW231884   7.018   3.827   2.212
10329SOL     OW31885   2.901   5.627   2.971
10329SOL    HW131886   2.960   5.686   2.916
10329SOL    HW231887   2.917   5.531   2.946
10330SOL     OW31888   3.279   3.706   0.903
10330SOL    HW131889   3.242   3.736   0.815
10330SOL    HW231890   3.346   3.633   0.888
10331SOL     OW31891   5.362   1.875   4.773
10331SOL    HW131892   5.419   1.908   4.698
10331SOL    HW231893   5.349   1.948   4.840
10332SOL     OW31894   1.706   2.666   6.976
10332SOL    HW131895   1.782   2.641   0.017
10332SOL    HW231896   1.738   2.733   6.909
10333SOL     OW31897   0.264   4.625   5.271
10333SOL    HW131898   0.182   4.637   5.327
10333SOL    HW231899   0.343   4.663   5.319
10334SOL     OW31900   1.128   4.867   5.531
10334SOL    HW131901   1.100   4.777   5.566
10334SOL    HW231902   1.073   4.938   5.574
10335SOL     OW31903   3.001   5.131   3.057
10335SOL    HW131904   2.948   5.057   3.014
10335SOL    HW231905   3.050   5.094   3.137
10336SOL     OW31906   4.047   6.808   3.130
10336SOL    HW131907   3.995   6.730   3.097
10336SOL    HW231908   3.985   6.876   3.168
10337SOL     OW31909   1.321   3.792   6.630
10337SOL    HW131910   1.258   3.850   6.578
10337SOL    HW231911   1.411   3.835   6.632
10338SOL     OW31912   2.306   4.263   2.507
10338SOL    HW131913   2.270   4.172   2.486
10338SOL    HW231914   2.368   4.257   2.585
10339SOL     OW31915   3.363   6.100   6.826
10339SOL    HW131916   3.390   6.190   6.861
10339SOL    HW231917   3.264   6.089   6.834
10340SOL     OW31918   1.760   6.356   1.106
10340SOL    HW131919   1.828   6.297   1.061
10340SOL    HW231920   1.685   6.299   1.141
10341SOL     OW31921   6.998   3.636   2.113
10341SOL    HW131922   6.907   3.594   2.113
10341SOL    HW231923   0.041   3.581   2.169
10342SOL     OW31924   2.889   5.323   3.991
10342SOL    HW131925   2.952   5.276   3.930
10342SOL    HW231926   2.908   5.297   4.086
10343SOL     OW31927   2.601   2.134   4.806
10343SOL    HW131928   2.577   2.094   4.717
10343SOL    HW231929   2.526   2.118   4.871
10344SOL     OW31930   4.872   3.795   1.410
10344SOL    HW131931   4.893   3.726   1.341
10344SOL    HW231932   4.923   3.879   1.390
10345SOL     OW31933   3.434   1.565   6.503
10345SOL    HW131934   3.363   1.634   6.507
10345SOL    HW231935   3.393   1.476   6.483
10346SOL     OW31936   6.500   6.074   0.475
10346SOL    HW131937   6.490   5.990   0.421
10346SOL    HW231938   6.503   6.153   0.415
10347SOL     OW31939   4.093   0.011   2.318
10347SOL    HW131940   4.039   6.976   2.255
10347SOL    HW231941   4.115   0.100   2.277
10348SOL     OW31942   6.722   3.643   5.315
10348SOL    HW131943   6.648   3.646   5.382
10348SOL    HW231944   6.783   3.567   5.336
10349SOL     OW31945   6.209   2.052   0.133
10349SOL    HW131946   6.277   2.008   0.192
10349SOL    HW231947   6.234   2.037   0.037
10350SOL     OW31948   1.970   5.119   4.347
10350SOL    HW131949   1.972   5.024   4.316
10350SOL    HW231950   1.876   5.150   4.355
10351SOL     OW31951   3.519   5.557   5.072
10351SOL    HW131952   3.616   5.556   5.095
10351SOL    HW231953   3.467   5.592   5.150
10352SOL     OW31954   0.305   1.314   1.903
10352SOL    HW131955   0.311   1.355   1.812
10352SOL    HW231956   0.329   1.383   1.972
10353SOL     OW31957   5.824   2.943   3.523
10353SOL    HW131958   5.756   2.910   3.458
10353SOL    HW231959   5.842   3.040   3.507
10354SOL     OW31960   6.793   2.506   1.957
10354SOL    HW131961   6.773   2.555   1.872
10354SOL    HW231962   6.870   2.549   2.003
10355SOL     OW31963   6.916   2.143   0.829
10355SOL    HW131964   6.912   2.127   0.928
10355SOL    HW231965   6.841   2.095   0.784
10356SOL     OW31966   5.923   2.372   6.893
10356SOL    HW131967   5.939   2.279   6.926
10356SOL    HW231968   5.921   2.435   6.970
10357SOL     OW31969   0.450   0.039   6.456
10357SOL    HW131970   0.399   6.993   6.400
10357SOL    HW231971   0.506   0.096   6.396
10358SOL     OW31972   0.810   3.109   4.083
10358SOL    HW131973   0.725   3.160   4.099
10358SOL    HW231974   0.818   3.089   3.985
10359SOL     OW31975   0.942   2.459   2.863
10359SOL    HW131976   1.007   2.452   2.938
10359SOL    HW231977   0.985   2.506   2.786
10360SOL     OW31978   5.894   4.484   1.016
10360SOL    HW131979   5.913   4.581   1.029
10360SOL    HW231980   5.950   4.448   0.941
10361SOL     OW31981   5.670   2.035   3.211
10361SOL    HW131982   5.748   2.057   3.153
10361SOL    HW231983   5.700   1.976   3.286
10362SOL     OW31984   0.167   6.576   1.594
10362SOL    HW131985   0.147   6.499   1.654
10362SOL    HW231986   0.177   6.660   1.648
10363SOL     OW31987   5.923   4.942   6.234
10363SOL    HW131988   6.019   4.934   6.207
10363SOL    HW231989   5.894   4.857   6.279
10364SOL     OW31990   5.969   5.381   1.297
10364SOL    HW131991   5.921   5.296   1.274
10364SOL    HW231992   5.908   5.440   1.349
10365SOL     OW31993   6.151   6.121   6.896
10365SOL    HW131994   6.186   6.052   6.831
10365SOL    HW231995   6.166   6.212   6.858
10366SOL     OW31996   2.914   6.950   3.257
10366SOL    HW131997   2.905   7.006   3.174
10366SOL    HW231998   2.823   6.938   3.298
10367SOL     OW31999   4.880   6.041   2.078
10367SOL    HW132000   4.856   6.001   2.167
10367SOL    HW232001   4.801   6.090   2.042
10368SOL     OW32002   1.551   5.414   1.744
10368SOL    HW132003   1.556   5.390   1.841
10368SOL    HW232004   1.628   5.472   1.719
10369SOL     OW32005   2.241   0.858   5.708
10369SOL    HW132006   2.327   0.893   5.745
10369SOL    HW232007   2.189   0.934   5.669
10370SOL     OW32008   2.176   2.239   6.407
10370SOL    HW132009   2.076   2.243   6.409
10370SOL    HW232010   2.210   2.291   6.328
10371SOL     OW32011   3.679   5.528   3.098
10371SOL    HW132012   3.691   5.456   3.167
10371SOL    HW232013   3.768   5.570   3.079
10372SOL     OW32014   0.898   6.089   1.709
10372SOL    HW132015   0.891   6.016   1.641
10372SOL    HW232016   0.994   6.104   1.731
10373SOL     OW32017   6.445   0.273   6.067
10373SOL    HW132018   6.401   0.333   6.000
10373SOL    HW232019   6.382   0.199   6.091
10374SOL     OW32020   2.642   5.162   2.753
10374SOL    HW132021   2.635   5.065   2.731
10374SOL    HW232022   2.724   5.200   2.709
10375SOL     OW32023   2.597   5.685   6.768
10375SOL    HW132024   2.600   5.745   6.688
10375SOL    HW232025   2.626   5.736   6.849
10376SOL     OW32026   1.769   4.370   3.902
10376SOL    HW132027   1.797   4.426   3.824
10376SOL    HW232028   1.823   4.395   3.982
10377SOL     OW32029   3.045   0.678   3.878
10377SOL    HW132030   3.073   0.608   3.811
10377SOL    HW232031   3.089   0.765   3.854
10378SOL     OW32032   0.217   6.686   5.572
10378SOL    HW132033   0.311   6.660   5.595
10378SOL    HW232034   0.180   6.623   5.504
10379SOL     OW32035   0.994   5.737   3.326
10379SOL    HW132036   0.961   5.811   3.385
10379SOL    HW232037   0.994   5.651   3.377
10380SOL     OW32038   3.135   1.433   3.959
10380SOL    HW132039   3.123   1.529   3.932
10380SOL    HW232040   3.218   1.397   3.915
10381SOL     OW32041   2.702   0.378   2.930
10381SOL    HW132042   2.719   0.432   3.012
10381SOL    HW232043   2.709   0.280   2.952
10382SOL     OW32044   4.154   5.715   2.382
10382SOL    HW132045   4.105   5.630   2.398
10382SOL    HW232046   4.135   5.779   2.456
10383SOL     OW32047   0.471   6.902   6.920
10383SOL    HW132048   0.466   6.818   6.975
10383SOL    HW232049   0.566   6.925   6.902
10384SOL     OW32050   5.061   5.188   1.522
10384SOL    HW132051   5.012   5.117   1.472
10384SOL    HW232052   5.075   5.267   1.462
10385SOL     OW32053   3.973   4.610   6.865
10385SOL    HW132054   4.021   4.653   6.788
10385SOL    HW232055   3.884   4.653   6.877
10386SOL     OW32056   0.062   0.254   2.059
10386SOL    HW132057   0.102   0.266   1.968
10386SOL    HW232058   0.033   0.159   2.070
10387SOL     OW32059   5.763   1.714   1.800
10387SOL    HW132060   5.681   1.768   1.781
10387SOL    HW232061   5.831   1.772   1.845
10388SOL     OW32062   0.907   0.339   4.538
10388SOL    HW132063   0.946   0.271   4.600
10388SOL    HW232064   0.872   0.293   4.456
10389SOL     OW32065   0.422   3.486   0.568
10389SOL    HW132066   0.500   3.542   0.596
10389SOL    HW232067   0.337   3.536   0.587
10390SOL     OW32068   2.270   1.902   1.938
10390SOL    HW132069   2.350   1.961   1.947
10390SOL    HW232070   2.199   1.950   1.887
10391SOL     OW32071   6.474   6.802   2.788
10391SOL    HW132072   6.460   6.900   2.772
10391SOL    HW232073   6.394   6.751   2.755
10392SOL     OW32074   6.391   3.695   4.192
10392SOL    HW132075   6.477   3.737   4.220
10392SOL    HW232076   6.316   3.734   4.246
10393SOL     OW32077   1.704   2.781   2.040
10393SOL    HW132078   1.732   2.692   2.075
10393SOL    HW232079   1.668   2.770   1.948
10394SOL     OW32080   2.897   6.183   3.773
10394SOL    HW132081   2.830   6.187   3.847
10394SOL    HW232082   2.876   6.105   3.714
10395SOL     OW32083   0.709   1.132   1.566
10395SOL    HW132084   0.761   1.183   1.635
10395SOL    HW232085   0.771   1.097   1.497
10396SOL     OW32086   3.429   2.139   5.162
10396SOL    HW132087   3.376   2.210   5.114
10396SOL    HW232088   3.454   2.067   5.097
10397SOL     OW32089   5.130   1.553   3.803
10397SOL    HW132090   5.149   1.553   3.705
10397SOL    HW232091   5.181   1.480   3.847
10398SOL     OW32092   4.895   2.839   2.503
10398SOL    HW132093   4.863   2.877   2.417
10398SOL    HW232094   4.816   2.812   2.559
10399SOL     OW32095   0.632   3.818   2.167
10399SOL    HW132096   0.622   3.828   2.068
10399SOL    HW232097   0.589   3.896   2.212
10400SOL     OW32098   1.842   6.376   0.515
10400SOL    HW132099   1.758   6.404   0.468
10400SOL    HW232100   1.917   6.436   0.487
10401SOL     OW32101   6.565   1.113   5.673
10401SOL    HW132102   6.498   1.098   5.600
10401SOL    HW232103   6.529   1.178   5.739
10402SOL     OW32104   6.847   4.573   5.270
10402SOL    HW132105   6.807   4.567   5.179
10402SOL    HW232106   6.930   4.517   5.274
10403SOL     OW32107   3.262   0.184   0.942
10403SOL    HW132108   3.317   0.104   0.967
10403SOL    HW232109   3.166   0.166   0.962
10404SOL     OW32110   0.234   5.658   5.826
10404SOL    HW132111   0.152   5.606   5.850
10404SOL    HW232112   0.314   5.599   5.835
10405SOL     OW32113   0.365   1.526   0.263
10405SOL    HW132114   0.419   1.580   0.198
10405SOL    HW232115   0.349   1.435   0.225
10406SOL     OW32116   1.713   5.258   0.925
10406SOL    HW132117   1.619   5.290   0.934
10406SOL    HW232118   1.776   5.330   0.953
10407SOL     OW32119   2.227   5.970   0.048
10407SOL    HW132120   2.222   5.877   0.012
10407SOL    HW232121   2.196   5.970   0.143
10408SOL     OW32122   4.585   0.376   0.301
10408SOL    HW132123   4.580   0.470   0.333
10408SOL    HW232124   4.532   0.317   0.363
10409SOL     OW32125   6.260   4.467   0.528
10409SOL    HW132126   6.305   4.504   0.447
10409SOL    HW232127   6.327   4.453   0.601
10410SOL     OW32128   4.623   6.903   0.880
10410SOL    HW132129   4.690   6.828   0.884
10410SOL    HW232130   4.557   6.885   0.807
10411SOL     OW32131   1.683   5.433   4.174
10411SOL    HW132132   1.681   5.426   4.273
10411SOL    HW232133   1.597   5.472   4.141
10412SOL     OW32134   5.339   0.079   1.637
10412SOL    HW132135   5.400   0.053   1.562
10412SOL    HW232136   5.386   0.066   1.725
10413SOL     OW32137   5.838   3.225   2.545
10413SOL    HW132138   5.880   3.178   2.623
10413SOL    HW232139   5.908   3.246   2.477
10414SOL     OW32140   5.776   3.378   4.365
10414SOL    HW132141   5.875   3.366   4.364
10414SOL    HW232142   5.744   3.403   4.274
10415SOL     OW32143   0.865   0.882   6.869
10415SOL    HW132144   0.839   0.936   6.949
10415SOL    HW232145   0.847   0.785   6.887
10416SOL     OW32146   5.477   2.987   3.862
10416SOL    HW132147   5.467   2.906   3.919
10416SOL    HW232148   5.571   2.993   3.828
10417SOL     OW32149   1.563   4.033   2.572
10417SOL    HW132150   1.660   4.045   2.590
10417SOL    HW232151   1.511   4.046   2.656
10418SOL     OW32152   1.774   5.592   6.563
10418SOL    HW132153   1.686   5.598   6.515
10418SOL    HW232154   1.777   5.507   6.616
10419SOL     OW32155   1.608   0.825   6.741
10419SOL    HW132156   1.621   0.918   6.775
10419SOL    HW232157   1.511   0.806   6.732
10420SOL     OW32158   0.533   2.774   2.847
10420SOL    HW132159   0.510   2.683   2.813
10420SOL    HW232160   0.576   2.826   2.774
10421SOL     OW32161   0.855   2.029   2.982
10421SOL    HW132162   0.781   2.096   2.984
10421SOL    HW232163   0.826   1.949   2.929
10422SOL     OW32164   5.527   2.688   7.004
10422SOL    HW132165   5.534   2.746   0.065
10422SOL    HW232166   5.619   2.664   6.972
10423SOL     OW32167   4.961   5.587   3.061
10423SOL    HW132168   5.057   5.610   3.041
10423SOL    HW232169   4.903   5.629   2.992
10424SOL     OW32170   4.687   1.475   6.676
10424SOL    HW132171   4.736   1.556   6.709
10424SOL    HW232172   4.589   1.487   6.691
10425SOL     OW32173   1.617   6.654   2.088
10425SOL    HW132174   1.662   6.600   2.159
10425SOL    HW232175   1.642   6.618   1.998
10426SOL     OW32176   6.245   4.240   6.475
10426SOL    HW132177   6.176   4.179   6.435
10426SOL    HW232178   6.331   4.190   6.484
10427SOL     OW32179   5.315   0.713   1.371
10427SOL    HW132180   5.329   0.633   1.311
10427SOL    HW232181   5.387   0.716   1.440
10428SOL     OW32182   4.831   1.649   3.325
10428SOL    HW132183   4.761   1.720   3.329
10428SOL    HW232184   4.921   1.692   3.321
10429SOL     OW32185   5.434   5.266   2.739
10429SOL    HW132186   5.411   5.210   2.819
10429SOL    HW232187   5.406   5.361   2.756
10430SOL     OW32188   4.147   6.357   2.515
10430SOL    HW132189   4.238   6.367   2.556
10430SOL    HW232190   4.081   6.410   2.568
10431SOL     OW32191   2.184   1.345   5.477
10431SOL    HW132192   2.264   1.402   5.455
10431SOL    HW232193   2.132   1.327   5.393
10432SOL     OW32194   4.093   0.527   4.866
10432SOL    HW132195   4.012   0.484   4.904
10432SOL    HW232196   4.138   0.581   4.936
10433SOL     OW32197   2.828   6.501   1.096
10433SOL    HW132198   2.803   6.531   1.004
10433SOL    HW232199   2.746   6.490   1.151
10434SOL     OW32200   2.992   2.172   5.280
10434SOL    HW132201   2.947   2.139   5.197
10434SOL    HW232202   3.051   2.249   5.257
10435SOL     OW32203   5.714   5.334   6.421
10435SOL    HW132204   5.677   5.353   6.330
10435SOL    HW232205   5.647   5.357   6.491
10436SOL     OW32206   0.501   1.154   2.613
10436SOL    HW132207   0.463   1.088   2.548
10436SOL    HW232208   0.436   1.229   2.626
10437SOL     OW32209   0.366   3.716   6.158
10437SOL    HW132210   0.409   3.667   6.083
10437SOL    HW232211   0.426   3.716   6.237
10438SOL     OW32212   3.230   6.921   5.607
10438SOL    HW132213   3.226   6.822   5.622
10438SOL    HW232214   3.323   6.953   5.626
10439SOL     OW32215   3.376   0.634   5.605
10439SOL    HW132216   3.381   0.728   5.570
10439SOL    HW232217   3.298   0.626   5.667
10440SOL     OW32218   0.858   5.570   1.020
10440SOL    HW132219   0.947   5.602   0.989
10440SOL    HW232220   0.870   5.502   1.093
10441SOL     OW32221   4.036   0.366   0.496
10441SOL    HW132222   4.024   0.269   0.475
10441SOL    HW232223   3.962   0.418   0.456
10442SOL     OW32224   4.538   5.846   5.638
10442SOL    HW132225   4.473   5.815   5.567
10442SOL    HW232226   4.580   5.932   5.609
10443SOL     OW32227   6.024   2.862   4.613
10443SOL    HW132228   6.026   2.881   4.711
10443SOL    HW232229   5.949   2.914   4.571
10444SOL     OW32230   4.049   5.265   4.908
10444SOL    HW132231   3.978   5.269   4.978
10444SOL    HW232232   4.136   5.241   4.950
10445SOL     OW32233   6.285   6.188   2.071
10445SOL    HW132234   6.216   6.237   2.017
10445SOL    HW232235   6.301   6.237   2.157
10446SOL     OW32236   1.186   6.508   6.369
10446SOL    HW132237   1.176   6.566   6.288
10446SOL    HW232238   1.254   6.437   6.351
10447SOL     OW32239   5.759   1.879   0.061
10447SOL    HW132240   5.780   1.795   0.110
10447SOL    HW232241   5.806   1.879   6.992
10448SOL     OW32242   3.384   3.779   2.456
10448SOL    HW132243   3.481   3.789   2.479
10448SOL    HW232244   3.359   3.847   2.386
10449SOL     OW32245   1.680   5.361   4.715
10449SOL    HW132246   1.652   5.398   4.804
10449SOL    HW232247   1.775   5.387   4.696
10450SOL     OW32248   0.072   3.566   1.059
10450SOL    HW132249   0.172   3.559   1.062
10450SOL    HW232250   0.038   3.524   0.975
10451SOL     OW32251   2.389   4.666   1.967
10451SOL    HW132252   2.479   4.625   1.980
10451SOL    HW232253   2.389   4.722   1.884
10452SOL     OW32254   1.903   3.379   6.269
10452SOL    HW132255   1.811   3.382   6.230
10452SOL    HW232256   1.941   3.287   6.255
10453SOL     OW32257   5.334   0.774   1.772
10453SOL    HW132258   5.250   0.809   1.730
10453SOL    HW232259   5.390   0.728   1.703
10454SOL     OW32260   5.166   4.626   2.497
10454SOL    HW132261   5.247   4.567   2.504
10454SOL    HW232262   5.092   4.577   2.451
10455SOL     OW32263   0.395   4.476   3.129
10455SOL    HW132264   0.467   4.419   3.168
10455SOL    HW232265   0.367   4.545   3.196
10456SOL     OW32266   4.129   6.209   1.118
10456SOL    HW132267   4.045   6.161   1.143
10456SOL    HW232268   4.107   6.292   1.068
10457SOL     OW32269   3.288   2.907   4.262
10457SOL    HW132270   3.208   2.910   4.322
10457SOL    HW232271   3.260   2.919   4.167
10458SOL     OW32272   6.946   6.025   1.760
10458SOL    HW132273   6.864   6.025   1.817
10458SOL    HW232274   0.000   5.976   1.807
10459SOL     OW32275   0.062   4.600   1.466
10459SOL    HW132276   0.054   4.504   1.494
10459SOL    HW232277   7.002   4.625   1.410
10460SOL     OW32278   1.174   4.022   1.573
10460SOL    HW132279   1.180   4.007   1.672
10460SOL    HW232280   1.155   4.119   1.555
10461SOL     OW32281   3.333   0.132   6.499
10461SOL    HW132282   3.267   0.154   6.570
10461SOL    HW232283   3.312   0.184   6.416
10462SOL     OW32284   5.458   6.274   1.078
10462SOL    HW132285   5.361   6.263   1.054
10462SOL    HW232286   5.504   6.326   1.007
10463SOL     OW32287   3.787   3.416   1.264
10463SOL    HW132288   3.855   3.343   1.265
10463SOL    HW232289   3.809   3.481   1.191
10464SOL     OW32290   5.629   6.369   2.059
10464SOL    HW132291   5.593   6.320   2.138
10464SOL    HW232292   5.576   6.453   2.045
10465SOL     OW32293   0.464   4.977   4.696
10465SOL    HW132294   0.529   4.975   4.620
10465SOL    HW232295   0.440   4.883   4.722
10466SOL     OW32296   4.777   6.283   5.308
10466SOL    HW132297   4.810   6.346   5.378
10466SOL    HW232298   4.804   6.317   5.217
10467SOL     OW32299   4.263   1.224   4.490
10467SOL    HW132300   4.170   1.257   4.473
10467SOL    HW232301   4.296   1.172   4.411
10468SOL     OW32302   2.840   5.129   3.548
10468SOL    HW132303   2.777   5.110   3.624
10468SOL    HW232304   2.883   5.219   3.563
10469SOL     OW32305   1.020   4.515   6.179
10469SOL    HW132306   1.051   4.507   6.274
10469SOL    HW232307   0.925   4.547   6.179
10470SOL     OW32308   2.185   2.233   4.689
10470SOL    HW132309   2.120   2.301   4.656
10470SOL    HW232310   2.270   2.278   4.714
10471SOL     OW32311   4.762   3.799   6.765
10471SOL    HW132312   4.718   3.836   6.847
10471SOL    HW232313   4.715   3.833   6.684
10472SOL     OW32314   3.969   1.243   3.678
10472SOL    HW132315   3.962   1.201   3.588
10472SOL    HW232316   3.956   1.341   3.671
10473SOL     OW32317   4.830   5.303   6.932
10473SOL    HW132318   4.884   5.319   7.014
10473SOL    HW232319   4.748   5.361   6.934
10474SOL     OW32320   5.221   0.805   3.976
10474SOL    HW132321   5.158   0.811   3.899
10474SOL    HW232322   5.182   0.853   4.055
10475SOL     OW32323   4.152   6.673   1.571
10475SOL    HW132324   4.095   6.755   1.568
10475SOL    HW232325   4.230   6.689   1.632
10476SOL     OW32326   0.713   4.844   6.391
10476SOL    HW132327   0.787   4.897   6.349
10476SOL    HW232328   0.637   4.905   6.413
10477SOL     OW32329   4.620   4.396   5.100
10477SOL    HW132330   4.717   4.396   5.124
10477SOL    HW232331   4.565   4.384   5.183
10478SOL     OW32332   0.729   6.445   3.071
10478SOL    HW132333   0.650   6.385   3.059
10478SOL    HW232334   0.701   6.528   3.119
10479SOL     OW32335   0.744   4.214   2.209
10479SOL    HW132336   0.645   4.206   2.197
10479SOL    HW232337   0.765   4.225   2.306
10480SOL     OW32338   4.910   1.251   0.724
10480SOL    HW132339   4.962   1.208   0.798
10480SOL    HW232340   4.930   1.204   0.638
10481SOL     OW32341   2.683   1.804   4.449
10481SOL    HW132342   2.772   1.835   4.483
10481SOL    HW232343   2.682   1.809   4.349
10482SOL     OW32344   1.243   6.293   6.887
10482SOL    HW132345   1.159   6.346   6.892
10482SOL    HW232346   1.315   6.338   6.941
10483SOL     OW32347   0.486   5.719   0.757
10483SOL    HW132348   0.562   5.759   0.705
10483SOL    HW232349   0.490   5.620   0.750
10484SOL     OW32350   6.763   1.701   1.595
10484SOL    HW132351   6.765   1.607   1.631
10484SOL    HW232352   6.788   1.700   1.498
10485SOL     OW32353   3.962   3.937   4.288
10485SOL    HW132354   4.009   3.942   4.200
10485SOL    HW232355   3.948   3.842   4.314
10486SOL     OW32356   6.064   5.520   5.951
10486SOL    HW132357   6.009   5.499   5.870
10486SOL    HW232358   6.134   5.587   5.927
10487SOL     OW32359   5.511   3.992   2.895
10487SOL    HW132360   5.562   4.009   2.979
10487SOL    HW232361   5.466   3.903   2.900
10488SOL     OW32362   0.836   2.449   5.823
10488SOL    HW132363   0.737   2.465   5.819
10488SOL    HW232364   0.884   2.537   5.832
10489SOL     OW32365   5.748   5.190   2.829
10489SOL    HW132366   5.764   5.126   2.904
10489SOL    HW232367   5.700   5.271   2.864
10490SOL     OW32368   5.050   6.424   6.178
10490SOL    HW132369   5.110   6.353   6.142
10490SOL    HW232370   4.970   6.434   6.119
10491SOL     OW32371   2.183   1.916   5.319
10491SOL    HW132372   2.175   1.947   5.414
10491SOL    HW232373   2.275   1.881   5.303
10492SOL     OW32374   2.830   6.199   0.099
10492SOL    HW132375   2.917   6.167   0.136
10492SOL    HW232376   2.779   6.121   0.061
10493SOL     OW32377   3.773   5.843   0.685
10493SOL    HW132378   3.869   5.859   0.710
10493SOL    HW232379   3.769   5.796   0.597
10494SOL     OW32380   0.096   5.734   4.068
10494SOL    HW132381   0.038   5.723   3.988
10494SOL    HW232382   0.161   5.657   4.072
10495SOL     OW32383   6.002   6.398   0.068
10495SOL    HW132384   5.960   6.308   0.078
10495SOL    HW232385   6.016   6.418   6.990
10496SOL     OW32386   1.050   4.355   5.766
10496SOL    HW132387   0.968   4.360   5.708
10496SOL    HW232388   1.131   4.352   5.707
10497SOL     OW32389   3.638   6.122   0.620
10497SOL    HW132390   3.687   6.188   0.563
10497SOL    HW232391   3.677   6.031   0.607
10498SOL     OW32392   3.296   3.542   0.322
10498SOL    HW132393   3.213   3.571   0.274
10498SOL    HW232394   3.321   3.611   0.390
10499SOL     OW32395   4.227   4.690   3.318
10499SOL    HW132396   4.323   4.670   3.336
10499SOL    HW232397   4.180   4.712   3.403
10500SOL     OW32398   1.804   3.200   4.927
10500SOL    HW132399   1.883   3.253   4.895
10500SOL    HW232400   1.822   3.103   4.911
10501SOL     OW32401   3.709   4.915   3.284
10501SOL    HW132402   3.622   4.949   3.247
10501SOL    HW232403   3.780   4.921   3.214
10502SOL     OW32404   3.134   4.019   2.804
10502SOL    HW132405   3.068   3.945   2.819
10502SOL    HW232406   3.159   4.022   2.707
10503SOL     OW32407   6.844   0.756   0.691
10503SOL    HW132408   6.934   0.719   0.712
10503SOL    HW232409   6.852   0.826   0.620
10504SOL     OW32410   1.475   2.554   5.563
10504SOL    HW132411   1.378   2.540   5.545
10504SOL    HW232412   1.496   2.526   5.657
10505SOL     OW32413   5.881   6.403   1.020
10505SOL    HW132414   5.852   6.326   0.963
10505SOL    HW232415   5.829   6.484   0.995
10506SOL     OW32416   1.656   5.156   4.953
10506SOL    HW132417   1.595   5.095   4.903
10506SOL    HW232418   1.693   5.108   5.033
10507SOL     OW32419   1.646   6.561   5.822
10507SOL    HW132420   1.668   6.619   5.901
10507SOL    HW232421   1.570   6.500   5.845
10508SOL     OW32422   1.917   6.388   1.337
10508SOL    HW132423   1.857   6.383   1.257
10508SOL    HW232424   1.944   6.296   1.365
10509SOL     OW32425   4.978   3.484   2.200
10509SOL    HW132426   4.951   3.564   2.253
10509SOL    HW232427   4.955   3.497   2.104
10510SOL     OW32428   5.947   6.153   2.132
10510SOL    HW132429   5.981   6.068   2.090
10510SOL    HW232430   5.951   6.144   2.231
10511SOL     OW32431   3.974   1.871   0.808
10511SOL    HW132432   4.004   1.795   0.750
10511SOL    HW232433   3.915   1.932   0.755
10512SOL     OW32434   3.864   0.805   5.064
10512SOL    HW132435   3.784   0.745   5.069
10512SOL    HW232436   3.842   0.894   5.103
10513SOL     OW32437   3.885   3.705   0.335
10513SOL    HW132438   3.945   3.783   0.350
10513SOL    HW232439   3.923   3.647   0.262
10514SOL     OW32440   1.315   5.428   2.141
10514SOL    HW132441   1.388   5.408   2.076
10514SOL    HW232442   1.336   5.386   2.230
10515SOL     OW32443   1.867   3.898   4.784
10515SOL    HW132444   1.949   3.841   4.786
10515SOL    HW232445   1.863   3.953   4.867
10516SOL     OW32446   5.490   1.845   1.772
10516SOL    HW132447   5.431   1.903   1.828
10516SOL    HW232448   5.492   1.880   1.678
10517SOL     OW32449   0.380   1.735   2.383
10517SOL    HW132450   0.383   1.799   2.306
10517SOL    HW232451   0.286   1.719   2.410
10518SOL     OW32452   0.905   5.723   2.741
10518SOL    HW132453   0.840   5.744   2.814
10518SOL    HW232454   0.974   5.660   2.775
10519SOL     OW32455   2.466   6.454   0.601
10519SOL    HW132456   2.465   6.508   0.685
10519SOL    HW232457   2.426   6.364   0.620
10520SOL     OW32458   3.095   2.558   5.738
10520SOL    HW132459   3.152   2.640   5.727
10520SOL    HW232460   3.002   2.578   5.707
10521SOL     OW32461   6.307   2.001   2.698
10521SOL    HW132462   6.315   1.950   2.784
10521SOL    HW232463   6.269   1.942   2.627
10522SOL     OW32464   4.931   1.519   2.882
10522SOL    HW132465   4.833   1.512   2.900
10522SOL    HW232466   4.951   1.610   2.847
10523SOL     OW32467   0.349   3.853   1.835
10523SOL    HW132468   0.441   3.862   1.873
10523SOL    HW232469   0.296   3.788   1.889
10524SOL     OW32470   5.691   6.801   4.612
10524SOL    HW132471   5.613   6.811   4.551
10524SOL    HW232472   5.749   6.882   4.606
10525SOL     OW32473   4.542   2.124   3.231
10525SOL    HW132474   4.635   2.115   3.194
10525SOL    HW232475   4.492   2.039   3.215
10526SOL     OW32476   1.435   6.078   5.904
10526SOL    HW132477   1.337   6.064   5.887
10526SOL    HW232478   1.453   6.074   6.002
10527SOL     OW32479   0.442   6.241   6.024
10527SOL    HW132480   0.448   6.248   6.123
10527SOL    HW232481   0.355   6.278   5.992
10528SOL     OW32482   2.208   6.270   5.265
10528SOL    HW132483   2.251   6.357   5.289
10528SOL    HW232484   2.242   6.239   5.177
10529SOL     OW32485   6.703   5.277   0.231
10529SOL    HW132486   6.704   5.328   0.145
10529SOL    HW232487   6.671   5.337   0.305
10530SOL     OW32488   6.371   0.459   1.224
10530SOL    HW132489   6.305   0.533   1.241
10530SOL    HW232490   6.464   0.495   1.231
10531SOL     OW32491   3.240   1.359   6.398
10531SOL    HW132492   3.202   1.278   6.443
10531SOL    HW232493   3.224   1.352   6.299
10532SOL     OW32494   4.848   5.579   6.100
10532SOL    HW132495   4.774   5.641   6.127
10532SOL    HW232496   4.897   5.618   6.022
10533SOL     OW32497   4.224   6.793   3.383
10533SOL    HW132498   4.159   6.794   3.306
10533SOL    HW232499   4.300   6.855   3.363
10534SOL     OW32500   0.577   6.324   4.025
10534SOL    HW132501   0.494   6.310   4.078
10534SOL    HW232502   0.624   6.406   4.057
10535SOL     OW32503   4.222   1.559   2.320
10535SOL    HW132504   4.225   1.602   2.230
10535SOL    HW232505   4.313   1.563   2.361
10536SOL     OW32506   6.069   4.034   4.324
10536SOL    HW132507   6.085   4.125   4.362
10536SOL    HW232508   6.133   3.970   4.364
10537SOL     OW32509   2.892   1.199   2.751
10537SOL    HW132510   2.989   1.208   2.774
10537SOL    HW232511   2.872   1.254   2.669
10538SOL     OW32512   6.260   2.873   3.767
10538SOL    HW132513   6.186   2.839   3.710
10538SOL    HW232514   6.279   2.809   3.841
10539SOL     OW32515   6.628   6.969   2.428
10539SOL    HW132516   6.637   6.874   2.457
10539SOL    HW232517   6.669   0.010   2.497
10540SOL     OW32518   1.674   3.415   6.098
10540SOL    HW132519   1.702   3.458   6.012
10540SOL    HW232520   1.614   3.477   6.148
10541SOL     OW32521   3.304   1.964   5.812
10541SOL    HW132522   3.385   1.954   5.870
10541SOL    HW232523   3.328   2.013   5.728
10542SOL     OW32524   4.007   6.669   2.124
10542SOL    HW132525   3.982   6.644   2.217
10542SOL    HW232526   4.008   6.769   2.115
10543SOL     OW32527   1.598   2.709   4.022
10543SOL    HW132528   1.534   2.743   4.090
10543SOL    HW232529   1.562   2.624   3.982
10544SOL     OW32530   3.052   2.129   2.093
10544SOL    HW132531   3.012   2.214   2.059
10544SOL    HW232532   2.994   2.052   2.066
10545SOL     OW32533   1.335   3.002   1.696
10545SOL    HW132534   1.301   3.055   1.619
10545SOL    HW232535   1.429   2.973   1.678
10546SOL     OW32536   1.801   6.723   4.796
10546SOL    HW132537   1.715   6.706   4.844
10546SOL    HW232538   1.834   6.638   4.756
10547SOL     OW32539   3.372   5.883   5.881
10547SOL    HW132540   3.325   5.877   5.793
10547SOL    HW232541   3.464   5.845   5.874
10548SOL     OW32542   1.165   5.351   3.303
10548SOL    HW132543   1.219   5.412   3.245
10548SOL    HW232544   1.111   5.406   3.367
10549SOL     OW32545   6.885   1.536   2.759
10549SOL    HW132546   6.844   1.543   2.850
10549SOL    HW232547   6.888   1.440   2.730
10550SOL     OW32548   6.462   5.418   3.071
10550SOL    HW132549   6.508   5.331   3.054
10550SOL    HW232550   6.364   5.408   3.052
10551SOL     OW32551   4.414   0.253   4.615
10551SOL    HW132552   4.388   0.334   4.669
10551SOL    HW232553   4.342   0.234   4.548
10552SOL     OW32554   2.626   6.957   3.275
10552SOL    HW132555   2.569   6.988   3.199
10552SOL    HW232556   2.582   6.981   3.362
10553SOL     OW32557   5.459   5.767   1.152
10553SOL    HW132558   5.496   5.855   1.122
10553SOL    HW232559   5.382   5.783   1.214
10554SOL     OW32560   6.230   5.711   1.275
10554SOL    HW132561   6.245   5.649   1.198
10554SOL    HW232562   6.289   5.685   1.351
10555SOL     OW32563   3.552   3.173   2.247
10555SOL    HW132564   3.511   3.120   2.173
10555SOL    HW232565   3.565   3.115   2.327
10556SOL     OW32566   2.571   2.462   1.759
10556SOL    HW132567   2.488   2.511   1.785
10556SOL    HW232568   2.628   2.520   1.700
10557SOL     OW32569   0.568   4.303   2.768
10557SOL    HW132570   0.660   4.314   2.805
10557SOL    HW232571   0.570   4.314   2.669
10558SOL     OW32572   4.723   4.950   4.559
10558SOL    HW132573   4.715   4.858   4.597
10558SOL    HW232574   4.634   4.996   4.562
10559SOL     OW32575   3.936   5.952   1.238
10559SOL    HW132576   3.855   5.900   1.212
10559SOL    HW232577   3.930   5.976   1.335
10560SOL     OW32578   5.361   0.213   4.023
10560SOL    HW132579   5.279   0.169   4.059
10560SOL    HW232580   5.369   0.194   3.925
10561SOL     OW32581   1.163   5.119   5.163
10561SOL    HW132582   1.216   5.083   5.240
10561SOL    HW232583   1.214   5.106   5.078
10562SOL     OW32584   3.537   6.988   2.389
10562SOL    HW132585   3.550   0.056   2.341
10562SOL    HW232586   3.500   6.921   2.325
10563SOL     OW32587   2.100   5.795   1.817
10563SOL    HW132588   2.165   5.753   1.754
10563SOL    HW232589   2.093   5.739   1.900
10564SOL     OW32590   5.343   4.861   3.300
10564SOL    HW132591   5.376   4.851   3.394
10564SOL    HW232592   5.420   4.883   3.240
10565SOL     OW32593   0.387   1.409   4.508
10565SOL    HW132594   0.437   1.412   4.422
10565SOL    HW232595   0.441   1.452   4.581
10566SOL     OW32596   4.178   1.850   0.370
10566SOL    HW132597   4.228   1.768   0.400
10566SOL    HW232598   4.208   1.874   0.277
10567SOL     OW32599   3.169   1.719   6.545
10567SOL    HW132600   3.104   1.645   6.561
10567SOL    HW232601   3.140   1.801   6.595
10568SOL     OW32602   5.755   2.024   5.978
10568SOL    HW132603   5.752   2.035   6.077
10568SOL    HW232604   5.664   2.000   5.943
10569SOL     OW32605   4.682   0.402   0.706
10569SOL    HW132606   4.709   0.487   0.662
10569SOL    HW232607   4.597   0.416   0.757
10570SOL     OW32608   1.017   4.186   3.118
10570SOL    HW132609   1.105   4.147   3.144
10570SOL    HW232610   0.990   4.151   3.028
10571SOL     OW32611   0.395   3.728   5.385
10571SOL    HW132612   0.453   3.809   5.390
10571SOL    HW232613   0.446   3.648   5.416
10572SOL     OW32614   6.876   4.562   0.421
10572SOL    HW132615   6.830   4.645   0.389
10572SOL    HW232616   6.886   4.566   0.521
10573SOL     OW32617   6.021   2.732   3.643
10573SOL    HW132618   5.958   2.803   3.612
10573SOL    HW232619   6.028   2.661   3.574
10574SOL     OW32620   5.457   2.773   2.521
10574SOL    HW132621   5.428   2.868   2.513
10574SOL    HW232622   5.451   2.745   2.617
10575SOL     OW32623   4.794   0.625   2.632
10575SOL    HW132624   4.892   0.624   2.611
10575SOL    HW232625   4.779   0.591   2.724
10576SOL     OW32626   1.660   3.440   4.886
10576SOL    HW132627   1.692   3.358   4.933
10576SOL    HW232628   1.723   3.516   4.905
10577SOL     OW32629   3.892   4.371   6.723
10577SOL    HW132630   3.917   4.460   6.760
10577SOL    HW232631   3.964   4.339   6.661
10578SOL     OW32632   1.397   3.993   2.254
10578SOL    HW132633   1.320   3.959   2.308
10578SOL    HW232634   1.478   3.938   2.273
10579SOL     OW32635   0.138   3.593   6.834
10579SOL    HW132636   0.173   3.505   6.867
10579SOL    HW232637   0.060   3.577   6.773
10580SOL     OW32638   5.425   6.806   6.775
10580SOL    HW132639   5.504   6.746   6.789
10580SOL    HW232640   5.454   6.889   6.727
10581SOL     OW32641   4.476   0.946   2.473
10581SOL    HW132642   4.528   0.897   2.543
10581SOL    HW232643   4.391   0.981   2.514
10582SOL     OW32644   0.063   3.347   0.131
10582SOL    HW132645   0.081   3.260   0.085
10582SOL    HW232646   7.000   3.389   0.093
10583SOL     OW32647   4.265   2.001   5.560
10583SOL    HW132648   4.351   1.952   5.544
10583SOL    HW232649   4.265   2.040   5.652
10584SOL     OW32650   5.933   0.660   3.685
10584SOL    HW132651   5.924   0.760   3.685
10584SOL    HW232652   5.907   0.625   3.775
10585SOL     OW32653   1.040   1.322   5.047
10585SOL    HW132654   0.941   1.329   5.038
10585SOL    HW232655   1.082   1.406   5.012
10586SOL     OW32656   4.888   3.488   6.052
10586SOL    HW132657   4.811   3.442   6.007
10586SOL    HW232658   4.954   3.517   5.982
10587SOL     OW32659   2.248   5.376   5.027
10587SOL    HW132660   2.280   5.282   5.035
10587SOL    HW232661   2.262   5.423   5.114
10588SOL     OW32662   1.144   4.056   4.574
10588SOL    HW132663   1.085   3.976   4.572
10588SOL    HW232664   1.099   4.129   4.625
10589SOL     OW32665   5.442   0.189   3.734
10589SOL    HW132666   5.369   0.185   3.666
10589SOL    HW232667   5.529   0.206   3.688
10590SOL     OW32668   0.212   6.103   2.102
10590SOL    HW132669   0.265   6.132   2.023
10590SOL    HW232670   0.114   6.105   2.081
10591SOL     OW32671   6.437   4.384   2.573
10591SOL    HW132672   6.476   4.440   2.646
10591SOL    HW232673   6.375   4.440   2.518
10592SOL     OW32674   6.639   3.535   4.488
10592SOL    HW132675   6.614   3.456   4.432
10592SOL    HW232676   6.680   3.504   4.574
10593SOL     OW32677   3.705   5.593   3.466
10593SOL    HW132678   3.652   5.508   3.466
10593SOL    HW232679   3.801   5.573   3.487
10594SOL     OW32680   3.997   5.847   3.797
10594SOL    HW132681   3.935   5.769   3.795
10594SOL    HW232682   4.089   5.817   3.770
10595SOL     OW32683   5.534   6.056   0.485
10595SOL    HW132684   5.449   6.024   0.527
10595SOL    HW232685   5.595   6.092   0.555
10596SOL     OW32686   5.864   4.134   0.317
10596SOL    HW132687   5.876   4.176   0.407
10596SOL    HW232688   5.893   4.198   0.246
10597SOL     OW32689   1.012   6.548   5.257
10597SOL    HW132690   0.948   6.599   5.201
10597SOL    HW232691   1.105   6.557   5.221
10598SOL     OW32692   3.502   1.484   0.792
10598SOL    HW132693   3.479   1.508   0.886
10598SOL    HW232694   3.423   1.441   0.748
10599SOL     OW32695   0.819   2.194   0.752
10599SOL    HW132696   0.726   2.176   0.722
10599SOL    HW232697   0.821   2.275   0.809
10600SOL     OW32698   5.138   1.404   1.664
10600SOL    HW132699   5.230   1.430   1.633
10600SOL    HW232700   5.112   1.318   1.621
10601SOL     OW32701   2.078   1.719   4.759
10601SOL    HW132702   2.076   1.704   4.858
10601SOL    HW232703   2.087   1.817   4.741
10602SOL     OW32704   6.677   6.788   1.400
10602SOL    HW132705   6.640   6.881   1.399
10602SOL    HW232706   6.642   6.740   1.480
10603SOL     OW32707   5.629   0.954   2.745
10603SOL    HW132708   5.617   0.936   2.647
10603SOL    HW232709   5.695   0.889   2.783
10604SOL     OW32710   5.195   2.253   5.220
10604SOL    HW132711   5.174   2.281   5.313
10604SOL    HW232712   5.177   2.328   5.157
10605SOL     OW32713   4.278   2.280   1.285
10605SOL    HW132714   4.333   2.286   1.202
10605SOL    HW232715   4.316   2.341   1.354
10606SOL     OW32716   5.870   1.607   0.841
10606SOL    HW132717   5.777   1.579   0.866
10606SOL    HW232718   5.865   1.674   0.767
10607SOL     OW32719   2.719   5.078   0.948
10607SOL    HW132720   2.715   5.160   0.891
10607SOL    HW232721   2.808   5.073   0.993
10608SOL     OW32722   5.251   4.177   2.649
10608SOL    HW132723   5.261   4.192   2.551
10608SOL    HW232724   5.265   4.080   2.670
10609SOL     OW32725   5.954   6.984   6.512
10609SOL    HW132726   5.931   0.036   6.445
10609SOL    HW232727   5.878   6.975   6.577
10610SOL     OW32728   0.626   1.846   2.890
10610SOL    HW132729   0.612   1.832   2.988
10610SOL    HW232730   0.576   1.777   2.839
10611SOL     OW32731   4.355   5.474   5.565
10611SOL    HW132732   4.274   5.428   5.601
10611SOL    HW232733   4.437   5.434   5.605
10612SOL     OW32734   5.247   2.727   3.396
10612SOL    HW132735   5.176   2.796   3.409
10612SOL    HW232736   5.315   2.761   3.330
10613SOL     OW32737   5.157   5.293   5.319
10613SOL    HW132738   5.130   5.244   5.237
10613SOL    HW232739   5.236   5.248   5.361
10614SOL     OW32740   3.848   2.153   6.804
10614SOL    HW132741   3.903   2.191   6.878
10614SOL    HW232742   3.905   2.144   6.722
10615SOL     OW32743   2.724   2.237   5.405
10615SOL    HW132744   2.791   2.245   5.332
10615SOL    HW232745   2.768   2.256   5.493
10616SOL     OW32746   1.488   5.404   0.156
10616SOL    HW132747   1.509   5.472   0.085
10616SOL    HW232748   1.414   5.438   0.213
10617SOL     OW32749   2.115   2.689   0.296
10617SOL    HW132750   2.017   2.695   0.276
10617SOL    HW232751   2.156   2.780   0.285
10618SOL     OW32752   0.355   4.778   3.983
10618SOL    HW132753   0.419   4.737   4.048
10618SOL    HW232754   0.320   4.864   4.019
10619SOL     OW32755   1.257   2.840   1.048
10619SOL    HW132756   1.342   2.805   1.009
10619SOL    HW232757   1.268   2.854   1.146
10620SOL     OW32758   3.911   0.962   5.790
10620SOL    HW132759   3.931   0.939   5.886
10620SOL    HW232760   3.864   1.050   5.786
10621SOL     OW32761   0.764   4.719   4.622
10621SOL    HW132762   0.766   4.799   4.683
10621SOL    HW232763   0.684   4.663   4.643
10622SOL     OW32764   4.127   1.666   5.892
10622SOL    HW132765   4.092   1.599   5.957
10622SOL    HW232766   4.221   1.691   5.916
10623SOL     OW32767   5.658   4.542   5.380
10623SOL    HW132768   5.683   4.571   5.473
10623SOL    HW232769   5.735   4.558   5.319
10624SOL     OW32770   6.920   1.896   5.869
10624SOL    HW132771   7.014   1.888   5.901
10624SOL    HW232772   6.911   1.850   5.780
10625SOL     OW32773   5.419   5.644   6.771
10625SOL    HW132774   5.414   5.741   6.795
10625SOL    HW232775   5.346   5.622   6.706
10626SOL     OW32776   5.592   3.760   2.542
10626SOL    HW132777   5.525   3.712   2.598
10626SOL    HW232778   5.547   3.797   2.460
10627SOL     OW32779   5.830   4.863   5.450
10627SOL    HW132780   5.925   4.892   5.449
10627SOL    HW232781   5.820   4.782   5.508
10628SOL     OW32782   3.118   6.097   1.625
10628SOL    HW132783   3.192   6.031   1.624
10628SOL    HW232784   3.128   6.159   1.547
10629SOL     OW32785   4.549   5.731   4.432
10629SOL    HW132786   4.481   5.799   4.458
10629SOL    HW232787   4.516   5.640   4.455
10630SOL     OW32788   3.944   0.719   1.148
10630SOL    HW132789   3.867   0.782   1.157
10630SOL    HW232790   3.950   0.687   1.053
10631SOL     OW32791   3.987   6.076   1.979
10631SOL    HW132792   4.008   6.172   1.997
10631SOL    HW232793   3.962   6.031   2.065
10632SOL     OW32794   5.583   0.195   4.741
10632SOL    HW132795   5.584   0.290   4.772
10632SOL    HW232796   5.676   0.164   4.721
10633SOL     OW32797   2.445   2.838   0.024
10633SOL    HW132798   2.390   2.888   6.977
10633SOL    HW232799   2.515   2.785   6.996
10634SOL     OW32800   0.889   4.570   0.253
10634SOL    HW132801   0.933   4.654   0.223
10634SOL    HW232802   0.954   4.494   0.249
10635SOL     OW32803   2.918   4.688   6.823
10635SOL    HW132804   2.926   4.788   6.823
10635SOL    HW232805   2.949   4.652   6.736
10636SOL     OW32806   6.583   2.995   0.760
10636SOL    HW132807   6.520   3.066   0.792
10636SOL    HW232808   6.662   2.991   0.820
10637SOL     OW32809   1.969   0.432   5.570
10637SOL    HW132810   1.944   0.345   5.527
10637SOL    HW232811   1.937   0.507   5.513
10638SOL     OW32812   5.808   5.018   6.811
10638SOL    HW132813   5.756   4.980   6.887
10638SOL    HW232814   5.836   5.111   6.833
10639SOL     OW32815   6.712   5.064   6.998
10639SOL    HW132816   6.724   4.999   0.054
10639SOL    HW232817   6.701   5.014   6.912
10640SOL     OW32818   3.571   6.018   4.502
10640SOL    HW132819   3.646   5.956   4.526
10640SOL    HW232820   3.519   5.980   4.426
10641SOL     OW32821   0.955   1.543   3.825
10641SOL    HW132822   1.016   1.556   3.903
10641SOL    HW232823   0.872   1.496   3.854
10642SOL     OW32824   0.391   2.150   6.476
10642SOL    HW132825   0.435   2.078   6.530
10642SOL    HW232826   0.317   2.109   6.422
10643SOL     OW32827   2.765   5.216   5.046
10643SOL    HW132828   2.807   5.265   4.970
10643SOL    HW232829   2.666   5.234   5.047
10644SOL     OW32830   0.823   3.469   3.672
10644SOL    HW132831   0.784   3.517   3.594
10644SOL    HW232832   0.852   3.536   3.741
10645SOL     OW32833   1.883   3.382   3.706
10645SOL    HW132834   1.831   3.403   3.624
10645SOL    HW232835   1.829   3.321   3.765
10646SOL     OW32836   5.116   0.986   3.077
10646SOL    HW132837   5.207   1.027   3.077
10646SOL    HW232838   5.059   1.031   3.146
10647SOL     OW32839   3.970   5.666   4.665
10647SOL    HW132840   4.005   5.718   4.743
10647SOL    HW232841   3.945   5.574   4.695
10648SOL     OW32842   4.637   3.724   5.539
10648SOL    HW132843   4.638   3.815   5.580
10648SOL    HW232844   4.730   3.690   5.530
10649SOL     OW32845   6.189   3.505   3.718
10649SOL    HW132846   6.160   3.597   3.745
10649SOL    HW232847   6.284   3.508   3.687
10650SOL     OW32848   0.977   0.407   2.846
10650SOL    HW132849   0.973   0.507   2.844
10650SOL    HW232850   1.054   0.376   2.790
10651SOL     OW32851   2.041   5.842   5.479
10651SOL    HW132852   2.061   5.745   5.489
10651SOL    HW232853   1.989   5.874   5.558
10652SOL     OW32854   2.825   0.648   7.015
10652SOL    HW132855   2.825   0.727   6.953
10652SOL    HW232856   2.732   0.631   0.028
10653SOL     OW32857   5.533   6.418   4.281
10653SOL    HW132858   5.592   6.420   4.200
10653SOL    HW232859   5.440   6.394   4.254
10654SOL     OW32860   6.958   1.474   4.324
10654SOL    HW132861   6.882   1.509   4.269
10654SOL    HW232862   6.940   1.380   4.351
10655SOL     OW32863   6.642   5.583   0.577
10655SOL    HW132864   6.730   5.630   0.572
10655SOL    HW232865   6.656   5.484   0.581
10656SOL     OW32866   6.369   0.969   6.275
10656SOL    HW132867   6.415   1.055   6.293
10656SOL    HW232868   6.320   0.974   6.188
10657SOL     OW32869   4.304   6.631   5.570
10657SOL    HW132870   4.291   6.659   5.475
10657SOL    HW232871   4.257   6.695   5.631
10658SOL     OW32872   1.207   1.268   6.234
10658SOL    HW132873   1.138   1.260   6.306
10658SOL    HW232874   1.183   1.346   6.175
10659SOL     OW32875   0.615   5.676   6.989
10659SOL    HW132876   0.551   5.723   6.928
10659SOL    HW232877   0.709   5.688   6.956
10660SOL     OW32878   6.212   2.703   6.603
10660SOL    HW132879   6.268   2.738   6.678
10660SOL    HW232880   6.119   2.687   6.635
10661SOL     OW32881   3.424   5.697   5.298
10661SOL    HW132882   3.340   5.740   5.332
10661SOL    HW232883   3.494   5.768   5.283
10662SOL     OW32884   3.137   1.550   0.804
10662SOL    HW132885   3.198   1.564   0.882
10662SOL    HW232886   3.169   1.471   0.751
10663SOL     OW32887   6.761   3.151   4.078
10663SOL    HW132888   6.751   3.249   4.060
10663SOL    HW232889   6.768   3.102   3.992
10664SOL     OW32890   1.155   6.433   4.864
10664SOL    HW132891   1.190   6.462   4.953
10664SOL    HW232892   1.226   6.445   4.795
10665SOL     OW32893   3.470   3.535   0.771
10665SOL    HW132894   3.468   3.592   0.688
10665SOL    HW232895   3.454   3.440   0.746
10666SOL     OW32896   4.708   3.622   1.184
10666SOL    HW132897   4.779   3.568   1.229
10666SOL    HW232898   4.665   3.568   1.112
10667SOL     OW32899   5.872   2.359   4.102
10667SOL    HW132900   5.940   2.290   4.080
10667SOL    HW232901   5.911   2.450   4.089
10668SOL     OW32902   3.430   3.560   6.073
10668SOL    HW132903   3.418   3.554   6.172
10668SOL    HW232904   3.439   3.468   6.035
10669SOL     OW32905   6.384   2.927   1.817
10669SOL    HW132906   6.396   3.016   1.773
10669SOL    HW232907   6.373   2.940   1.916
10670SOL     OW32908   4.431   4.557   4.206
10670SOL    HW132909   4.355   4.608   4.165
10670SOL    HW232910   4.462   4.604   4.288
10671SOL     OW32911   2.090   3.222   4.703
10671SOL    HW132912   1.990   3.218   4.697
10671SOL    HW232913   2.116   3.267   4.789
10672SOL     OW32914   6.113   4.686   1.192
10672SOL    HW132915   6.044   4.757   1.190
10672SOL    HW232916   6.198   4.720   1.151
10673SOL     OW32917   3.366   1.404   1.593
10673SOL    HW132918   3.347   1.442   1.684
10673SOL    HW232919   3.358   1.305   1.597
10674SOL     OW32920   3.738   3.301   4.418
10674SOL    HW132921   3.818   3.334   4.469
10674SOL    HW232922   3.699   3.377   4.365
10675SOL     OW32923   3.618   6.100   5.611
10675SOL    HW132924   3.635   6.007   5.643
10675SOL    HW232925   3.695   6.159   5.634
10676SOL     OW32926   1.179   1.411   4.679
10676SOL    HW132927   1.278   1.395   4.682
10676SOL    HW232928   1.140   1.365   4.599
10677SOL     OW32929   0.303   1.977   0.104
10677SOL    HW132930   0.325   1.965   0.008
10677SOL    HW232931   0.243   1.902   0.134
10678SOL     OW32932   3.746   5.202   2.334
10678SOL    HW132933   3.700   5.114   2.335
10678SOL    HW232934   3.828   5.197   2.392
10679SOL     OW32935   5.388   4.156   0.166
10679SOL    HW132936   5.314   4.218   0.138
10679SOL    HW232937   5.406   4.091   0.093
10680SOL     OW32938   4.708   1.108   5.426
10680SOL    HW132939   4.674   1.134   5.336
10680SOL    HW232940   4.718   1.009   5.431
10681SOL     OW32941   2.665   3.195   5.343
10681SOL    HW132942   2.658   3.289   5.311
10681SOL    HW232943   2.606   3.136   5.288
10682SOL     OW32944   5.251   3.387   5.984
10682SOL    HW132945   5.275   3.307   6.039
10682SOL    HW232946   5.316   3.396   5.909
10683SOL     OW32947   1.950   0.588   3.293
10683SOL    HW132948   1.929   0.684   3.273
10683SOL    HW232949   1.873   0.548   3.343
10684SOL     OW32950   5.096   4.298   1.437
10684SOL    HW132951   5.124   4.286   1.532
10684SOL    HW232952   4.999   4.277   1.427
10685SOL     OW32953   0.806   0.203   2.910
10685SOL    HW132954   0.876   0.141   2.946
10685SOL    HW232955   0.835   0.297   2.926
10686SOL     OW32956   2.697   1.110   6.357
10686SOL    HW132957   2.658   1.037   6.413
10686SOL    HW232958   2.739   1.179   6.416
10687SOL     OW32959   0.717   2.874   3.344
10687SOL    HW132960   0.731   2.971   3.365
10687SOL    HW232961   0.793   2.840   3.289
10688SOL     OW32962   5.448   1.144   3.866
10688SOL    HW132963   5.497   1.149   3.953
10688SOL    HW232964   5.498   1.195   3.796
10689SOL     OW32965   1.422   1.270   2.909
10689SOL    HW132966   1.353   1.336   2.940
10689SOL    HW232967   1.399   1.238   2.817
10690SOL     OW32968   0.528   6.670   4.660
10690SOL    HW132969   0.448   6.634   4.611
10690SOL    HW232970   0.506   6.681   4.757
10691SOL     OW32971   3.281   6.620   1.043
10691SOL    HW132972   3.292   6.564   0.961
10691SOL    HW232973   3.359   6.606   1.104
10692SOL     OW32974   2.651   2.139   4.338
10692SOL    HW132975   2.747   2.150   4.365
10692SOL    HW232976   2.641   2.057   4.283
10693SOL     OW32977   1.035   4.848   6.899
10693SOL    HW132978   1.027   4.941   6.862
10693SOL    HW232979   1.131   4.827   6.915
10694SOL     OW32980   5.090   0.897   5.400
10694SOL    HW132981   5.023   0.963   5.365
10694SOL    HW232982   5.056   0.860   5.487
10695SOL     OW32983   4.856   4.539   1.354
10695SOL    HW132984   4.938   4.593   1.371
10695SOL    HW232985   4.788   4.557   1.426
10696SOL     OW32986   6.365   4.405   4.544
10696SOL    HW132987   6.366   4.432   4.640
10696SOL    HW232988   6.302   4.465   4.494
10697SOL     OW32989   2.568   5.176   4.356
10697SOL    HW132990   2.622   5.092   4.360
10697SOL    HW232991   2.475   5.157   4.390
10698SOL     OW32992   3.952   4.308   0.164
10698SOL    HW132993   4.040   4.293   0.117
10698SOL    HW232994   3.881   4.325   0.096
10699SOL     OW32995   3.879   3.738   1.331
10699SOL    HW132996   3.930   3.670   1.278
10699SOL    HW232997   3.893   3.724   1.428
10700SOL     OW32998   4.630   0.360   1.508
10700SOL    HW132999   4.701   0.295   1.482
10700SOL    HW233000   4.547   0.310   1.534
10701SOL     OW33001   3.499   6.089   6.313
10701SOL    HW133002   3.505   6.055   6.407
10701SOL    HW233003   3.467   6.015   6.254
10702SOL     OW33004   5.704   2.624   2.144
10702SOL    HW133005   5.667   2.532   2.129
10702SOL    HW233006   5.656   2.689   2.083
10703SOL     OW33007   0.682   1.873   5.480
10703SOL    HW133008   0.585   1.891   5.461
10703SOL    HW233009   0.737   1.904   5.403
10704SOL     OW33010   5.380   0.019   2.109
10704SOL    HW133011   5.419   0.074   2.183
10704SOL    HW233012   5.341   6.954   2.146
10705SOL     OW33013   4.947   3.458   0.825
10705SOL    HW133014   5.025   3.428   0.880
10705SOL    HW233015   4.938   3.557   0.830
10706SOL     OW33016   3.097   0.640   1.499
10706SOL    HW133017   3.171   0.694   1.459
10706SOL    HW233018   3.030   0.619   1.428
10707SOL     OW33019   4.524   6.779   2.943
10707SOL    HW133020   4.587   6.851   2.912
10707SOL    HW233021   4.556   6.743   3.031
10708SOL     OW33022   4.538   0.947   1.319
10708SOL    HW133023   4.497   0.972   1.407
10708SOL    HW233024   4.636   0.969   1.321
10709SOL     OW33025   5.978   4.763   2.672
10709SOL    HW133026   5.922   4.681   2.657
10709SOL    HW233027   6.071   4.746   2.642
10710SOL     OW33028   4.531   1.552   3.270
10710SOL    HW133029   4.594   1.475   3.281
10710SOL    HW233030   4.504   1.587   3.360
10711SOL     OW33031   2.767   6.606   2.661
10711SOL    HW133032   2.785   6.631   2.756
10711SOL    HW233033   2.823   6.527   2.636
10712SOL     OW33034   5.426   0.519   3.343
10712SOL    HW133035   5.384   0.449   3.401
10712SOL    HW233036   5.525   0.506   3.343
10713SOL     OW33037   1.087   3.711   1.698
10713SOL    HW133038   1.184   3.727   1.676
10713SOL    HW233039   1.062   3.617   1.676
10714SOL     OW33040   2.997   4.111   5.265
10714SOL    HW133041   2.939   4.029   5.262
10714SOL    HW233042   3.060   4.111   5.188
10715SOL     OW33043   6.021   1.023   2.086
10715SOL    HW133044   6.100   1.062   2.040
10715SOL    HW233045   5.947   1.090   2.089
10716SOL     OW33046   5.168   0.884   3.351
10716SOL    HW133047   5.183   0.826   3.272
10716SOL    HW233048   5.105   0.958   3.326
10717SOL     OW33049   2.880   2.577   6.733
10717SOL    HW133050   2.881   2.673   6.762
10717SOL    HW233051   2.931   2.522   6.799
10718SOL     OW33052   1.692   5.041   6.232
10718SOL    HW133053   1.636   5.089   6.300
10718SOL    HW233054   1.633   5.006   6.160
10719SOL     OW33055   0.495   5.716   4.583
10719SOL    HW133056   0.478   5.619   4.599
10719SOL    HW233057   0.469   5.738   4.488
10720SOL     OW33058   7.002   5.408   3.051
10720SOL    HW133059   0.026   5.438   2.966
10720SOL    HW233060   6.913   5.453   3.059
10721SOL     OW33061   5.061   2.458   6.113
10721SOL    HW133062   5.117   2.384   6.076
10721SOL    HW233063   5.024   2.430   6.202
10722SOL     OW33064   0.326   3.373   5.207
10722SOL    HW133065   0.397   3.327   5.260
10722SOL    HW233066   0.236   3.339   5.233
10723SOL     OW33067   5.278   6.906   0.737
10723SOL    HW133068   5.364   6.858   0.753
10723SOL    HW233069   5.256   6.903   0.639
10724SOL     OW33070   0.239   5.910   6.592
10724SOL    HW133071   0.155   5.864   6.619
10724SOL    HW233072   0.226   6.009   6.595
10725SOL     OW33073   1.894   6.584   6.193
10725SOL    HW133074   1.868   6.558   6.100
10725SOL    HW233075   1.988   6.554   6.211
10726SOL     OW33076   4.063   0.838   3.766
10726SOL    HW133077   4.123   0.900   3.818
10726SOL    HW233078   4.010   0.782   3.828
10727SOL     OW33079   1.656   6.614   6.309
10727SOL    HW133080   1.738   6.584   6.261
10727SOL    HW233081   1.631   6.547   6.378
10728SOL     OW33082   5.290   5.533   1.143
10728SOL    HW133083   5.355   5.491   1.206
10728SOL    HW233084   5.331   5.615   1.103
10729SOL     OW33085   6.302   2.062   0.934
10729SOL    HW133086   6.357   2.052   1.017
10729SOL    HW233087   6.250   1.977   0.919
10730SOL     OW33088   4.480   0.532   2.759
10730SOL    HW133089   4.498   0.540   2.661
10730SOL    HW233090   4.563   0.552   2.810
10731SOL     OW33091   4.051   0.108   1.032
10731SOL    HW133092   4.043   0.208   1.031
10731SOL    HW233093   4.057   0.076   1.126
10732SOL     OW33094   0.850   3.537   6.184
10732SOL    HW133095   0.800   3.463   6.230
10732SOL    HW233096   0.876   3.507   6.092
10733SOL     OW33097   5.769   1.415   0.399
10733SOL    HW133098   5.737   1.350   0.331
10733SOL    HW233099   5.864   1.395   0.423
10734SOL     OW33100   6.337   3.013   2.091
10734SOL    HW133101   6.372   2.982   2.179
10734SOL    HW233102   6.372   3.105   2.072
10735SOL     OW33103   0.323   5.450   2.742
10735SOL    HW133104   0.368   5.526   2.788
10735SOL    HW233105   0.357   5.443   2.648
10736SOL     OW33106   1.996   1.115   4.168
10736SOL    HW133107   1.969   1.183   4.236
10736SOL    HW233108   2.002   1.025   4.211
10737SOL     OW33109   6.873   1.813   0.640
10737SOL    HW133110   6.906   1.895   0.594
10737SOL    HW233111   6.924   1.800   0.725
10738SOL     OW33112   4.069   0.204   3.898
10738SOL    HW133113   4.011   0.124   3.883
10738SOL    HW233114   4.146   0.202   3.834
10739SOL     OW33115   2.695   1.859   1.709
10739SOL    HW133116   2.785   1.826   1.738
10739SOL    HW233117   2.650   1.790   1.653
10740SOL     OW33118   4.388   5.873   3.269
10740SOL    HW133119   4.415   5.967   3.294
10740SOL    HW233120   4.470   5.819   3.251
10741SOL     OW33121   2.856   0.702   2.912
10741SOL    HW133122   2.943   0.702   2.863
10741SOL    HW233123   2.821   0.796   2.917
10742SOL     OW33124   6.796   5.294   0.841
10742SOL    HW133125   6.805   5.345   0.926
10742SOL    HW233126   6.850   5.210   0.847
10743SOL     OW33127   2.501   2.134   5.198
10743SOL    HW133128   2.492   2.110   5.294
10743SOL    HW233129   2.575   2.201   5.186
10744SOL     OW33130   5.691   1.889   0.404
10744SOL    HW133131   5.592   1.884   0.394
10744SOL    HW233132   5.725   1.971   0.358
10745SOL     OW33133   0.079   5.794   6.340
10745SOL    HW133134   0.171   5.815   6.305
10745SOL    HW233135   0.084   5.777   6.438
10746SOL     OW33136   1.638   4.212   6.003
10746SOL    HW133137   1.728   4.169   5.995
10746SOL    HW233138   1.641   4.302   5.961
10747SOL     OW33139   3.374   2.039   4.436
10747SOL    HW133140   3.349   1.966   4.500
10747SOL    HW233141   3.469   2.066   4.451
10748SOL     OW33142   5.323   1.207   2.344
10748SOL    HW133143   5.280   1.117   2.348
10748SOL    HW233144   5.258   1.273   2.307
10749SOL     OW33145   2.544   6.786   6.986
10749SOL    HW133146   2.625   6.775   0.024
10749SOL    HW233147   2.550   6.724   6.908
10750SOL     OW33148   4.026   6.322   6.138
10750SOL    HW133149   4.021   6.298   6.235
10750SOL    HW233150   4.045   6.239   6.085
10751SOL     OW33151   2.338   5.373   3.712
10751SOL    HW133152   2.241   5.388   3.697
10751SOL    HW233153   2.387   5.459   3.704
10752SOL     OW33154   4.915   4.925   3.732
10752SOL    HW133155   4.946   4.919   3.827
10752SOL    HW233156   4.991   4.906   3.671
10753SOL     OW33157   6.470   3.891   4.561
10753SOL    HW133158   6.482   3.815   4.625
10753SOL    HW233159   6.394   3.872   4.499
10754SOL     OW33160   1.215   6.959   2.089
10754SOL    HW133161   1.267   0.014   2.046
10754SOL    HW233162   1.278   6.885   2.115
10755SOL     OW33163   6.067   5.389   1.616
10755SOL    HW133164   5.975   5.381   1.656
10755SOL    HW233165   6.114   5.301   1.624
10756SOL     OW33166   0.513   6.966   4.976
10756SOL    HW133167   0.435   0.008   4.990
10756SOL    HW233168   0.594   7.004   5.021
10757SOL     OW33169   2.951   3.115   1.143
10757SOL    HW133170   2.978   3.056   1.067
10757SOL    HW233171   2.886   3.184   1.110
10758SOL     OW33172   0.032   5.235   3.980
10758SOL    HW133173   0.033   5.136   3.967
10758SOL    HW233174   6.980   5.259   4.046
10759SOL     OW33175   0.029   1.335   6.652
10759SOL    HW133176   7.006   1.426   6.653
10759SOL    HW233177   0.021   1.294   6.743
10760SOL     OW33178   5.979   1.709   4.893
10760SOL    HW133179   5.994   1.614   4.867
10760SOL    HW233180   5.939   1.713   4.985
10761SOL     OW33181   2.558   5.219   5.325
10761SOL    HW133182   2.605   5.301   5.358
10761SOL    HW233183   2.486   5.193   5.389
10762SOL     OW33184   2.982   1.662   5.384
10762SOL    HW133185   2.974   1.721   5.304
10762SOL    HW233186   2.935   1.704   5.462
10763SOL     OW33187   4.456   6.278   4.230
10763SOL    HW133188   4.542   6.323   4.205
10763SOL    HW233189   4.447   6.193   4.178
10764SOL     OW33190   4.475   6.941   5.023
10764SOL    HW133191   4.494   6.996   4.941
10764SOL    HW233192   4.385   6.898   5.013
10765SOL     OW33193   6.362   3.784   6.977
10765SOL    HW133194   6.304   3.823   6.906
10765SOL    HW233195   6.355   3.839   0.041
10766SOL     OW33196   3.402   3.585   1.640
10766SOL    HW133197   3.482   3.632   1.603
10766SOL    HW233198   3.395   3.494   1.598
10767SOL     OW33199   4.880   1.599   2.216
10767SOL    HW133200   4.818   1.524   2.237
10767SOL    HW233201   4.827   1.680   2.192
10768SOL     OW33202   6.286   4.750   6.527
10768SOL    HW133203   6.268   4.787   6.436
10768SOL    HW233204   6.282   4.650   6.524
10769SOL     OW33205   1.758   3.654   5.057
10769SOL    HW133206   1.756   3.592   5.135
10769SOL    HW233207   1.673   3.706   5.053
10770SOL     OW33208   4.117   6.283   4.023
10770SOL    HW133209   4.165   6.207   4.066
10770SOL    HW233210   4.085   6.256   3.933
10771SOL     OW33211   2.222   1.138   3.973
10771SOL    HW133212   2.288   1.184   4.033
10771SOL    HW233213   2.129   1.161   4.003
10772SOL     OW33214   5.393   5.581   3.521
10772SOL    HW133215   5.310   5.535   3.552
10772SOL    HW233216   5.376   5.679   3.512
10773SOL     OW33217   5.768   4.578   2.667
10773SOL    HW133218   5.764   4.478   2.666
10773SOL    HW233219   5.724   4.613   2.750
10774SOL     OW33220   0.001   6.873   2.831
10774SOL    HW133221   0.023   6.857   2.735
10774SOL    HW233222   0.085   6.892   2.882
10775SOL     OW33223   7.011   3.342   1.434
10775SOL    HW133224   0.024   3.436   1.439
10775SOL    HW233225   0.068   3.282   1.409
10776SOL     OW33226   1.452   0.616   6.002
10776SOL    HW133227   1.462   0.522   5.969
10776SOL    HW233228   1.540   0.663   5.995
10777SOL     OW33229   2.643   5.782   1.102
10777SOL    HW133230   2.726   5.794   1.047
10777SOL    HW233231   2.665   5.796   1.198
10778SOL     OW33232   5.655   5.752   2.393
10778SOL    HW133233   5.693   5.791   2.477
10778SOL    HW233234   5.650   5.652   2.402
10779SOL     OW33235   4.886   3.157   3.955
10779SOL    HW133236   4.839   3.182   4.039
10779SOL    HW233237   4.886   3.058   3.944
10780SOL     OW33238   6.758   0.467   2.340
10780SOL    HW133239   6.769   0.445   2.243
10780SOL    HW233240   6.660   0.476   2.360
10781SOL     OW33241   3.480   0.306   4.359
10781SOL    HW133242   3.423   0.382   4.327
10781SOL    HW233243   3.559   0.296   4.299
10782SOL     OW33244   6.066   4.942   3.830
10782SOL    HW133245   6.098   4.922   3.738
10782SOL    HW233246   6.028   5.034   3.834
10783SOL     OW33247   6.812   2.047   3.301
10783SOL    HW133248   6.809   2.137   3.345
10783SOL    HW233249   6.721   2.023   3.268
10784SOL     OW33250   2.443   1.801   5.264
10784SOL    HW133251   2.483   1.793   5.173
10784SOL    HW233252   2.514   1.828   5.329
10785SOL     OW33253   1.220   3.431   6.022
10785SOL    HW133254   1.235   3.342   6.065
10785SOL    HW233255   1.298   3.490   6.039
10786SOL     OW33256   0.201   4.543   4.007
10786SOL    HW133257   0.222   4.638   4.032
10786SOL    HW233258   0.139   4.543   3.928
10787SOL     OW33259   2.500   2.174   6.678
10787SOL    HW133260   2.528   2.236   6.605
10787SOL    HW233261   2.462   2.228   6.754
10788SOL     OW33262   5.627   3.659   6.006
10788SOL    HW133263   5.578   3.676   5.920
10788SOL    HW233264   5.636   3.561   6.020
10789SOL     OW33265   5.579   1.501   0.569
10789SOL    HW133266   5.497   1.445   0.555
10789SOL    HW233267   5.652   1.469   0.509
10790SOL     OW33268   6.098   6.155   2.759
10790SOL    HW133269   6.195   6.166   2.739
10790SOL    HW233270   6.083   6.165   2.858
10791SOL     OW33271   0.789   6.320   2.436
10791SOL    HW133272   0.861   6.314   2.505
10791SOL    HW233273   0.776   6.415   2.409
10792SOL     OW33274   4.123   4.160   6.060
10792SOL    HW133275   4.125   4.189   6.155
10792SOL    HW233276   4.169   4.072   6.050
10793SOL     OW33277   6.376   3.938   3.876
10793SOL    HW133278   6.375   4.002   3.953
10793SOL    HW233279   6.452   3.874   3.887
10794SOL     OW33280   3.166   4.064   4.551
10794SOL    HW133281   3.235   4.132   4.574
10794SOL    HW233282   3.201   4.003   4.480
10795SOL     OW33283   6.890   5.294   2.764
10795SOL    HW133284   6.820   5.225   2.747
10795SOL    HW233285   6.846   5.385   2.766
10796SOL     OW33286   1.029   6.285   5.377
10796SOL    HW133287   1.100   6.283   5.447
10796SOL    HW233288   1.008   6.381   5.355
10797SOL     OW33289   3.592   2.834   0.294
10797SOL    HW133290   3.674   2.840   0.350
10797SOL    HW233291   3.522   2.782   0.343
10798SOL     OW33292   6.304   1.341   0.818
10798SOL    HW133293   6.310   1.401   0.898
10798SOL    HW233294   6.214   1.349   0.776
10799SOL     OW33295   4.750   1.592   0.996
10799SOL    HW133296   4.712   1.626   0.910
10799SOL    HW233297   4.849   1.591   0.991
10800SOL     OW33298   6.614   6.868   1.681
10800SOL    HW133299   6.542   6.929   1.714
10800SOL    HW233300   6.699   6.920   1.668
10801SOL     OW33301   1.927   0.800   1.271
10801SOL    HW133302   1.876   0.718   1.297
10801SOL    HW233303   2.014   0.802   1.321
10802SOL     OW33304   5.875   1.679   3.311
10802SOL    HW133305   5.916   1.614   3.247
10802SOL    HW233306   5.915   1.667   3.401
10803SOL     OW33307   2.050   5.189   6.409
10803SOL    HW133308   2.144   5.221   6.417
10803SOL    HW233309   2.043   5.125   6.332
10804SOL     OW33310   0.171   3.424   4.387
10804SOL    HW133311   0.256   3.476   4.393
10804SOL    HW233312   0.161   3.387   4.294
10805SOL     OW33313   6.471   0.667   6.565
10805SOL    HW133314   6.378   0.701   6.579
10805SOL    HW233315   6.512   0.713   6.485
10806SOL     OW33316   1.585   5.217   6.953
10806SOL    HW133317   1.578   5.282   0.009
10806SOL    HW233318   1.669   5.163   6.963
10807SOL     OW33319   3.137   5.872   4.856
10807SOL    HW133320   3.215   5.835   4.908
10807SOL    HW233321   3.082   5.796   4.822
10808SOL     OW33322   1.133   2.988   6.232
10808SOL    HW133323   1.199   2.932   6.182
10808SOL    HW233324   1.080   3.043   6.168
10809SOL     OW33325   1.089   0.090   4.542
10809SOL    HW133326   1.080   0.041   4.455
10809SOL    HW233327   1.185   0.113   4.558
10810SOL     OW33328   6.263   0.602   4.229
10810SOL    HW133329   6.306   0.690   4.247
10810SOL    HW233330   6.275   0.541   4.307
10811SOL     OW33331   5.308   5.708   4.921
10811SOL    HW133332   5.349   5.789   4.963
10811SOL    HW233333   5.209   5.721   4.914
10812SOL     OW33334   0.046   2.884   0.393
10812SOL    HW133335   6.988   2.946   0.408
10812SOL    HW233336   0.094   2.870   0.480
10813SOL     OW33337   1.185   3.485   6.644
10813SOL    HW133338   1.092   3.467   6.676
10813SOL    HW233339   1.193   3.581   6.616
10814SOL     OW33340   3.645   1.578   1.152
10814SOL    HW133341   3.717   1.633   1.110
10814SOL    HW233342   3.562   1.585   1.097
10815SOL     OW33343   5.083   1.039   4.925
10815SOL    HW133344   5.024   1.111   4.887
10815SOL    HW233345   5.178   1.070   4.924
10816SOL     OW33346   3.077   3.091   4.974
10816SOL    HW133347   3.018   3.051   4.903
10816SOL    HW233348   3.020   3.134   5.044
10817SOL     OW33349   1.418   6.158   3.803
10817SOL    HW133350   1.471   6.074   3.816
10817SOL    HW233351   1.321   6.137   3.814
10818SOL     OW33352   4.173   4.122   6.915
10818SOL    HW133353   4.164   4.146   7.011
10818SOL    HW233354   4.247   4.055   6.905
10819SOL     OW33355   5.904   6.304   5.707
10819SOL    HW133356   5.951   6.251   5.636
10819SOL    HW233357   5.806   6.308   5.687
10820SOL     OW33358   2.716   4.649   6.104
10820SOL    HW133359   2.777   4.600   6.042
10820SOL    HW233360   2.638   4.589   6.127
10821SOL     OW33361   4.296   6.059   3.776
10821SOL    HW133362   4.246   5.973   3.769
10821SOL    HW233363   4.294   6.106   3.688
10822SOL     OW33364   5.802   1.201   2.116
10822SOL    HW133365   5.833   1.294   2.135
10822SOL    HW233366   5.704   1.203   2.094
10823SOL     OW33367   5.194   6.465   1.621
10823SOL    HW133368   5.262   6.420   1.680
10823SOL    HW233369   5.236   6.542   1.575
10824SOL     OW33370   1.195   3.252   3.163
10824SOL    HW133371   1.192   3.290   3.255
10824SOL    HW233372   1.291   3.238   3.136
10825SOL     OW33373   0.277   2.403   0.793
10825SOL    HW133374   0.302   2.324   0.737
10825SOL    HW233375   0.184   2.392   0.826
10826SOL     OW33376   6.768   3.098   2.584
10826SOL    HW133377   6.719   3.154   2.651
10826SOL    HW233378   6.851   3.062   2.627
10827SOL     OW33379   0.421   3.302   4.769
10827SOL    HW133380   0.412   3.248   4.685
10827SOL    HW233381   0.429   3.399   4.746
10828SOL     OW33382   6.694   4.240   5.089
10828SOL    HW133383   6.601   4.236   5.053
10828SOL    HW233384   6.715   4.155   5.137
10829SOL     OW33385   3.685   2.770   5.562
10829SOL    HW133386   3.770   2.732   5.599
10829SOL    HW233387   3.685   2.870   5.573
10830SOL     OW33388   5.320   2.261   3.234
10830SOL    HW133389   5.277   2.345   3.267
10830SOL    HW233390   5.289   2.242   3.141
10831SOL     OW33391   3.903   0.012   3.833
10831SOL    HW133392   3.860   6.948   3.798
10831SOL    HW233393   3.832   0.081   3.850
10832SOL     OW33394   6.869   2.648   7.018
10832SOL    HW133395   6.791   2.699   6.981
10832SOL    HW233396   6.911   2.701   0.072
10833SOL     OW33397   0.347   0.945   6.647
10833SOL    HW133398   0.440   0.923   6.675
10833SOL    HW233399   0.349   0.992   6.559
10834SOL     OW33400   6.426   6.178   1.311
10834SOL    HW133401   6.513   6.225   1.302
10834SOL    HW233402   6.425   6.124   1.395
10835SOL     OW33403   6.963   2.862   5.363
10835SOL    HW133404   6.871   2.896   5.344
10835SOL    HW233405   7.009   2.838   5.277
10836SOL     OW33406   0.195   1.382   3.350
10836SOL    HW133407   0.177   1.384   3.252
10836SOL    HW233408   0.281   1.429   3.369
10837SOL     OW33409   0.119   3.320   4.131
10837SOL    HW133410   0.103   3.362   4.041
10837SOL    HW233411   0.049   3.250   4.148
10838SOL     OW33412   0.743   5.834   2.413
10838SOL    HW133413   0.817   5.891   2.377
10838SOL    HW233414   0.738   5.749   2.361
10839SOL     OW33415   4.515   2.857   0.582
10839SOL    HW133416   4.570   2.928   0.538
10839SOL    HW233417   4.431   2.897   0.617
10840SOL     OW33418   2.356   0.359   1.959
10840SOL    HW133419   2.260   0.360   1.984
10840SOL    HW233420   2.408   0.310   2.030
10841SOL     OW33421   2.253   5.084   5.020
10841SOL    HW133422   2.178   5.058   5.080
10841SOL    HW233423   2.340   5.068   5.066
10842SOL     OW33424   6.324   4.269   2.094
10842SOL    HW133425   6.286   4.267   2.187
10842SOL    HW233426   6.258   4.308   2.031
10843SOL     OW33427   2.926   1.625   1.344
10843SOL    HW133428   2.938   1.722   1.321
10843SOL    HW233429   2.934   1.570   1.260
10844SOL     OW33430   1.950   5.776   5.158
10844SOL    HW133431   1.897   5.710   5.210
10844SOL    HW233432   1.955   5.863   5.208
10845SOL     OW33433   4.379   0.511   4.751
10845SOL    HW133434   4.409   0.485   4.843
10845SOL    HW233435   4.283   0.539   4.755
10846SOL     OW33436   5.782   0.083   6.021
10846SOL    HW133437   5.827   7.018   5.989
10846SOL    HW233438   5.687   0.085   5.988
10847SOL     OW33439   2.830   0.251   6.862
10847SOL    HW133440   2.747   0.231   6.913
10847SOL    HW233441   2.855   0.172   6.806
10848SOL     OW33442   1.577   3.817   1.903
10848SOL    HW133443   1.560   3.755   1.980
10848SOL    HW233444   1.632   3.770   1.834
10849SOL     OW33445   2.126   6.695   3.032
10849SOL    HW133446   2.038   6.648   3.031
10849SOL    HW233447   2.176   6.670   3.115
10850SOL     OW33448   4.705   4.792   0.703
10850SOL    HW133449   4.650   4.791   0.620
10850SOL    HW233450   4.801   4.774   0.681
10851SOL     OW33451   1.527   4.213   0.750
10851SOL    HW133452   1.500   4.302   0.788
10851SOL    HW233453   1.588   4.228   0.672
10852SOL     OW33454   2.405   1.888   2.354
10852SOL    HW133455   2.316   1.872   2.397
10852SOL    HW233456   2.475   1.834   2.401
10853SOL     OW33457   3.474   0.948   6.238
10853SOL    HW133458   3.478   0.987   6.146
10853SOL    HW233459   3.423   0.862   6.236
10854SOL     OW33460   3.036   6.180   5.854
10854SOL    HW133461   3.066   6.214   5.765
10854SOL    HW233462   3.010   6.084   5.845
10855SOL     OW33463   4.169   1.091   6.925
10855SOL    HW133464   4.233   1.069   6.999
10855SOL    HW233465   4.087   1.133   6.963
10856SOL     OW33466   0.784   1.349   0.529
10856SOL    HW133467   0.823   1.427   0.481
10856SOL    HW233468   0.787   1.268   0.469
10857SOL     OW33469   0.093   2.752   1.826
10857SOL    HW133470   0.110   2.736   1.729
10857SOL    HW233471   0.012   2.701   1.855
10858SOL     OW33472   2.121   6.150   2.223
10858SOL    HW133473   2.168   6.076   2.271
10858SOL    HW233474   2.177   6.233   2.228
10859SOL     OW33475   1.156   5.205   3.545
10859SOL    HW133476   1.192   5.243   3.460
10859SOL    HW233477   1.056   5.211   3.544
10860SOL     OW33478   0.090   3.763   3.306
10860SOL    HW133479   0.118   3.741   3.399
10860SOL    HW233480   7.010   3.762   3.300
10861SOL     OW33481   4.152   2.857   5.679
10861SOL    HW133482   4.124   2.921   5.608
10861SOL    HW233483   4.249   2.871   5.700
10862SOL     OW33484   0.773   0.767   5.245
10862SOL    HW133485   0.793   0.854   5.199
10862SOL    HW233486   0.688   0.729   5.208
10863SOL     OW33487   2.207   6.356   4.151
10863SOL    HW133488   2.196   6.306   4.065
10863SOL    HW233489   2.277   6.427   4.139
10864SOL     OW33490   3.653   6.448   3.073
10864SOL    HW133491   3.598   6.455   3.156
10864SOL    HW233492   3.631   6.364   3.025
10865SOL     OW33493   6.825   1.497   6.140
10865SOL    HW133494   6.843   1.399   6.137
10865SOL    HW233495   6.907   1.547   6.113
10866SOL     OW33496   5.579   5.001   6.615
10866SOL    HW133497   5.659   5.023   6.671
10866SOL    HW233498   5.607   4.991   6.520
10867SOL     OW33499   2.818   1.051   6.648
10867SOL    HW133500   2.723   1.038   6.617
10867SOL    HW233501   2.824   1.032   6.746
10868SOL     OW33502   2.199   2.235   3.075
10868SOL    HW133503   2.268   2.164   3.087
10868SOL    HW233504   2.234   2.322   3.110
10869NA      NA33505   6.338   2.386   5.814
10870NA      NA33506   4.283   4.650   5.244
10871NA      NA33507   2.195   3.625   1.804
10872NA      NA33508   4.837   3.683   5.257
10873NA      NA33509   4.255   2.327   5.303
10874NA      NA33510   3.748   4.738   1.710
10875NA      NA33511   6.728   5.956   4.809
10876NA      NA33512   3.707   3.470   5.038
10877NA      NA33513   4.694   6.404   6.205
10878NA      NA33514   2.500   0.691   5.318
10879NA      NA33515   0.605   4.902   2.408
10880NA      NA33516   2.307   0.439   2.439
10881NA      NA33517   3.381   4.344   1.150
10882NA      NA33518   3.622   3.283   3.066
   7.01928   7.01928   7.01928
