Generated by trjconv : CNT in water t= 514.00000
33518
    1C        C    1   2.842   2.766   4.745
    1C        C    2   2.899   2.718   4.865
    1C        C    3   2.839   2.768   4.982
    1C        C    4   2.850   2.774   4.258
    1C        C    5   2.900   2.727   4.381
    1C        C    6   2.842   2.769   4.503
    1C        C    7   3.009   2.634   4.625
    1C        C    8   2.895   2.718   4.624
    1C        C    9   3.072   2.593   4.744
    1C        C   10   3.010   2.630   4.865
    1C        C   11   3.183   2.492   4.976
    1C        C   12   3.060   2.561   4.975
    1C        C   13   2.856   2.777   3.770
    1C        C   14   2.907   2.728   3.892
    1C        C   15   2.854   2.780   4.013
    1C        C   16   3.022   2.651   4.137
    1C        C   17   2.906   2.732   4.135
    1C        C   18   3.082   2.617   4.260
    1C        C   19   3.018   2.650   4.381
    1C        C   20   3.208   2.558   4.502
    1C        C   21   3.075   2.605   4.503
    1C        C   22   3.278   2.534   4.622
    1C        C   23   3.206   2.545   4.743
    1C        C   24   3.412   2.482   4.866
    1C        C   25   3.270   2.500   4.863
    1C        C   26   3.491   2.476   4.982
    1C        C   27   2.848   2.770   3.280
    1C        C   28   2.907   2.730   3.402
    1C        C   29   2.856   2.775   3.526
    1C        C   30   3.022   2.644   3.648
    1C        C   31   2.909   2.728   3.648
    1C        C   32   3.077   2.602   3.771
    1C        C   33   3.016   2.639   3.893
    1C        C   34   3.211   2.554   4.014
    1C        C   35   3.081   2.609   4.015
    1C        C   36   3.277   2.532   4.137
    1C        C   37   3.211   2.560   4.259
    1C        C   38   3.416   2.506   4.381
    1C        C   39   3.279   2.539   4.382
    1C        C   40   3.487   2.493   4.502
    1C        C   41   3.416   2.504   4.624
    1C        C   42   3.628   2.481   4.743
    1C        C   43   3.486   2.483   4.745
    1C        C   44   3.705   2.486   4.861
    1C        C   45   3.630   2.473   4.979
    1C        C   46   2.840   2.758   2.793
    1C        C   47   2.896   2.717   2.916
    1C        C   48   2.846   2.768   3.038
    1C        C   49   3.021   2.646   3.160
    1C        C   50   2.902   2.722   3.159
    1C        C   51   3.081   2.611   3.283
    1C        C   52   3.020   2.645   3.406
    1C        C   53   3.209   2.543   3.527
    1C        C   54   3.082   2.606   3.526
    1C        C   55   3.277   2.524   3.649
    1C        C   56   3.208   2.548   3.770
    1C        C   57   3.414   2.495   3.893
    1C        C   58   3.275   2.525   3.892
    1C        C   59   3.485   2.490   4.015
    1C        C   60   3.416   2.506   4.137
    1C        C   61   3.628   2.494   4.260
    1C        C   62   3.487   2.497   4.259
    1C        C   63   3.702   2.495   4.381
    1C        C   64   3.629   2.491   4.501
    1C        C   65   3.833   2.546   4.620
    1C        C   66   3.699   2.501   4.623
    1C        C   67   3.904   2.564   4.741
    1C        C   68   3.840   2.528   4.861
    1C        C   69   4.051   2.586   4.979
    1C        C   70   3.925   2.525   4.972
    1C        C   71   2.823   2.733   2.309
    1C        C   72   2.888   2.699   2.430
    1C        C   73   2.837   2.752   2.551
    1C        C   74   3.015   2.633   2.674
    1C        C   75   2.896   2.711   2.672
    1C        C   76   3.075   2.597   2.796
    1C        C   77   3.014   2.640   2.916
    1C        C   78   3.208   2.549   3.040
    1C        C   79   3.079   2.607   3.038
    1C        C   80   3.276   2.526   3.162
    1C        C   81   3.209   2.550   3.283
    1C        C   82   3.415   2.495   3.403
    1C        C   83   3.276   2.520   3.404
    1C        C   84   3.485   2.490   3.526
    1C        C   85   3.416   2.498   3.649
    1C        C   86   3.627   2.502   3.769
    1C        C   87   3.486   2.492   3.772
    1C        C   88   3.695   2.513   3.892
    1C        C   89   3.626   2.503   4.014
    1C        C   90   3.831   2.551   4.134
    1C        C   91   3.695   2.513   4.137
    1C        C   92   3.901   2.566   4.256
    1C        C   93   3.837   2.536   4.378
    1C        C   94   4.029   2.630   4.499
    1C        C   95   3.904   2.564   4.499
    1C        C   96   4.093   2.666   4.619
    1C        C   97   4.032   2.626   4.741
    1C        C   98   4.187   2.766   4.863
    1C        C   99   4.103   2.650   4.862
    1C        C  100   4.205   2.846   4.976
    1C        C  101   2.819   2.726   2.070
    1C        C  102   2.988   2.590   2.191
    1C        C  103   2.876   2.679   2.189
    1C        C  104   3.060   2.566   2.311
    1C        C  105   3.003   2.617   2.430
    1C        C  106   3.200   2.537   2.552
    1C        C  107   3.071   2.594   2.551
    1C        C  108   3.272   2.522   2.673
    1C        C  109   3.205   2.541   2.795
    1C        C  110   3.411   2.496   2.917
    1C        C  111   3.272   2.520   2.918
    1C        C  112   3.484   2.487   3.037
    1C        C  113   3.414   2.494   3.159
    1C        C  114   3.627   2.491   3.277
    1C        C  115   3.485   2.488   3.281
    1C        C  116   3.694   2.504   3.401
    1C        C  117   3.626   2.492   3.524
    1C        C  118   3.833   2.538   3.644
    1C        C  119   3.696   2.503   3.646
    1C        C  120   3.899   2.568   3.766
    1C        C  121   3.832   2.548   3.888
    1C        C  122   4.024   2.636   4.010
    1C        C  123   3.896   2.574   4.011
    1C        C  124   4.082   2.673   4.133
    1C        C  125   4.025   2.633   4.257
    1C        C  126   4.194   2.764   4.377
    1C        C  127   4.088   2.671   4.377
    1C        C  128   4.241   2.818   4.499
    1C        C  129   4.196   2.762   4.621
    1C        C  130   4.324   2.933   4.739
    1C        C  131   4.244   2.815   4.742
    1C        C  132   4.349   3.004   4.858
    1C        C  133   4.280   2.964   4.974
    1C        C  134   3.168   2.468   2.082
    1C        C  135   3.036   2.514   2.079
    1C        C  136   3.256   2.479   2.191
    1C        C  137   3.193   2.515   2.311
    1C        C  138   3.404   2.478   2.430
    1C        C  139   3.265   2.499   2.432
    1C        C  140   3.479   2.478   2.549
    1C        C  141   3.410   2.491   2.672
    1C        C  142   3.622   2.490   2.788
    1C        C  143   3.481   2.488   2.794
    1C        C  144   3.692   2.506   2.910
    1C        C  145   3.625   2.494   3.033
    1C        C  146   3.835   2.530   3.153
    1C        C  147   3.697   2.496   3.155
    1C        C  148   3.898   2.559   3.276
    1C        C  149   3.831   2.538   3.398
    1C        C  150   4.023   2.625   3.519
    1C        C  151   3.898   2.560   3.521
    1C        C  152   4.082   2.668   3.640
    1C        C  153   4.025   2.633   3.765
    1C        C  154   4.193   2.760   3.887
    1C        C  155   4.085   2.668   3.888
    1C        C  156   4.237   2.814   4.010
    1C        C  157   4.189   2.765   4.134
    1C        C  158   4.333   2.924   4.253
    1C        C  159   4.244   2.815   4.254
    1C        C  160   4.372   2.983   4.375
    1C        C  161   4.326   2.930   4.498
    1C        C  162   4.435   3.116   4.614
    1C        C  163   4.366   2.993   4.618
    1C        C  164   4.468   3.182   4.735
    1C        C  165   4.426   3.122   4.856
    1C        C  166   4.513   3.321   4.968
    1C        C  167   4.476   3.187   4.970
    1C        C  168   3.471   2.426   2.076
    1C        C  169   3.396   2.455   2.190
    1C        C  170   3.616   2.459   2.307
    1C        C  171   3.473   2.460   2.308
    1C        C  172   3.693   2.476   2.424
    1C        C  173   3.621   2.478   2.546
    1C        C  174   3.828   2.536   2.664
    1C        C  175   3.693   2.494   2.666
    1C        C  176   3.897   2.553   2.786
    1C        C  177   3.831   2.532   2.910
    1C        C  178   4.027   2.618   3.029
    1C        C  179   3.902   2.552   3.030
    1C        C  180   4.085   2.656   3.151
    1C        C  181   4.024   2.623   3.274
    1C        C  182   4.193   2.750   3.395
    1C        C  183   4.085   2.660   3.397
    1C        C  184   4.238   2.806   3.517
    1C        C  185   4.190   2.759   3.642
    1C        C  186   4.331   2.917   3.762
    1C        C  187   4.241   2.809   3.764
    1C        C  188   4.370   2.976   3.884
    1C        C  189   4.329   2.922   4.008
    1C        C  190   4.439   3.105   4.125
    1C        C  191   4.371   2.981   4.129
    1C        C  192   4.469   3.172   4.246
    1C        C  193   4.436   3.109   4.368
    1C        C  194   4.501   3.312   4.489
    1C        C  195   4.459   3.177   4.489
    1C        C  196   4.517   3.385   4.609
    1C        C  197   4.514   3.316   4.732
    1C        C  198   4.549   3.535   4.851
    1C        C  199   4.535   3.393   4.849
    1C        C  200   4.583   3.620   4.961
    1C        C  201   3.610   2.409   2.075
    1C        C  202   3.823   2.504   2.182
    1C        C  203   3.688   2.455   2.185
    1C        C  204   3.898   2.531   2.299
    1C        C  205   3.829   2.512   2.421
    1C        C  206   4.019   2.615   2.540
    1C        C  207   3.894   2.549   2.540
    1C        C  208   4.081   2.653   2.661
    1C        C  209   4.024   2.615   2.785
    1C        C  210   4.195   2.743   2.905
    1C        C  211   4.086   2.654   2.905
    1C        C  212   4.246   2.794   3.027
    1C        C  213   4.196   2.744   3.149
    1C        C  214   4.326   2.912   3.269
    1C        C  215   4.242   2.799   3.271
    1C        C  216   4.362   2.972   3.391
    1C        C  217   4.326   2.916   3.516
    1C        C  218   4.431   3.100   3.640
    1C        C  219   4.369   2.973   3.638
    1C        C  220   4.457   3.170   3.760
    1C        C  221   4.432   3.103   3.882
    1C        C  222   4.498   3.307   4.002
    1C        C  223   4.466   3.169   4.002
    1C        C  224   4.512   3.379   4.122
    1C        C  225   4.505   3.308   4.244
    1C        C  226   4.519   3.521   4.365
    1C        C  227   4.515   3.380   4.366
    1C        C  228   4.521   3.597   4.484
    1C        C  229   4.525   3.526   4.606
    1C        C  230   4.508   3.742   4.724
    1C        C  231   4.531   3.601   4.726
    1C        C  232   4.499   3.820   4.841
    1C        C  233   4.550   3.756   4.956
    1C        C  234   4.014   2.605   2.062
    1C        C  235   3.893   2.538   2.065
    1C        C  236   4.082   2.645   2.178
    1C        C  237   4.024   2.598   2.297
    1C        C  238   4.199   2.727   2.419
    1C        C  239   4.083   2.645   2.417
    1C        C  240   4.251   2.779   2.539
    1C        C  241   4.192   2.741   2.661
    1C        C  242   4.336   2.899   2.782
    1C        C  243   4.247   2.789   2.782
    1C        C  244   4.374   2.962   2.903
    1C        C  245   4.335   2.904   3.026
    1C        C  246   4.433   3.094   3.146
    1C        C  247   4.372   2.967   3.147
    1C        C  248   4.452   3.160   3.270
    1C        C  249   4.425   3.098   3.394
    1C        C  250   4.489   3.301   3.512
    1C        C  251   4.452   3.165   3.516
    1C        C  252   4.503   3.373   3.634
    1C        C  253   4.497   3.305   3.758
    1C        C  254   4.520   3.516   3.873
    1C        C  255   4.515   3.375   3.879
    1C        C  256   4.515   3.586   3.996
    1C        C  257   4.521   3.520   4.121
    1C        C  258   4.491   3.731   4.239
    1C        C  259   4.511   3.591   4.242
    1C        C  260   4.474   3.803   4.359
    1C        C  261   4.489   3.734   4.481
    1C        C  262   4.424   3.937   4.602
    1C        C  263   4.478   3.806   4.602
    1C        C  264   4.405   4.011   4.721
    1C        C  265   4.438   3.947   4.842
    1C        C  266   4.321   4.127   4.953
    1C        C  267   4.401   4.014   4.959
    1C        C  268   4.262   2.769   2.058
    1C        C  269   4.195   2.730   2.175
    1C        C  270   4.343   2.884   2.294
    1C        C  271   4.248   2.779   2.297
    1C        C  272   4.378   2.950   2.414
    1C        C  273   4.336   2.892   2.536
    1C        C  274   4.441   3.078   2.656
    1C        C  275   4.375   2.953   2.658
    1C        C  276   4.467   3.148   2.777
    1C        C  277   4.435   3.089   2.901
    1C        C  278   4.504   3.290   3.024
    1C        C  279   4.463   3.155   3.023
    1C        C  280   4.510   3.365   3.145
    1C        C  281   4.491   3.296   3.267
    1C        C  282   4.514   3.508   3.389
    1C        C  283   4.505   3.367   3.388
    1C        C  284   4.512   3.583   3.508
    1C        C  285   4.512   3.514   3.631
    1C        C  286   4.497   3.728   3.752
    1C        C  287   4.512   3.588   3.752
    1C        C  288   4.475   3.795   3.874
    1C        C  289   4.489   3.725   3.996
    1C        C  290   4.425   3.930   4.114
    1C        C  291   4.479   3.800   4.116
    1C        C  292   4.392   3.996   4.235
    1C        C  293   4.423   3.935   4.358
    1C        C  294   4.327   4.125   4.479
    1C        C  295   4.394   4.001   4.480
    1C        C  296   4.287   4.187   4.599
    1C        C  297   4.336   4.135   4.721
    1C        C  298   4.199   4.313   4.836
    1C        C  299   4.288   4.201   4.838
    1C        C  300   4.163   4.395   4.947
    1C        C  301   4.351   2.875   2.057
    1C        C  302   4.466   3.064   2.175
    1C        C  303   4.393   2.941   2.174
    1C        C  304   4.474   3.142   2.294
    1C        C  305   4.441   3.076   2.414
    1C        C  306   4.505   3.281   2.536
    1C        C  307   4.470   3.144   2.535
    1C        C  308   4.511   3.354   2.657
    1C        C  309   4.496   3.286   2.779
    1C        C  310   4.526   3.498   2.897
    1C        C  311   4.516   3.357   2.900
    1C        C  312   4.524   3.572   3.017
    1C        C  313   4.522   3.505   3.142
    1C        C  314   4.484   3.713   3.263
    1C        C  315   4.511   3.575   3.264
    1C        C  316   4.474   3.788   3.382
    1C        C  317   4.490   3.723   3.506
    1C        C  318   4.427   3.925   3.625
    1C        C  319   4.480   3.794   3.628
    1C        C  320   4.396   3.989   3.747
    1C        C  321   4.424   3.927   3.871
    1C        C  322   4.317   4.113   3.987
    1C        C  323   4.389   3.991   3.992
    1C        C  324   4.275   4.169   4.110
    1C        C  325   4.317   4.116   4.234
    1C        C  326   4.182   4.277   4.351
    1C        C  327   4.283   4.179   4.356
    1C        C  328   4.133   4.329   4.473
    1C        C  329   4.190   4.290   4.596
    1C        C  330   4.023   4.434   4.710
    1C        C  331   4.138   4.350   4.713
    1C        C  332   3.968   4.490   4.828
    1C        C  333   4.052   4.479   4.940
    1C        C  334   4.548   3.261   2.060
    1C        C  335   4.530   3.122   2.061
    1C        C  336   4.532   3.347   2.170
    1C        C  337   4.504   3.281   2.291
    1C        C  338   4.520   3.492   2.408
    1C        C  339   4.517   3.350   2.413
    1C        C  340   4.518   3.563   2.530
    1C        C  341   4.517   3.495   2.654
    1C        C  342   4.492   3.707   2.772
    1C        C  343   4.517   3.568   2.775
    1C        C  344   4.475   3.777   2.894
    1C        C  345   4.499   3.711   3.016
    1C        C  346   4.425   3.910   3.133
    1C        C  347   4.479   3.780   3.138
    1C        C  348   4.395   3.978   3.254
    1C        C  349   4.427   3.921   3.379
    1C        C  350   4.316   4.101   3.500
    1C        C  351   4.397   3.986   3.501
    1C        C  352   4.272   4.161   3.620
    1C        C  353   4.319   4.107   3.742
    1C        C  354   4.177   4.267   3.863
    1C        C  355   4.276   4.166   3.863
    1C        C  356   4.121   4.311   3.985
    1C        C  357   4.176   4.270   4.108
    1C        C  358   4.008   4.399   4.226
    1C        C  359   4.126   4.321   4.230
    1C        C  360   3.951   4.443   4.348
    1C        C  361   4.015   4.408   4.468
    1C        C  362   3.829   4.517   4.588
    1C        C  363   3.956   4.455   4.587
    1C        C  364   3.761   4.546   4.709
    1C        C  365   3.836   4.539   4.828
    1C        C  366   3.624   4.590   4.946
    1C        C  367   3.762   4.568   4.943
    1C        C  368   4.507   3.563   2.052
    1C        C  369   4.520   3.488   2.170
    1C        C  370   4.500   3.705   2.285
    1C        C  371   4.517   3.565   2.288
    1C        C  372   4.484   3.773   2.408
    1C        C  373   4.499   3.703   2.529
    1C        C  374   4.430   3.908   2.645
    1C        C  375   4.480   3.776   2.649
    1C        C  376   4.394   3.970   2.766
    1C        C  377   4.426   3.910   2.890
    1C        C  378   4.319   4.094   3.008
    1C        C  379   4.396   3.976   3.012
    1C        C  380   4.274   4.151   3.129
    1C        C  381   4.313   4.094   3.252
    1C        C  382   4.176   4.254   3.373
    1C        C  383   4.271   4.150   3.375
    1C        C  384   4.121   4.306   3.493
    1C        C  385   4.173   4.261   3.616
    1C        C  386   4.001   4.380   3.740
    1C        C  387   4.122   4.307   3.740
    1C        C  388   3.938   4.420   3.860
    1C        C  389   4.005   4.393   3.982
    1C        C  390   3.817   4.490   4.102
    1C        C  391   3.946   4.433   4.104
    1C        C  392   3.752   4.514   4.225
    1C        C  393   3.821   4.500   4.347
    1C        C  394   3.616   4.554   4.471
    1C        C  395   3.755   4.530   4.468
    1C        C  396   3.545   4.568   4.592
    1C        C  397   3.621   4.567   4.711
    1C        C  398   3.408   4.552   4.837
    1C        C  399   3.547   4.573   4.831
    1C        C  400   3.341   4.510   4.953
    1C        C  401   4.495   3.701   2.045
    1C        C  402   4.447   3.911   2.164
    1C        C  403   4.489   3.776   2.163
    1C        C  404   4.408   3.974   2.284
    1C        C  405   4.437   3.907   2.404
    1C        C  406   4.328   4.094   2.523
    1C        C  407   4.404   3.975   2.523
    1C        C  408   4.281   4.150   2.644
    1C        C  409   4.320   4.090   2.766
    1C        C  410   4.174   4.249   2.885
    1C        C  411   4.274   4.149   2.886
    1C        C  412   4.121   4.295   3.008
    1C        C  413   4.174   4.252   3.131
    1C        C  414   4.001   4.375   3.251
    1C        C  415   4.121   4.301   3.252
    1C        C  416   3.938   4.409   3.372
    1C        C  417   4.000   4.378   3.495
    1C        C  418   3.808   4.468   3.613
    1C        C  419   3.938   4.412   3.618
    1C        C  420   3.743   4.499   3.735
    1C        C  421   3.811   4.482   3.857
    1C        C  422   3.610   4.540   3.983
    1C        C  423   3.748   4.510   3.981
    1C        C  424   3.541   4.546   4.106
    1C        C  425   3.613   4.540   4.227
    1C        C  426   3.403   4.552   4.354
    1C        C  427   3.544   4.555   4.350
    1C        C  428   3.331   4.549   4.475
    1C        C  429   3.404   4.558   4.596
    1C        C  430   3.195   4.518   4.720
    1C        C  431   3.333   4.551   4.718
    1C        C  432   3.125   4.489   4.841
    1C        C  433   3.203   4.493   4.957
    1C        C  434   4.375   4.117   2.048
    1C        C  435   4.439   3.992   2.050
    1C        C  436   4.297   4.157   2.160
    1C        C  437   4.329   4.093   2.283
    1C        C  438   4.177   4.246   2.401
    1C        C  439   4.281   4.150   2.402
    1C        C  440   4.121   4.291   2.522
    1C        C  441   4.179   4.248   2.643
    1C        C  442   4.002   4.372   2.764
    1C        C  443   4.117   4.290   2.763
    1C        C  444   3.940   4.409   2.885
    1C        C  445   4.003   4.374   3.006
    1C        C  446   3.808   4.460   3.127
    1C        C  447   3.940   4.408   3.128
    1C        C  448   3.741   4.485   3.249
    1C        C  449   3.808   4.466   3.371
    1C        C  450   3.602   4.526   3.493
    1C        C  451   3.740   4.493   3.492
    1C        C  452   3.538   4.548   3.617
    1C        C  453   3.607   4.535   3.739
    1C        C  454   3.396   4.550   3.863
    1C        C  455   3.537   4.548   3.862
    1C        C  456   3.329   4.537   3.987
    1C        C  457   3.400   4.547   4.108
    1C        C  458   3.196   4.500   4.233
    1C        C  459   3.332   4.538   4.232
    1C        C  460   3.130   4.485   4.357
    1C        C  461   3.194   4.516   4.479
    1C        C  462   3.000   4.429   4.602
    1C        C  463   3.124   4.497   4.600
    1C        C  464   2.933   4.395   4.721
    1C        C  465   2.991   4.439   4.843
    1C        C  466   2.801   4.333   4.953
    1C        C  467   2.909   4.422   4.959
    1C        C  468   4.120   4.287   2.041
    1C        C  469   4.189   4.252   2.158
    1C        C  470   4.005   4.368   2.277
    1C        C  471   4.127   4.295   2.278
    1C        C  472   3.938   4.397   2.398
    1C        C  473   4.000   4.365   2.521
    1C        C  474   3.806   4.455   2.641
    1C        C  475   3.936   4.400   2.642
    1C        C  476   3.741   4.487   2.763
    1C        C  477   3.811   4.468   2.884
    1C        C  478   3.604   4.516   3.006
    1C        C  479   3.742   4.486   3.005
    1C        C  480   3.534   4.533   3.128
    1C        C  481   3.605   4.524   3.250
    1C        C  482   3.391   4.538   3.376
    1C        C  483   3.532   4.534   3.371
    1C        C  484   3.324   4.533   3.501
    1C        C  485   3.397   4.546   3.621
    1C        C  486   3.188   4.505   3.743
    1C        C  487   3.324   4.544   3.742
    1C        C  488   3.126   4.476   3.866
    1C        C  489   3.192   4.500   3.988
    1C        C  490   3.004   4.409   4.115
    1C        C  491   3.127   4.477   4.112
    1C        C  492   2.944   4.377   4.239
    1C        C  493   3.005   4.419   4.359
    1C        C  494   2.831   4.297   4.483
    1C        C  495   2.941   4.385   4.481
    1C        C  496   2.773   4.250   4.603
    1C        C  497   2.821   4.308   4.723
    1C        C  498   2.661   4.159   4.841
    1C        C  499   2.758   4.262   4.841
    1C        C  500   2.591   4.114   4.954
    1C        C  501   4.002   4.360   2.037
    1C        C  502   3.815   4.465   2.153
    1C        C  503   3.945   4.408   2.155
    1C        C  504   3.743   4.475   2.274
    1C        C  505   3.808   4.450   2.397
    1C        C  506   3.603   4.509   2.518
    1C        C  507   3.740   4.477   2.518
    1C        C  508   3.533   4.520   2.640
    1C        C  509   3.603   4.517   2.763
    1C        C  510   3.391   4.523   2.884
    1C        C  511   3.532   4.522   2.885
    1C        C  512   3.320   4.520   3.006
    1C        C  513   3.393   4.531   3.127
    1C        C  514   3.189   4.493   3.255
    1C        C  515   3.325   4.529   3.251
    1C        C  516   3.122   4.471   3.378
    1C        C  517   3.186   4.501   3.500
    1C        C  518   2.998   4.406   3.624
    1C        C  519   3.119   4.478   3.622
    1C        C  520   2.941   4.367   3.748
    1C        C  521   3.002   4.408   3.869
    1C        C  522   2.836   4.279   3.994
    1C        C  523   2.945   4.369   3.992
    1C        C  524   2.792   4.230   4.119
    1C        C  525   2.838   4.284   4.241
    1C        C  526   2.700   4.125   4.363
    1C        C  527   2.784   4.238   4.363
    1C        C  528   2.657   4.068   4.485
    1C        C  529   2.687   4.138   4.604
    1C        C  530   2.584   3.952   4.731
    1C        C  531   2.636   4.084   4.724
    1C        C  532   2.536   3.896   4.853
    1C        C  533   2.522   3.992   4.958
    1C        C  534   3.616   4.548   2.038
    1C        C  535   3.752   4.513   2.038
    1C        C  536   3.535   4.536   2.155
    1C        C  537   3.605   4.509   2.276
    1C        C  538   3.391   4.518   2.397
    1C        C  539   3.532   4.519   2.396
    1C        C  540   3.321   4.511   2.520
    1C        C  541   3.392   4.515   2.642
    1C        C  542   3.180   4.490   2.764
    1C        C  543   3.319   4.518   2.763
    1C        C  544   3.116   4.467   2.887
    1C        C  545   3.183   4.488   3.010
    1C        C  546   2.996   4.399   3.134
    1C        C  547   3.120   4.468   3.135
    1C        C  548   2.940   4.360   3.257
    1C        C  549   2.999   4.402   3.379
    1C        C  550   2.832   4.275   3.505
    1C        C  551   2.939   4.366   3.502
    1C        C  552   2.780   4.226   3.627
    1C        C  553   2.834   4.275   3.748
    1C        C  554   2.699   4.116   3.875
    1C        C  555   2.787   4.226   3.872
    1C        C  556   2.660   4.058   3.997
    1C        C  557   2.705   4.119   4.117
    1C        C  558   2.598   3.939   4.243
    1C        C  559   2.666   4.063   4.241
    1C        C  560   2.568   3.876   4.365
    1C        C  561   2.593   3.942   4.487
    1C        C  562   2.529   3.744   4.613
    1C        C  563   2.562   3.881   4.611
    1C        C  564   2.513   3.677   4.736
    1C        C  565   2.514   3.754   4.855
    1C        C  566   2.530   3.541   4.977
    1C        C  567   2.526   3.680   4.973
    1C        C  568   3.323   4.476   2.040
    1C        C  569   3.395   4.513   2.154
    1C        C  570   3.182   4.477   2.281
    1C        C  571   3.320   4.511   2.275
    1C        C  572   3.113   4.458   2.402
    1C        C  573   3.183   4.480   2.523
    1C        C  574   2.982   4.406   2.646
    1C        C  575   3.111   4.463   2.644
    1C        C  576   2.929   4.362   2.769
    1C        C  577   2.994   4.395   2.890
    1C        C  578   2.829   4.265   3.014
    1C        C  579   2.937   4.356   3.013
    1C        C  580   2.784   4.212   3.138
    1C        C  581   2.838   4.262   3.259
    1C        C  582   2.704   4.104   3.383
    1C        C  583   2.797   4.211   3.384
    1C        C  584   2.662   4.052   3.507
    1C        C  585   2.696   4.112   3.631
    1C        C  586   2.590   3.931   3.756
    1C        C  587   2.655   4.057   3.754
    1C        C  588   2.565   3.867   3.879
    1C        C  589   2.592   3.934   4.000
    1C        C  590   2.527   3.735   4.127
    1C        C  591   2.567   3.870   4.123
    1C        C  592   2.510   3.669   4.250
    1C        C  593   2.528   3.740   4.371
    1C        C  594   2.506   3.530   4.497
    1C        C  595   2.514   3.671   4.493
    1C        C  596   2.510   3.460   4.619
    1C        C  597   2.510   3.534   4.740
    1C        C  598   2.528   3.322   4.861
    1C        C  599   2.521   3.463   4.861
    1C        C  600   2.532   3.243   4.977
    1C        C  601   3.191   4.436   2.043
    1C        C  602   2.979   4.398   2.160
    1C        C  603   3.114   4.446   2.160
    1C        C  604   2.923   4.355   2.283
    1C        C  605   2.985   4.398   2.403
    1C        C  606   2.819   4.268   2.527
    1C        C  607   2.925   4.360   2.525
    1C        C  608   2.776   4.213   2.650
    1C        C  609   2.826   4.265   2.772
    1C        C  610   2.684   4.107   2.893
    1C        C  611   2.773   4.218   2.894
    1C        C  612   2.651   4.048   3.017
    1C        C  613   2.693   4.105   3.139
    1C        C  614   2.592   3.922   3.266
    1C        C  615   2.655   4.049   3.263
    1C        C  616   2.565   3.860   3.390
    1C        C  617   2.594   3.928   3.510
    1C        C  618   2.526   3.729   3.638
    1C        C  619   2.563   3.866   3.633
    1C        C  620   2.511   3.661   3.761
    1C        C  621   2.523   3.732   3.883
    1C        C  622   2.501   3.523   4.006
    1C        C  623   2.510   3.664   4.006
    1C        C  624   2.505   3.454   4.130
    1C        C  625   2.503   3.528   4.251
    1C        C  626   2.533   3.320   4.378
    1C        C  627   2.509   3.459   4.374
    1C        C  628   2.550   3.250   4.500
    1C        C  629   2.531   3.320   4.621
    1C        C  630   2.588   3.113   4.742
    1C        C  631   2.545   3.248   4.742
    1C        C  632   2.612   3.047   4.866
    1C        C  633   2.555   3.105   4.983
    1C        C  634   2.775   4.306   2.055
    1C        C  635   2.886   4.391   2.051
    1C        C  636   2.747   4.224   2.165
    1C        C  637   2.811   4.268   2.283
    1C        C  638   2.680   4.105   2.407
    1C        C  639   2.762   4.219   2.406
    1C        C  640   2.643   4.045   2.529
    1C        C  641   2.687   4.104   2.650
    1C        C  642   2.585   3.918   2.776
    1C        C  643   2.647   4.045   2.772
    1C        C  644   2.564   3.853   2.900
    1C        C  645   2.593   3.919   3.021
    1C        C  646   2.521   3.721   3.148
    1C        C  647   2.566   3.855   3.145
    1C        C  648   2.507   3.653   3.271
    1C        C  649   2.527   3.723   3.392
    1C        C  650   2.500   3.518   3.518
    1C        C  651   2.512   3.659   3.517
    1C        C  652   2.504   3.449   3.641
    1C        C  653   2.499   3.520   3.762
    1C        C  654   2.522   3.311   3.890
    1C        C  655   2.499   3.450   3.885
    1C        C  656   2.546   3.245   4.013
    1C        C  657   2.529   3.315   4.135
    1C        C  658   2.601   3.117   4.258
    1C        C  659   2.551   3.249   4.257
    1C        C  660   2.629   3.052   4.380
    1C        C  661   2.596   3.117   4.501
    1C        C  662   2.704   2.933   4.626
    1C        C  663   2.625   3.049   4.622
    1C        C  664   2.751   2.875   4.746
    1C        C  665   2.700   2.934   4.866
    1C        C  666   2.747   2.871   4.982
    1C        C  667   2.677   4.020   2.054
    1C        C  668   2.675   4.103   2.167
    1C        C  669   2.585   3.907   2.291
    1C        C  670   2.639   4.039   2.288
    1C        C  671   2.549   3.849   2.414
    1C        C  672   2.581   3.918   2.533
    1C        C  673   2.518   3.715   2.660
    1C        C  674   2.558   3.850   2.654
    1C        C  675   2.511   3.644   2.782
    1C        C  676   2.527   3.717   2.902
    1C        C  677   2.498   3.511   3.029
    1C        C  678   2.511   3.652   3.026
    1C        C  679   2.499   3.441   3.151
    1C        C  680   2.496   3.512   3.273
    1C        C  681   2.523   3.305   3.400
    1C        C  682   2.500   3.445   3.397
    1C        C  683   2.538   3.238   3.524
    1C        C  684   2.520   3.308   3.645
    1C        C  685   2.597   3.113   3.771
    1C        C  686   2.538   3.241   3.768
    1C        C  687   2.638   3.055   3.893
    1C        C  688   2.605   3.117   4.015
    1C        C  689   2.714   2.935   4.139
    1C        C  690   2.636   3.053   4.137
    1C        C  691   2.759   2.882   4.262
    1C        C  692   2.709   2.935   4.383
    1C        C  693   2.749   2.875   4.504
    1C        C  694   2.630   3.889   2.054
    1C        C  695   2.524   3.702   2.176
    1C        C  696   2.579   3.832   2.171
    1C        C  697   2.496   3.637   2.298
    1C        C  698   2.511   3.713   2.416
    1C        C  699   2.490   3.503   2.540
    1C        C  700   2.498   3.644   2.539
    1C        C  701   2.499   3.434   2.663
    1C        C  702   2.494   3.504   2.785
    1C        C  703   2.521   3.297   2.909
    1C        C  704   2.495   3.436   2.909
    1C        C  705   2.539   3.232   3.033
    1C        C  706   2.525   3.302   3.155
    1C        C  707   2.596   3.105   3.280
    1C        C  708   2.540   3.235   3.279
    1C        C  709   2.631   3.047   3.404
    1C        C  710   2.597   3.110   3.526
    1C        C  711   2.711   2.933   3.647
    1C        C  712   2.631   3.050   3.649
    1C        C  713   2.759   2.880   3.769
    1C        C  714   2.719   2.939   3.891
    1C        C  715   2.757   2.882   4.015
    1C        C  716   2.451   3.498   2.059
    1C        C  717   2.489   3.633   2.059
    1C        C  718   2.468   3.422   2.179
    1C        C  719   2.474   3.497   2.300
    1C        C  720   2.513   3.289   2.420
    1C        C  721   2.479   3.426   2.422
    1C        C  722   2.536   3.222   2.542
    1C        C  723   2.521   3.294   2.662
    1C        C  724   2.589   3.097   2.789
    1C        C  725   2.538   3.229   2.786
    1C        C  726   2.619   3.036   2.912
    1C        C  727   2.590   3.101   3.034
    1C        C  728   2.706   2.926   3.158
    1C        C  729   2.627   3.042   3.158
    1C        C  730   2.750   2.872   3.282
    1C        C  731   2.712   2.931   3.404
    1C        C  732   2.760   2.879   3.526
    1C        C  733   2.491   3.194   2.068
    1C        C  734   2.491   3.281   2.178
    1C        C  735   2.579   3.085   2.300
    1C        C  736   2.521   3.214   2.300
    1C        C  737   2.609   3.020   2.422
    1C        C  738   2.587   3.090   2.542
    1C        C  739   2.696   2.913   2.669
    1C        C  740   2.621   3.032   2.667
    1C        C  741   2.742   2.860   2.792
    1C        C  742   2.700   2.920   2.912
    1C        C  743   2.751   2.872   3.035
    1C        C  744   2.547   3.067   2.069
    1C        C  745   2.689   2.897   2.186
    1C        C  746   2.615   3.018   2.181
    1C        C  747   2.729   2.840   2.308
    1C        C  748   2.683   2.900   2.428
    1C        C  749   2.738   2.852   2.549
    1C        C  750   2.735   2.837   2.068
    1C        C  751   3.651   2.304   1.979
    1C        O  752   3.639   2.181   2.005
    1C        O  753   3.682   2.344   1.848
    1C        C  754   4.623   3.043   1.977
    1C        O  755   4.611   3.044   1.851
    1C        O  756   4.751   3.008   2.019
    1C        C  757   4.446   4.209   1.956
    1C        O  758   4.487   4.318   2.005
    1C        O  759   4.389   4.237   1.831
    1C        C  760   3.579   4.627   1.918
    1C        O  761   3.496   4.721   1.929
    1C        O  762   3.592   4.580   1.787
    1C        C  763   2.885   4.497   1.948
    1C        O  764   2.943   4.487   1.836
    1C        O  765   2.793   4.602   1.945
    1C        C  766   2.344   3.464   1.962
    1C        O  767   2.360   3.406   1.852
    1C        O  768   2.210   3.477   1.998
    1C        C  769   4.677   3.574   5.065
    1C        O  770   4.643   3.560   5.186
    1C        O  771   4.816   3.581   5.049
    1C        C  772   4.271   4.432   5.041
    1C        O  773   4.237   4.438   5.162
    1C        O  774   4.318   4.560   5.008
    1C        C  775   4.148   2.527   5.074
    1C        O  776   4.194   2.411   5.053
    1C        O  777   4.125   2.551   5.210
    1C        C  778   2.883   4.537   5.049
    1C        O  779   2.873   4.658   5.015
    1C        O  780   2.903   4.528   5.187
    1C        C  781   2.484   3.032   5.091
    1C        O  782   2.360   3.047   5.104
    1C        O  783   2.546   3.017   5.215
    1C        C  784   2.407   3.998   5.050
    1C        O  785   2.347   4.104   5.084
    1C        O  786   2.399   3.913   5.161
    1C        C  787   2.946   2.421   2.007
    1C        O  788   2.902   2.454   1.893
    1C        O  789   2.937   2.286   2.037
    1C        C  790   3.192   2.373   5.063
    1C        O  791   3.158   2.256   5.031
    1C        O  792   3.167   2.391   5.199
    1C        H  793   4.270   3.028   5.059
    1C        H  794   4.151   2.823   5.065
    1C        H  795   4.549   3.129   5.021
    1C        H  796   4.541   3.361   5.063
    1C        H  797   4.551   3.816   5.044
    1C        H  798   4.452   3.993   5.051
    1C        H  799   4.260   4.148   5.039
    1C        H  800   4.022   4.520   5.034
    1C        H  801   3.812   4.611   5.028
    1C        H  802   3.595   4.669   5.012
    1C        H  803   3.397   4.450   5.021
    1C        H  804   3.152   4.497   5.052
    1C        H  805   3.895   2.463   5.054
    1C        H  806   3.673   2.415   5.057
    1C        H  807   2.985   2.520   5.040
    1C        H  808   3.450   2.458   5.079
    1C        H  809   2.851   2.708   5.070
    1C        H  810   2.749   2.929   5.072
    1C        H  811   2.554   3.293   5.069
    1C        H  812   2.486   3.500   5.066
    1C        H  813   2.540   3.726   5.069
    1C        H  814   2.559   4.190   5.022
    1C        H  815   2.763   4.298   5.047
    1C        H  816   2.690   2.859   1.973
    1C        H  817   2.829   2.664   1.983
    1C        H  818   3.202   2.411   1.998
    1C        H  819   3.418   2.409   1.984
    1C        H  820   3.853   2.507   1.970
    1C        H  821   4.053   2.628   1.965
    1C        H  822   4.265   2.699   1.977
    1C        H  823   4.368   2.918   1.961
    1C        H  824   4.574   3.300   1.964
    1C        H  825   4.530   3.514   1.960
    1C        H  826   4.501   3.748   1.949
    1C        H  827   3.807   4.529   1.947
    1C        H  828   3.997   4.420   1.948
    1C        H  829   4.169   4.275   1.947
    1C        H  830   4.506   3.971   1.970
    1C        H  831   2.674   3.828   1.977
    1C        H  832   2.749   4.046   1.979
    1C        H  833   2.733   4.279   1.960
    1C        H  834   3.361   4.495   1.942
    1C        H  835   3.154   4.384   1.957
    1C        H  836   2.512   3.005   1.989
    1C        H  837   2.406   3.200   2.003
    1C        H  838   2.515   3.669   1.962
    2V3OU   H29  839   2.795   3.547   5.614
    2V3OU   C27  840   2.781   3.504   5.716
    2V3OU   H27  841   2.716   3.570   5.779
    2V3OU   H28  842   2.734   3.402   5.712
    2V3OU   O11  843   2.909   3.482   5.775
    2V3OU   C15  844   2.918   3.400   5.887
    2V3OU   C13  845   3.047   3.377   5.939
    2V3OU   C14  846   3.072   3.267   6.023
    2V3OU   C16  847   2.965   3.182   6.049
    2V3OU    H6  848   2.989   3.098   6.115
    2V3OU   C12  849   3.210   3.229   6.061
    2V3OU    O2  850   3.238   3.126   6.125
    2V3OU   C10  851   3.323   3.308   6.009
    2V3OU    C8  852   3.455   3.272   6.037
    2V3OU   O10  853   3.483   3.144   6.071
    2V3OU   H26  854   3.405   3.114   6.120
    2V3OU    C6  855   3.565   3.351   5.990
    2V3OU    C5  856   3.539   3.462   5.911
    2V3OU    C4  857   3.700   3.289   5.998
    2V3OU    H4  858   3.724   3.226   6.089
    2V3OU    H5  859   3.704   3.219   5.909
    2V3OU    C2  860   3.809   3.395   5.981
    2V3OU    O6  861   3.804   3.475   6.100
    2V3OU   H21  862   3.759   3.555   6.068
    2V3OU    C3  863   3.781   3.494   5.868
    2V3OU    H2  864   3.865   3.569   5.869
    2V3OU    H3  865   3.784   3.435   5.773
    2V3OU   C25  866   3.946   3.330   5.963
    2V3OU    O7  867   3.984   3.292   5.853
    2V3OU   C26  868   4.027   3.289   6.086
    2V3OU   H22  869   4.069   3.381   6.134
    2V3OU   H23  870   4.112   3.223   6.055
    2V3OU    O8  871   3.962   3.208   6.181
    2V3OU   H24  872   3.927   3.262   6.253
    2V3OU    C1  873   3.646   3.563   5.881
    2V3OU    H1  874   3.627   3.621   5.786
    2V3OU    O3  875   3.661   3.655   5.989
    2V3OU   C19  876   3.617   3.790   5.982
    2V3OU    H9  877   3.519   3.809   5.928
    2V3OU    O4  878   3.713   3.850   5.897
    2V3OU   C20  879   3.843   3.875   5.951
    2V3OU   H10  880   3.893   3.774   5.959
    2V3OU   C24  881   3.611   3.850   6.122
    2V3OU   H16  882   3.547   3.783   6.186
    2V3OU   H17  883   3.564   3.952   6.116
    2V3OU   C23  884   3.749   3.869   6.184
    2V3OU   H15  885   3.792   3.764   6.197
    2V3OU    N1  886   3.736   3.944   6.307
    2V3OU   H19  887   3.808   3.909   6.366
    2V3OU   H20  888   3.645   3.925   6.345
    2V3OU   C21  889   3.845   3.945   6.087
    2V3OU   H11  890   3.951   3.926   6.123
    2V3OU    O5  891   3.827   4.086   6.091
    2V3OU   H18  892   3.773   4.100   6.171
    2V3OU   C22  893   3.910   3.952   5.838
    2V3OU   H12  894   3.853   4.047   5.818
    2V3OU   H13  895   3.899   3.894   5.744
    2V3OU   H14  896   4.017   3.969   5.867
    2V3OU   C11  897   3.158   3.467   5.904
    2V3OU    O1  898   3.130   3.587   5.883
    2V3OU    C9  899   3.296   3.424   5.932
    2V3OU    C7  900   3.404   3.495   5.880
    2V3OU    O9  901   3.384   3.611   5.808
    2V3OU   H25  902   3.289   3.630   5.813
    2V3OU   C17  903   2.815   3.313   5.927
    2V3OU    H7  904   2.714   3.348   5.905
    2V3OU   C18  905   2.833   3.202   6.009
    2V3OU    H8  906   2.751   3.151   6.060
    3SOL     OW  907   3.763   3.338   3.977
    3SOL    HW1  908   3.716   3.261   3.934
    3SOL    HW2  909   3.857   3.313   3.998
    4SOL     OW  910   6.730   5.934   0.676
    4SOL    HW1  911   6.779   6.019   0.696
    4SOL    HW2  912   6.796   5.859   0.666
    5SOL     OW  913   4.915   2.283   0.769
    5SOL    HW1  914   4.972   2.364   0.753
    5SOL    HW2  915   4.966   2.217   0.824
    6SOL     OW  916   4.424   1.594   1.733
    6SOL    HW1  917   4.447   1.687   1.763
    6SOL    HW2  918   4.324   1.584   1.733
    7SOL     OW  919   2.093   3.640   4.661
    7SOL    HW1  920   2.048   3.621   4.749
    7SOL    HW2  921   2.099   3.556   4.608
    8SOL     OW  922   0.936   1.983   5.217
    8SOL    HW1  923   0.956   2.001   5.313
    8SOL    HW2  924   0.846   1.942   5.209
    9SOL     OW  925   0.205   1.529   6.054
    9SOL    HW1  926   0.139   1.602   6.070
    9SOL    HW2  927   0.206   1.467   6.133
   10SOL     OW  928   5.137   4.886   1.782
   10SOL    HW1  929   5.148   4.978   1.746
   10SOL    HW2  930   5.219   4.859   1.834
   11SOL     OW  931   2.243   2.476   0.959
   11SOL    HW1  932   2.275   2.398   0.906
   11SOL    HW2  933   2.321   2.522   1.001
   12SOL     OW  934   4.447   5.334   2.456
   12SOL    HW1  935   4.507   5.258   2.480
   12SOL    HW2  936   4.426   5.332   2.359
   13SOL     OW  937   5.925   5.889   1.569
   13SOL    HW1  938   5.888   5.876   1.477
   13SOL    HW2  939   5.856   5.860   1.636
   14SOL     OW  940   4.541   6.864   6.626
   14SOL    HW1  941   4.486   6.941   6.659
   14SOL    HW2  942   4.638   6.890   6.624
   15SOL     OW  943   0.904   5.820   6.372
   15SOL    HW1  944   0.831   5.886   6.387
   15SOL    HW2  945   0.865   5.728   6.367
   16SOL     OW  946   2.060   5.060   5.223
   16SOL    HW1  947   2.095   5.140   5.270
   16SOL    HW2  948   2.110   5.047   5.137
   17SOL     OW  949   6.692   0.977   5.223
   17SOL    HW1  950   6.736   1.060   5.189
   17SOL    HW2  951   6.719   0.900   5.165
   18SOL     OW  952   3.389   1.017   5.730
   18SOL    HW1  953   3.350   1.107   5.709
   18SOL    HW2  954   3.327   0.967   5.791
   19SOL     OW  955   3.141   6.768   2.439
   19SOL    HW1  956   3.235   6.801   2.430
   19SOL    HW2  957   3.116   6.764   2.536
   20SOL     OW  958   6.590   1.661   5.561
   20SOL    HW1  959   6.660   1.634   5.627
   20SOL    HW2  960   6.555   1.579   5.515
   21SOL     OW  961   2.048   4.037   2.519
   21SOL    HW1  962   2.085   3.962   2.573
   21SOL    HW2  963   2.123   4.089   2.478
   22SOL     OW  964   0.577   1.039   6.920
   22SOL    HW1  965   0.668   1.012   6.952
   22SOL    HW2  966   0.507   0.993   6.975
   23SOL     OW  967   6.187   4.688   0.593
   23SOL    HW1  968   6.174   4.629   0.513
   23SOL    HW2  969   6.283   4.687   0.620
   24SOL     OW  970   5.225   1.542   0.246
   24SOL    HW1  971   5.300   1.511   0.304
   24SOL    HW2  972   5.260   1.560   0.154
   25SOL     OW  973   1.339   0.750   4.336
   25SOL    HW1  974   1.373   0.782   4.247
   25SOL    HW2  975   1.280   0.670   4.322
   26SOL     OW  976   1.809   1.780   6.184
   26SOL    HW1  977   1.899   1.757   6.148
   26SOL    HW2  978   1.741   1.718   6.144
   27SOL     OW  979   0.496   6.872   2.530
   27SOL    HW1  980   0.464   6.957   2.570
   27SOL    HW2  981   0.463   6.795   2.584
   28SOL     OW  982   2.347   0.144   5.990
   28SOL    HW1  983   2.320   0.192   5.906
   28SOL    HW2  984   2.440   0.110   5.980
   29SOL     OW  985   5.791   0.122   1.248
   29SOL    HW1  986   5.781   0.159   1.341
   29SOL    HW2  987   5.861   0.174   1.199
   30SOL     OW  988   4.760   0.283   5.306
   30SOL    HW1  989   4.761   0.340   5.388
   30SOL    HW2  990   4.789   0.190   5.329
   31SOL     OW  991   0.067   4.440   4.627
   31SOL    HW1  992   0.020   4.421   4.541
   31SOL    HW2  993   0.025   4.386   4.700
   32SOL     OW  994   3.270   0.655   0.743
   32SOL    HW1  995   3.367   0.630   0.735
   32SOL    HW2  996   3.256   0.746   0.705
   33SOL     OW  997   2.121   5.523   5.972
   33SOL    HW1  998   2.176   5.575   6.038
   33SOL    HW2  999   2.026   5.519   6.004
   34SOL     OW 1000   2.491   5.879   5.665
   34SOL    HW1 1001   2.503   5.892   5.567
   34SOL    HW2 1002   2.393   5.870   5.686
   35SOL     OW 1003   0.922   3.142   5.927
   35SOL    HW1 1004   0.987   3.136   5.851
   35SOL    HW2 1005   0.861   3.219   5.912
   36SOL     OW 1006   5.453   0.893   3.508
   36SOL    HW1 1007   5.528   0.959   3.512
   36SOL    HW2 1008   5.488   0.801   3.525
   37SOL     OW 1009   2.149   6.227   4.198
   37SOL    HW1 1010   2.240   6.200   4.227
   37SOL    HW2 1011   2.091   6.145   4.190
   38SOL     OW 1012   1.359   4.382   2.276
   38SOL    HW1 1013   1.348   4.452   2.347
   38SOL    HW2 1014   1.314   4.298   2.306
   39SOL     OW 1015   6.865   4.844   1.443
   39SOL    HW1 1016   6.887   4.853   1.346
   39SOL    HW2 1017   6.799   4.914   1.469
   40SOL     OW 1018   4.364   1.671   0.506
   40SOL    HW1 1019   4.286   1.609   0.493
   40SOL    HW2 1020   4.444   1.636   0.459
   41SOL     OW 1021   4.931   3.705   1.569
   41SOL    HW1 1022   4.845   3.752   1.590
   41SOL    HW2 1023   4.963   3.657   1.650
   42SOL     OW 1024   2.069   4.474   6.491
   42SOL    HW1 1025   2.157   4.487   6.445
   42SOL    HW2 1026   2.010   4.416   6.435
   43SOL     OW 1027   5.078   6.902   5.168
   43SOL    HW1 1028   4.993   6.915   5.117
   43SOL    HW2 1029   5.080   6.810   5.207
   44SOL     OW 1030   0.523   0.712   6.678
   44SOL    HW1 1031   0.471   0.797   6.671
   44SOL    HW2 1032   0.470   0.645   6.730
   45SOL     OW 1033   1.928   5.009   6.230
   45SOL    HW1 1034   1.850   4.947   6.224
   45SOL    HW2 1035   2.010   4.962   6.198
   46SOL     OW 1036   1.646   4.047   5.065
   46SOL    HW1 1037   1.702   3.994   5.002
   46SOL    HW2 1038   1.558   4.000   5.079
   47SOL     OW 1039   5.940   3.603   0.151
   47SOL    HW1 1040   5.990   3.577   0.234
   47SOL    HW2 1041   5.914   3.699   0.157
   48SOL     OW 1042   6.460   4.223   0.938
   48SOL    HW1 1043   6.451   4.131   0.900
   48SOL    HW2 1044   6.431   4.290   0.871
   49SOL     OW 1045   3.154   3.496   6.311
   49SOL    HW1 1046   3.098   3.561   6.362
   49SOL    HW2 1047   3.244   3.536   6.295
   50SOL     OW 1048   5.273   2.249   6.776
   50SOL    HW1 1049   5.188   2.200   6.794
   50SOL    HW2 1050   5.341   2.186   6.739
   51SOL     OW 1051   1.057   5.754   2.120
   51SOL    HW1 1052   1.022   5.676   2.069
   51SOL    HW2 1053   1.136   5.793   2.072
   52SOL     OW 1054   5.195   2.515   2.272
   52SOL    HW1 1055   5.214   2.573   2.193
   52SOL    HW2 1056   5.118   2.552   2.323
   53SOL     OW 1057   3.761   0.660   0.995
   53SOL    HW1 1058   3.774   0.727   0.921
   53SOL    HW2 1059   3.675   0.612   0.980
   54SOL     OW 1060   6.379   0.477   6.514
   54SOL    HW1 1061   6.423   0.429   6.439
   54SOL    HW2 1062   6.294   0.519   6.482
   55SOL     OW 1063   1.495   3.719   6.042
   55SOL    HW1 1064   1.452   3.669   6.116
   55SOL    HW2 1065   1.537   3.655   5.977
   56SOL     OW 1066   1.125   2.651   6.710
   56SOL    HW1 1067   1.202   2.615   6.657
   56SOL    HW2 1068   1.057   2.689   6.649
   57SOL     OW 1069   4.207   6.195   0.197
   57SOL    HW1 1070   4.171   6.258   0.267
   57SOL    HW2 1071   4.250   6.247   0.124
   58SOL     OW 1072   1.277   1.071   6.970
   58SOL    HW1 1073   1.209   1.006   6.935
   58SOL    HW2 1074   1.292   1.054   0.048
   59SOL     OW 1075   4.215   2.736   5.877
   59SOL    HW1 1076   4.119   2.711   5.895
   59SOL    HW2 1077   4.257   2.770   5.961
   60SOL     OW 1078   6.347   2.410   2.500
   60SOL    HW1 1079   6.396   2.489   2.463
   60SOL    HW2 1080   6.300   2.437   2.583
   61SOL     OW 1081   1.166   5.900   3.435
   61SOL    HW1 1082   1.160   5.856   3.345
   61SOL    HW2 1083   1.140   5.997   3.427
   62SOL     OW 1084   5.751   2.510   3.212
   62SOL    HW1 1085   5.795   2.438   3.158
   62SOL    HW2 1086   5.821   2.572   3.248
   63SOL     OW 1087   3.492   0.046   6.105
   63SOL    HW1 1088   3.447   7.001   6.045
   63SOL    HW2 1089   3.509   0.004   6.194
   64SOL     OW 1090   1.358   1.953   5.816
   64SOL    HW1 1091   1.452   1.964   5.784
   64SOL    HW2 1092   1.360   1.916   5.909
   65SOL     OW 1093   1.014   5.107   4.747
   65SOL    HW1 1094   1.094   5.163   4.723
   65SOL    HW2 1095   1.044   5.025   4.796
   66SOL     OW 1096   4.558   1.775   1.460
   66SOL    HW1 1097   4.488   1.729   1.514
   66SOL    HW2 1098   4.517   1.851   1.410
   67SOL     OW 1099   6.880   3.841   1.578
   67SOL    HW1 1100   6.821   3.904   1.529
   67SOL    HW2 1101   6.861   3.747   1.548
   68SOL     OW 1102   0.467   1.304   0.044
   68SOL    HW1 1103   0.398   1.233   0.029
   68SOL    HW2 1104   0.527   1.310   6.985
   69SOL     OW 1105   1.532   5.408   6.679
   69SOL    HW1 1106   1.566   5.383   6.770
   69SOL    HW2 1107   1.433   5.423   6.684
   70SOL     OW 1108   4.770   4.639   3.830
   70SOL    HW1 1109   4.813   4.558   3.789
   70SOL    HW2 1110   4.774   4.715   3.766
   71SOL     OW 1111   4.724   1.342   4.996
   71SOL    HW1 1112   4.716   1.431   4.952
   71SOL    HW2 1113   4.774   1.280   4.935
   72SOL     OW 1114   6.888   0.274   3.145
   72SOL    HW1 1115   6.832   0.354   3.122
   72SOL    HW2 1116   6.955   0.259   3.072
   73SOL     OW 1117   2.619   0.623   1.734
   73SOL    HW1 1118   2.555   0.557   1.773
   73SOL    HW2 1119   2.594   0.640   1.638
   74SOL     OW 1120   3.065   1.839   0.208
   74SOL    HW1 1121   3.158   1.820   0.238
   74SOL    HW2 1122   3.054   1.937   0.193
   75SOL     OW 1123   2.571   3.236   0.456
   75SOL    HW1 1124   2.574   3.223   0.357
   75SOL    HW2 1125   2.528   3.325   0.476
   76SOL     OW 1126   3.930   5.040   5.739
   76SOL    HW1 1127   3.919   5.011   5.645
   76SOL    HW2 1128   3.841   5.045   5.784
   77SOL     OW 1129   0.862   5.354   4.724
   77SOL    HW1 1130   0.910   5.395   4.801
   77SOL    HW2 1131   0.895   5.260   4.710
   78SOL     OW 1132   4.752   2.034   1.144
   78SOL    HW1 1133   4.720   2.039   1.049
   78SOL    HW2 1134   4.732   2.120   1.191
   79SOL     OW 1135   1.878   4.472   3.710
   79SOL    HW1 1136   1.838   4.387   3.744
   79SOL    HW2 1137   1.977   4.470   3.720
   80SOL     OW 1138   3.542   1.869   5.050
   80SOL    HW1 1139   3.608   1.906   4.984
   80SOL    HW2 1140   3.493   1.944   5.094
   81SOL     OW 1141   3.339   5.190   2.126
   81SOL    HW1 1142   3.373   5.101   2.158
   81SOL    HW2 1143   3.287   5.234   2.200
   82SOL     OW 1144   2.976   6.990   2.206
   82SOL    HW1 1145   2.917   0.003   2.133
   82SOL    HW2 1146   2.954   6.894   2.226
   83SOL     OW 1147   5.086   1.443   3.809
   83SOL    HW1 1148   5.144   1.382   3.755
   83SOL    HW2 1149   5.079   1.532   3.763
   84SOL     OW 1150   5.937   2.739   2.879
   84SOL    HW1 1151   5.975   2.770   2.792
   84SOL    HW2 1152   6.004   2.681   2.925
   85SOL     OW 1153   2.434   6.279   3.167
   85SOL    HW1 1154   2.336   6.296   3.183
   85SOL    HW2 1155   2.452   6.277   3.069
   86SOL     OW 1156   5.409   0.065   1.047
   86SOL    HW1 1157   5.469   0.143   1.031
   86SOL    HW2 1158   5.334   0.092   1.108
   87SOL     OW 1159   2.969   3.652   6.446
   87SOL    HW1 1160   2.936   3.718   6.514
   87SOL    HW2 1161   2.891   3.610   6.400
   88SOL     OW 1162   2.537   3.158   1.449
   88SOL    HW1 1163   2.633   3.139   1.469
   88SOL    HW2 1164   2.486   3.164   1.534
   89SOL     OW 1165   3.359   3.606   4.978
   89SOL    HW1 1166   3.334   3.512   4.956
   89SOL    HW2 1167   3.329   3.666   4.904
   90SOL     OW 1168   5.805   3.642   2.260
   90SOL    HW1 1169   5.829   3.583   2.337
   90SOL    HW2 1170   5.800   3.737   2.291
   91SOL     OW 1171   4.716   6.260   0.053
   91SOL    HW1 1172   4.813   6.236   0.059
   91SOL    HW2 1173   4.661   6.185   0.089
   92SOL     OW 1174   5.727   4.803   6.896
   92SOL    HW1 1175   5.768   4.713   6.880
   92SOL    HW2 1176   5.766   4.843   6.978
   93SOL     OW 1177   2.922   4.021   1.699
   93SOL    HW1 1178   2.873   3.980   1.623
   93SOL    HW2 1179   2.917   4.121   1.692
   94SOL     OW 1180   3.457   1.914   4.196
   94SOL    HW1 1181   3.427   1.961   4.113
   94SOL    HW2 1182   3.479   1.981   4.267
   95SOL     OW 1183   0.613   0.003   4.564
   95SOL    HW1 1184   0.588   6.940   4.513
   95SOL    HW2 1185   0.645   0.073   4.500
   96SOL     OW 1186   0.295   5.486   6.734
   96SOL    HW1 1187   0.242   5.553   6.786
   96SOL    HW2 1188   0.376   5.530   6.695
   97SOL     OW 1189   2.548   4.580   5.772
   97SOL    HW1 1190   2.481   4.631   5.718
   97SOL    HW2 1191   2.622   4.549   5.712
   98SOL     OW 1192   6.943   1.637   4.446
   98SOL    HW1 1193   6.927   1.647   4.348
   98SOL    HW2 1194   0.018   1.657   4.466
   99SOL     OW 1195   3.896   4.365   5.329
   99SOL    HW1 1196   3.975   4.308   5.352
   99SOL    HW2 1197   3.835   4.316   5.268
  100SOL     OW 1198   0.732   0.641   5.403
  100SOL    HW1 1199   0.805   0.608   5.342
  100SOL    HW2 1200   0.695   0.565   5.455
  101SOL     OW 1201   5.205   3.517   2.891
  101SOL    HW1 1202   5.242   3.553   2.976
  101SOL    HW2 1203   5.275   3.521   2.820
  102SOL     OW 1204   3.899   0.640   6.773
  102SOL    HW1 1205   3.919   0.640   6.871
  102SOL    HW2 1206   3.832   0.711   6.752
  103SOL     OW 1207   0.919   1.732   2.240
  103SOL    HW1 1208   0.943   1.649   2.190
  103SOL    HW2 1209   0.969   1.735   2.327
  104SOL     OW 1210   6.355   4.524   2.111
  104SOL    HW1 1211   6.334   4.454   2.043
  104SOL    HW2 1212   6.274   4.581   2.127
  105SOL     OW 1213   0.461   0.203   4.875
  105SOL    HW1 1214   0.542   0.236   4.923
  105SOL    HW2 1215   0.379   0.246   4.913
  106SOL     OW 1216   4.448   3.146   1.679
  106SOL    HW1 1217   4.483   3.125   1.588
  106SOL    HW2 1218   4.512   3.112   1.749
  107SOL     OW 1219   5.739   6.586   1.307
  107SOL    HW1 1220   5.803   6.625   1.240
  107SOL    HW2 1221   5.742   6.641   1.391
  108SOL     OW 1222   3.476   1.535   4.657
  108SOL    HW1 1223   3.546   1.486   4.710
  108SOL    HW2 1224   3.477   1.502   4.562
  109SOL     OW 1225   2.372   0.946   5.354
  109SOL    HW1 1226   2.323   0.994   5.281
  109SOL    HW2 1227   2.307   0.891   5.407
  110SOL     OW 1228   3.602   3.881   5.633
  110SOL    HW1 1229   3.644   3.866   5.543
  110SOL    HW2 1230   3.671   3.868   5.704
  111SOL     OW 1231   5.802   3.121   1.086
  111SOL    HW1 1232   5.861   3.166   1.153
  111SOL    HW2 1233   5.757   3.189   1.029
  112SOL     OW 1234   5.162   6.425   6.094
  112SOL    HW1 1235   5.248   6.472   6.069
  112SOL    HW2 1236   5.123   6.382   6.013
  113SOL     OW 1237   0.492   5.017   2.793
  113SOL    HW1 1238   0.536   4.933   2.827
  113SOL    HW2 1239   0.396   4.999   2.774
  114SOL     OW 1240   7.019   2.415   1.840
  114SOL    HW1 1241   0.059   2.375   1.771
  114SOL    HW2 1242   0.048   2.421   1.927
  115SOL     OW 1243   4.307   0.003   2.690
  115SOL    HW1 1244   4.367   0.083   2.690
  115SOL    HW2 1245   4.355   6.945   2.649
  116SOL     OW 1246   0.000   5.239   0.555
  116SOL    HW1 1247   6.936   5.285   0.582
  116SOL    HW2 1248   7.006   5.140   0.557
  117SOL     OW 1249   3.309   2.322   0.121
  117SOL    HW1 1250   3.389   2.263   0.118
  117SOL    HW2 1251   3.244   2.287   0.189
  118SOL     OW 1252   0.418   1.689   2.704
  118SOL    HW1 1253   0.478   1.765   2.730
  118SOL    HW2 1254   0.342   1.683   2.768
  119SOL     OW 1255   6.498   0.084   5.413
  119SOL    HW1 1256   6.473   0.081   5.317
  119SOL    HW2 1257   6.554   0.004   5.436
  120SOL     OW 1258   4.593   1.037   4.535
  120SOL    HW1 1259   4.679   0.986   4.526
  120SOL    HW2 1260   4.588   1.076   4.627
  121SOL     OW 1261   0.297   5.430   6.333
  121SOL    HW1 1262   0.240   5.464   6.407
  121SOL    HW2 1263   0.280   5.484   6.250
  122SOL     OW 1264   6.804   4.548   5.980
  122SOL    HW1 1265   6.756   4.613   6.039
  122SOL    HW2 1266   6.745   4.469   5.961
  123SOL     OW 1267   0.370   2.731   1.704
  123SOL    HW1 1268   0.294   2.781   1.745
  123SOL    HW2 1269   0.360   2.633   1.722
  124SOL     OW 1270   1.664   3.548   0.417
  124SOL    HW1 1271   1.665   3.631   0.361
  124SOL    HW2 1272   1.692   3.571   0.510
  125SOL     OW 1273   4.341   2.657   0.840
  125SOL    HW1 1274   4.254   2.631   0.881
  125SOL    HW2 1275   4.376   2.581   0.785
  126SOL     OW 1276   3.605   3.093   3.885
  126SOL    HW1 1277   3.584   3.036   3.965
  126SOL    HW2 1278   3.527   3.093   3.823
  127SOL     OW 1279   0.285   4.584   5.544
  127SOL    HW1 1280   0.306   4.666   5.597
  127SOL    HW2 1281   0.256   4.610   5.452
  128SOL     OW 1282   4.729   3.904   5.970
  128SOL    HW1 1283   4.660   3.943   6.031
  128SOL    HW2 1284   4.703   3.810   5.947
  129SOL     OW 1285   0.261   5.517   2.232
  129SOL    HW1 1286   0.334   5.491   2.295
  129SOL    HW2 1287   0.222   5.605   2.261
  130SOL     OW 1288   6.094   3.546   4.361
  130SOL    HW1 1289   6.019   3.506   4.415
  130SOL    HW2 1290   6.141   3.615   4.416
  131SOL     OW 1291   0.494   3.444   3.534
  131SOL    HW1 1292   0.534   3.371   3.589
  131SOL    HW2 1293   0.495   3.418   3.438
  132SOL     OW 1294   4.467   2.420   0.700
  132SOL    HW1 1295   4.532   2.385   0.767
  132SOL    HW2 1296   4.434   2.345   0.643
  133SOL     OW 1297   4.249   4.740   6.732
  133SOL    HW1 1298   4.160   4.703   6.707
  133SOL    HW2 1299   4.237   4.813   6.799
  134SOL     OW 1300   5.331   2.283   1.029
  134SOL    HW1 1301   5.383   2.254   1.109
  134SOL    HW2 1302   5.311   2.381   1.036
  135SOL     OW 1303   4.835   4.082   3.771
  135SOL    HW1 1304   4.765   4.144   3.737
  135SOL    HW2 1305   4.925   4.125   3.763
  136SOL     OW 1306   3.985   0.535   6.431
  136SOL    HW1 1307   4.011   0.457   6.374
  136SOL    HW2 1308   4.064   0.594   6.446
  137SOL     OW 1309   2.374   3.820   6.232
  137SOL    HW1 1310   2.342   3.912   6.206
  137SOL    HW2 1311   2.463   3.827   6.276
  138SOL     OW 1312   0.820   5.580   6.671
  138SOL    HW1 1313   0.794   5.486   6.648
  138SOL    HW2 1314   0.900   5.579   6.732
  139SOL     OW 1315   0.886   6.955   1.546
  139SOL    HW1 1316   0.787   6.968   1.558
  139SOL    HW2 1317   0.926   0.020   1.510
  140SOL     OW 1318   3.983   0.919   1.538
  140SOL    HW1 1319   4.040   0.837   1.529
  140SOL    HW2 1320   3.889   0.892   1.555
  141SOL     OW 1321   0.283   2.058   0.406
  141SOL    HW1 1322   0.371   2.068   0.360
  141SOL    HW2 1323   0.211   2.097   0.349
  142SOL     OW 1324   2.258   4.149   0.370
  142SOL    HW1 1325   2.227   4.193   0.454
  142SOL    HW2 1326   2.351   4.177   0.349
  143SOL     OW 1327   4.553   6.398   1.878
  143SOL    HW1 1328   4.472   6.340   1.863
  143SOL    HW2 1329   4.579   6.441   1.791
  144SOL     OW 1330   3.338   5.202   2.768
  144SOL    HW1 1331   3.371   5.279   2.822
  144SOL    HW2 1332   3.365   5.116   2.811
  145SOL     OW 1333   6.751   5.596   4.275
  145SOL    HW1 1334   6.689   5.557   4.206
  145SOL    HW2 1335   6.796   5.521   4.325
  146SOL     OW 1336   6.131   0.546   6.429
  146SOL    HW1 1337   6.187   0.614   6.382
  146SOL    HW2 1338   6.034   0.563   6.410
  147SOL     OW 1339   5.839   1.460   5.320
  147SOL    HW1 1340   5.838   1.493   5.414
  147SOL    HW2 1341   5.876   1.532   5.260
  148SOL     OW 1342   2.337   6.731   1.590
  148SOL    HW1 1343   2.430   6.742   1.556
  148SOL    HW2 1344   2.286   6.669   1.530
  149SOL     OW 1345   1.498   3.073   4.440
  149SOL    HW1 1346   1.400   3.078   4.456
  149SOL    HW2 1347   1.546   3.131   4.505
  150SOL     OW 1348   4.155   1.865   5.254
  150SOL    HW1 1349   4.208   1.785   5.282
  150SOL    HW2 1350   4.057   1.843   5.259
  151SOL     OW 1351   6.027   3.485   0.944
  151SOL    HW1 1352   6.063   3.408   0.997
  151SOL    HW2 1353   6.043   3.468   0.847
  152SOL     OW 1354   0.809   2.625   1.640
  152SOL    HW1 1355   0.728   2.567   1.632
  152SOL    HW2 1356   0.793   2.711   1.592
  153SOL     OW 1357   2.008   1.818   3.880
  153SOL    HW1 1358   1.974   1.738   3.832
  153SOL    HW2 1359   1.936   1.856   3.938
  154SOL     OW 1360   6.598   1.467   3.311
  154SOL    HW1 1361   6.623   1.378   3.351
  154SOL    HW2 1362   6.573   1.454   3.215
  155SOL     OW 1363   6.394   4.964   3.646
  155SOL    HW1 1364   6.409   5.063   3.639
  155SOL    HW2 1365   6.297   4.945   3.659
  156SOL     OW 1366   4.949   1.584   0.724
  156SOL    HW1 1367   4.954   1.671   0.773
  156SOL    HW2 1368   5.040   1.561   0.689
  157SOL     OW 1369   4.897   6.947   1.497
  157SOL    HW1 1370   4.883   6.849   1.508
  157SOL    HW2 1371   4.895   6.970   1.399
  158SOL     OW 1372   0.308   2.729   4.642
  158SOL    HW1 1373   0.392   2.774   4.673
  158SOL    HW2 1374   0.229   2.780   4.674
  159SOL     OW 1375   5.836   5.391   0.496
  159SOL    HW1 1376   5.813   5.487   0.506
  159SOL    HW2 1377   5.802   5.357   0.409
  160SOL     OW 1378   5.147   0.764   1.204
  160SOL    HW1 1379   5.191   0.852   1.187
  160SOL    HW2 1380   5.048   0.777   1.211
  161SOL     OW 1381   6.535   6.210   0.625
  161SOL    HW1 1382   6.524   6.191   0.527
  161SOL    HW2 1383   6.632   6.201   0.649
  162SOL     OW 1384   4.674   0.125   5.782
  162SOL    HW1 1385   4.653   0.223   5.780
  162SOL    HW2 1386   4.590   0.073   5.762
  163SOL     OW 1387   0.727   3.048   2.779
  163SOL    HW1 1388   0.725   3.024   2.876
  163SOL    HW2 1389   0.635   3.040   2.741
  164SOL     OW 1390   2.211   2.446   3.265
  164SOL    HW1 1391   2.238   2.508   3.191
  164SOL    HW2 1392   2.291   2.396   3.298
  165SOL     OW 1393   0.105   6.882   3.564
  165SOL    HW1 1394   0.168   6.891   3.641
  165SOL    HW2 1395   0.045   6.803   3.579
  166SOL     OW 1396   6.883   4.750   4.410
  166SOL    HW1 1397   6.912   4.739   4.314
  166SOL    HW2 1398   6.837   4.667   4.440
  167SOL     OW 1399   1.968   1.072   4.728
  167SOL    HW1 1400   2.004   0.998   4.786
  167SOL    HW2 1401   1.894   1.119   4.776
  168SOL     OW 1402   3.600   3.622   2.180
  168SOL    HW1 1403   3.615   3.538   2.128
  168SOL    HW2 1404   3.577   3.697   2.117
  169SOL     OW 1405   5.394   2.735   0.545
  169SOL    HW1 1406   5.480   2.745   0.494
  169SOL    HW2 1407   5.334   2.671   0.497
  170SOL     OW 1408   6.164   5.241   1.454
  170SOL    HW1 1409   6.221   5.298   1.395
  170SOL    HW2 1410   6.186   5.261   1.550
  171SOL     OW 1411   3.239   3.142   1.523
  171SOL    HW1 1412   3.289   3.061   1.491
  171SOL    HW2 1413   3.303   3.216   1.542
  172SOL     OW 1414   1.673   0.893   6.066
  172SOL    HW1 1415   1.590   0.949   6.070
  172SOL    HW2 1416   1.715   0.890   6.157
  173SOL     OW 1417   5.743   1.311   4.563
  173SOL    HW1 1418   5.651   1.289   4.595
  173SOL    HW2 1419   5.739   1.388   4.500
  174SOL     OW 1420   5.435   4.345   4.280
  174SOL    HW1 1421   5.475   4.262   4.241
  174SOL    HW2 1422   5.423   4.414   4.208
  175SOL     OW 1423   0.689   6.399   2.459
  175SOL    HW1 1424   0.601   6.417   2.415
  175SOL    HW2 1425   0.743   6.483   2.460
  176SOL     OW 1426   6.647   3.571   1.923
  176SOL    HW1 1427   6.579   3.544   1.854
  176SOL    HW2 1428   6.607   3.640   1.983
  177SOL     OW 1429   6.291   2.034   3.403
  177SOL    HW1 1430   6.366   1.990   3.453
  177SOL    HW2 1431   6.271   1.981   3.320
  178SOL     OW 1432   2.211   5.800   4.319
  178SOL    HW1 1433   2.219   5.705   4.288
  178SOL    HW2 1434   2.141   5.847   4.264
  179SOL     OW 1435   2.927   4.509   1.072
  179SOL    HW1 1436   2.876   4.476   1.152
  179SOL    HW2 1437   2.882   4.590   1.036
  180SOL     OW 1438   5.078   1.450   6.396
  180SOL    HW1 1439   5.172   1.470   6.370
  180SOL    HW2 1440   5.077   1.397   6.481
  181SOL     OW 1441   3.310   1.355   6.179
  181SOL    HW1 1442   3.227   1.401   6.145
  181SOL    HW2 1443   3.351   1.301   6.105
  182SOL     OW 1444   2.910   3.033   5.472
  182SOL    HW1 1445   2.864   3.089   5.404
  182SOL    HW2 1446   2.853   2.954   5.494
  183SOL     OW 1447   2.873   0.469   3.057
  183SOL    HW1 1448   2.958   0.470   3.109
  183SOL    HW2 1449   2.892   0.446   2.961
  184SOL     OW 1450   5.566   5.689   3.514
  184SOL    HW1 1451   5.653   5.730   3.541
  184SOL    HW2 1452   5.558   5.691   3.414
  185SOL     OW 1453   0.714   6.789   5.085
  185SOL    HW1 1454   0.741   6.881   5.057
  185SOL    HW2 1455   0.614   6.782   5.087
  186SOL     OW 1456   3.061   6.363   4.679
  186SOL    HW1 1457   3.137   6.365   4.744
  186SOL    HW2 1458   3.070   6.440   4.616
  187SOL     OW 1459   4.175   5.822   1.110
  187SOL    HW1 1460   4.092   5.825   1.055
  187SOL    HW2 1461   4.171   5.895   1.179
  188SOL     OW 1462   1.140   3.616   3.371
  188SOL    HW1 1463   1.089   3.549   3.317
  188SOL    HW2 1464   1.228   3.635   3.327
  189SOL     OW 1465   5.434   4.936   5.130
  189SOL    HW1 1466   5.368   4.917   5.203
  189SOL    HW2 1467   5.432   5.034   5.108
  190SOL     OW 1468   6.410   6.729   0.322
  190SOL    HW1 1469   6.316   6.713   0.350
  190SOL    HW2 1470   6.426   6.689   0.232
  191SOL     OW 1471   1.715   2.058   5.312
  191SOL    HW1 1472   1.674   1.977   5.270
  191SOL    HW2 1473   1.813   2.059   5.293
  192SOL     OW 1474   0.349   5.570   1.365
  192SOL    HW1 1475   0.359   5.491   1.426
  192SOL    HW2 1476   0.363   5.654   1.417
  193SOL     OW 1477   2.514   0.404   1.940
  193SOL    HW1 1478   2.537   0.311   1.910
  193SOL    HW2 1479   2.575   0.431   2.014
  194SOL     OW 1480   3.769   5.922   2.616
  194SOL    HW1 1481   3.671   5.904   2.615
  194SOL    HW2 1482   3.795   5.970   2.532
  195SOL     OW 1483   3.494   6.925   0.735
  195SOL    HW1 1484   3.404   6.884   0.749
  195SOL    HW2 1485   3.486   7.000   0.670
  196SOL     OW 1486   3.812   2.454   0.920
  196SOL    HW1 1487   3.854   2.465   1.010
  196SOL    HW2 1488   3.741   2.524   0.908
  197SOL     OW 1489   1.746   5.739   0.014
  197SOL    HW1 1490   1.716   5.751   6.939
  197SOL    HW2 1491   1.832   5.687   0.016
  198SOL     OW 1492   4.205   0.079   6.541
  198SOL    HW1 1493   4.280   0.042   6.596
  198SOL    HW2 1494   4.152   0.004   6.501
  199SOL     OW 1495   0.966   0.650   3.284
  199SOL    HW1 1496   0.927   0.742   3.293
  199SOL    HW2 1497   0.925   0.590   3.353
  200SOL     OW 1498   1.102   3.942   3.738
  200SOL    HW1 1499   1.057   4.031   3.745
  200SOL    HW2 1500   1.154   3.924   3.822
  201SOL     OW 1501   4.887   1.636   6.360
  201SOL    HW1 1502   4.802   1.614   6.408
  201SOL    HW2 1503   4.955   1.565   6.376
  202SOL     OW 1504   3.792   1.313   2.478
  202SOL    HW1 1505   3.754   1.350   2.563
  202SOL    HW2 1506   3.818   1.217   2.493
  203SOL     OW 1507   6.199   2.901   0.087
  203SOL    HW1 1508   6.233   2.995   0.097
  203SOL    HW2 1509   6.121   2.901   0.024
  204SOL     OW 1510   2.234   0.150   1.385
  204SOL    HW1 1511   2.307   0.087   1.357
  204SOL    HW2 1512   2.246   0.175   1.481
  205SOL     OW 1513   6.183   0.465   1.548
  205SOL    HW1 1514   6.187   0.562   1.525
  205SOL    HW2 1515   6.089   0.440   1.572
  206SOL     OW 1516   6.983   5.777   1.590
  206SOL    HW1 1517   0.030   5.748   1.522
  206SOL    HW2 1518   6.966   5.875   1.580
  207SOL     OW 1519   5.106   1.762   5.488
  207SOL    HW1 1520   5.135   1.854   5.515
  207SOL    HW2 1521   5.014   1.767   5.448
  208SOL     OW 1522   3.882   4.356   6.288
  208SOL    HW1 1523   3.784   4.338   6.280
  208SOL    HW2 1524   3.928   4.275   6.326
  209SOL     OW 1525   6.859   5.678   4.648
  209SOL    HW1 1526   6.947   5.717   4.678
  209SOL    HW2 1527   6.872   5.626   4.564
  210SOL     OW 1528   4.096   2.132   0.939
  210SOL    HW1 1529   4.147   2.090   1.014
  210SOL    HW2 1530   4.116   2.083   0.854
  211SOL     OW 1531   0.670   3.220   2.013
  211SOL    HW1 1532   0.658   3.156   2.088
  211SOL    HW2 1533   0.765   3.217   1.982
  212SOL     OW 1534   6.894   5.389   4.408
  212SOL    HW1 1535   6.847   5.331   4.474
  212SOL    HW2 1536   6.993   5.377   4.417
  213SOL     OW 1537   3.876   2.278   5.934
  213SOL    HW1 1538   3.915   2.342   5.868
  213SOL    HW2 1539   3.928   2.283   6.020
  214SOL     OW 1540   1.565   6.845   3.350
  214SOL    HW1 1541   1.621   6.771   3.313
  214SOL    HW2 1542   1.515   6.813   3.430
  215SOL     OW 1543   4.042   3.825   2.933
  215SOL    HW1 1544   3.989   3.894   2.885
  215SOL    HW2 1545   4.078   3.864   3.018
  216SOL     OW 1546   1.988   6.971   5.623
  216SOL    HW1 1547   2.061   6.906   5.601
  216SOL    HW2 1548   1.984   6.984   5.722
  217SOL     OW 1549   6.716   2.651   4.206
  217SOL    HW1 1550   6.688   2.744   4.229
  217SOL    HW2 1551   6.697   2.634   4.109
  218SOL     OW 1552   1.916   3.677   5.734
  218SOL    HW1 1553   1.976   3.710   5.807
  218SOL    HW2 1554   1.933   3.729   5.650
  219SOL     OW 1555   3.461   5.289   0.317
  219SOL    HW1 1556   3.380   5.310   0.372
  219SOL    HW2 1557   3.432   5.253   0.228
  220SOL     OW 1558   1.099   4.490   0.840
  220SOL    HW1 1559   1.057   4.401   0.823
  220SOL    HW2 1560   1.119   4.535   0.753
  221SOL     OW 1561   6.333   2.920   4.328
  221SOL    HW1 1562   6.254   2.904   4.269
  221SOL    HW2 1563   6.310   2.898   4.422
  222SOL     OW 1564   1.175   6.417   4.294
  222SOL    HW1 1565   1.192   6.489   4.228
  222SOL    HW2 1566   1.217   6.441   4.382
  223SOL     OW 1567   6.346   4.558   2.473
  223SOL    HW1 1568   6.364   4.497   2.396
  223SOL    HW2 1569   6.321   4.504   2.553
  224SOL     OW 1570   3.728   2.074   2.247
  224SOL    HW1 1571   3.687   2.102   2.160
  224SOL    HW2 1572   3.657   2.071   2.317
  225SOL     OW 1573   6.312   6.850   1.355
  225SOL    HW1 1574   6.303   6.946   1.383
  225SOL    HW2 1575   6.261   6.836   1.270
  226SOL     OW 1576   6.669   5.845   1.526
  226SOL    HW1 1577   6.718   5.887   1.449
  226SOL    HW2 1578   6.726   5.771   1.564
  227SOL     OW 1579   1.082   3.180   3.057
  227SOL    HW1 1580   1.085   3.095   3.004
  227SOL    HW2 1581   0.989   3.216   3.057
  228SOL     OW 1582   3.541   6.236   2.623
  228SOL    HW1 1583   3.534   6.150   2.673
  228SOL    HW2 1584   3.530   6.313   2.686
  229SOL     OW 1585   6.094   5.452   3.540
  229SOL    HW1 1586   6.022   5.466   3.608
  229SOL    HW2 1587   6.138   5.539   3.519
  230SOL     OW 1588   0.986   3.862   6.071
  230SOL    HW1 1589   0.951   3.827   5.984
  230SOL    HW2 1590   0.981   3.962   6.071
  231SOL     OW 1591   0.761   1.825   6.953
  231SOL    HW1 1592   0.741   1.920   6.978
  231SOL    HW2 1593   0.804   1.823   6.862
  232SOL     OW 1594   1.520   4.264   6.638
  232SOL    HW1 1595   1.501   4.192   6.572
  232SOL    HW2 1596   1.585   4.330   6.599
  233SOL     OW 1597   3.144   0.402   6.243
  233SOL    HW1 1598   3.187   0.492   6.236
  233SOL    HW2 1599   3.096   0.395   6.330
  234SOL     OW 1600   2.660   5.654   5.747
  234SOL    HW1 1601   2.676   5.740   5.699
  234SOL    HW2 1602   2.562   5.634   5.748
  235SOL     OW 1603   3.604   3.547   5.151
  235SOL    HW1 1604   3.659   3.630   5.144
  235SOL    HW2 1605   3.510   3.568   5.125
  236SOL     OW 1606   0.176   2.429   6.237
  236SOL    HW1 1607   0.159   2.345   6.288
  236SOL    HW2 1608   0.111   2.436   6.161
  237SOL     OW 1609   6.304   6.544   1.735
  237SOL    HW1 1610   6.320   6.643   1.741
  237SOL    HW2 1611   6.208   6.525   1.755
  238SOL     OW 1612   6.558   1.696   2.381
  238SOL    HW1 1613   6.531   1.769   2.444
  238SOL    HW2 1614   6.609   1.626   2.432
  239SOL     OW 1615   0.300   5.381   0.981
  239SOL    HW1 1616   0.393   5.369   1.016
  239SOL    HW2 1617   0.250   5.295   0.991
  240SOL     OW 1618   6.858   2.939   5.228
  240SOL    HW1 1619   6.786   3.009   5.228
  240SOL    HW2 1620   6.941   2.978   5.268
  241SOL     OW 1621   6.072   1.869   4.565
  241SOL    HW1 1622   6.013   1.880   4.485
  241SOL    HW2 1623   6.051   1.782   4.609
  242SOL     OW 1624   2.447   2.571   3.948
  242SOL    HW1 1625   2.385   2.496   3.971
  242SOL    HW2 1626   2.403   2.632   3.882
  243SOL     OW 1627   4.616   1.621   6.463
  243SOL    HW1 1628   4.585   1.614   6.558
  243SOL    HW2 1629   4.538   1.607   6.401
  244SOL     OW 1630   0.108   0.713   5.648
  244SOL    HW1 1631   0.075   0.796   5.604
  244SOL    HW2 1632   0.033   0.647   5.656
  245SOL     OW 1633   4.903   2.429   3.973
  245SOL    HW1 1634   4.848   2.459   4.051
  245SOL    HW2 1635   4.916   2.506   3.910
  246SOL     OW 1636   5.114   3.052   3.454
  246SOL    HW1 1637   5.206   3.075   3.421
  246SOL    HW2 1638   5.096   2.955   3.437
  247SOL     OW 1639   2.842   0.461   3.502
  247SOL    HW1 1640   2.769   0.464   3.434
  247SOL    HW2 1641   2.919   0.516   3.470
  248SOL     OW 1642   6.812   1.401   1.876
  248SOL    HW1 1643   6.847   1.310   1.898
  248SOL    HW2 1644   6.846   1.430   1.787
  249SOL     OW 1645   1.939   6.009   5.309
  249SOL    HW1 1646   1.960   5.927   5.362
  249SOL    HW2 1647   2.012   6.025   5.242
  250SOL     OW 1648   4.915   2.675   6.505
  250SOL    HW1 1649   4.855   2.605   6.543
  250SOL    HW2 1650   4.987   2.696   6.571
  251SOL     OW 1651   2.026   1.925   0.213
  251SOL    HW1 1652   1.991   1.865   0.284
  251SOL    HW2 1653   2.010   2.021   0.238
  252SOL     OW 1654   0.941   1.502   0.590
  252SOL    HW1 1655   0.921   1.586   0.640
  252SOL    HW2 1656   0.971   1.432   0.654
  253SOL     OW 1657   2.090   4.105   6.009
  253SOL    HW1 1658   2.066   4.118   5.913
  253SOL    HW2 1659   2.084   4.193   6.057
  254SOL     OW 1660   4.764   3.395   6.492
  254SOL    HW1 1661   4.859   3.410   6.465
  254SOL    HW2 1662   4.761   3.342   6.577
  255SOL     OW 1663   3.504   2.047   2.412
  255SOL    HW1 1664   3.410   2.076   2.393
  255SOL    HW2 1665   3.506   1.991   2.494
  256SOL     OW 1666   6.396   5.749   2.097
  256SOL    HW1 1667   6.461   5.759   2.022
  256SOL    HW2 1668   6.303   5.764   2.064
  257SOL     OW 1669   2.591   5.613   0.045
  257SOL    HW1 1670   2.599   5.529   7.011
  257SOL    HW2 1671   2.598   5.692   7.005
  258SOL     OW 1672   4.876   4.692   4.624
  258SOL    HW1 1673   4.953   4.648   4.577
  258SOL    HW2 1674   4.837   4.762   4.565
  259SOL     OW 1675   0.990   2.193   3.222
  259SOL    HW1 1676   1.084   2.217   3.199
  259SOL    HW2 1677   0.937   2.276   3.239
  260SOL     OW 1678   7.006   6.619   5.570
  260SOL    HW1 1679   6.933   6.682   5.546
  260SOL    HW2 1680   6.993   6.588   5.664
  261SOL     OW 1681   0.389   1.152   3.426
  261SOL    HW1 1682   0.482   1.161   3.392
  261SOL    HW2 1683   0.348   1.068   3.389
  262SOL     OW 1684   1.863   5.232   2.925
  262SOL    HW1 1685   1.844   5.291   3.003
  262SOL    HW2 1686   1.791   5.244   2.856
  263SOL     OW 1687   0.360   3.489   4.935
  263SOL    HW1 1688   0.436   3.550   4.916
  263SOL    HW2 1689   0.325   3.507   5.027
  264SOL     OW 1690   3.601   4.363   6.644
  264SOL    HW1 1691   3.569   4.271   6.623
  264SOL    HW2 1692   3.521   4.424   6.655
  265SOL     OW 1693   5.001   5.533   4.344
  265SOL    HW1 1694   4.952   5.506   4.261
  265SOL    HW2 1695   5.007   5.456   4.407
  266SOL     OW 1696   4.240   2.910   6.603
  266SOL    HW1 1697   4.258   2.992   6.657
  266SOL    HW2 1698   4.266   2.926   6.508
  267SOL     OW 1699   2.357   1.661   5.950
  267SOL    HW1 1700   2.447   1.655   5.993
  267SOL    HW2 1701   2.302   1.583   5.977
  268SOL     OW 1702   2.720   4.672   3.730
  268SOL    HW1 1703   2.673   4.617   3.799
  268SOL    HW2 1704   2.712   4.628   3.641
  269SOL     OW 1705   1.886   1.056   5.148
  269SOL    HW1 1706   1.840   1.083   5.063
  269SOL    HW2 1707   1.819   1.046   5.221
  270SOL     OW 1708   4.784   6.574   4.630
  270SOL    HW1 1709   4.831   6.526   4.556
  270SOL    HW2 1710   4.723   6.509   4.677
  271SOL     OW 1711   1.459   1.557   0.396
  271SOL    HW1 1712   1.553   1.571   0.367
  271SOL    HW2 1713   1.433   1.462   0.380
  272SOL     OW 1714   4.503   6.182   0.936
  272SOL    HW1 1715   4.564   6.110   0.968
  272SOL    HW2 1716   4.478   6.241   1.012
  273SOL     OW 1717   2.201   6.506   4.182
  273SOL    HW1 1718   2.291   6.503   4.139
  273SOL    HW2 1719   2.164   6.413   4.190
  274SOL     OW 1720   5.536   1.894   1.250
  274SOL    HW1 1721   5.445   1.870   1.285
  274SOL    HW2 1722   5.585   1.946   1.320
  275SOL     OW 1723   5.705   5.696   5.908
  275SOL    HW1 1724   5.717   5.735   5.999
  275SOL    HW2 1725   5.790   5.654   5.878
  276SOL     OW 1726   6.907   6.577   4.726
  276SOL    HW1 1727   6.944   6.485   4.738
  276SOL    HW2 1728   6.939   6.636   4.800
  277SOL     OW 1729   4.394   2.838   5.582
  277SOL    HW1 1730   4.456   2.876   5.513
  277SOL    HW2 1731   4.334   2.771   5.538
  278SOL     OW 1732   5.745   3.998   3.141
  278SOL    HW1 1733   5.701   3.920   3.185
  278SOL    HW2 1734   5.837   3.972   3.110
  279SOL     OW 1735   6.737   3.408   3.772
  279SOL    HW1 1736   6.664   3.343   3.792
  279SOL    HW2 1737   6.791   3.424   3.855
  280SOL     OW 1738   4.458   1.410   3.457
  280SOL    HW1 1739   4.482   1.506   3.473
  280SOL    HW2 1740   4.490   1.355   3.533
  281SOL     OW 1741   5.225   6.042   5.113
  281SOL    HW1 1742   5.220   6.092   5.199
  281SOL    HW2 1743   5.280   6.094   5.047
  282SOL     OW 1744   1.029   2.982   0.277
  282SOL    HW1 1745   1.064   2.891   0.299
  282SOL    HW2 1746   0.977   2.978   0.192
  283SOL     OW 1747   6.045   4.152   4.125
  283SOL    HW1 1748   6.123   4.166   4.064
  283SOL    HW2 1749   6.077   4.116   4.213
  284SOL     OW 1750   5.050   6.128   2.447
  284SOL    HW1 1751   4.986   6.126   2.370
  284SOL    HW2 1752   5.086   6.220   2.458
  285SOL     OW 1753   3.948   6.919   5.676
  285SOL    HW1 1754   4.001   7.002   5.693
  285SOL    HW2 1755   3.883   6.906   5.751
  286SOL     OW 1756   2.719   4.927   5.194
  286SOL    HW1 1757   2.812   4.895   5.210
  286SOL    HW2 1758   2.716   4.982   5.110
  287SOL     OW 1759   3.933   6.044   6.674
  287SOL    HW1 1760   4.016   6.072   6.723
  287SOL    HW2 1761   3.901   5.957   6.711
  288SOL     OW 1762   4.973   1.790   0.149
  288SOL    HW1 1763   4.900   1.724   0.132
  288SOL    HW2 1764   5.061   1.744   0.144
  289SOL     OW 1765   5.996   4.669   4.299
  289SOL    HW1 1766   5.956   4.635   4.384
  289SOL    HW2 1767   6.012   4.592   4.237
  290SOL     OW 1768   3.966   0.409   5.838
  290SOL    HW1 1769   3.913   0.486   5.874
  290SOL    HW2 1770   3.920   0.370   5.759
  291SOL     OW 1771   4.392   0.517   5.496
  291SOL    HW1 1772   4.422   0.601   5.542
  291SOL    HW2 1773   4.337   0.541   5.416
  292SOL     OW 1774   3.313   0.199   3.736
  292SOL    HW1 1775   3.309   0.294   3.704
  292SOL    HW2 1776   3.409   0.170   3.742
  293SOL     OW 1777   5.267   6.510   2.851
  293SOL    HW1 1778   5.197   6.451   2.891
  293SOL    HW2 1779   5.224   6.577   2.790
  294SOL     OW 1780   6.634   1.295   6.909
  294SOL    HW1 1781   6.597   1.354   6.837
  294SOL    HW2 1782   6.645   1.348   6.993
  295SOL     OW 1783   1.073   1.064   4.875
  295SOL    HW1 1784   1.077   1.125   4.795
  295SOL    HW2 1785   1.152   1.083   4.934
  296SOL     OW 1786   0.817   2.203   2.146
  296SOL    HW1 1787   0.801   2.125   2.207
  296SOL    HW2 1788   0.799   2.288   2.195
  297SOL     OW 1789   5.615   3.083   3.341
  297SOL    HW1 1790   5.687   3.044   3.284
  297SOL    HW2 1791   5.584   3.013   3.407
  298SOL     OW 1792   4.332   1.116   5.259
  298SOL    HW1 1793   4.239   1.151   5.269
  298SOL    HW2 1794   4.332   1.017   5.271
  299SOL     OW 1795   0.740   1.105   6.679
  299SOL    HW1 1796   0.802   1.172   6.719
  299SOL    HW2 1797   0.682   1.067   6.752
  300SOL     OW 1798   4.888   6.882   3.577
  300SOL    HW1 1799   4.867   6.917   3.486
  300SOL    HW2 1800   4.987   6.888   3.593
  301SOL     OW 1801   6.811   5.256   6.091
  301SOL    HW1 1802   6.833   5.267   6.187
  301SOL    HW2 1803   6.891   5.276   6.035
  302SOL     OW 1804   0.432   6.362   2.689
  302SOL    HW1 1805   0.448   6.355   2.590
  302SOL    HW2 1806   0.374   6.442   2.708
  303SOL     OW 1807   5.829   6.081   2.994
  303SOL    HW1 1808   5.820   6.068   2.895
  303SOL    HW2 1809   5.759   6.145   3.025
  304SOL     OW 1810   2.321   6.555   4.753
  304SOL    HW1 1811   2.293   6.552   4.657
  304SOL    HW2 1812   2.301   6.467   4.796
  305SOL     OW 1813   0.600   2.457   1.633
  305SOL    HW1 1814   0.631   2.370   1.594
  305SOL    HW2 1815   0.511   2.445   1.676
  306SOL     OW 1816   0.496   6.769   3.140
  306SOL    HW1 1817   0.440   6.687   3.147
  306SOL    HW2 1818   0.463   6.837   3.205
  307SOL     OW 1819   3.466   3.898   3.740
  307SOL    HW1 1820   3.512   3.974   3.786
  307SOL    HW2 1821   3.455   3.822   3.804
  308SOL     OW 1822   6.276   1.693   2.335
  308SOL    HW1 1823   6.236   1.637   2.262
  308SOL    HW2 1824   6.375   1.686   2.331
  309SOL     OW 1825   2.006   5.696   0.183
  309SOL    HW1 1826   1.978   5.774   0.239
  309SOL    HW2 1827   1.941   5.621   0.196
  310SOL     OW 1828   5.501   6.528   5.021
  310SOL    HW1 1829   5.533   6.584   4.944
  310SOL    HW2 1830   5.405   6.549   5.039
  311SOL     OW 1831   1.628   5.979   1.636
  311SOL    HW1 1832   1.689   6.005   1.710
  311SOL    HW2 1833   1.679   5.976   1.550
  312SOL     OW 1834   2.980   0.520   4.190
  312SOL    HW1 1835   3.023   0.582   4.124
  312SOL    HW2 1836   2.992   0.426   4.160
  313SOL     OW 1837   3.075   3.127   2.670
  313SOL    HW1 1838   3.004   3.067   2.634
  313SOL    HW2 1839   3.142   3.074   2.722
  314SOL     OW 1840   2.800   5.452   6.174
  314SOL    HW1 1841   2.833   5.511   6.101
  314SOL    HW2 1842   2.789   5.359   6.140
  315SOL     OW 1843   5.483   0.783   4.852
  315SOL    HW1 1844   5.431   0.840   4.916
  315SOL    HW2 1845   5.581   0.801   4.863
  316SOL     OW 1846   4.166   0.824   6.254
  316SOL    HW1 1847   4.179   0.730   6.222
  316SOL    HW2 1848   4.123   0.822   6.345
  317SOL     OW 1849   0.378   2.762   1.333
  317SOL    HW1 1850   0.433   2.817   1.395
  317SOL    HW2 1851   0.283   2.792   1.336
  318SOL     OW 1852   0.886   0.489   5.108
  318SOL    HW1 1853   0.946   0.564   5.136
  318SOL    HW2 1854   0.821   0.523   5.040
  319SOL     OW 1855   0.041   0.637   3.880
  319SOL    HW1 1856   6.978   0.691   3.895
  319SOL    HW2 1857   0.072   0.650   3.786
  320SOL     OW 1858   5.609   2.147   6.510
  320SOL    HW1 1859   5.516   2.116   6.529
  320SOL    HW2 1860   5.673   2.073   6.528
  321SOL     OW 1861   4.618   3.011   1.031
  321SOL    HW1 1862   4.542   2.990   0.970
  321SOL    HW2 1863   4.679   3.076   0.988
  322SOL     OW 1864   3.401   2.935   6.789
  322SOL    HW1 1865   3.383   2.910   6.694
  322SOL    HW2 1866   3.411   3.035   6.796
  323SOL     OW 1867   1.469   3.772   2.367
  323SOL    HW1 1868   1.404   3.753   2.440
  323SOL    HW2 1869   1.546   3.826   2.403
  324SOL     OW 1870   0.617   0.076   3.065
  324SOL    HW1 1871   0.616   0.058   3.163
  324SOL    HW2 1872   0.600   7.011   3.015
  325SOL     OW 1873   6.844   3.909   0.664
  325SOL    HW1 1874   6.874   3.835   0.603
  325SOL    HW2 1875   6.911   3.920   0.738
  326SOL     OW 1876   0.723   6.169   0.072
  326SOL    HW1 1877   0.722   6.094   0.006
  326SOL    HW2 1878   0.629   6.190   0.100
  327SOL     OW 1879   4.286   5.723   5.899
  327SOL    HW1 1880   4.294   5.640   5.844
  327SOL    HW2 1881   4.352   5.720   5.975
  328SOL     OW 1882   1.514   4.796   3.094
  328SOL    HW1 1883   1.546   4.841   3.177
  328SOL    HW2 1884   1.559   4.707   3.085
  329SOL     OW 1885   3.175   3.471   1.657
  329SOL    HW1 1886   3.105   3.502   1.721
  329SOL    HW2 1887   3.234   3.403   1.702
  330SOL     OW 1888   3.128   3.571   0.202
  330SOL    HW1 1889   3.186   3.548   0.124
  330SOL    HW2 1890   3.044   3.614   0.169
  331SOL     OW 1891   5.407   5.678   5.060
  331SOL    HW1 1892   5.358   5.736   5.125
  331SOL    HW2 1893   5.495   5.651   5.100
  332SOL     OW 1894   5.389   1.968   2.617
  332SOL    HW1 1895   5.352   2.060   2.608
  332SOL    HW2 1896   5.389   1.941   2.714
  333SOL     OW 1897   3.233   6.912   4.537
  333SOL    HW1 1898   3.313   6.971   4.545
  333SOL    HW2 1899   3.155   6.966   4.505
  334SOL     OW 1900   3.583   4.113   3.371
  334SOL    HW1 1901   3.582   4.127   3.272
  334SOL    HW2 1902   3.498   4.068   3.399
  335SOL     OW 1903   3.940   1.595   1.253
  335SOL    HW1 1904   3.840   1.601   1.250
  335SOL    HW2 1905   3.967   1.523   1.316
  336SOL     OW 1906   3.643   1.739   4.472
  336SOL    HW1 1907   3.563   1.720   4.529
  336SOL    HW2 1908   3.639   1.684   4.389
  337SOL     OW 1909   0.296   1.044   5.004
  337SOL    HW1 1910   0.200   1.060   5.025
  337SOL    HW2 1911   0.310   0.948   4.979
  338SOL     OW 1912   4.214   1.493   1.403
  338SOL    HW1 1913   4.208   1.593   1.402
  338SOL    HW2 1914   4.123   1.454   1.421
  339SOL     OW 1915   4.401   5.096   5.414
  339SOL    HW1 1916   4.311   5.137   5.427
  339SOL    HW2 1917   4.398   5.000   5.442
  340SOL     OW 1918   6.240   2.309   4.218
  340SOL    HW1 1919   6.148   2.308   4.178
  340SOL    HW2 1920   6.293   2.232   4.182
  341SOL     OW 1921   0.116   6.654   3.117
  341SOL    HW1 1922   0.020   6.653   3.090
  341SOL    HW2 1923   0.171   6.697   3.045
  342SOL     OW 1924   4.981   2.101   2.438
  342SOL    HW1 1925   4.912   2.153   2.387
  342SOL    HW2 1926   4.970   2.003   2.419
  343SOL     OW 1927   6.374   6.842   1.768
  343SOL    HW1 1928   6.464   6.883   1.751
  343SOL    HW2 1929   6.315   6.909   1.812
  344SOL     OW 1930   0.050   2.303   1.025
  344SOL    HW1 1931   0.110   2.359   0.968
  344SOL    HW2 1932   0.085   2.303   1.119
  345SOL     OW 1933   6.483   2.407   4.512
  345SOL    HW1 1934   6.385   2.390   4.501
  345SOL    HW2 1935   6.499   2.467   4.590
  346SOL     OW 1936   2.566   6.468   3.277
  346SOL    HW1 1937   2.499   6.535   3.309
  346SOL    HW2 1938   2.522   6.405   3.213
  347SOL     OW 1939   1.943   4.197   0.411
  347SOL    HW1 1940   1.990   4.263   0.471
  347SOL    HW2 1941   1.941   4.233   0.318
  348SOL     OW 1942   3.860   5.518   1.561
  348SOL    HW1 1943   3.911   5.574   1.495
  348SOL    HW2 1944   3.922   5.487   1.633
  349SOL     OW 1945   5.668   4.210   0.681
  349SOL    HW1 1946   5.616   4.141   0.631
  349SOL    HW2 1947   5.659   4.298   0.636
  350SOL     OW 1948   3.426   2.034   6.843
  350SOL    HW1 1949   3.330   2.012   6.859
  350SOL    HW2 1950   3.444   2.129   6.869
  351SOL     OW 1951   3.464   4.224   0.630
  351SOL    HW1 1952   3.514   4.159   0.573
  351SOL    HW2 1953   3.523   4.254   0.705
  352SOL     OW 1954   4.163   0.327   2.431
  352SOL    HW1 1955   4.076   0.327   2.381
  352SOL    HW2 1956   4.154   0.382   2.513
  353SOL     OW 1957   1.681   0.488   0.769
  353SOL    HW1 1958   1.650   0.407   0.818
  353SOL    HW2 1959   1.749   0.463   0.701
  354SOL     OW 1960   0.992   2.699   0.343
  354SOL    HW1 1961   1.016   2.689   0.247
  354SOL    HW2 1962   1.056   2.647   0.399
  355SOL     OW 1963   1.226   2.370   2.930
  355SOL    HW1 1964   1.140   2.421   2.920
  355SOL    HW2 1965   1.243   2.352   3.027
  356SOL     OW 1966   2.896   0.274   5.324
  356SOL    HW1 1967   2.927   0.180   5.337
  356SOL    HW2 1968   2.867   0.287   5.229
  357SOL     OW 1969   5.659   0.220   4.642
  357SOL    HW1 1970   5.587   0.288   4.638
  357SOL    HW2 1971   5.655   0.161   4.561
  358SOL     OW 1972   3.427   6.203   6.138
  358SOL    HW1 1973   3.393   6.127   6.193
  358SOL    HW2 1974   3.422   6.180   6.041
  359SOL     OW 1975   1.211   1.969   2.400
  359SOL    HW1 1976   1.253   2.059   2.409
  359SOL    HW2 1977   1.233   1.931   2.310
  360SOL     OW 1978   1.960   4.525   4.411
  360SOL    HW1 1979   1.972   4.584   4.491
  360SOL    HW2 1980   2.016   4.442   4.422
  361SOL     OW 1981   6.519   1.334   2.286
  361SOL    HW1 1982   6.537   1.387   2.203
  361SOL    HW2 1983   6.578   1.366   2.360
  362SOL     OW 1984   3.512   3.587   1.422
  362SOL    HW1 1985   3.534   3.685   1.427
  362SOL    HW2 1986   3.591   3.534   1.452
  363SOL     OW 1987   4.980   5.651   1.966
  363SOL    HW1 1988   5.019   5.642   2.057
  363SOL    HW2 1989   5.051   5.674   1.901
  364SOL     OW 1990   0.803   6.684   0.024
  364SOL    HW1 1991   0.876   6.691   0.092
  364SOL    HW2 1992   0.832   6.620   6.972
  365SOL     OW 1993   5.348   1.592   3.659
  365SOL    HW1 1994   5.375   1.595   3.756
  365SOL    HW2 1995   5.408   1.652   3.606
  366SOL     OW 1996   5.662   1.639   6.646
  366SOL    HW1 1997   5.615   1.710   6.698
  366SOL    HW2 1998   5.752   1.623   6.685
  367SOL     OW 1999   5.965   1.339   6.897
  367SOL    HW1 2000   5.944   1.258   6.842
  367SOL    HW2 2001   5.894   1.351   6.966
  368SOL     OW 2002   0.790   2.015   5.832
  368SOL    HW1 2003   0.802   1.945   5.762
  368SOL    HW2 2004   0.705   2.066   5.814
  369SOL     OW 2005   6.195   3.951   1.071
  369SOL    HW1 2006   6.274   3.968   1.129
  369SOL    HW2 2007   6.179   3.852   1.064
  370SOL     OW 2008   1.796   2.501   3.688
  370SOL    HW1 2009   1.773   2.423   3.745
  370SOL    HW2 2010   1.777   2.479   3.592
  371SOL     OW 2011   0.894   4.777   6.832
  371SOL    HW1 2012   0.987   4.743   6.825
  371SOL    HW2 2013   0.890   4.852   6.898
  372SOL     OW 2014   2.944   6.271   6.194
  372SOL    HW1 2015   2.875   6.253   6.265
  372SOL    HW2 2016   2.971   6.367   6.197
  373SOL     OW 2017   6.358   4.720   3.399
  373SOL    HW1 2018   6.366   4.805   3.346
  373SOL    HW2 2019   6.441   4.707   3.454
  374SOL     OW 2020   2.928   1.494   2.669
  374SOL    HW1 2021   2.837   1.461   2.644
  374SOL    HW2 2022   2.988   1.490   2.589
  375SOL     OW 2023   0.730   5.794   4.416
  375SOL    HW1 2024   0.644   5.824   4.373
  375SOL    HW2 2025   0.807   5.839   4.371
  376SOL     OW 2026   3.741   0.870   3.334
  376SOL    HW1 2027   3.797   0.949   3.308
  376SOL    HW2 2028   3.740   0.862   3.434
  377SOL     OW 2029   2.271   1.874   0.096
  377SOL    HW1 2030   2.186   1.905   0.138
  377SOL    HW2 2031   2.287   1.926   0.012
  378SOL     OW 2032   4.387   1.519   2.599
  378SOL    HW1 2033   4.321   1.471   2.540
  378SOL    HW2 2034   4.365   1.501   2.695
  379SOL     OW 2035   4.528   1.768   6.041
  379SOL    HW1 2036   4.451   1.813   6.087
  379SOL    HW2 2037   4.607   1.829   6.043
  380SOL     OW 2038   4.263   2.642   6.988
  380SOL    HW1 2039   4.198   2.667   6.916
  380SOL    HW2 2040   4.282   2.723   0.024
  381SOL     OW 2041   2.126   3.803   2.917
  381SOL    HW1 2042   2.150   3.706   2.926
  381SOL    HW2 2043   2.044   3.812   2.862
  382SOL     OW 2044   5.706   0.389   6.382
  382SOL    HW1 2045   5.732   0.486   6.380
  382SOL    HW2 2046   5.787   0.333   6.364
  383SOL     OW 2047   5.195   2.263   0.602
  383SOL    HW1 2048   5.173   2.360   0.608
  383SOL    HW2 2049   5.244   2.234   0.684
  384SOL     OW 2050   6.531   3.780   4.834
  384SOL    HW1 2051   6.597   3.762   4.761
  384SOL    HW2 2052   6.471   3.701   4.846
  385SOL     OW 2053   4.732   3.343   0.421
  385SOL    HW1 2054   4.736   3.248   0.450
  385SOL    HW2 2055   4.736   3.348   0.321
  386SOL     OW 2056   3.912   6.426   3.900
  386SOL    HW1 2057   3.913   6.460   3.994
  386SOL    HW2 2058   3.927   6.327   3.900
  387SOL     OW 2059   2.541   5.768   4.270
  387SOL    HW1 2060   2.510   5.776   4.175
  387SOL    HW2 2061   2.484   5.825   4.329
  388SOL     OW 2062   0.911   4.375   6.972
  388SOL    HW1 2063   0.977   4.392   6.899
  388SOL    HW2 2064   0.869   4.285   6.960
  389SOL     OW 2065   3.061   3.400   2.268
  389SOL    HW1 2066   3.112   3.331   2.319
  389SOL    HW2 2067   2.987   3.355   2.217
  390SOL     OW 2068   2.580   1.268   4.410
  390SOL    HW1 2069   2.550   1.244   4.502
  390SOL    HW2 2070   2.573   1.188   4.350
  391SOL     OW 2071   1.067   2.446   6.128
  391SOL    HW1 2072   1.150   2.441   6.183
  391SOL    HW2 2073   1.023   2.357   6.125
  392SOL     OW 2074   3.007   5.246   3.675
  392SOL    HW1 2075   2.923   5.250   3.730
  392SOL    HW2 2076   3.061   5.329   3.691
  393SOL     OW 2077   6.255   3.853   4.736
  393SOL    HW1 2078   6.210   3.942   4.731
  393SOL    HW2 2079   6.349   3.865   4.767
  394SOL     OW 2080   2.723   0.477   6.715
  394SOL    HW1 2081   2.798   0.505   6.775
  394SOL    HW2 2082   2.670   0.558   6.688
  395SOL     OW 2083   6.151   3.686   1.122
  395SOL    HW1 2084   6.108   3.611   1.071
  395SOL    HW2 2085   6.250   3.674   1.122
  396SOL     OW 2086   3.870   2.948   4.443
  396SOL    HW1 2087   3.807   2.911   4.511
  396SOL    HW2 2088   3.928   3.018   4.485
  397SOL     OW 2089   4.068   1.822   6.499
  397SOL    HW1 2090   3.981   1.872   6.508
  397SOL    HW2 2091   4.057   1.751   6.430
  398SOL     OW 2092   0.843   4.662   2.803
  398SOL    HW1 2093   0.871   4.757   2.789
  398SOL    HW2 2094   0.774   4.638   2.734
  399SOL     OW 2095   4.756   5.015   3.031
  399SOL    HW1 2096   4.713   5.100   2.999
  399SOL    HW2 2097   4.848   5.036   3.066
  400SOL     OW 2098   1.456   4.874   4.616
  400SOL    HW1 2099   1.494   4.789   4.652
  400SOL    HW2 2100   1.357   4.865   4.607
  401SOL     OW 2101   5.671   1.329   6.663
  401SOL    HW1 2102   5.733   1.279   6.724
  401SOL    HW2 2103   5.670   1.285   6.573
  402SOL     OW 2104   6.108   4.669   1.432
  402SOL    HW1 2105   6.040   4.702   1.367
  402SOL    HW2 2106   6.135   4.743   1.493
  403SOL     OW 2107   5.186   3.658   6.785
  403SOL    HW1 2108   5.187   3.737   6.846
  403SOL    HW2 2109   5.110   3.598   6.810
  404SOL     OW 2110   0.467   6.940   4.960
  404SOL    HW1 2111   0.401   6.885   4.910
  404SOL    HW2 2112   0.464   0.014   4.926
  405SOL     OW 2113   1.182   2.591   0.569
  405SOL    HW1 2114   1.241   2.593   0.650
  405SOL    HW2 2115   1.224   2.533   0.499
  406SOL     OW 2116   1.332   3.314   2.976
  406SOL    HW1 2117   1.268   3.260   3.031
  406SOL    HW2 2118   1.411   3.257   2.951
  407SOL     OW 2119   2.601   1.438   3.339
  407SOL    HW1 2120   2.677   1.412   3.398
  407SOL    HW2 2121   2.594   1.538   3.337
  408SOL     OW 2122   1.931   0.459   3.464
  408SOL    HW1 2123   1.860   0.442   3.396
  408SOL    HW2 2124   1.901   0.424   3.553
  409SOL     OW 2125   5.913   3.063   4.212
  409SOL    HW1 2126   5.986   3.132   4.212
  409SOL    HW2 2127   5.904   3.023   4.121
  410SOL     OW 2128   3.592   1.128   6.104
  410SOL    HW1 2129   3.676   1.182   6.098
  410SOL    HW2 2130   3.522   1.168   6.045
  411SOL     OW 2131   0.105   3.802   5.375
  411SOL    HW1 2132   0.036   3.744   5.331
  411SOL    HW2 2133   0.061   3.878   5.422
  412SOL     OW 2134   3.562   6.964   2.106
  412SOL    HW1 2135   3.532   0.010   2.037
  412SOL    HW2 2136   3.594   6.881   2.061
  413SOL     OW 2137   2.890   0.507   1.626
  413SOL    HW1 2138   2.855   0.529   1.535
  413SOL    HW2 2139   2.825   0.539   1.695
  414SOL     OW 2140   4.626   3.853   0.178
  414SOL    HW1 2141   4.670   3.852   0.268
  414SOL    HW2 2142   4.567   3.773   0.169
  415SOL     OW 2143   3.054   6.372   1.691
  415SOL    HW1 2144   3.047   6.450   1.754
  415SOL    HW2 2145   3.145   6.371   1.650
  416SOL     OW 2146   3.516   5.983   5.640
  416SOL    HW1 2147   3.611   6.004   5.617
  416SOL    HW2 2148   3.510   5.889   5.672
  417SOL     OW 2149   4.359   5.938   0.762
  417SOL    HW1 2150   4.306   5.963   0.843
  417SOL    HW2 2151   4.407   6.019   0.726
  418SOL     OW 2152   5.624   4.484   0.649
  418SOL    HW1 2153   5.585   4.545   0.718
  418SOL    HW2 2154   5.642   4.535   0.565
  419SOL     OW 2155   6.374   6.350   1.185
  419SOL    HW1 2156   6.348   6.254   1.186
  419SOL    HW2 2157   6.292   6.407   1.179
  420SOL     OW 2158   4.563   4.274   6.962
  420SOL    HW1 2159   4.584   4.179   6.937
  420SOL    HW2 2160   4.563   4.283   0.041
  421SOL     OW 2161   1.397   5.660   6.796
  421SOL    HW1 2162   1.392   5.718   6.877
  421SOL    HW2 2163   1.316   5.601   6.791
  422SOL     OW 2164   5.791   3.277   6.736
  422SOL    HW1 2165   5.742   3.203   6.689
  422SOL    HW2 2166   5.759   3.365   6.701
  423SOL     OW 2167   0.649   2.937   5.994
  423SOL    HW1 2168   0.664   2.846   6.034
  423SOL    HW2 2169   0.644   3.005   6.067
  424SOL     OW 2170   2.550   4.105   6.939
  424SOL    HW1 2171   2.460   4.130   6.903
  424SOL    HW2 2172   2.545   4.016   6.983
  425SOL     OW 2173   3.280   0.896   0.594
  425SOL    HW1 2174   3.211   0.883   0.522
  425SOL    HW2 2175   3.272   0.988   0.632
  426SOL     OW 2176   5.418   4.010   5.681
  426SOL    HW1 2177   5.363   4.055   5.752
  426SOL    HW2 2178   5.358   3.985   5.605
  427SOL     OW 2179   4.810   3.710   0.792
  427SOL    HW1 2180   4.769   3.638   0.848
  427SOL    HW2 2181   4.892   3.744   0.838
  428SOL     OW 2182   3.995   1.161   4.869
  428SOL    HW1 2183   3.914   1.159   4.811
  428SOL    HW2 2184   4.048   1.077   4.856
  429SOL     OW 2185   2.124   5.239   0.071
  429SOL    HW1 2186   2.126   5.139   0.064
  429SOL    HW2 2187   2.115   5.278   6.999
  430SOL     OW 2188   1.499   6.532   5.204
  430SOL    HW1 2189   1.407   6.501   5.228
  430SOL    HW2 2190   1.534   6.476   5.129
  431SOL     OW 2191   3.612   1.603   6.855
  431SOL    HW1 2192   3.664   1.618   6.770
  431SOL    HW2 2193   3.573   1.511   6.854
  432SOL     OW 2194   0.162   1.838   1.122
  432SOL    HW1 2195   0.258   1.813   1.131
  432SOL    HW2 2196   0.153   1.911   1.053
  433SOL     OW 2197   3.029   5.898   4.591
  433SOL    HW1 2198   3.010   5.996   4.590
  433SOL    HW2 2199   2.949   5.848   4.558
  434SOL     OW 2200   6.845   3.579   0.975
  434SOL    HW1 2201   6.931   3.544   1.013
  434SOL    HW2 2202   6.774   3.510   0.985
  435SOL     OW 2203   3.611   4.038   0.441
  435SOL    HW1 2204   3.688   3.997   0.491
  435SOL    HW2 2205   3.639   4.058   0.347
  436SOL     OW 2206   2.851   1.007   7.004
  436SOL    HW1 2207   2.801   1.058   6.934
  436SOL    HW2 2208   2.948   1.006   6.981
  437SOL     OW 2209   6.992   6.769   6.330
  437SOL    HW1 2210   7.002   6.702   6.403
  437SOL    HW2 2211   0.044   6.838   6.337
  438SOL     OW 2212   1.649   2.832   1.919
  438SOL    HW1 2213   1.595   2.866   1.996
  438SOL    HW2 2214   1.690   2.744   1.943
  439SOL     OW 2215   6.025   4.898   2.750
  439SOL    HW1 2216   5.973   4.908   2.834
  439SOL    HW2 2217   6.035   4.800   2.728
  440SOL     OW 2218   0.903   3.033   3.710
  440SOL    HW1 2219   0.955   3.063   3.790
  440SOL    HW2 2220   0.913   2.935   3.699
  441SOL     OW 2221   1.057   0.945   3.869
  441SOL    HW1 2222   1.088   1.024   3.817
  441SOL    HW2 2223   0.981   0.901   3.821
  442SOL     OW 2224   6.942   4.245   0.302
  442SOL    HW1 2225   6.905   4.332   0.335
  442SOL    HW2 2226   0.013   4.230   0.342
  443SOL     OW 2227   0.804   4.019   5.707
  443SOL    HW1 2228   0.747   3.938   5.696
  443SOL    HW2 2229   0.893   3.993   5.746
  444SOL     OW 2230   4.341   3.538   6.061
  444SOL    HW1 2231   4.329   3.441   6.084
  444SOL    HW2 2232   4.298   3.558   5.974
  445SOL     OW 2233   1.919   4.595   2.998
  445SOL    HW1 2234   1.955   4.665   3.059
  445SOL    HW2 2235   1.983   4.519   2.992
  446SOL     OW 2236   4.512   4.662   3.939
  446SOL    HW1 2237   4.603   4.643   3.904
  446SOL    HW2 2238   4.490   4.596   4.012
  447SOL     OW 2239   6.925   5.727   0.582
  447SOL    HW1 2240   7.008   5.690   0.623
  447SOL    HW2 2241   6.857   5.653   0.572
  448SOL     OW 2242   5.030   0.704   5.543
  448SOL    HW1 2243   5.081   0.627   5.582
  448SOL    HW2 2244   5.041   0.704   5.444
  449SOL     OW 2245   6.148   0.755   4.748
  449SOL    HW1 2246   6.191   0.666   4.767
  449SOL    HW2 2247   6.058   0.740   4.707
  450SOL     OW 2248   6.658   6.395   3.835
  450SOL    HW1 2249   6.569   6.351   3.820
  450SOL    HW2 2250   6.658   6.438   3.925
  451SOL     OW 2251   0.332   2.508   3.126
  451SOL    HW1 2252   0.371   2.595   3.157
  451SOL    HW2 2253   0.239   2.498   3.161
  452SOL     OW 2254   0.229   4.769   6.605
  452SOL    HW1 2255   0.201   4.775   6.509
  452SOL    HW2 2256   0.169   4.825   6.661
  453SOL     OW 2257   3.207   0.744   5.817
  453SOL    HW1 2258   3.166   0.668   5.869
  453SOL    HW2 2259   3.160   0.752   5.729
  454SOL     OW 2260   0.998   6.165   7.017
  454SOL    HW1 2261   0.925   6.163   0.066
  454SOL    HW2 2262   1.041   6.255   7.016
  455SOL     OW 2263   5.318   1.263   5.746
  455SOL    HW1 2264   5.339   1.279   5.650
  455SOL    HW2 2265   5.336   1.168   5.769
  456SOL     OW 2266   4.651   5.777   6.526
  456SOL    HW1 2267   4.597   5.819   6.599
  456SOL    HW2 2268   4.689   5.691   6.559
  457SOL     OW 2269   1.575   5.038   2.626
  457SOL    HW1 2270   1.638   5.115   2.621
  457SOL    HW2 2271   1.596   4.973   2.552
  458SOL     OW 2272   6.554   5.655   6.745
  458SOL    HW1 2273   6.617   5.578   6.744
  458SOL    HW2 2274   6.598   5.735   6.705
  459SOL     OW 2275   2.128   0.702   2.852
  459SOL    HW1 2276   2.198   0.711   2.780
  459SOL    HW2 2277   2.138   0.614   2.897
  460SOL     OW 2278   6.340   1.642   3.276
  460SOL    HW1 2279   6.357   1.735   3.243
  460SOL    HW2 2280   6.424   1.603   3.312
  461SOL     OW 2281   4.678   6.194   5.544
  461SOL    HW1 2282   4.695   6.193   5.445
  461SOL    HW2 2283   4.745   6.136   5.590
  462SOL     OW 2284   2.781   3.544   6.271
  462SOL    HW1 2285   2.748   3.610   6.203
  462SOL    HW2 2286   2.845   3.480   6.227
  463SOL     OW 2287   6.546   5.558   1.405
  463SOL    HW1 2288   6.637   5.574   1.443
  463SOL    HW2 2289   6.482   5.538   1.480
  464SOL     OW 2290   2.055   0.971   5.760
  464SOL    HW1 2291   2.092   0.993   5.850
  464SOL    HW2 2292   2.036   0.873   5.754
  465SOL     OW 2293   6.353   2.570   4.202
  465SOL    HW1 2294   6.328   2.473   4.197
  465SOL    HW2 2295   6.285   2.620   4.255
  466SOL     OW 2296   1.709   0.034   3.238
  466SOL    HW1 2297   1.632   0.084   3.277
  466SOL    HW2 2298   1.702   6.958   3.263
  467SOL     OW 2299   1.948   0.752   5.120
  467SOL    HW1 2300   1.940   0.840   5.166
  467SOL    HW2 2301   1.936   0.678   5.187
  468SOL     OW 2302   3.108   4.254   0.701
  468SOL    HW1 2303   3.110   4.202   0.616
  468SOL    HW2 2304   3.037   4.218   0.761
  469SOL     OW 2305   2.056   5.060   0.358
  469SOL    HW1 2306   2.041   5.044   0.261
  469SOL    HW2 2307   2.085   5.155   0.372
  470SOL     OW 2308   3.796   1.406   2.794
  470SOL    HW1 2309   3.770   1.499   2.819
  470SOL    HW2 2310   3.891   1.404   2.764
  471SOL     OW 2311   2.560   2.374   4.918
  471SOL    HW1 2312   2.605   2.393   4.831
  471SOL    HW2 2313   2.519   2.282   4.915
  472SOL     OW 2314   3.479   4.063   5.814
  472SOL    HW1 2315   3.517   4.011   5.738
  472SOL    HW2 2316   3.550   4.124   5.851
  473SOL     OW 2317   1.173   4.231   2.661
  473SOL    HW1 2318   1.259   4.199   2.700
  473SOL    HW2 2319   1.190   4.296   2.588
  474SOL     OW 2320   3.970   4.872   4.799
  474SOL    HW1 2321   3.928   4.947   4.748
  474SOL    HW2 2322   4.059   4.851   4.760
  475SOL     OW 2323   0.462   6.485   6.339
  475SOL    HW1 2324   0.451   6.576   6.380
  475SOL    HW2 2325   0.558   6.469   6.318
  476SOL     OW 2326   0.022   4.494   2.559
  476SOL    HW1 2327   0.001   4.396   2.557
  476SOL    HW2 2328   0.121   4.506   2.572
  477SOL     OW 2329   1.537   5.200   4.025
  477SOL    HW1 2330   1.623   5.169   4.065
  477SOL    HW2 2331   1.555   5.273   3.959
  478SOL     OW 2332   2.259   5.029   3.412
  478SOL    HW1 2333   2.266   5.013   3.511
  478SOL    HW2 2334   2.247   4.942   3.365
  479SOL     OW 2335   3.538   2.269   0.689
  479SOL    HW1 2336   3.492   2.355   0.667
  479SOL    HW2 2337   3.589   2.278   0.774
  480SOL     OW 2338   0.929   0.320   2.687
  480SOL    HW1 2339   0.869   0.292   2.762
  480SOL    HW2 2340   0.904   0.412   2.657
  481SOL     OW 2341   4.216   0.053   1.055
  481SOL    HW1 2342   4.288   0.091   1.113
  481SOL    HW2 2343   4.245   6.984   1.020
  482SOL     OW 2344   5.310   4.363   2.048
  482SOL    HW1 2345   5.334   4.440   1.988
  482SOL    HW2 2346   5.309   4.395   2.143
  483SOL     OW 2347   5.593   1.595   1.529
  483SOL    HW1 2348   5.501   1.572   1.495
  483SOL    HW2 2349   5.634   1.664   1.469
  484SOL     OW 2350   6.629   2.266   4.921
  484SOL    HW1 2351   6.583   2.255   5.009
  484SOL    HW2 2352   6.723   2.234   4.927
  485SOL     OW 2353   3.637   5.124   2.320
  485SOL    HW1 2354   3.596   5.207   2.284
  485SOL    HW2 2355   3.587   5.094   2.401
  486SOL     OW 2356   0.606   0.680   0.671
  486SOL    HW1 2357   0.687   0.702   0.617
  486SOL    HW2 2358   0.547   0.760   0.677
  487SOL     OW 2359   6.590   2.593   6.679
  487SOL    HW1 2360   6.625   2.504   6.648
  487SOL    HW2 2361   6.654   2.665   6.652
  488SOL     OW 2362   0.330   2.145   2.408
  488SOL    HW1 2363   0.327   2.245   2.409
  488SOL    HW2 2364   0.255   2.110   2.352
  489SOL     OW 2365   3.522   5.983   6.340
  489SOL    HW1 2366   3.594   5.962   6.275
  489SOL    HW2 2367   3.436   5.941   6.310
  490SOL     OW 2368   5.698   6.429   4.561
  490SOL    HW1 2369   5.754   6.351   4.588
  490SOL    HW2 2370   5.705   6.501   4.631
  491SOL     OW 2371   6.777   2.731   2.889
  491SOL    HW1 2372   6.810   2.737   2.983
  491SOL    HW2 2373   6.769   2.822   2.850
  492SOL     OW 2374   2.243   0.468   5.395
  492SOL    HW1 2375   2.317   0.415   5.435
  492SOL    HW2 2376   2.173   0.406   5.359
  493SOL     OW 2377   6.517   4.115   4.544
  493SOL    HW1 2378   6.556   4.117   4.636
  493SOL    HW2 2379   6.569   4.051   4.487
  494SOL     OW 2380   6.762   0.392   0.937
  494SOL    HW1 2381   6.710   0.447   0.871
  494SOL    HW2 2382   6.760   0.296   0.910
  495SOL     OW 2383   4.360   4.413   1.504
  495SOL    HW1 2384   4.312   4.477   1.444
  495SOL    HW2 2385   4.355   4.446   1.599
  496SOL     OW 2386   5.755   2.884   3.600
  496SOL    HW1 2387   5.795   2.970   3.631
  496SOL    HW2 2388   5.754   2.817   3.674
  497SOL     OW 2389   4.416   0.828   4.547
  497SOL    HW1 2390   4.487   0.898   4.533
  497SOL    HW2 2391   4.333   0.871   4.583
  498SOL     OW 2392   1.334   3.072   2.549
  498SOL    HW1 2393   1.243   3.102   2.522
  498SOL    HW2 2394   1.327   3.005   2.622
  499SOL     OW 2395   3.355   1.467   4.937
  499SOL    HW1 2396   3.353   1.369   4.955
  499SOL    HW2 2397   3.380   1.482   4.841
  500SOL     OW 2398   0.695   4.067   2.565
  500SOL    HW1 2399   0.632   4.133   2.608
  500SOL    HW2 2400   0.741   4.014   2.636
  501SOL     OW 2401   0.642   3.979   6.041
  501SOL    HW1 2402   0.560   3.931   6.071
  501SOL    HW2 2403   0.701   3.916   5.990
  502SOL     OW 2404   3.546   4.990   6.735
  502SOL    HW1 2405   3.501   4.903   6.753
  502SOL    HW2 2406   3.532   5.051   6.813
  503SOL     OW 2407   5.312   5.234   5.359
  503SOL    HW1 2408   5.372   5.175   5.413
  503SOL    HW2 2409   5.351   5.247   5.268
  504SOL     OW 2410   1.959   6.091   4.616
  504SOL    HW1 2411   1.936   6.040   4.534
  504SOL    HW2 2412   2.054   6.122   4.610
  505SOL     OW 2413   3.755   6.900   5.896
  505SOL    HW1 2414   3.835   6.894   5.956
  505SOL    HW2 2415   3.679   6.848   5.935
  506SOL     OW 2416   1.977   4.022   6.407
  506SOL    HW1 2417   1.999   3.929   6.375
  506SOL    HW2 2418   1.963   4.021   6.506
  507SOL     OW 2419   3.375   1.547   4.024
  507SOL    HW1 2420   3.353   1.633   4.069
  507SOL    HW2 2421   3.472   1.545   4.001
  508SOL     OW 2422   6.585   3.938   4.040
  508SOL    HW1 2423   6.625   3.970   4.126
  508SOL    HW2 2424   6.639   3.862   4.004
  509SOL     OW 2425   4.712   2.182   1.512
  509SOL    HW1 2426   4.773   2.243   1.562
  509SOL    HW2 2427   4.677   2.112   1.574
  510SOL     OW 2428   0.645   3.740   4.013
  510SOL    HW1 2429   0.682   3.765   3.924
  510SOL    HW2 2430   0.550   3.772   4.020
  511SOL     OW 2431   0.045   6.748   0.912
  511SOL    HW1 2432   6.985   6.807   0.903
  511SOL    HW2 2433   0.127   6.800   0.890
  512SOL     OW 2434   0.296   3.621   6.588
  512SOL    HW1 2435   0.202   3.589   6.569
  512SOL    HW2 2436   0.328   3.579   6.673
  513SOL     OW 2437   6.427   5.844   4.200
  513SOL    HW1 2438   6.444   5.909   4.273
  513SOL    HW2 2439   6.357   5.879   4.139
  514SOL     OW 2440   5.784   1.792   3.716
  514SOL    HW1 2441   5.807   1.793   3.813
  514SOL    HW2 2442   5.689   1.819   3.704
  515SOL     OW 2443   2.364   6.025   0.208
  515SOL    HW1 2444   2.367   5.979   0.120
  515SOL    HW2 2445   2.372   6.124   0.195
  516SOL     OW 2446   2.091   5.106   1.965
  516SOL    HW1 2447   2.125   5.035   1.903
  516SOL    HW2 2448   2.091   5.194   1.917
  517SOL     OW 2449   5.101   0.474   1.038
  517SOL    HW1 2450   5.066   0.547   1.097
  517SOL    HW2 2451   5.064   0.486   0.946
  518SOL     OW 2452   2.293   2.616   0.704
  518SOL    HW1 2453   2.380   2.613   0.654
  518SOL    HW2 2454   2.309   2.650   0.796
  519SOL     OW 2455   0.917   6.386   0.225
  519SOL    HW1 2456   0.980   6.363   0.298
  519SOL    HW2 2457   0.832   6.334   0.237
  520SOL     OW 2458   5.620   4.741   5.322
  520SOL    HW1 2459   5.552   4.760   5.251
  520SOL    HW2 2460   5.575   4.694   5.398
  521SOL     OW 2461   6.678   1.318   0.834
  521SOL    HW1 2462   6.651   1.377   0.910
  521SOL    HW2 2463   6.691   1.374   0.752
  522SOL     OW 2464   4.130   3.632   4.398
  522SOL    HW1 2465   4.207   3.682   4.439
  522SOL    HW2 2466   4.118   3.663   4.304
  523SOL     OW 2467   0.209   6.783   5.206
  523SOL    HW1 2468   0.125   6.731   5.191
  523SOL    HW2 2469   0.187   6.881   5.207
  524SOL     OW 2470   3.040   0.770   5.594
  524SOL    HW1 2471   3.056   0.840   5.525
  524SOL    HW2 2472   2.948   0.781   5.632
  525SOL     OW 2473   2.260   3.608   6.905
  525SOL    HW1 2474   2.246   3.521   6.858
  525SOL    HW2 2475   2.341   3.603   6.962
  526SOL     OW 2476   3.554   6.033   4.582
  526SOL    HW1 2477   3.554   6.092   4.502
  526SOL    HW2 2478   3.554   5.937   4.554
  527SOL     OW 2479   0.854   1.846   6.424
  527SOL    HW1 2480   0.798   1.775   6.382
  527SOL    HW2 2481   0.929   1.870   6.362
  528SOL     OW 2482   2.486   0.060   5.179
  528SOL    HW1 2483   2.508   0.000   5.256
  528SOL    HW2 2484   2.556   0.132   5.171
  529SOL     OW 2485   0.006   4.861   3.763
  529SOL    HW1 2486   6.997   4.956   3.750
  529SOL    HW2 2487   0.105   4.857   3.770
  530SOL     OW 2488   2.455   2.988   5.453
  530SOL    HW1 2489   2.491   2.913   5.509
  530SOL    HW2 2490   2.489   2.978   5.359
  531SOL     OW 2491   0.394   0.224   0.971
  531SOL    HW1 2492   0.299   0.192   0.970
  531SOL    HW2 2493   0.452   0.154   1.013
  532SOL     OW 2494   2.081   0.620   5.749
  532SOL    HW1 2495   2.026   0.626   5.832
  532SOL    HW2 2496   2.043   0.550   5.689
  533SOL     OW 2497   5.574   6.995   4.429
  533SOL    HW1 2498   5.515   6.914   4.430
  533SOL    HW2 2499   5.629   6.995   4.345
  534SOL     OW 2500   3.815   5.827   1.781
  534SOL    HW1 2501   3.884   5.812   1.852
  534SOL    HW2 2502   3.780   5.738   1.749
  535SOL     OW 2503   0.239   3.422   3.223
  535SOL    HW1 2504   0.271   3.339   3.267
  535SOL    HW2 2505   0.315   3.488   3.215
  536SOL     OW 2506   0.912   5.741   0.778
  536SOL    HW1 2507   0.952   5.695   0.698
  536SOL    HW2 2508   0.821   5.774   0.756
  537SOL     OW 2509   2.278   0.482   2.464
  537SOL    HW1 2510   2.298   0.479   2.366
  537SOL    HW2 2511   2.264   0.388   2.497
  538SOL     OW 2512   1.066   5.410   3.370
  538SOL    HW1 2513   1.053   5.370   3.461
  538SOL    HW2 2514   1.152   5.377   3.331
  539SOL     OW 2515   1.600   4.848   1.885
  539SOL    HW1 2516   1.527   4.830   1.818
  539SOL    HW2 2517   1.681   4.794   1.862
  540SOL     OW 2518   1.048   2.026   2.053
  540SOL    HW1 2519   0.966   1.978   2.020
  540SOL    HW2 2520   1.021   2.095   2.119
  541SOL     OW 2521   3.120   6.066   5.436
  541SOL    HW1 2522   3.072   6.038   5.353
  541SOL    HW2 2523   3.057   6.068   5.513
  542SOL     OW 2524   6.115   5.443   6.907
  542SOL    HW1 2525   6.068   5.519   6.953
  542SOL    HW2 2526   6.051   5.368   6.895
  543SOL     OW 2527   0.337   5.953   0.080
  543SOL    HW1 2528   0.261   6.017   0.088
  543SOL    HW2 2529   0.407   5.975   0.147
  544SOL     OW 2530   1.070   5.634   0.574
  544SOL    HW1 2531   1.130   5.707   0.609
  544SOL    HW2 2532   1.125   5.568   0.523
  545SOL     OW 2533   3.891   1.859   3.491
  545SOL    HW1 2534   3.823   1.789   3.468
  545SOL    HW2 2535   3.847   1.948   3.499
  546SOL     OW 2536   0.847   4.012   0.298
  546SOL    HW1 2537   0.918   3.955   0.256
  546SOL    HW2 2538   0.757   3.986   0.260
  547SOL     OW 2539   2.794   3.335   0.253
  547SOL    HW1 2540   2.850   3.318   0.172
  547SOL    HW2 2541   2.708   3.284   0.246
  548SOL     OW 2542   3.297   3.231   3.941
  548SOL    HW1 2543   3.215   3.239   3.885
  548SOL    HW2 2544   3.338   3.141   3.927
  549SOL     OW 2545   6.489   3.337   1.488
  549SOL    HW1 2546   6.513   3.426   1.451
  549SOL    HW2 2547   6.494   3.268   1.415
  550SOL     OW 2548   0.274   3.906   2.169
  550SOL    HW1 2549   0.176   3.902   2.187
  550SOL    HW2 2550   0.292   3.974   2.097
  551SOL     OW 2551   6.965   1.849   0.086
  551SOL    HW1 2552   6.894   1.918   0.104
  551SOL    HW2 2553   6.931   1.759   0.113
  552SOL     OW 2554   4.444   6.190   0.675
  552SOL    HW1 2555   4.476   6.192   0.770
  552SOL    HW2 2556   4.402   6.278   0.652
  553SOL     OW 2557   1.736   2.265   1.585
  553SOL    HW1 2558   1.721   2.199   1.658
  553SOL    HW2 2559   1.834   2.275   1.567
  554SOL     OW 2560   5.619   6.267   4.979
  554SOL    HW1 2561   5.598   6.365   4.984
  554SOL    HW2 2562   5.537   6.217   4.951
  555SOL     OW 2563   1.479   4.323   4.619
  555SOL    HW1 2564   1.530   4.370   4.547
  555SOL    HW2 2565   1.537   4.315   4.701
  556SOL     OW 2566   5.265   3.569   3.154
  556SOL    HW1 2567   5.316   3.614   3.228
  556SOL    HW2 2568   5.313   3.485   3.127
  557SOL     OW 2569   0.259   6.205   6.091
  557SOL    HW1 2570   0.356   6.226   6.107
  557SOL    HW2 2571   0.229   6.135   6.155
  558SOL     OW 2572   4.026   3.980   5.289
  558SOL    HW1 2573   4.071   4.069   5.298
  558SOL    HW2 2574   4.087   3.908   5.322
  559SOL     OW 2575   6.373   5.554   6.576
  559SOL    HW1 2576   6.349   5.620   6.505
  559SOL    HW2 2577   6.447   5.590   6.632
  560SOL     OW 2578   4.034   6.899   6.477
  560SOL    HW1 2579   3.946   6.934   6.511
  560SOL    HW2 2580   4.035   6.800   6.485
  561SOL     OW 2581   5.561   6.712   0.870
  561SOL    HW1 2582   5.617   6.775   0.924
  561SOL    HW2 2583   5.478   6.758   0.840
  562SOL     OW 2584   6.375   1.362   6.033
  562SOL    HW1 2585   6.392   1.264   6.040
  562SOL    HW2 2586   6.365   1.401   6.125
  563SOL     OW 2587   2.917   5.930   4.283
  563SOL    HW1 2588   3.004   5.917   4.329
  563SOL    HW2 2589   2.933   5.941   4.184
  564SOL     OW 2590   0.801   1.523   6.687
  564SOL    HW1 2591   0.813   1.621   6.700
  564SOL    HW2 2592   0.823   1.499   6.592
  565SOL     OW 2593   4.749   4.117   5.165
  565SOL    HW1 2594   4.746   4.130   5.066
  565SOL    HW2 2595   4.775   4.202   5.209
  566SOL     OW 2596   5.014   5.133   3.096
  566SOL    HW1 2597   5.085   5.104   3.159
  566SOL    HW2 2598   4.981   5.224   3.122
  567SOL     OW 2599   4.039   3.208   4.555
  567SOL    HW1 2600   4.116   3.234   4.613
  567SOL    HW2 2601   4.031   3.272   4.479
  568SOL     OW 2602   2.286   1.388   6.859
  568SOL    HW1 2603   2.285   1.432   6.770
  568SOL    HW2 2604   2.223   1.435   6.921
  569SOL     OW 2605   2.512   3.751   0.293
  569SOL    HW1 2606   2.584   3.695   0.333
  569SOL    HW2 2607   2.435   3.693   0.265
  570SOL     OW 2608   6.576   6.333   1.016
  570SOL    HW1 2609   6.486   6.343   1.057
  570SOL    HW2 2610   6.632   6.273   1.073
  571SOL     OW 2611   4.190   5.822   2.706
  571SOL    HW1 2612   4.099   5.791   2.732
  571SOL    HW2 2613   4.221   5.770   2.626
  572SOL     OW 2614   1.696   4.086   5.349
  572SOL    HW1 2615   1.690   4.084   5.249
  572SOL    HW2 2616   1.777   4.137   5.377
  573SOL     OW 2617   3.890   2.015   5.821
  573SOL    HW1 2618   3.852   2.097   5.864
  573SOL    HW2 2619   3.932   2.040   5.733
  574SOL     OW 2620   2.719   2.014   4.324
  574SOL    HW1 2621   2.763   1.964   4.249
  574SOL    HW2 2622   2.627   1.978   4.337
  575SOL     OW 2623   5.366   2.322   0.051
  575SOL    HW1 2624   5.457   2.350   0.020
  575SOL    HW2 2625   5.333   2.248   7.012
  576SOL     OW 2626   0.493   1.985   2.639
  576SOL    HW1 2627   0.432   2.042   2.583
  576SOL    HW2 2628   0.555   2.044   2.690
  577SOL     OW 2629   3.364   2.048   3.634
  577SOL    HW1 2630   3.345   1.950   3.643
  577SOL    HW2 2631   3.280   2.099   3.650
  578SOL     OW 2632   0.648   3.313   3.973
  578SOL    HW1 2633   0.741   3.342   3.994
  578SOL    HW2 2634   0.583   3.376   4.016
  579SOL     OW 2635   4.316   3.317   0.432
  579SOL    HW1 2636   4.394   3.259   0.457
  579SOL    HW2 2637   4.257   3.269   0.368
  580SOL     OW 2638   0.509   6.017   0.258
  580SOL    HW1 2639   0.500   6.055   0.350
  580SOL    HW2 2640   0.604   5.990   0.242
  581SOL     OW 2641   3.820   3.505   2.902
  581SOL    HW1 2642   3.870   3.558   2.833
  581SOL    HW2 2643   3.824   3.554   2.989
  582SOL     OW 2644   5.869   3.865   2.461
  582SOL    HW1 2645   5.876   3.924   2.380
  582SOL    HW2 2646   5.955   3.868   2.512
  583SOL     OW 2647   2.000   5.131   6.851
  583SOL    HW1 2648   2.045   5.122   6.762
  583SOL    HW2 2649   1.904   5.156   6.837
  584SOL     OW 2650   0.547   5.380   4.313
  584SOL    HW1 2651   0.629   5.432   4.288
  584SOL    HW2 2652   0.560   5.339   4.403
  585SOL     OW 2653   0.122   1.369   6.280
  585SOL    HW1 2654   0.114   1.447   6.343
  585SOL    HW2 2655   0.134   1.285   6.332
  586SOL     OW 2656   2.142   6.080   0.351
  586SOL    HW1 2657   2.216   6.070   0.286
  586SOL    HW2 2658   2.059   6.111   0.304
  587SOL     OW 2659   1.209   3.457   5.366
  587SOL    HW1 2660   1.217   3.494   5.273
  587SOL    HW2 2661   1.285   3.394   5.383
  588SOL     OW 2662   2.750   6.976   1.320
  588SOL    HW1 2663   2.824   0.018   1.293
  588SOL    HW2 2664   2.790   6.890   1.352
  589SOL     OW 2665   4.430   5.728   2.799
  589SOL    HW1 2666   4.423   5.629   2.817
  589SOL    HW2 2667   4.346   5.760   2.755
  590SOL     OW 2668   6.807   1.955   1.621
  590SOL    HW1 2669   6.896   1.959   1.575
  590SOL    HW2 2670   6.745   2.020   1.578
  591SOL     OW 2671   3.288   0.223   2.984
  591SOL    HW1 2672   3.209   0.238   3.043
  591SOL    HW2 2673   3.342   0.146   3.019
  592SOL     OW 2674   5.481   0.885   6.994
  592SOL    HW1 2675   5.430   0.966   6.963
  592SOL    HW2 2676   5.567   0.878   6.942
  593SOL     OW 2677   6.056   1.754   4.052
  593SOL    HW1 2678   6.083   1.691   3.979
  593SOL    HW2 2679   5.960   1.779   4.041
  594SOL     OW 2680   4.961   3.038   1.386
  594SOL    HW1 2681   4.916   3.092   1.456
  594SOL    HW2 2682   4.915   2.949   1.376
  595SOL     OW 2683   3.622   6.777   4.061
  595SOL    HW1 2684   3.598   6.731   3.976
  595SOL    HW2 2685   3.548   6.838   4.089
  596SOL     OW 2686   1.117   4.439   2.480
  596SOL    HW1 2687   1.097   4.490   2.564
  596SOL    HW2 2688   1.031   4.412   2.437
  597SOL     OW 2689   3.726   1.677   5.575
  597SOL    HW1 2690   3.651   1.632   5.527
  597SOL    HW2 2691   3.725   1.650   5.671
  598SOL     OW 2692   3.306   3.815   0.887
  598SOL    HW1 2693   3.340   3.764   0.966
  598SOL    HW2 2694   3.228   3.767   0.847
  599SOL     OW 2695   6.775   6.342   2.870
  599SOL    HW1 2696   6.862   6.357   2.824
  599SOL    HW2 2697   6.777   6.382   2.961
  600SOL     OW 2698   2.283   1.017   0.895
  600SOL    HW1 2699   2.302   1.021   0.797
  600SOL    HW2 2700   2.288   0.922   0.926
  601SOL     OW 2701   2.601   4.968   3.502
  601SOL    HW1 2702   2.587   4.978   3.403
  601SOL    HW2 2703   2.573   5.052   3.549
  602SOL     OW 2704   0.899   0.525   1.364
  602SOL    HW1 2705   0.878   0.442   1.414
  602SOL    HW2 2706   0.986   0.563   1.396
  603SOL     OW 2707   3.890   2.176   3.502
  603SOL    HW1 2708   3.953   2.158   3.578
  603SOL    HW2 2709   3.812   2.228   3.535
  604SOL     OW 2710   0.844   4.139   5.441
  604SOL    HW1 2711   0.842   4.086   5.525
  604SOL    HW2 2712   0.763   4.197   5.436
  605SOL     OW 2713   5.883   0.700   4.603
  605SOL    HW1 2714   5.812   0.769   4.587
  605SOL    HW2 2715   5.847   0.609   4.581
  606SOL     OW 2716   3.781   0.193   3.269
  606SOL    HW1 2717   3.725   0.174   3.349
  606SOL    HW2 2718   3.865   0.139   3.274
  607SOL     OW 2719   4.608   0.791   3.883
  607SOL    HW1 2720   4.542   0.754   3.947
  607SOL    HW2 2721   4.690   0.734   3.883
  608SOL     OW 2722   4.851   1.902   1.522
  608SOL    HW1 2723   4.854   1.895   1.622
  608SOL    HW2 2724   4.759   1.880   1.490
  609SOL     OW 2725   2.894   3.447   4.309
  609SOL    HW1 2726   2.890   3.349   4.331
  609SOL    HW2 2727   2.880   3.500   4.392
  610SOL     OW 2728   5.559   1.912   4.999
  610SOL    HW1 2729   5.495   1.933   5.072
  610SOL    HW2 2730   5.559   1.987   4.932
  611SOL     OW 2731   6.920   0.098   1.062
  611SOL    HW1 2732   6.863   0.038   1.117
  611SOL    HW2 2733   6.899   0.194   1.083
  612SOL     OW 2734   3.241   5.811   5.515
  612SOL    HW1 2735   3.172   5.749   5.478
  612SOL    HW2 2736   3.227   5.903   5.478
  613SOL     OW 2737   3.583   2.282   6.869
  613SOL    HW1 2738   3.544   2.334   6.793
  613SOL    HW2 2739   3.572   2.334   6.954
  614SOL     OW 2740   4.962   4.276   0.825
  614SOL    HW1 2741   4.915   4.189   0.841
  614SOL    HW2 2742   5.047   4.279   0.878
  615SOL     OW 2743   5.945   6.380   1.166
  615SOL    HW1 2744   5.954   6.472   1.205
  615SOL    HW2 2745   5.978   6.381   1.072
  616SOL     OW 2746   5.760   0.770   4.893
  616SOL    HW1 2747   5.734   0.772   4.990
  616SOL    HW2 2748   5.816   0.689   4.875
  617SOL     OW 2749   6.865   5.241   5.619
  617SOL    HW1 2750   6.918   5.326   5.623
  617SOL    HW2 2751   6.792   5.245   5.687
  618SOL     OW 2752   6.116   4.043   0.362
  618SOL    HW1 2753   6.133   4.141   0.360
  618SOL    HW2 2754   6.188   3.995   0.311
  619SOL     OW 2755   2.913   0.232   6.235
  619SOL    HW1 2756   2.830   0.285   6.250
  619SOL    HW2 2757   2.989   0.293   6.215
  620SOL     OW 2758   5.652   1.408   2.264
  620SOL    HW1 2759   5.596   1.391   2.183
  620SOL    HW2 2760   5.706   1.491   2.250
  621SOL     OW 2761   3.135   0.695   6.718
  621SOL    HW1 2762   3.180   0.783   6.734
  621SOL    HW2 2763   3.093   0.695   6.628
  622SOL     OW 2764   0.647   2.019   4.850
  622SOL    HW1 2765   0.699   1.948   4.804
  622SOL    HW2 2766   0.637   2.098   4.788
  623SOL     OW 2767   5.864   0.420   3.996
  623SOL    HW1 2768   5.897   0.452   4.085
  623SOL    HW2 2769   5.777   0.372   4.008
  624SOL     OW 2770   6.816   0.444   6.612
  624SOL    HW1 2771   6.880   0.404   6.678
  624SOL    HW2 2772   6.824   0.396   6.525
  625SOL     OW 2773   3.004   1.784   0.750
  625SOL    HW1 2774   3.026   1.693   0.785
  625SOL    HW2 2775   2.910   1.808   0.775
  626SOL     OW 2776   6.834   6.321   4.203
  626SOL    HW1 2777   6.847   6.222   4.199
  626SOL    HW2 2778   6.873   6.355   4.289
  627SOL     OW 2779   6.590   6.896   0.023
  627SOL    HW1 2780   6.575   6.917   0.119
  627SOL    HW2 2781   6.504   6.872   6.999
  628SOL     OW 2782   4.282   4.620   6.136
  628SOL    HW1 2783   4.282   4.658   6.228
  628SOL    HW2 2784   4.370   4.640   6.092
  629SOL     OW 2785   1.592   6.754   6.875
  629SOL    HW1 2786   1.607   6.817   6.799
  629SOL    HW2 2787   1.570   6.663   6.839
  630SOL     OW 2788   5.866   1.416   1.441
  630SOL    HW1 2789   5.911   1.426   1.530
  630SOL    HW2 2790   5.840   1.507   1.407
  631SOL     OW 2791   1.690   2.290   3.864
  631SOL    HW1 2792   1.630   2.211   3.853
  631SOL    HW2 2793   1.785   2.259   3.869
  632SOL     OW 2794   2.515   3.854   0.031
  632SOL    HW1 2795   2.418   3.870   0.012
  632SOL    HW2 2796   2.529   3.843   0.129
  633SOL     OW 2797   1.609   5.821   1.172
  633SOL    HW1 2798   1.607   5.835   1.073
  633SOL    HW2 2799   1.611   5.723   1.192
  634SOL     OW 2800   3.028   3.160   4.377
  634SOL    HW1 2801   3.065   3.082   4.427
  634SOL    HW2 2802   3.059   3.155   4.282
  635SOL     OW 2803   5.703   0.555   6.809
  635SOL    HW1 2804   5.787   0.544   6.757
  635SOL    HW2 2805   5.721   0.608   6.891
  636SOL     OW 2806   2.935   0.495   5.714
  636SOL    HW1 2807   2.958   0.551   5.634
  636SOL    HW2 2808   3.012   0.435   5.736
  637SOL     OW 2809   6.668   0.410   2.802
  637SOL    HW1 2810   6.596   0.352   2.839
  637SOL    HW2 2811   6.629   0.477   2.739
  638SOL     OW 2812   6.783   2.674   4.783
  638SOL    HW1 2813   6.778   2.715   4.692
  638SOL    HW2 2814   6.706   2.612   4.796
  639SOL     OW 2815   5.872   4.419   2.348
  639SOL    HW1 2816   5.901   4.354   2.277
  639SOL    HW2 2817   5.796   4.379   2.400
  640SOL     OW 2818   0.639   2.422   2.237
  640SOL    HW1 2819   0.697   2.446   2.160
  640SOL    HW2 2820   0.562   2.486   2.243
  641SOL     OW 2821   2.300   4.956   4.095
  641SOL    HW1 2822   2.205   4.929   4.084
  641SOL    HW2 2823   2.354   4.920   4.019
  642SOL     OW 2824   0.810   4.284   4.540
  642SOL    HW1 2825   0.855   4.260   4.454
  642SOL    HW2 2826   0.834   4.217   4.610
  643SOL     OW 2827   4.441   4.913   0.740
  643SOL    HW1 2828   4.517   4.916   0.675
  643SOL    HW2 2829   4.424   5.006   0.774
  644SOL     OW 2830   0.472   6.691   5.262
  644SOL    HW1 2831   0.494   6.720   5.355
  644SOL    HW2 2832   0.381   6.725   5.238
  645SOL     OW 2833   3.991   5.395   2.198
  645SOL    HW1 2834   4.043   5.359   2.120
  645SOL    HW2 2835   3.905   5.435   2.165
  646SOL     OW 2836   3.969   1.913   4.429
  646SOL    HW1 2837   4.065   1.928   4.451
  646SOL    HW2 2838   3.912   1.970   4.488
  647SOL     OW 2839   3.594   2.622   6.156
  647SOL    HW1 2840   3.506   2.667   6.144
  647SOL    HW2 2841   3.603   2.547   6.091
  648SOL     OW 2842   6.411   0.851   3.139
  648SOL    HW1 2843   6.452   0.892   3.221
  648SOL    HW2 2844   6.350   0.777   3.165
  649SOL     OW 2845   2.020   5.143   0.852
  649SOL    HW1 2846   2.069   5.057   0.868
  649SOL    HW2 2847   1.934   5.143   0.904
  650SOL     OW 2848   6.653   3.412   1.038
  650SOL    HW1 2849   6.663   3.355   0.956
  650SOL    HW2 2850   6.579   3.376   1.094
  651SOL     OW 2851   0.865   0.731   4.025
  651SOL    HW1 2852   0.799   0.779   4.083
  651SOL    HW2 2853   0.855   0.761   3.930
  652SOL     OW 2854   3.952   6.474   1.292
  652SOL    HW1 2855   3.943   6.566   1.328
  652SOL    HW2 2856   3.862   6.438   1.268
  653SOL     OW 2857   1.353   0.126   2.711
  653SOL    HW1 2858   1.381   0.165   2.623
  653SOL    HW2 2859   1.430   0.077   2.752
  654SOL     OW 2860   1.342   0.323   5.848
  654SOL    HW1 2861   1.347   0.399   5.912
  654SOL    HW2 2862   1.434   0.292   5.824
  655SOL     OW 2863   0.275   4.079   1.923
  655SOL    HW1 2864   0.311   4.011   1.858
  655SOL    HW2 2865   0.323   4.165   1.910
  656SOL     OW 2866   3.391   6.263   0.431
  656SOL    HW1 2867   3.370   6.360   0.444
  656SOL    HW2 2868   3.380   6.214   0.517
  657SOL     OW 2869   3.816   3.631   3.131
  657SOL    HW1 2870   3.769   3.579   3.202
  657SOL    HW2 2871   3.897   3.675   3.170
  658SOL     OW 2872   1.610   1.337   4.813
  658SOL    HW1 2873   1.588   1.373   4.722
  658SOL    HW2 2874   1.625   1.413   4.876
  659SOL     OW 2875   1.692   5.678   6.390
  659SOL    HW1 2876   1.719   5.745   6.321
  659SOL    HW2 2877   1.725   5.588   6.364
  660SOL     OW 2878   4.300   5.052   3.139
  660SOL    HW1 2879   4.393   5.016   3.134
  660SOL    HW2 2880   4.234   4.976   3.134
  661SOL     OW 2881   4.231   4.889   4.084
  661SOL    HW1 2882   4.158   4.861   4.146
  661SOL    HW2 2883   4.277   4.970   4.120
  662SOL     OW 2884   4.983   3.481   6.866
  662SOL    HW1 2885   4.975   3.403   6.928
  662SOL    HW2 2886   4.935   3.461   6.780
  663SOL     OW 2887   6.612   4.200   6.943
  663SOL    HW1 2888   6.622   4.149   0.008
  663SOL    HW2 2889   6.515   4.207   6.920
  664SOL     OW 2890   1.895   6.825   6.458
  664SOL    HW1 2891   1.798   6.801   6.447
  664SOL    HW2 2892   1.944   6.806   6.372
  665SOL     OW 2893   3.386   4.876   1.696
  665SOL    HW1 2894   3.433   4.834   1.774
  665SOL    HW2 2895   3.315   4.938   1.730
  666SOL     OW 2896   3.037   0.821   0.431
  666SOL    HW1 2897   3.002   0.861   0.346
  666SOL    HW2 2898   2.975   0.749   0.461
  667SOL     OW 2899   0.969   3.387   2.761
  667SOL    HW1 2900   0.947   3.402   2.665
  667SOL    HW2 2901   1.047   3.445   2.787
  668SOL     OW 2902   5.247   0.062   0.599
  668SOL    HW1 2903   5.292   0.103   0.520
  668SOL    HW2 2904   5.239   0.131   0.672
  669SOL     OW 2905   1.965   5.935   2.561
  669SOL    HW1 2906   2.032   5.916   2.489
  669SOL    HW2 2907   2.012   5.967   2.643
  670SOL     OW 2908   3.108   3.410   3.106
  670SOL    HW1 2909   3.031   3.453   3.058
  670SOL    HW2 2910   3.168   3.481   3.143
  671SOL     OW 2911   1.458   0.017   6.559
  671SOL    HW1 2912   1.470   0.114   6.578
  671SOL    HW2 2913   1.484   7.017   6.465
  672SOL     OW 2914   1.723   1.705   3.190
  672SOL    HW1 2915   1.629   1.682   3.216
  672SOL    HW2 2916   1.780   1.708   3.271
  673SOL     OW 2917   5.026   6.977   0.468
  673SOL    HW1 2918   4.995   0.005   0.386
  673SOL    HW2 2919   5.109   7.020   0.502
  674SOL     OW 2920   6.893   1.491   4.009
  674SOL    HW1 2921   6.882   1.560   3.937
  674SOL    HW2 2922   6.970   1.432   3.987
  675SOL     OW 2923   5.653   0.446   4.265
  675SOL    HW1 2924   5.666   0.425   4.168
  675SOL    HW2 2925   5.569   0.499   4.277
  676SOL     OW 2926   2.136   4.639   4.010
  676SOL    HW1 2927   2.125   4.593   4.098
  676SOL    HW2 2928   2.098   4.731   4.016
  677SOL     OW 2929   5.564   6.849   1.127
  677SOL    HW1 2930   5.507   6.777   1.167
  677SOL    HW2 2931   5.508   6.905   1.065
  678SOL     OW 2932   2.481   1.247   6.358
  678SOL    HW1 2933   2.558   1.262   6.420
  678SOL    HW2 2934   2.459   1.332   6.310
  679SOL     OW 2935   6.416   6.989   2.409
  679SOL    HW1 2936   6.337   0.003   2.460
  679SOL    HW2 2937   6.426   6.891   2.423
  680SOL     OW 2938   5.833   4.314   5.160
  680SOL    HW1 2939   5.851   4.365   5.245
  680SOL    HW2 2940   5.821   4.378   5.084
  681SOL     OW 2941   1.313   0.021   1.947
  681SOL    HW1 2942   1.393   6.984   1.927
  681SOL    HW2 2943   1.267   0.046   1.862
  682SOL     OW 2944   0.662   6.246   6.516
  682SOL    HW1 2945   0.696   6.259   6.610
  682SOL    HW2 2946   0.690   6.324   6.460
  683SOL     OW 2947   5.620   2.150   0.177
  683SOL    HW1 2948   5.563   2.133   0.256
  683SOL    HW2 2949   5.606   2.243   0.144
  684SOL     OW 2950   6.951   6.260   6.416
  684SOL    HW1 2951   6.982   6.347   6.376
  684SOL    HW2 2952   0.008   6.198   6.426
  685SOL     OW 2953   5.842   1.339   6.022
  685SOL    HW1 2954   5.790   1.406   6.076
  685SOL    HW2 2955   5.934   1.375   6.005
  686SOL     OW 2956   5.213   4.822   3.328
  686SOL    HW1 2957   5.225   4.912   3.286
  686SOL    HW2 2958   5.116   4.797   3.324
  687SOL     OW 2959   6.050   2.416   5.487
  687SOL    HW1 2960   6.105   2.498   5.501
  687SOL    HW2 2961   6.024   2.410   5.391
  688SOL     OW 2962   0.319   3.514   4.499
  688SOL    HW1 2963   0.355   3.468   4.418
  688SOL    HW2 2964   0.219   3.507   4.499
  689SOL     OW 2965   6.169   4.123   5.001
  689SOL    HW1 2966   6.128   4.100   4.912
  689SOL    HW2 2967   6.100   4.114   5.073
  690SOL     OW 2968   0.300   2.830   3.661
  690SOL    HW1 2969   0.248   2.824   3.746
  690SOL    HW2 2970   0.268   2.760   3.598
  691SOL     OW 2971   6.946   2.968   6.783
  691SOL    HW1 2972   6.976   3.053   6.740
  691SOL    HW2 2973   6.979   2.965   6.877
  692SOL     OW 2974   2.138   0.265   3.103
  692SOL    HW1 2975   2.155   0.318   3.187
  692SOL    HW2 2976   2.148   0.167   3.123
  693SOL     OW 2977   6.738   1.044   2.584
  693SOL    HW1 2978   6.783   1.030   2.496
  693SOL    HW2 2979   6.798   1.097   2.644
  694SOL     OW 2980   1.509   0.644   2.439
  694SOL    HW1 2981   1.473   0.625   2.347
  694SOL    HW2 2982   1.478   0.734   2.468
  695SOL     OW 2983   4.603   5.437   6.438
  695SOL    HW1 2984   4.669   5.438   6.363
  695SOL    HW2 2985   4.514   5.469   6.404
  696SOL     OW 2986   4.726   5.815   2.678
  696SOL    HW1 2987   4.634   5.777   2.675
  696SOL    HW2 2988   4.792   5.741   2.689
  697SOL     OW 2989   1.250   3.607   3.793
  697SOL    HW1 2990   1.215   3.586   3.702
  697SOL    HW2 2991   1.306   3.691   3.788
  698SOL     OW 2992   4.427   6.653   3.655
  698SOL    HW1 2993   4.404   6.697   3.568
  698SOL    HW2 2994   4.348   6.601   3.689
  699SOL     OW 2995   1.251   4.412   6.818
  699SOL    HW1 2996   1.298   4.358   6.747
  699SOL    HW2 2997   1.315   4.431   6.892
  700SOL     OW 2998   2.284   1.267   3.561
  700SOL    HW1 2999   2.380   1.269   3.531
  700SOL    HW2 3000   2.227   1.316   3.495
  701SOL     OW 3001   0.698   4.237   5.849
  701SOL    HW1 3002   0.684   4.165   5.917
  701SOL    HW2 3003   0.771   4.210   5.787
  702SOL     OW 3004   5.534   5.517   4.478
  702SOL    HW1 3005   5.571   5.429   4.506
  702SOL    HW2 3006   5.457   5.541   4.538
  703SOL     OW 3007   4.778   4.075   0.111
  703SOL    HW1 3008   4.835   4.080   0.029
  703SOL    HW2 3009   4.734   3.985   0.116
  704SOL     OW 3010   2.752   0.570   1.367
  704SOL    HW1 3011   2.717   0.477   1.356
  704SOL    HW2 3012   2.787   0.603   1.279
  705SOL     OW 3013   6.824   2.022   3.670
  705SOL    HW1 3014   6.800   1.933   3.631
  705SOL    HW2 3015   6.861   2.081   3.598
  706SOL     OW 3016   5.101   2.043   3.890
  706SOL    HW1 3017   5.083   2.036   3.792
  706SOL    HW2 3018   5.018   2.022   3.941
  707SOL     OW 3019   5.110   1.996   1.492
  707SOL    HW1 3020   5.011   1.983   1.498
  707SOL    HW2 3021   5.142   2.043   1.575
  708SOL     OW 3022   4.098   0.414   1.893
  708SOL    HW1 3023   4.080   0.424   1.795
  708SOL    HW2 3024   4.078   0.501   1.939
  709SOL     OW 3025   0.910   4.988   6.987
  709SOL    HW1 3026   0.899   5.021   0.061
  709SOL    HW2 3027   0.830   5.014   6.933
  710SOL     OW 3028   3.321   3.548   2.386
  710SOL    HW1 3029   3.418   3.531   2.400
  710SOL    HW2 3030   3.268   3.475   2.428
  711SOL     OW 3031   1.246   0.201   4.447
  711SOL    HW1 3032   1.239   0.157   4.537
  711SOL    HW2 3033   1.155   0.207   4.406
  712SOL     OW 3034   1.423   3.810   1.674
  712SOL    HW1 3035   1.408   3.907   1.694
  712SOL    HW2 3036   1.408   3.793   1.577
  713SOL     OW 3037   4.033   3.455   3.300
  713SOL    HW1 3038   4.071   3.363   3.304
  713SOL    HW2 3039   3.944   3.456   3.345
  714SOL     OW 3040   4.736   4.933   5.602
  714SOL    HW1 3041   4.712   4.965   5.694
  714SOL    HW2 3042   4.762   5.011   5.545
  715SOL     OW 3043   4.870   1.197   6.530
  715SOL    HW1 3044   4.944   1.248   6.574
  715SOL    HW2 3045   4.803   1.261   6.493
  716SOL     OW 3046   6.753   5.131   1.994
  716SOL    HW1 3047   6.677   5.115   2.057
  716SOL    HW2 3048   6.777   5.228   1.994
  717SOL     OW 3049   5.981   2.641   0.312
  717SOL    HW1 3050   5.926   2.717   0.345
  717SOL    HW2 3051   6.077   2.667   0.310
  718SOL     OW 3052   3.309   3.786   6.522
  718SOL    HW1 3053   3.399   3.750   6.495
  718SOL    HW2 3054   3.250   3.711   6.551
  719SOL     OW 3055   5.376   4.878   0.160
  719SOL    HW1 3056   5.342   4.970   0.141
  719SOL    HW2 3057   5.446   4.882   0.231
  720SOL     OW 3058   2.426   0.257   6.857
  720SOL    HW1 3059   2.367   0.267   6.938
  720SOL    HW2 3060   2.518   0.230   6.886
  721SOL     OW 3061   1.017   6.315   5.756
  721SOL    HW1 3062   0.967   6.383   5.809
  721SOL    HW2 3063   1.074   6.260   5.817
  722SOL     OW 3064   4.699   6.885   6.281
  722SOL    HW1 3065   4.742   6.941   6.352
  722SOL    HW2 3066   4.636   6.941   6.227
  723SOL     OW 3067   1.876   3.098   2.127
  723SOL    HW1 3068   1.871   3.137   2.219
  723SOL    HW2 3069   1.788   3.106   2.082
  724SOL     OW 3070   6.707   0.677   4.801
  724SOL    HW1 3071   6.733   0.595   4.748
  724SOL    HW2 3072   6.636   0.727   4.751
  725SOL     OW 3073   2.367   4.903   0.731
  725SOL    HW1 3074   2.416   4.816   0.734
  725SOL    HW2 3075   2.328   4.916   0.640
  726SOL     OW 3076   4.569   0.314   6.208
  726SOL    HW1 3077   4.481   0.325   6.254
  726SOL    HW2 3078   4.573   0.224   6.164
  727SOL     OW 3079   2.544   4.558   3.894
  727SOL    HW1 3080   2.558   4.570   3.993
  727SOL    HW2 3081   2.488   4.476   3.879
  728SOL     OW 3082   6.926   3.118   4.927
  728SOL    HW1 3083   6.982   3.137   5.008
  728SOL    HW2 3084   6.858   3.048   4.949
  729SOL     OW 3085   2.843   0.325   0.411
  729SOL    HW1 3086   2.870   0.261   0.484
  729SOL    HW2 3087   2.823   0.273   0.328
  730SOL     OW 3088   6.112   0.227   5.229
  730SOL    HW1 3089   6.041   0.231   5.298
  730SOL    HW2 3090   6.177   0.154   5.252
  731SOL     OW 3091   6.271   3.233   3.322
  731SOL    HW1 3092   6.212   3.213   3.244
  731SOL    HW2 3093   6.279   3.331   3.334
  732SOL     OW 3094   6.497   2.600   2.246
  732SOL    HW1 3095   6.487   2.515   2.196
  732SOL    HW2 3096   6.593   2.612   2.273
  733SOL     OW 3097   4.319   4.664   3.743
  733SOL    HW1 3098   4.390   4.669   3.813
  733SOL    HW2 3099   4.230   4.684   3.785
  734SOL     OW 3100   6.903   4.595   0.857
  734SOL    HW1 3101   6.899   4.660   0.781
  734SOL    HW2 3102   6.850   4.631   0.934
  735SOL     OW 3103   1.461   4.524   5.967
  735SOL    HW1 3104   1.489   4.501   5.874
  735SOL    HW2 3105   1.479   4.446   6.027
  736SOL     OW 3106   6.060   0.996   3.195
  736SOL    HW1 3107   6.057   0.900   3.224
  736SOL    HW2 3108   6.096   1.000   3.101
  737SOL     OW 3109   5.712   3.499   0.355
  737SOL    HW1 3110   5.618   3.526   0.376
  737SOL    HW2 3111   5.716   3.463   0.262
  738SOL     OW 3112   0.668   4.091   3.370
  738SOL    HW1 3113   0.659   4.054   3.462
  738SOL    HW2 3114   0.667   4.015   3.304
  739SOL     OW 3115   4.809   5.747   6.976
  739SOL    HW1 3116   4.795   5.774   6.881
  739SOL    HW2 3117   4.892   5.693   6.983
  740SOL     OW 3118   5.530   0.268   0.817
  740SOL    HW1 3119   5.618   0.283   0.861
  740SOL    HW2 3120   5.518   0.171   0.797
  741SOL     OW 3121   2.808   0.668   3.974
  741SOL    HW1 3122   2.764   0.750   3.938
  741SOL    HW2 3123   2.771   0.648   4.065
  742SOL     OW 3124   1.560   0.796   2.999
  742SOL    HW1 3125   1.629   0.735   3.039
  742SOL    HW2 3126   1.508   0.747   2.930
  743SOL     OW 3127   2.035   3.771   4.067
  743SOL    HW1 3128   2.063   3.712   4.143
  743SOL    HW2 3129   2.035   3.719   3.982
  744SOL     OW 3130   0.568   6.359   1.300
  744SOL    HW1 3131   0.497   6.366   1.370
  744SOL    HW2 3132   0.584   6.262   1.277
  745SOL     OW 3133   1.510   6.534   3.057
  745SOL    HW1 3134   1.558   6.451   3.083
  745SOL    HW2 3135   1.557   6.614   3.095
  746SOL     OW 3136   2.845   0.763   4.630
  746SOL    HW1 3137   2.931   0.772   4.680
  746SOL    HW2 3138   2.770   0.798   4.686
  747SOL     OW 3139   5.920   4.699   2.417
  747SOL    HW1 3140   5.865   4.616   2.425
  747SOL    HW2 3141   5.876   4.762   2.353
  748SOL     OW 3142   4.070   3.099   1.760
  748SOL    HW1 3143   4.119   3.172   1.807
  748SOL    HW2 3144   4.125   3.016   1.761
  749SOL     OW 3145   0.032   1.421   5.536
  749SOL    HW1 3146   6.970   1.478   5.545
  749SOL    HW2 3147   0.056   1.412   5.439
  750SOL     OW 3148   2.425   4.486   0.519
  750SOL    HW1 3149   2.399   4.559   0.455
  750SOL    HW2 3150   2.439   4.401   0.469
  751SOL     OW 3151   5.066   1.132   0.706
  751SOL    HW1 3152   5.133   1.126   0.632
  751SOL    HW2 3153   5.107   1.098   0.791
  752SOL     OW 3154   5.132   1.368   1.837
  752SOL    HW1 3155   5.118   1.300   1.765
  752SOL    HW2 3156   5.128   1.460   1.797
  753SOL     OW 3157   2.224   2.172   3.155
  753SOL    HW1 3158   2.242   2.085   3.110
  753SOL    HW2 3159   2.135   2.208   3.125
  754SOL     OW 3160   5.064   5.644   6.869
  754SOL    HW1 3161   5.044   5.676   6.777
  754SOL    HW2 3162   5.161   5.658   6.889
  755SOL     OW 3163   0.404   6.380   2.384
  755SOL    HW1 3164   0.308   6.403   2.397
  755SOL    HW2 3165   0.411   6.297   2.328
  756SOL     OW 3166   3.977   0.613   3.255
  756SOL    HW1 3167   4.075   0.601   3.270
  756SOL    HW2 3168   3.929   0.610   3.343
  757SOL     OW 3169   7.013   0.627   4.809
  757SOL    HW1 3170   6.928   0.674   4.789
  757SOL    HW2 3171   0.013   0.560   4.737
  758SOL     OW 3172   4.523   2.356   1.608
  758SOL    HW1 3173   4.569   2.280   1.563
  758SOL    HW2 3174   4.540   2.440   1.558
  759SOL     OW 3175   1.615   1.107   0.151
  759SOL    HW1 3176   1.528   1.063   0.174
  759SOL    HW2 3177   1.614   1.135   0.056
  760SOL     OW 3178   4.540   1.238   5.985
  760SOL    HW1 3179   4.536   1.166   5.916
  760SOL    HW2 3180   4.500   1.322   5.948
  761SOL     OW 3181   5.906   2.883   6.618
  761SOL    HW1 3182   5.864   2.793   6.632
  761SOL    HW2 3183   5.848   2.953   6.660
  762SOL     OW 3184   1.995   5.485   3.781
  762SOL    HW1 3185   1.943   5.481   3.696
  762SOL    HW2 3186   1.965   5.411   3.842
  763SOL     OW 3187   5.650   5.072   6.101
  763SOL    HW1 3188   5.702   5.138   6.155
  763SOL    HW2 3189   5.682   5.074   6.006
  764SOL     OW 3190   4.254   0.921   2.396
  764SOL    HW1 3191   4.323   0.849   2.388
  764SOL    HW2 3192   4.272   0.991   2.327
  765SOL     OW 3193   0.321   0.186   3.329
  765SOL    HW1 3194   0.222   0.197   3.315
  765SOL    HW2 3195   0.341   0.191   3.426
  766SOL     OW 3196   0.438   6.504   0.059
  766SOL    HW1 3197   0.457   6.420   0.109
  766SOL    HW2 3198   0.460   6.583   0.116
  767SOL     OW 3199   5.961   7.017   1.987
  767SOL    HW1 3200   6.021   0.043   1.921
  767SOL    HW2 3201   5.885   0.057   2.011
  768SOL     OW 3202   3.322   6.681   3.423
  768SOL    HW1 3203   3.337   6.775   3.455
  768SOL    HW2 3204   3.355   6.672   3.330
  769SOL     OW 3205   3.948   1.003   5.815
  769SOL    HW1 3206   3.967   0.905   5.815
  769SOL    HW2 3207   3.922   1.032   5.907
  770SOL     OW 3208   3.634   4.880   4.038
  770SOL    HW1 3209   3.605   4.949   3.973
  770SOL    HW2 3210   3.559   4.859   4.101
  771SOL     OW 3211   0.502   5.938   3.452
  771SOL    HW1 3212   0.434   5.994   3.405
  771SOL    HW2 3213   0.461   5.851   3.479
  772SOL     OW 3214   6.944   4.227   5.233
  772SOL    HW1 3215   6.954   4.263   5.140
  772SOL    HW2 3216   6.873   4.157   5.234
  773SOL     OW 3217   0.074   4.055   2.322
  773SOL    HW1 3218   0.092   4.152   2.311
  773SOL    HW2 3219   0.046   4.016   2.234
  774SOL     OW 3220   1.524   0.859   1.857
  774SOL    HW1 3221   1.473   0.839   1.941
  774SOL    HW2 3222   1.611   0.810   1.858
  775SOL     OW 3223   1.072   2.078   4.540
  775SOL    HW1 3224   1.161   2.112   4.571
  775SOL    HW2 3225   1.044   2.000   4.596
  776SOL     OW 3226   2.547   0.754   6.199
  776SOL    HW1 3227   2.481   0.688   6.236
  776SOL    HW2 3228   2.514   0.847   6.214
  777SOL     OW 3229   4.595   0.774   0.890
  777SOL    HW1 3230   4.645   0.839   0.946
  777SOL    HW2 3231   4.498   0.799   0.887
  778SOL     OW 3232   4.398   6.693   4.043
  778SOL    HW1 3233   4.389   6.692   4.142
  778SOL    HW2 3234   4.397   6.600   4.008
  779SOL     OW 3235   0.998   1.224   2.267
  779SOL    HW1 3236   0.904   1.239   2.238
  779SOL    HW2 3237   1.001   1.149   2.333
  780SOL     OW 3238   5.155   3.487   5.067
  780SOL    HW1 3239   5.232   3.425   5.084
  780SOL    HW2 3240   5.089   3.443   5.006
  781SOL     OW 3241   1.061   1.494   5.700
  781SOL    HW1 3242   1.023   1.540   5.780
  781SOL    HW2 3243   1.060   1.395   5.716
  782SOL     OW 3244   0.203   3.364   0.699
  782SOL    HW1 3245   0.221   3.435   0.767
  782SOL    HW2 3246   0.108   3.334   0.706
  783SOL     OW 3247   2.980   3.937   0.226
  783SOL    HW1 3248   3.012   3.962   0.134
  783SOL    HW2 3249   2.892   3.981   0.244
  784SOL     OW 3250   5.490   0.212   4.346
  784SOL    HW1 3251   5.517   0.127   4.391
  784SOL    HW2 3252   5.564   0.280   4.356
  785SOL     OW 3253   6.692   2.305   3.500
  785SOL    HW1 3254   6.607   2.277   3.455
  785SOL    HW2 3255   6.692   2.405   3.511
  786SOL     OW 3256   6.684   0.139   6.941
  786SOL    HW1 3257   6.670   0.062   7.003
  786SOL    HW2 3258   6.716   0.218   6.994
  787SOL     OW 3259   3.581   1.096   6.404
  787SOL    HW1 3260   3.545   1.011   6.444
  787SOL    HW2 3261   3.581   1.088   6.305
  788SOL     OW 3262   1.078   4.339   4.023
  788SOL    HW1 3263   1.044   4.322   3.930
  788SOL    HW2 3264   1.170   4.376   4.018
  789SOL     OW 3265   5.843   3.920   1.067
  789SOL    HW1 3266   5.788   4.002   1.052
  789SOL    HW2 3267   5.938   3.939   1.043
  790SOL     OW 3268   3.058   1.070   3.949
  790SOL    HW1 3269   2.998   1.124   3.890
  790SOL    HW2 3270   3.151   1.107   3.944
  791SOL     OW 3271   4.252   1.828   4.104
  791SOL    HW1 3272   4.333   1.771   4.116
  791SOL    HW2 3273   4.262   1.912   4.157
  792SOL     OW 3274   5.788   0.487   3.568
  792SOL    HW1 3275   5.812   0.555   3.500
  792SOL    HW2 3276   5.833   0.508   3.655
  793SOL     OW 3277   6.446   0.056   6.451
  793SOL    HW1 3278   6.373   0.028   6.513
  793SOL    HW2 3279   6.530   0.006   6.473
  794SOL     OW 3280   2.341   5.311   5.125
  794SOL    HW1 3281   2.364   5.321   5.222
  794SOL    HW2 3282   2.250   5.347   5.108
  795SOL     OW 3283   4.864   4.784   6.189
  795SOL    HW1 3284   4.916   4.852   6.241
  795SOL    HW2 3285   4.862   4.698   6.240
  796SOL     OW 3286   0.936   2.237   5.775
  796SOL    HW1 3287   0.877   2.306   5.732
  796SOL    HW2 3288   0.890   2.148   5.772
  797SOL     OW 3289   5.698   2.925   4.800
  797SOL    HW1 3290   5.768   2.857   4.819
  797SOL    HW2 3291   5.741   3.009   4.767
  798SOL     OW 3292   6.244   0.705   5.991
  798SOL    HW1 3293   6.322   0.719   5.931
  798SOL    HW2 3294   6.168   0.763   5.961
  799SOL     OW 3295   6.728   3.295   3.049
  799SOL    HW1 3296   6.631   3.313   3.063
  799SOL    HW2 3297   6.760   3.230   3.117
  800SOL     OW 3298   6.582   1.471   2.041
  800SOL    HW1 3299   6.660   1.419   2.006
  800SOL    HW2 3300   6.548   1.532   1.969
  801SOL     OW 3301   0.088   2.589   3.717
  801SOL    HW1 3302   0.162   2.551   3.773
  801SOL    HW2 3303   0.002   2.543   3.741
  802SOL     OW 3304   6.013   1.088   0.546
  802SOL    HW1 3305   5.940   1.025   0.521
  802SOL    HW2 3306   6.066   1.050   0.621
  803SOL     OW 3307   1.235   6.799   5.434
  803SOL    HW1 3308   1.175   6.765   5.506
  803SOL    HW2 3309   1.305   6.858   5.473
  804SOL     OW 3310   6.783   0.594   0.568
  804SOL    HW1 3311   6.761   0.636   0.480
  804SOL    HW2 3312   6.881   0.573   0.571
  805SOL     OW 3313   2.004   3.072   5.931
  805SOL    HW1 3314   2.036   3.166   5.925
  805SOL    HW2 3315   1.917   3.069   5.981
  806SOL     OW 3316   5.663   0.853   0.701
  806SOL    HW1 3317   5.592   0.797   0.744
  806SOL    HW2 3318   5.686   0.930   0.761
  807SOL     OW 3319   1.469   0.347   3.291
  807SOL    HW1 3320   1.471   0.247   3.303
  807SOL    HW2 3321   1.443   0.368   3.197
  808SOL     OW 3322   5.437   3.430   4.639
  808SOL    HW1 3323   5.502   3.497   4.605
  808SOL    HW2 3324   5.372   3.475   4.700
  809SOL     OW 3325   0.332   4.719   6.058
  809SOL    HW1 3326   0.256   4.656   6.076
  809SOL    HW2 3327   0.296   4.807   6.027
  810SOL     OW 3328   6.085   4.752   6.801
  810SOL    HW1 3329   6.046   4.830   6.752
  810SOL    HW2 3330   6.183   4.766   6.812
  811SOL     OW 3331   4.821   5.024   4.141
  811SOL    HW1 3332   4.839   5.072   4.056
  811SOL    HW2 3333   4.735   5.057   4.181
  812SOL     OW 3334   0.411   0.276   2.492
  812SOL    HW1 3335   0.327   0.329   2.487
  812SOL    HW2 3336   0.410   0.219   2.575
  813SOL     OW 3337   6.150   5.552   2.556
  813SOL    HW1 3338   6.083   5.506   2.498
  813SOL    HW2 3339   6.171   5.642   2.517
  814SOL     OW 3340   4.977   5.747   1.082
  814SOL    HW1 3341   5.007   5.796   1.000
  814SOL    HW2 3342   5.057   5.708   1.128
  815SOL     OW 3343   0.733   2.154   0.839
  815SOL    HW1 3344   0.824   2.126   0.810
  815SOL    HW2 3345   0.670   2.151   0.762
  816SOL     OW 3346   6.427   0.531   1.083
  816SOL    HW1 3347   6.437   0.450   1.141
  816SOL    HW2 3348   6.517   0.558   1.049
  817SOL     OW 3349   1.926   2.114   2.644
  817SOL    HW1 3350   1.881   2.081   2.561
  817SOL    HW2 3351   1.946   2.211   2.635
  818SOL     OW 3352   6.699   2.012   1.161
  818SOL    HW1 3353   6.723   2.109   1.169
  818SOL    HW2 3354   6.662   1.980   1.248
  819SOL     OW 3355   0.330   3.978   3.523
  819SOL    HW1 3356   0.376   4.060   3.491
  819SOL    HW2 3357   0.231   3.994   3.525
  820SOL     OW 3358   0.917   3.367   4.521
  820SOL    HW1 3359   0.969   3.439   4.475
  820SOL    HW2 3360   0.959   3.347   4.610
  821SOL     OW 3361   1.083   3.658   0.286
  821SOL    HW1 3362   1.154   3.648   0.217
  821SOL    HW2 3363   1.123   3.654   0.377
  822SOL     OW 3364   1.493   3.527   4.486
  822SOL    HW1 3365   1.483   3.445   4.541
  822SOL    HW2 3366   1.426   3.595   4.515
  823SOL     OW 3367   3.026   3.251   1.096
  823SOL    HW1 3368   3.061   3.339   1.128
  823SOL    HW2 3369   3.079   3.221   1.017
  824SOL     OW 3370   6.388   2.367   5.845
  824SOL    HW1 3371   6.353   2.347   5.754
  824SOL    HW2 3372   6.377   2.464   5.865
  825SOL     OW 3373   1.649   4.253   2.297
  825SOL    HW1 3374   1.628   4.203   2.213
  825SOL    HW2 3375   1.584   4.329   2.308
  826SOL     OW 3376   0.349   3.936   6.025
  826SOL    HW1 3377   0.294   3.876   5.968
  826SOL    HW2 3378   0.322   4.031   6.011
  827SOL     OW 3379   4.236   5.973   0.329
  827SOL    HW1 3380   4.218   6.053   0.273
  827SOL    HW2 3381   4.334   5.954   0.330
  828SOL     OW 3382   6.266   6.528   6.721
  828SOL    HW1 3383   6.172   6.508   6.748
  828SOL    HW2 3384   6.301   6.453   6.665
  829SOL     OW 3385   3.623   2.896   4.584
  829SOL    HW1 3386   3.561   2.974   4.591
  829SOL    HW2 3387   3.633   2.853   4.673
  830SOL     OW 3388   4.609   3.943   5.349
  830SOL    HW1 3389   4.639   4.020   5.293
  830SOL    HW2 3390   4.557   3.977   5.428
  831SOL     OW 3391   6.382   0.734   5.093
  831SOL    HW1 3392   6.292   0.772   5.073
  831SOL    HW2 3393   6.418   0.687   5.013
  832SOL     OW 3394   2.808   1.159   5.900
  832SOL    HW1 3395   2.723   1.111   5.920
  832SOL    HW2 3396   2.796   1.218   5.820
  833SOL     OW 3397   0.921   6.961   6.147
  833SOL    HW1 3398   0.905   6.878   6.200
  833SOL    HW2 3399   0.835   7.011   6.136
  834SOL     OW 3400   3.081   4.335   5.493
  834SOL    HW1 3401   3.120   4.248   5.524
  834SOL    HW2 3402   3.001   4.317   5.435
  835SOL     OW 3403   3.946   0.387   2.808
  835SOL    HW1 3404   3.873   0.418   2.868
  835SOL    HW2 3405   4.001   0.318   2.854
  836SOL     OW 3406   2.374   0.992   0.585
  836SOL    HW1 3407   2.418   0.927   0.647
  836SOL    HW2 3408   2.441   1.061   0.556
  837SOL     OW 3409   4.271   0.493   5.833
  837SOL    HW1 3410   4.275   0.394   5.824
  837SOL    HW2 3411   4.196   0.529   5.777
  838SOL     OW 3412   2.066   4.427   2.665
  838SOL    HW1 3413   2.035   4.351   2.607
  838SOL    HW2 3414   2.015   4.426   2.751
  839SOL     OW 3415   3.235   1.419   1.848
  839SOL    HW1 3416   3.330   1.442   1.828
  839SOL    HW2 3417   3.231   1.334   1.901
  840SOL     OW 3418   1.254   1.739   6.475
  840SOL    HW1 3419   1.240   1.836   6.495
  840SOL    HW2 3420   1.314   1.730   6.396
  841SOL     OW 3421   0.594   3.669   0.263
  841SOL    HW1 3422   0.609   3.666   0.361
  841SOL    HW2 3423   0.663   3.613   0.216
  842SOL     OW 3424   3.532   5.118   3.878
  842SOL    HW1 3425   3.555   5.175   3.800
  842SOL    HW2 3426   3.500   5.175   3.954
  843SOL     OW 3427   6.561   2.862   2.166
  843SOL    HW1 3428   6.495   2.919   2.117
  843SOL    HW2 3429   6.521   2.771   2.181
  844SOL     OW 3430   5.147   5.416   0.697
  844SOL    HW1 3431   5.216   5.345   0.681
  844SOL    HW2 3432   5.077   5.410   0.626
  845SOL     OW 3433   0.807   4.549   4.628
  845SOL    HW1 3434   0.853   4.627   4.585
  845SOL    HW2 3435   0.843   4.464   4.591
  846SOL     OW 3436   5.957   2.385   6.838
  846SOL    HW1 3437   5.995   2.454   6.776
  846SOL    HW2 3438   5.925   2.429   6.922
  847SOL     OW 3439   5.112   3.375   2.029
  847SOL    HW1 3440   5.024   3.359   1.985
  847SOL    HW2 3441   5.153   3.458   1.992
  848SOL     OW 3442   6.921   0.074   5.772
  848SOL    HW1 3443   6.940   0.037   5.862
  848SOL    HW2 3444   6.993   0.046   5.708
  849SOL     OW 3445   0.557   5.177   4.098
  849SOL    HW1 3446   0.527   5.233   4.176
  849SOL    HW2 3447   0.599   5.236   4.029
  850SOL     OW 3448   3.565   1.018   2.699
  850SOL    HW1 3449   3.603   1.032   2.608
  850SOL    HW2 3450   3.615   0.945   2.745
  851SOL     OW 3451   0.676   0.454   5.979
  851SOL    HW1 3452   0.680   0.373   5.920
  851SOL    HW2 3453   0.645   0.427   6.070
  852SOL     OW 3454   2.319   4.386   6.192
  852SOL    HW1 3455   2.404   4.409   6.145
  852SOL    HW2 3456   2.330   4.404   6.290
  853SOL     OW 3457   1.638   3.502   1.304
  853SOL    HW1 3458   1.667   3.413   1.270
  853SOL    HW2 3459   1.631   3.499   1.404
  854SOL     OW 3460   5.348   5.392   2.056
  854SOL    HW1 3461   5.424   5.403   2.121
  854SOL    HW2 3462   5.354   5.462   1.986
  855SOL     OW 3463   5.895   0.391   1.651
  855SOL    HW1 3464   5.841   0.468   1.685
  855SOL    HW2 3465   5.924   0.334   1.727
  856SOL     OW 3466   1.592   0.232   4.806
  856SOL    HW1 3467   1.599   0.133   4.808
  856SOL    HW2 3468   1.621   0.270   4.894
  857SOL     OW 3469   6.531   3.733   2.100
  857SOL    HW1 3470   6.514   3.830   2.120
  857SOL    HW2 3471   6.606   3.700   2.157
  858SOL     OW 3472   3.056   3.766   1.115
  858SOL    HW1 3473   3.071   3.673   1.081
  858SOL    HW2 3474   3.078   3.770   1.213
  859SOL     OW 3475   6.768   5.047   0.296
  859SOL    HW1 3476   6.714   5.065   0.379
  859SOL    HW2 3477   6.863   5.031   0.321
  860SOL     OW 3478   1.737   5.035   1.553
  860SOL    HW1 3479   1.736   4.936   1.568
  860SOL    HW2 3480   1.660   5.060   1.494
  861SOL     OW 3481   3.483   5.455   5.748
  861SOL    HW1 3482   3.444   5.368   5.719
  861SOL    HW2 3483   3.581   5.458   5.726
  862SOL     OW 3484   4.609   4.467   4.383
  862SOL    HW1 3485   4.604   4.420   4.471
  862SOL    HW2 3486   4.703   4.467   4.350
  863SOL     OW 3487   6.082   1.204   0.999
  863SOL    HW1 3488   5.992   1.241   0.978
  863SOL    HW2 3489   6.127   1.261   1.068
  864SOL     OW 3490   6.073   4.215   2.569
  864SOL    HW1 3491   5.991   4.262   2.601
  864SOL    HW2 3492   6.154   4.262   2.604
  865SOL     OW 3493   1.449   0.386   4.420
  865SOL    HW1 3494   1.445   0.397   4.320
  865SOL    HW2 3495   1.370   0.331   4.450
  866SOL     OW 3496   3.537   1.251   1.667
  866SOL    HW1 3497   3.557   1.262   1.570
  866SOL    HW2 3498   3.504   1.159   1.684
  867SOL     OW 3499   1.580   2.433   6.102
  867SOL    HW1 3500   1.491   2.419   6.058
  867SOL    HW2 3501   1.599   2.531   6.106
  868SOL     OW 3502   5.339   2.772   3.391
  868SOL    HW1 3503   5.399   2.814   3.459
  868SOL    HW2 3504   5.349   2.820   3.304
  869SOL     OW 3505   6.199   4.294   2.271
  869SOL    HW1 3506   6.138   4.309   2.349
  869SOL    HW2 3507   6.294   4.306   2.299
  870SOL     OW 3508   0.203   2.855   0.999
  870SOL    HW1 3509   0.136   2.822   1.066
  870SOL    HW2 3510   0.240   2.942   1.029
  871SOL     OW 3511   5.527   3.966   0.810
  871SOL    HW1 3512   5.547   4.062   0.790
  871SOL    HW2 3513   5.563   3.909   0.736
  872SOL     OW 3514   5.243   2.614   2.715
  872SOL    HW1 3515   5.250   2.710   2.743
  872SOL    HW2 3516   5.187   2.564   2.781
  873SOL     OW 3517   4.801   6.371   5.788
  873SOL    HW1 3518   4.829   6.432   5.713
  873SOL    HW2 3519   4.712   6.331   5.765
  874SOL     OW 3520   6.939   3.422   6.387
  874SOL    HW1 3521   6.847   3.406   6.422
  874SOL    HW2 3522   7.005   3.407   6.460
  875SOL     OW 3523   6.279   4.980   6.443
  875SOL    HW1 3524   6.370   4.939   6.449
  875SOL    HW2 3525   6.285   5.065   6.390
  876SOL     OW 3526   1.014   2.960   1.391
  876SOL    HW1 3527   0.928   2.945   1.441
  876SOL    HW2 3528   1.071   3.024   1.442
  877SOL     OW 3529   5.847   5.960   0.584
  877SOL    HW1 3530   5.892   5.980   0.671
  877SOL    HW2 3531   5.782   6.033   0.562
  878SOL     OW 3532   3.157   2.872   0.108
  878SOL    HW1 3533   3.242   2.841   0.150
  878SOL    HW2 3534   3.083   2.864   0.175
  879SOL     OW 3535   4.368   2.030   2.749
  879SOL    HW1 3536   4.343   1.945   2.703
  879SOL    HW2 3537   4.381   2.013   2.846
  880SOL     OW 3538   4.075   5.034   0.633
  880SOL    HW1 3539   4.009   5.078   0.694
  880SOL    HW2 3540   4.165   5.076   0.645
  881SOL     OW 3541   4.073   5.187   4.716
  881SOL    HW1 3542   4.165   5.172   4.680
  881SOL    HW2 3543   4.007   5.183   4.641
  882SOL     OW 3544   1.067   1.496   4.580
  882SOL    HW1 3545   1.096   1.557   4.654
  882SOL    HW2 3546   1.045   1.550   4.499
  883SOL     OW 3547   2.756   4.533   6.948
  883SOL    HW1 3548   2.717   4.612   6.995
  883SOL    HW2 3549   2.854   4.528   6.967
  884SOL     OW 3550   4.424   3.704   1.677
  884SOL    HW1 3551   4.458   3.631   1.737
  884SOL    HW2 3552   4.490   3.779   1.675
  885SOL     OW 3553   4.829   5.888   6.713
  885SOL    HW1 3554   4.765   5.965   6.714
  885SOL    HW2 3555   4.833   5.850   6.621
  886SOL     OW 3556   4.518   1.159   6.276
  886SOL    HW1 3557   4.577   1.164   6.196
  886SOL    HW2 3558   4.423   1.153   6.247
  887SOL     OW 3559   5.437   0.271   6.647
  887SOL    HW1 3560   5.414   0.181   6.685
  887SOL    HW2 3561   5.428   0.269   6.548
  888SOL     OW 3562   6.401   6.582   3.651
  888SOL    HW1 3563   6.373   6.490   3.677
  888SOL    HW2 3564   6.330   6.625   3.596
  889SOL     OW 3565   1.030   6.882   4.737
  889SOL    HW1 3566   1.079   6.956   4.692
  889SOL    HW2 3567   1.067   6.868   4.829
  890SOL     OW 3568   2.304   5.029   2.512
  890SOL    HW1 3569   2.306   4.954   2.446
  890SOL    HW2 3570   2.210   5.044   2.543
  891SOL     OW 3571   5.772   3.564   5.975
  891SOL    HW1 3572   5.745   3.617   6.055
  891SOL    HW2 3573   5.715   3.589   5.898
  892SOL     OW 3574   2.471   5.661   1.478
  892SOL    HW1 3575   2.528   5.591   1.523
  892SOL    HW2 3576   2.393   5.683   1.537
  893SOL     OW 3577   1.871   6.815   0.880
  893SOL    HW1 3578   1.895   6.881   0.809
  893SOL    HW2 3579   1.954   6.773   0.917
  894SOL     OW 3580   1.497   5.270   3.554
  894SOL    HW1 3581   1.458   5.220   3.631
  894SOL    HW2 3582   1.432   5.272   3.479
  895SOL     OW 3583   1.965   0.494   4.907
  895SOL    HW1 3584   1.937   0.537   4.993
  895SOL    HW2 3585   2.016   0.410   4.927
  896SOL     OW 3586   5.711   0.178   3.640
  896SOL    HW1 3587   5.769   0.259   3.644
  896SOL    HW2 3588   5.755   0.108   3.585
  897SOL     OW 3589   5.402   2.339   6.050
  897SOL    HW1 3590   5.329   2.280   6.084
  897SOL    HW2 3591   5.449   2.295   5.974
  898SOL     OW 3592   5.999   6.279   4.001
  898SOL    HW1 3593   6.077   6.258   4.059
  898SOL    HW2 3594   6.005   6.374   3.969
  899SOL     OW 3595   0.912   4.582   6.589
  899SOL    HW1 3596   0.879   4.649   6.523
  899SOL    HW2 3597   0.858   4.590   6.674
  900SOL     OW 3598   0.609   5.626   3.583
  900SOL    HW1 3599   0.697   5.653   3.544
  900SOL    HW2 3600   0.577   5.543   3.538
  901SOL     OW 3601   5.706   2.059   3.191
  901SOL    HW1 3602   5.794   2.061   3.239
  901SOL    HW2 3603   5.637   2.106   3.246
  902SOL     OW 3604   0.785   6.110   0.504
  902SOL    HW1 3605   0.854   6.177   0.528
  902SOL    HW2 3606   0.702   6.157   0.475
  903SOL     OW 3607   0.477   4.802   7.002
  903SOL    HW1 3608   0.482   4.744   6.921
  903SOL    HW2 3609   0.401   4.866   6.992
  904SOL     OW 3610   1.335   1.524   3.587
  904SOL    HW1 3611   1.268   1.501   3.516
  904SOL    HW2 3612   1.366   1.618   3.574
  905SOL     OW 3613   6.351   1.823   5.628
  905SOL    HW1 3614   6.433   1.771   5.603
  905SOL    HW2 3615   6.349   1.835   5.728
  906SOL     OW 3616   6.283   3.923   5.169
  906SOL    HW1 3617   6.203   3.865   5.180
  906SOL    HW2 3618   6.258   4.004   5.116
  907SOL     OW 3619   0.372   3.417   1.404
  907SOL    HW1 3620   0.315   3.401   1.324
  907SOL    HW2 3621   0.345   3.503   1.448
  908SOL     OW 3622   1.849   0.921   3.089
  908SOL    HW1 3623   1.942   0.887   3.073
  908SOL    HW2 3624   1.821   0.899   3.183
  909SOL     OW 3625   4.316   0.439   1.044
  909SOL    HW1 3626   4.355   0.529   1.066
  909SOL    HW2 3627   4.218   0.450   1.024
  910SOL     OW 3628   2.016   2.062   1.736
  910SOL    HW1 3629   2.029   2.004   1.655
  910SOL    HW2 3630   1.919   2.082   1.748
  911SOL     OW 3631   0.383   4.247   1.063
  911SOL    HW1 3632   0.312   4.288   1.120
  911SOL    HW2 3633   0.421   4.316   1.002
  912SOL     OW 3634   1.154   0.416   6.375
  912SOL    HW1 3635   1.072   0.420   6.318
  912SOL    HW2 3636   1.140   0.473   6.457
  913SOL     OW 3637   2.222   1.570   1.881
  913SOL    HW1 3638   2.257   1.517   1.958
  913SOL    HW2 3639   2.125   1.590   1.896
  914SOL     OW 3640   2.890   6.165   2.841
  914SOL    HW1 3641   2.797   6.132   2.853
  914SOL    HW2 3642   2.947   6.134   2.917
  915SOL     OW 3643   1.340   2.541   6.607
  915SOL    HW1 3644   1.385   2.453   6.593
  915SOL    HW2 3645   1.396   2.614   6.569
  916SOL     OW 3646   1.210   3.489   2.788
  916SOL    HW1 3647   1.260   3.428   2.850
  916SOL    HW2 3648   1.228   3.461   2.694
  917SOL     OW 3649   3.537   2.403   6.551
  917SOL    HW1 3650   3.456   2.419   6.607
  917SOL    HW2 3651   3.561   2.487   6.502
  918SOL     OW 3652   1.286   0.798   5.428
  918SOL    HW1 3653   1.375   0.798   5.474
  918SOL    HW2 3654   1.275   0.711   5.378
  919SOL     OW 3655   2.309   0.418   1.274
  919SOL    HW1 3656   2.279   0.432   1.180
  919SOL    HW2 3657   2.231   0.394   1.332
  920SOL     OW 3658   2.123   0.863   3.776
  920SOL    HW1 3659   2.043   0.869   3.836
  920SOL    HW2 3660   2.115   0.783   3.717
  921SOL     OW 3661   4.599   4.511   6.644
  921SOL    HW1 3662   4.618   4.608   6.657
  921SOL    HW2 3663   4.519   4.485   6.700
  922SOL     OW 3664   2.105   3.787   6.367
  922SOL    HW1 3665   2.200   3.790   6.338
  922SOL    HW2 3666   2.048   3.750   6.293
  923SOL     OW 3667   4.334   1.291   6.652
  923SOL    HW1 3668   4.244   1.265   6.686
  923SOL    HW2 3669   4.390   1.209   6.638
  924SOL     OW 3670   6.269   4.236   2.956
  924SOL    HW1 3671   6.182   4.285   2.955
  924SOL    HW2 3672   6.335   4.286   3.011
  925SOL     OW 3673   6.704   1.883   2.990
  925SOL    HW1 3674   6.769   1.811   2.964
  925SOL    HW2 3675   6.614   1.843   3.002
  926SOL     OW 3676   5.516   6.152   1.243
  926SOL    HW1 3677   5.444   6.218   1.267
  926SOL    HW2 3678   5.503   6.122   1.149
  927SOL     OW 3679   4.958   5.298   5.122
  927SOL    HW1 3680   5.045   5.301   5.073
  927SOL    HW2 3681   4.940   5.204   5.152
  928SOL     OW 3682   0.463   1.409   1.213
  928SOL    HW1 3683   0.543   1.458   1.177
  928SOL    HW2 3684   0.494   1.333   1.271
  929SOL     OW 3685   0.578   2.298   2.503
  929SOL    HW1 3686   0.562   2.363   2.429
  929SOL    HW2 3687   0.673   2.266   2.499
  930SOL     OW 3688   5.629   5.669   2.863
  930SOL    HW1 3689   5.531   5.656   2.853
  930SOL    HW2 3690   5.676   5.630   2.784
  931SOL     OW 3691   1.856   3.254   2.425
  931SOL    HW1 3692   1.815   3.168   2.453
  931SOL    HW2 3693   1.803   3.294   2.350
  932SOL     OW 3694   4.695   6.420   1.069
  932SOL    HW1 3695   4.785   6.381   1.088
  932SOL    HW2 3696   4.642   6.425   1.154
  933SOL     OW 3697   1.618   5.640   3.931
  933SOL    HW1 3698   1.589   5.700   4.006
  933SOL    HW2 3699   1.712   5.610   3.947
  934SOL     OW 3700   3.346   0.631   5.528
  934SOL    HW1 3701   3.400   0.597   5.451
  934SOL    HW2 3702   3.267   0.681   5.493
  935SOL     OW 3703   2.354   2.918   6.168
  935SOL    HW1 3704   2.326   3.011   6.191
  935SOL    HW2 3705   2.273   2.863   6.148
  936SOL     OW 3706   0.166   2.038   1.806
  936SOL    HW1 3707   0.121   1.949   1.815
  936SOL    HW2 3708   0.098   2.110   1.797
  937SOL     OW 3709   5.345   2.198   3.657
  937SOL    HW1 3710   5.389   2.224   3.572
  937SOL    HW2 3711   5.250   2.228   3.657
  938SOL     OW 3712   6.649   1.740   0.078
  938SOL    HW1 3713   6.665   1.779   0.169
  938SOL    HW2 3714   6.553   1.754   0.053
  939SOL     OW 3715   6.451   0.706   5.808
  939SOL    HW1 3716   6.448   0.775   5.736
  939SOL    HW2 3717   6.466   0.616   5.767
  940SOL     OW 3718   0.626   0.820   4.171
  940SOL    HW1 3719   0.706   0.878   4.189
  940SOL    HW2 3720   0.598   0.776   4.256
  941SOL     OW 3721   5.578   2.937   5.058
  941SOL    HW1 3722   5.488   2.897   5.070
  941SOL    HW2 3723   5.595   2.953   4.961
  942SOL     OW 3724   4.783   0.455   5.538
  942SOL    HW1 3725   4.828   0.537   5.574
  942SOL    HW2 3726   4.732   0.411   5.612
  943SOL     OW 3727   5.859   2.012   0.095
  943SOL    HW1 3728   5.770   2.055   0.110
  943SOL    HW2 3729   5.891   2.034   0.003
  944SOL     OW 3730   5.313   3.832   4.679
  944SOL    HW1 3731   5.287   3.881   4.763
  944SOL    HW2 3732   5.396   3.780   4.695
  945SOL     OW 3733   5.397   3.707   5.285
  945SOL    HW1 3734   5.329   3.677   5.352
  945SOL    HW2 3735   5.354   3.714   5.195
  946SOL     OW 3736   5.594   2.954   6.326
  946SOL    HW1 3737   5.608   3.053   6.324
  946SOL    HW2 3738   5.644   2.912   6.250
  947SOL     OW 3739   0.870   2.524   5.365
  947SOL    HW1 3740   0.942   2.581   5.404
  947SOL    HW2 3741   0.870   2.435   5.411
  948SOL     OW 3742   4.132   1.963   0.736
  948SOL    HW1 3743   4.205   1.973   0.669
  948SOL    HW2 3744   4.102   1.867   0.738
  949SOL     OW 3745   5.649   5.734   6.763
  949SOL    HW1 3746   5.665   5.715   6.666
  949SOL    HW2 3747   5.705   5.672   6.819
  950SOL     OW 3748   3.872   5.281   0.243
  950SOL    HW1 3749   3.893   5.367   0.197
  950SOL    HW2 3750   3.940   5.262   0.313
  951SOL     OW 3751   0.627   2.454   3.516
  951SOL    HW1 3752   0.667   2.397   3.588
  951SOL    HW2 3753   0.579   2.396   3.451
  952SOL     OW 3754   5.380   1.007   1.784
  952SOL    HW1 3755   5.479   1.018   1.781
  952SOL    HW2 3756   5.337   1.067   1.717
  953SOL     OW 3757   3.581   6.456   5.921
  953SOL    HW1 3758   3.633   6.501   5.848
  953SOL    HW2 3759   3.644   6.403   5.979
  954SOL     OW 3760   0.416   6.640   1.440
  954SOL    HW1 3761   0.432   6.606   1.532
  954SOL    HW2 3762   0.359   6.574   1.390
  955SOL     OW 3763   6.874   6.605   2.457
  955SOL    HW1 3764   6.794   6.572   2.507
  955SOL    HW2 3765   6.850   6.618   2.361
  956SOL     OW 3766   0.988   2.613   7.001
  956SOL    HW1 3767   1.073   2.599   0.032
  956SOL    HW2 3768   0.976   2.539   6.935
  957SOL     OW 3769   2.529   6.565   4.987
  957SOL    HW1 3770   2.459   6.572   4.916
  957SOL    HW2 3771   2.490   6.590   5.075
  958SOL     OW 3772   4.736   2.180   0.573
  958SOL    HW1 3773   4.673   2.123   0.624
  958SOL    HW2 3774   4.808   2.214   0.634
  959SOL     OW 3775   1.828   4.027   2.119
  959SOL    HW1 3776   1.922   4.016   2.089
  959SOL    HW2 3777   1.767   4.028   2.039
  960SOL     OW 3778   1.332   5.544   5.452
  960SOL    HW1 3779   1.339   5.481   5.376
  960SOL    HW2 3780   1.265   5.511   5.518
  961SOL     OW 3781   3.201   6.951   0.958
  961SOL    HW1 3782   3.105   6.966   0.935
  961SOL    HW2 3783   3.220   6.853   0.958
  962SOL     OW 3784   1.712   6.314   4.105
  962SOL    HW1 3785   1.672   6.230   4.067
  962SOL    HW2 3786   1.653   6.391   4.081
  963SOL     OW 3787   5.866   0.285   2.507
  963SOL    HW1 3788   5.860   0.187   2.527
  963SOL    HW2 3789   5.914   0.299   2.420
  964SOL     OW 3790   5.377   3.574   1.069
  964SOL    HW1 3791   5.417   3.495   1.023
  964SOL    HW2 3792   5.425   3.657   1.039
  965SOL     OW 3793   1.310   2.356   0.489
  965SOL    HW1 3794   1.310   2.278   0.427
  965SOL    HW2 3795   1.404   2.387   0.504
  966SOL     OW 3796   6.847   2.461   1.479
  966SOL    HW1 3797   6.765   2.455   1.536
  966SOL    HW2 3798   6.852   2.383   1.418
  967SOL     OW 3799   0.982   5.893   2.760
  967SOL    HW1 3800   1.028   5.845   2.835
  967SOL    HW2 3801   1.050   5.934   2.700
  968SOL     OW 3802   6.501   4.550   1.850
  968SOL    HW1 3803   6.529   4.454   1.846
  968SOL    HW2 3804   6.401   4.556   1.844
  969SOL     OW 3805   4.139   6.220   6.777
  969SOL    HW1 3806   4.151   6.213   6.678
  969SOL    HW2 3807   4.158   6.131   6.819
  970SOL     OW 3808   4.489   2.337   5.328
  970SOL    HW1 3809   4.457   2.383   5.411
  970SOL    HW2 3810   4.549   2.398   5.278
  971SOL     OW 3811   0.540   2.569   1.171
  971SOL    HW1 3812   0.472   2.573   1.097
  971SOL    HW2 3813   0.509   2.628   1.246
  972SOL     OW 3814   6.252   6.094   1.198
  972SOL    HW1 3815   6.183   6.116   1.267
  972SOL    HW2 3816   6.307   6.016   1.230
  973SOL     OW 3817   5.645   3.826   5.417
  973SOL    HW1 3818   5.645   3.925   5.402
  973SOL    HW2 3819   5.557   3.788   5.386
  974SOL     OW 3820   3.248   1.367   4.173
  974SOL    HW1 3821   3.284   1.384   4.264
  974SOL    HW2 3822   3.289   1.432   4.109
  975SOL     OW 3823   3.544   6.607   5.391
  975SOL    HW1 3824   3.512   6.569   5.478
  975SOL    HW2 3825   3.467   6.646   5.341
  976SOL     OW 3826   6.937   6.507   4.039
  976SOL    HW1 3827   6.893   6.451   4.109
  976SOL    HW2 3828   6.935   6.459   3.952
  977SOL     OW 3829   1.603   2.577   2.485
  977SOL    HW1 3830   1.579   2.480   2.497
  977SOL    HW2 3831   1.579   2.605   2.392
  978SOL     OW 3832   5.857   3.433   4.433
  978SOL    HW1 3833   5.774   3.459   4.384
  978SOL    HW2 3834   5.869   3.334   4.427
  979SOL     OW 3835   5.680   1.787   3.307
  979SOL    HW1 3836   5.698   1.820   3.215
  979SOL    HW2 3837   5.755   1.815   3.367
  980SOL     OW 3838   6.592   1.037   4.926
  980SOL    HW1 3839   6.551   1.011   4.839
  980SOL    HW2 3840   6.585   0.961   4.991
  981SOL     OW 3841   6.965   3.308   5.306
  981SOL    HW1 3842   6.908   3.351   5.375
  981SOL    HW2 3843   6.930   3.328   5.215
  982SOL     OW 3844   1.746   2.813   1.252
  982SOL    HW1 3845   1.778   2.843   1.343
  982SOL    HW2 3846   1.682   2.738   1.263
  983SOL     OW 3847   5.945   1.504   2.813
  983SOL    HW1 3848   6.001   1.434   2.857
  983SOL    HW2 3849   5.994   1.542   2.734
  984SOL     OW 3850   4.857   1.626   4.367
  984SOL    HW1 3851   4.923   1.560   4.404
  984SOL    HW2 3852   4.777   1.577   4.332
  985SOL     OW 3853   3.108   5.086   1.136
  985SOL    HW1 3854   3.095   4.987   1.131
  985SOL    HW2 3855   3.204   5.106   1.156
  986SOL     OW 3856   3.921   5.273   6.325
  986SOL    HW1 3857   3.992   5.205   6.306
  986SOL    HW2 3858   3.921   5.294   6.423
  987SOL     OW 3859   3.266   6.602   1.992
  987SOL    HW1 3860   3.226   6.514   2.021
  987SOL    HW2 3861   3.358   6.610   2.029
  988SOL     OW 3862   3.485   4.152   2.160
  988SOL    HW1 3863   3.522   4.233   2.115
  988SOL    HW2 3864   3.560   4.097   2.197
  989SOL     OW 3865   0.832   0.043   4.726
  989SOL    HW1 3866   0.886   6.980   4.712
  989SOL    HW2 3867   0.744   0.034   4.679
  990SOL     OW 3868   4.915   6.159   3.608
  990SOL    HW1 3869   4.941   6.203   3.694
  990SOL    HW2 3870   4.952   6.210   3.531
  991SOL     OW 3871   6.794   1.276   5.207
  991SOL    HW1 3872   6.742   1.351   5.167
  991SOL    HW2 3873   6.804   1.290   5.305
  992SOL     OW 3874   6.906   3.093   1.033
  992SOL    HW1 3875   6.975   3.066   1.100
  992SOL    HW2 3876   6.910   3.192   1.020
  993SOL     OW 3877   3.303   5.297   3.994
  993SOL    HW1 3878   3.209   5.262   4.002
  993SOL    HW2 3879   3.321   5.322   3.898
  994SOL     OW 3880   3.256   4.065   2.310
  994SOL    HW1 3881   3.330   4.126   2.279
  994SOL    HW2 3882   3.285   3.970   2.300
  995SOL     OW 3883   0.489   1.081   4.821
  995SOL    HW1 3884   0.419   1.085   4.892
  995SOL    HW2 3885   0.454   1.122   4.737
  996SOL     OW 3886   1.236   3.604   1.674
  996SOL    HW1 3887   1.202   3.587   1.766
  996SOL    HW2 3888   1.284   3.692   1.671
  997SOL     OW 3889   0.005   0.780   1.392
  997SOL    HW1 3890   6.935   0.759   1.352
  997SOL    HW2 3891   0.042   0.697   1.434
  998SOL     OW 3892   4.747   0.146   3.141
  998SOL    HW1 3893   4.687   0.131   3.062
  998SOL    HW2 3894   4.709   0.099   3.221
  999SOL     OW 3895   6.816   5.563   1.506
  999SOL    HW1 3896   6.884   5.626   1.543
  999SOL    HW2 3897   6.852   5.518   1.425
 1000SOL     OW 3898   4.087   2.238   4.182
 1000SOL    HW1 3899   4.148   2.159   4.178
 1000SOL    HW2 3900   4.121   2.310   4.123
 1001SOL     OW 3901   4.569   0.347   5.664
 1001SOL    HW1 3902   4.557   0.408   5.586
 1001SOL    HW2 3903   4.493   0.283   5.668
 1002SOL     OW 3904   6.706   1.701   0.378
 1002SOL    HW1 3905   6.726   1.622   0.437
 1002SOL    HW2 3906   6.761   1.779   0.407
 1003SOL     OW 3907   4.433   4.938   2.804
 1003SOL    HW1 3908   4.402   4.863   2.746
 1003SOL    HW2 3909   4.480   4.902   2.884
 1004SOL     OW 3910   5.930   5.749   0.791
 1004SOL    HW1 3911   5.907   5.762   0.695
 1004SOL    HW2 3912   5.887   5.820   0.846
 1005SOL     OW 3913   6.528   6.073   3.611
 1005SOL    HW1 3914   6.568   6.096   3.522
 1005SOL    HW2 3915   6.449   6.131   3.628
 1006SOL     OW 3916   2.260   4.371   0.876
 1006SOL    HW1 3917   2.198   4.294   0.890
 1006SOL    HW2 3918   2.353   4.336   0.865
 1007SOL     OW 3919   0.935   0.360   3.761
 1007SOL    HW1 3920   1.033   0.368   3.780
 1007SOL    HW2 3921   0.920   0.351   3.662
 1008SOL     OW 3922   2.372   2.605   3.647
 1008SOL    HW1 3923   2.443   2.535   3.650
 1008SOL    HW2 3924   2.283   2.560   3.639
 1009SOL     OW 3925   1.448   5.685   4.915
 1009SOL    HW1 3926   1.507   5.629   4.972
 1009SOL    HW2 3927   1.406   5.757   4.971
 1010SOL     OW 3928   4.661   1.506   6.930
 1010SOL    HW1 3929   4.743   1.505   6.873
 1010SOL    HW2 3930   4.583   1.537   6.876
 1011SOL     OW 3931   3.663   5.621   3.716
 1011SOL    HW1 3932   3.747   5.587   3.676
 1011SOL    HW2 3933   3.647   5.577   3.805
 1012SOL     OW 3934   4.561   5.776   0.071
 1012SOL    HW1 3935   4.508   5.751   7.010
 1012SOL    HW2 3936   4.658   5.771   0.050
 1013SOL     OW 3937   0.116   1.225   1.067
 1013SOL    HW1 3938   0.042   1.160   1.082
 1013SOL    HW2 3939   0.194   1.200   1.124
 1014SOL     OW 3940   5.306   0.553   6.421
 1014SOL    HW1 3941   5.338   0.470   6.467
 1014SOL    HW2 3942   5.268   0.616   6.489
 1015SOL     OW 3943   2.761   6.136   4.383
 1015SOL    HW1 3944   2.783   6.048   4.342
 1015SOL    HW2 3945   2.832   6.203   4.360
 1016SOL     OW 3946   4.679   2.543   1.467
 1016SOL    HW1 3947   4.654   2.627   1.514
 1016SOL    HW2 3948   4.660   2.553   1.369
 1017SOL     OW 3949   4.735   2.206   6.793
 1017SOL    HW1 3950   4.731   2.124   6.850
 1017SOL    HW2 3951   4.710   2.183   6.699
 1018SOL     OW 3952   1.649   3.137   1.989
 1018SOL    HW1 3953   1.567   3.081   1.973
 1018SOL    HW2 3954   1.707   3.134   1.907
 1019SOL     OW 3955   6.380   0.456   0.405
 1019SOL    HW1 3956   6.292   0.475   0.449
 1019SOL    HW2 3957   6.399   0.526   0.336
 1020SOL     OW 3958   2.716   1.770   1.090
 1020SOL    HW1 3959   2.790   1.814   1.140
 1020SOL    HW2 3960   2.641   1.748   1.153
 1021SOL     OW 3961   6.315   2.122   1.075
 1021SOL    HW1 3962   6.373   2.203   1.072
 1021SOL    HW2 3963   6.368   2.042   1.046
 1022SOL     OW 3964   4.122   2.722   6.782
 1022SOL    HW1 3965   4.040   2.671   6.758
 1022SOL    HW2 3966   4.160   2.764   6.699
 1023SOL     OW 3967   5.424   1.420   4.206
 1023SOL    HW1 3968   5.402   1.324   4.224
 1023SOL    HW2 3969   5.404   1.474   4.288
 1024SOL     OW 3970   6.132   1.579   3.827
 1024SOL    HW1 3971   6.064   1.508   3.845
 1024SOL    HW2 3972   6.199   1.545   3.761
 1025SOL     OW 3973   2.953   4.159   0.898
 1025SOL    HW1 3974   3.022   4.180   0.967
 1025SOL    HW2 3975   2.862   4.174   0.936
 1026SOL     OW 3976   1.208   3.137   6.604
 1026SOL    HW1 3977   1.203   3.167   6.700
 1026SOL    HW2 3978   1.279   3.067   6.595
 1027SOL     OW 3979   2.438   5.420   2.059
 1027SOL    HW1 3980   2.512   5.403   2.123
 1027SOL    HW2 3981   2.350   5.398   2.103
 1028SOL     OW 3982   1.606   5.835   0.911
 1028SOL    HW1 3983   1.577   5.761   0.851
 1028SOL    HW2 3984   1.642   5.911   0.856
 1029SOL     OW 3985   3.325   0.126   5.354
 1029SOL    HW1 3986   3.419   0.130   5.320
 1029SOL    HW2 3987   3.279   0.213   5.336
 1030SOL     OW 3988   3.495   4.088   4.960
 1030SOL    HW1 3989   3.423   4.100   5.028
 1030SOL    HW2 3990   3.454   4.078   4.870
 1031SOL     OW 3991   2.280   5.572   1.279
 1031SOL    HW1 3992   2.349   5.623   1.331
 1031SOL    HW2 3993   2.290   5.474   1.298
 1032SOL     OW 3994   2.199   1.014   4.316
 1032SOL    HW1 3995   2.131   1.087   4.311
 1032SOL    HW2 3996   2.259   1.018   4.236
 1033SOL     OW 3997   2.300   6.017   3.054
 1033SOL    HW1 3998   2.336   6.034   2.963
 1033SOL    HW2 3999   2.375   5.987   3.114
 1034SOL     OW 4000   1.587   6.302   2.664
 1034SOL    HW1 4001   1.531   6.353   2.729
 1034SOL    HW2 4002   1.566   6.204   2.671
 1035SOL     OW 4003   2.968   1.054   4.279
 1035SOL    HW1 4004   2.931   0.962   4.293
 1035SOL    HW2 4005   3.054   1.063   4.329
 1036SOL     OW 4006   4.359   0.724   6.756
 1036SOL    HW1 4007   4.373   0.641   6.810
 1036SOL    HW2 4008   4.370   0.804   6.816
 1037SOL     OW 4009   3.006   1.898   6.477
 1037SOL    HW1 4010   3.033   1.983   6.431
 1037SOL    HW2 4011   3.082   1.866   6.533
 1038SOL     OW 4012   2.747   1.167   4.685
 1038SOL    HW1 4013   2.732   1.236   4.756
 1038SOL    HW2 4014   2.722   1.205   4.596
 1039SOL     OW 4015   4.174   1.360   3.426
 1039SOL    HW1 4016   4.267   1.372   3.463
 1039SOL    HW2 4017   4.160   1.264   3.401
 1040SOL     OW 4018   6.323   3.398   3.656
 1040SOL    HW1 4019   6.227   3.423   3.673
 1040SOL    HW2 4020   6.361   3.353   3.736
 1041SOL     OW 4021   0.983   0.010   4.431
 1041SOL    HW1 4022   0.950   0.098   4.467
 1041SOL    HW2 4023   0.974   6.960   4.501
 1042SOL     OW 4024   4.959   3.828   1.003
 1042SOL    HW1 4025   4.961   3.901   1.071
 1042SOL    HW2 4026   5.012   3.750   1.036
 1043SOL     OW 4027   3.410   0.845   6.479
 1043SOL    HW1 4028   3.356   0.901   6.417
 1043SOL    HW2 4029   3.414   0.751   6.444
 1044SOL     OW 4030   3.732   4.102   1.910
 1044SOL    HW1 4031   3.830   4.083   1.902
 1044SOL    HW2 4032   3.702   4.157   1.832
 1045SOL     OW 4033   3.756   1.614   3.437
 1045SOL    HW1 4034   3.843   1.584   3.399
 1045SOL    HW2 4035   3.686   1.544   3.420
 1046SOL     OW 4036   4.038   1.050   2.102
 1046SOL    HW1 4037   4.067   1.008   2.016
 1046SOL    HW2 4038   4.041   1.150   2.093
 1047SOL     OW 4039   0.344   5.204   1.991
 1047SOL    HW1 4040   0.269   5.151   1.953
 1047SOL    HW2 4041   0.422   5.144   2.008
 1048SOL     OW 4042   6.513   4.464   5.096
 1048SOL    HW1 4043   6.456   4.387   5.124
 1048SOL    HW2 4044   6.571   4.492   5.172
 1049SOL     OW 4045   0.847   3.202   5.214
 1049SOL    HW1 4046   0.808   3.119   5.174
 1049SOL    HW2 4047   0.944   3.209   5.188
 1050SOL     OW 4048   3.401   0.674   6.851
 1050SOL    HW1 4049   3.347   0.751   6.818
 1050SOL    HW2 4050   3.352   0.630   6.927
 1051SOL     OW 4051   4.991   5.219   2.564
 1051SOL    HW1 4052   4.981   5.306   2.516
 1051SOL    HW2 4053   4.931   5.218   2.645
 1052SOL     OW 4054   3.086   0.017   4.159
 1052SOL    HW1 4055   3.113   6.982   4.237
 1052SOL    HW2 4056   3.100   6.984   4.075
 1053SOL     OW 4057   4.170   4.805   3.197
 1053SOL    HW1 4058   4.231   4.772   3.269
 1053SOL    HW2 4059   4.075   4.789   3.223
 1054SOL     OW 4060   3.604   6.226   4.004
 1054SOL    HW1 4061   3.531   6.268   3.950
 1054SOL    HW2 4062   3.671   6.186   3.942
 1055SOL     OW 4063   4.664   5.543   4.383
 1055SOL    HW1 4064   4.653   5.582   4.474
 1055SOL    HW2 4065   4.699   5.613   4.321
 1056SOL     OW 4066   1.434   5.819   5.466
 1056SOL    HW1 4067   1.389   5.730   5.455
 1056SOL    HW2 4068   1.496   5.815   5.545
 1057SOL     OW 4069   3.642   4.182   1.066
 1057SOL    HW1 4070   3.575   4.184   1.139
 1057SOL    HW2 4071   3.648   4.090   1.027
 1058SOL     OW 4072   3.771   0.394   1.183
 1058SOL    HW1 4073   3.706   0.449   1.236
 1058SOL    HW2 4074   3.734   0.379   1.091
 1059SOL     OW 4075   3.425   1.458   0.902
 1059SOL    HW1 4076   3.440   1.555   0.923
 1059SOL    HW2 4077   3.348   1.450   0.838
 1060SOL     OW 4078   2.536   2.162   4.573
 1060SOL    HW1 4079   2.466   2.168   4.502
 1060SOL    HW2 4080   2.624   2.191   4.535
 1061SOL     OW 4081   3.055   6.052   1.601
 1061SOL    HW1 4082   3.094   5.960   1.609
 1061SOL    HW2 4083   3.127   6.116   1.570
 1062SOL     OW 4084   4.985   4.303   5.206
 1062SOL    HW1 4085   5.063   4.340   5.155
 1062SOL    HW2 4086   5.018   4.238   5.274
 1063SOL     OW 4087   1.964   2.773   5.855
 1063SOL    HW1 4088   2.029   2.703   5.886
 1063SOL    HW2 4089   2.006   2.864   5.864
 1064SOL     OW 4090   0.125   3.808   1.593
 1064SOL    HW1 4091   0.028   3.798   1.615
 1064SOL    HW2 4092   0.136   3.868   1.514
 1065SOL     OW 4093   5.143   5.434   5.313
 1065SOL    HW1 4094   5.153   5.472   5.221
 1065SOL    HW2 4095   5.191   5.346   5.318
 1066SOL     OW 4096   3.836   0.292   3.693
 1066SOL    HW1 4097   3.928   0.260   3.716
 1066SOL    HW2 4098   3.788   0.321   3.775
 1067SOL     OW 4099   1.912   3.330   1.369
 1067SOL    HW1 4100   1.816   3.311   1.349
 1067SOL    HW2 4101   1.931   3.308   1.465
 1068SOL     OW 4102   0.594   4.069   1.160
 1068SOL    HW1 4103   0.541   4.145   1.123
 1068SOL    HW2 4104   0.551   4.037   1.245
 1069SOL     OW 4105   3.620   3.826   1.226
 1069SOL    HW1 4106   3.586   3.867   1.310
 1069SOL    HW2 4107   3.710   3.865   1.204
 1070SOL     OW 4108   2.254   0.199   0.413
 1070SOL    HW1 4109   2.258   0.212   0.512
 1070SOL    HW2 4110   2.218   0.282   0.370
 1071SOL     OW 4111   4.532   6.207   3.874
 1071SOL    HW1 4112   4.541   6.118   3.918
 1071SOL    HW2 4113   4.565   6.201   3.780
 1072SOL     OW 4114   3.698   5.758   3.278
 1072SOL    HW1 4115   3.739   5.696   3.212
 1072SOL    HW2 4116   3.690   5.850   3.238
 1073SOL     OW 4117   2.843   5.133   2.732
 1073SOL    HW1 4118   2.897   5.058   2.771
 1073SOL    HW2 4119   2.888   5.220   2.751
 1074SOL     OW 4120   1.557   5.401   2.314
 1074SOL    HW1 4121   1.573   5.310   2.276
 1074SOL    HW2 4122   1.572   5.470   2.243
 1075SOL     OW 4123   0.525   3.917   2.950
 1075SOL    HW1 4124   0.589   3.976   2.999
 1075SOL    HW2 4125   0.562   3.825   2.946
 1076SOL     OW 4126   0.293   4.341   3.116
 1076SOL    HW1 4127   0.234   4.337   3.035
 1076SOL    HW2 4128   0.245   4.301   3.194
 1077SOL     OW 4129   5.023   1.071   1.302
 1077SOL    HW1 4130   5.007   0.981   1.341
 1077SOL    HW2 4131   4.936   1.112   1.275
 1078SOL     OW 4132   1.047   3.333   1.590
 1078SOL    HW1 4133   1.069   3.289   1.677
 1078SOL    HW2 4134   0.984   3.409   1.606
 1079SOL     OW 4135   2.553   5.467   2.658
 1079SOL    HW1 4136   2.456   5.491   2.660
 1079SOL    HW2 4137   2.568   5.394   2.591
 1080SOL     OW 4138   1.468   5.760   4.126
 1080SOL    HW1 4139   1.463   5.664   4.153
 1080SOL    HW2 4140   1.452   5.818   4.206
 1081SOL     OW 4141   1.152   1.444   0.383
 1081SOL    HW1 4142   1.204   1.359   0.386
 1081SOL    HW2 4143   1.090   1.447   0.462
 1082SOL     OW 4144   2.067   6.851   0.179
 1082SOL    HW1 4145   2.166   6.868   0.174
 1082SOL    HW2 4146   2.027   6.858   0.087
 1083SOL     OW 4147   3.822   2.550   1.456
 1083SOL    HW1 4148   3.785   2.472   1.506
 1083SOL    HW2 4149   3.771   2.632   1.480
 1084SOL     OW 4150   6.589   3.515   0.271
 1084SOL    HW1 4151   6.499   3.477   0.291
 1084SOL    HW2 4152   6.650   3.442   0.242
 1085SOL     OW 4153   2.145   4.539   3.206
 1085SOL    HW1 4154   2.051   4.522   3.237
 1085SOL    HW2 4155   2.165   4.637   3.216
 1086SOL     OW 4156   4.196   5.352   1.942
 1086SOL    HW1 4157   4.112   5.393   1.906
 1086SOL    HW2 4158   4.207   5.260   1.904
 1087SOL     OW 4159   3.655   3.344   5.351
 1087SOL    HW1 4160   3.633   3.248   5.336
 1087SOL    HW2 4161   3.627   3.397   5.270
 1088SOL     OW 4162   5.888   4.680   3.473
 1088SOL    HW1 4163   5.839   4.648   3.392
 1088SOL    HW2 4164   5.830   4.665   3.554
 1089SOL     OW 4165   5.977   0.221   3.302
 1089SOL    HW1 4166   5.882   0.253   3.293
 1089SOL    HW2 4167   6.006   0.180   3.215
 1090SOL     OW 4168   1.428   1.914   5.293
 1090SOL    HW1 4169   1.407   1.840   5.357
 1090SOL    HW2 4170   1.428   2.001   5.342
 1091SOL     OW 4171   1.028   2.800   5.063
 1091SOL    HW1 4172   1.104   2.758   5.113
 1091SOL    HW2 4173   0.949   2.740   5.067
 1092SOL     OW 4174   2.047   4.726   1.145
 1092SOL    HW1 4175   2.076   4.806   1.091
 1092SOL    HW2 4176   2.029   4.649   1.083
 1093SOL     OW 4177   0.523   1.863   2.361
 1093SOL    HW1 4178   0.498   1.896   2.452
 1093SOL    HW2 4179   0.490   1.769   2.349
 1094SOL     OW 4180   0.812   6.066   2.128
 1094SOL    HW1 4181   0.834   5.999   2.198
 1094SOL    HW2 4182   0.833   6.158   2.162
 1095SOL     OW 4183   5.642   3.321   6.101
 1095SOL    HW1 4184   5.687   3.260   6.035
 1095SOL    HW2 4185   5.646   3.415   6.067
 1096SOL     OW 4186   3.658   4.198   1.470
 1096SOL    HW1 4187   3.647   4.225   1.566
 1096SOL    HW2 4188   3.715   4.116   1.465
 1097SOL     OW 4189   1.946   4.674   5.525
 1097SOL    HW1 4190   1.866   4.712   5.478
 1097SOL    HW2 4191   1.936   4.687   5.624
 1098SOL     OW 4192   4.132   1.051   2.896
 1098SOL    HW1 4193   4.232   1.064   2.900
 1098SOL    HW2 4194   4.106   1.030   2.802
 1099SOL     OW 4195   4.031   1.540   2.349
 1099SOL    HW1 4196   4.050   1.508   2.442
 1099SOL    HW2 4197   3.946   1.498   2.316
 1100SOL     OW 4198   0.380   0.522   0.663
 1100SOL    HW1 4199   0.477   0.532   0.640
 1100SOL    HW2 4200   0.347   0.608   0.702
 1101SOL     OW 4201   6.233   2.651   0.917
 1101SOL    HW1 4202   6.144   2.683   0.884
 1101SOL    HW2 4203   6.232   2.552   0.926
 1102SOL     OW 4204   0.273   4.181   4.028
 1102SOL    HW1 4205   0.311   4.167   3.937
 1102SOL    HW2 4206   0.188   4.130   4.038
 1103SOL     OW 4207   0.598   3.142   1.337
 1103SOL    HW1 4208   0.593   3.130   1.238
 1103SOL    HW2 4209   0.693   3.162   1.363
 1104SOL     OW 4210   2.973   5.383   5.860
 1104SOL    HW1 4211   2.985   5.473   5.902
 1104SOL    HW2 4212   2.897   5.386   5.795
 1105SOL     OW 4213   4.050   5.261   0.450
 1105SOL    HW1 4214   4.085   5.347   0.486
 1105SOL    HW2 4215   4.100   5.185   0.493
 1106SOL     OW 4216   1.563   1.034   5.792
 1106SOL    HW1 4217   1.648   1.063   5.835
 1106SOL    HW2 4218   1.496   1.009   5.862
 1107SOL     OW 4219   1.063   0.084   1.731
 1107SOL    HW1 4220   0.965   0.103   1.735
 1107SOL    HW2 4221   1.078   7.009   1.702
 1108SOL     OW 4222   1.580   1.278   6.350
 1108SOL    HW1 4223   1.590   1.179   6.338
 1108SOL    HW2 4224   1.591   1.301   6.446
 1109SOL     OW 4225   4.545   1.291   3.699
 1109SOL    HW1 4226   4.558   1.192   3.704
 1109SOL    HW2 4227   4.615   1.337   3.753
 1110SOL     OW 4228   3.645   2.837   2.044
 1110SOL    HW1 4229   3.565   2.896   2.043
 1110SOL    HW2 4230   3.618   2.743   2.066
 1111SOL     OW 4231   5.805   0.214   6.861
 1111SOL    HW1 4232   5.800   0.215   6.761
 1111SOL    HW2 4233   5.901   0.221   6.889
 1112SOL     OW 4234   0.478   1.210   3.062
 1112SOL    HW1 4235   0.403   1.275   3.046
 1112SOL    HW2 4236   0.440   1.119   3.076
 1113SOL     OW 4237   6.186   3.414   2.101
 1113SOL    HW1 4238   6.215   3.501   2.059
 1113SOL    HW2 4239   6.120   3.369   2.040
 1114SOL     OW 4240   6.255   1.523   5.611
 1114SOL    HW1 4241   6.251   1.589   5.536
 1114SOL    HW2 4242   6.300   1.564   5.690
 1115SOL     OW 4243   2.897   3.692   0.179
 1115SOL    HW1 4244   2.815   3.677   0.234
 1115SOL    HW2 4245   2.923   3.788   0.184
 1116SOL     OW 4246   3.914   5.858   5.787
 1116SOL    HW1 4247   3.855   5.898   5.717
 1116SOL    HW2 4248   4.007   5.892   5.776
 1117SOL     OW 4249   2.611   3.155   0.715
 1117SOL    HW1 4250   2.537   3.192   0.770
 1117SOL    HW2 4251   2.595   3.175   0.618
 1118SOL     OW 4252   1.622   3.320   2.952
 1118SOL    HW1 4253   1.651   3.312   2.857
 1118SOL    HW2 4254   1.657   3.405   2.990
 1119SOL     OW 4255   3.162   3.477   2.805
 1119SOL    HW1 4256   3.077   3.437   2.838
 1119SOL    HW2 4257   3.150   3.506   2.710
 1120SOL     OW 4258   4.944   0.466   4.248
 1120SOL    HW1 4259   4.967   0.372   4.221
 1120SOL    HW2 4260   4.865   0.496   4.194
 1121SOL     OW 4261   5.214   2.992   2.367
 1121SOL    HW1 4262   5.199   3.080   2.323
 1121SOL    HW2 4263   5.225   2.921   2.298
 1122SOL     OW 4264   4.494   5.148   0.003
 1122SOL    HW1 4265   4.535   5.221   6.969
 1122SOL    HW2 4266   4.559   5.073   0.015
 1123SOL     OW 4267   3.860   0.664   1.839
 1123SOL    HW1 4268   3.926   0.653   1.913
 1123SOL    HW2 4269   3.842   0.761   1.824
 1124SOL     OW 4270   0.568   4.878   4.569
 1124SOL    HW1 4271   0.547   4.934   4.489
 1124SOL    HW2 4272   0.505   4.901   4.643
 1125SOL     OW 4273   3.657   3.393   4.772
 1125SOL    HW1 4274   3.707   3.412   4.688
 1125SOL    HW2 4275   3.624   3.478   4.812
 1126SOL     OW 4276   5.863   7.012   2.625
 1126SOL    HW1 4277   5.777   6.963   2.615
 1126SOL    HW2 4278   5.860   0.049   2.708
 1127SOL     OW 4279   1.322   5.170   6.372
 1127SOL    HW1 4280   1.315   5.084   6.422
 1127SOL    HW2 4281   1.406   5.218   6.399
 1128SOL     OW 4282   2.664   1.678   4.289
 1128SOL    HW1 4283   2.697   1.588   4.262
 1128SOL    HW2 4284   2.722   1.748   4.247
 1129SOL     OW 4285   5.112   0.392   6.709
 1129SOL    HW1 4286   5.144   0.303   6.740
 1129SOL    HW2 4287   5.017   0.406   6.739
 1130SOL     OW 4288   0.321   4.803   5.690
 1130SOL    HW1 4289   0.249   4.776   5.754
 1130SOL    HW2 4290   0.300   4.892   5.651
 1131SOL     OW 4291   0.651   4.994   5.624
 1131SOL    HW1 4292   0.577   4.927   5.634
 1131SOL    HW2 4293   0.725   4.971   5.687
 1132SOL     OW 4294   5.075   0.428   5.264
 1132SOL    HW1 4295   5.073   0.390   5.172
 1132SOL    HW2 4296   4.985   0.419   5.307
 1133SOL     OW 4297   0.671   2.264   1.073
 1133SOL    HW1 4298   0.678   2.220   0.983
 1133SOL    HW2 4299   0.579   2.300   1.085
 1134SOL     OW 4300   6.457   2.654   5.822
 1134SOL    HW1 4301   6.460   2.579   5.756
 1134SOL    HW2 4302   6.443   2.740   5.774
 1135SOL     OW 4303   5.319   1.775   3.138
 1135SOL    HW1 4304   5.235   1.720   3.135
 1135SOL    HW2 4305   5.373   1.758   3.055
 1136SOL     OW 4306   3.962   5.403   4.469
 1136SOL    HW1 4307   3.958   5.304   4.451
 1136SOL    HW2 4308   3.887   5.428   4.530
 1137SOL     OW 4309   1.834   1.071   5.893
 1137SOL    HW1 4310   1.822   0.998   5.960
 1137SOL    HW2 4311   1.908   1.047   5.830
 1138SOL     OW 4312   0.453   4.341   5.760
 1138SOL    HW1 4313   0.523   4.307   5.822
 1138SOL    HW2 4314   0.494   4.406   5.695
 1139SOL     OW 4315   1.119   6.350   1.195
 1139SOL    HW1 4316   1.134   6.427   1.258
 1139SOL    HW2 4317   1.204   6.330   1.146
 1140SOL     OW 4318   4.075   1.712   3.642
 1140SOL    HW1 4319   4.005   1.745   3.579
 1140SOL    HW2 4320   4.048   1.623   3.679
 1141SOL     OW 4321   6.527   6.162   6.018
 1141SOL    HW1 4322   6.567   6.214   6.093
 1141SOL    HW2 4323   6.429   6.148   6.036
 1142SOL     OW 4324   5.768   0.695   4.098
 1142SOL    HW1 4325   5.701   0.643   4.044
 1142SOL    HW2 4326   5.757   0.792   4.081
 1143SOL     OW 4327   4.027   2.216   2.527
 1143SOL    HW1 4328   3.945   2.211   2.584
 1143SOL    HW2 4329   4.006   2.184   2.435
 1144SOL     OW 4330   1.513   6.497   5.650
 1144SOL    HW1 4331   1.528   6.584   5.605
 1144SOL    HW2 4332   1.542   6.422   5.589
 1145SOL     OW 4333   1.664   5.151   5.205
 1145SOL    HW1 4334   1.593   5.105   5.152
 1145SOL    HW2 4335   1.745   5.093   5.209
 1146SOL     OW 4336   6.017   2.039   0.716
 1146SOL    HW1 4337   5.956   2.114   0.691
 1146SOL    HW2 4338   6.091   2.032   0.649
 1147SOL     OW 4339   5.836   2.666   1.985
 1147SOL    HW1 4340   5.935   2.655   1.986
 1147SOL    HW2 4341   5.802   2.650   1.892
 1148SOL     OW 4342   4.660   0.638   0.061
 1148SOL    HW1 4343   4.678   0.671   0.154
 1148SOL    HW2 4344   4.644   0.717   0.001
 1149SOL     OW 4345   6.759   2.989   2.800
 1149SOL    HW1 4346   6.673   3.035   2.777
 1149SOL    HW2 4347   6.835   3.036   2.757
 1150SOL     OW 4348   1.023   4.676   5.435
 1150SOL    HW1 4349   1.071   4.615   5.372
 1150SOL    HW2 4350   1.065   4.767   5.432
 1151SOL     OW 4351   4.450   5.678   6.857
 1151SOL    HW1 4352   4.436   5.698   6.760
 1151SOL    HW2 4353   4.376   5.620   6.891
 1152SOL     OW 4354   0.663   0.867   4.926
 1152SOL    HW1 4355   0.604   0.946   4.910
 1152SOL    HW2 4356   0.641   0.827   5.015
 1153SOL     OW 4357   2.354   5.132   2.074
 1153SOL    HW1 4358   2.269   5.121   2.021
 1153SOL    HW2 4359   2.404   5.211   2.041
 1154SOL     OW 4360   1.975   4.130   1.815
 1154SOL    HW1 4361   1.892   4.075   1.808
 1154SOL    HW2 4362   2.039   4.086   1.878
 1155SOL     OW 4363   3.324   5.766   2.083
 1155SOL    HW1 4364   3.252   5.708   2.043
 1155SOL    HW2 4365   3.284   5.823   2.154
 1156SOL     OW 4366   1.768   0.917   4.226
 1156SOL    HW1 4367   1.759   0.858   4.306
 1156SOL    HW2 4368   1.856   0.899   4.181
 1157SOL     OW 4369   0.676   3.067   4.129
 1157SOL    HW1 4370   0.690   3.153   4.080
 1157SOL    HW2 4371   0.661   3.086   4.226
 1158SOL     OW 4372   4.576   5.339   6.033
 1158SOL    HW1 4373   4.565   5.431   6.070
 1158SOL    HW2 4374   4.671   5.309   6.045
 1159SOL     OW 4375   5.149   5.549   3.284
 1159SOL    HW1 4376   5.245   5.572   3.268
 1159SOL    HW2 4377   5.142   5.489   3.364
 1160SOL     OW 4378   2.377   2.734   0.389
 1160SOL    HW1 4379   2.321   2.789   0.451
 1160SOL    HW2 4380   2.318   2.672   0.337
 1161SOL     OW 4381   4.203   0.226   4.394
 1161SOL    HW1 4382   4.268   0.294   4.426
 1161SOL    HW2 4383   4.220   0.206   4.298
 1162SOL     OW 4384   3.947   4.575   1.695
 1162SOL    HW1 4385   3.990   4.621   1.772
 1162SOL    HW2 4386   4.000   4.492   1.673
 1163SOL     OW 4387   4.684   1.783   2.425
 1163SOL    HW1 4388   4.689   1.859   2.489
 1163SOL    HW2 4389   4.682   1.697   2.476
 1164SOL     OW 4390   5.628   3.585   3.759
 1164SOL    HW1 4391   5.713   3.583   3.812
 1164SOL    HW2 4392   5.610   3.678   3.729
 1165SOL     OW 4393   1.304   4.690   2.210
 1165SOL    HW1 4394   1.317   4.676   2.308
 1165SOL    HW2 4395   1.377   4.644   2.160
 1166SOL     OW 4396   3.959   3.047   6.591
 1166SOL    HW1 4397   4.023   3.012   6.523
 1166SOL    HW2 4398   4.003   3.045   6.681
 1167SOL     OW 4399   4.619   1.796   4.443
 1167SOL    HW1 4400   4.655   1.704   4.455
 1167SOL    HW2 4401   4.545   1.812   4.508
 1168SOL     OW 4402   6.203   6.665   3.473
 1168SOL    HW1 4403   6.178   6.749   3.424
 1168SOL    HW2 4404   6.124   6.632   3.524
 1169SOL     OW 4405   0.686   4.071   1.537
 1169SOL    HW1 4406   0.757   4.138   1.516
 1169SOL    HW2 4407   0.714   3.981   1.506
 1170SOL     OW 4408   2.717   0.986   1.064
 1170SOL    HW1 4409   2.764   1.038   0.992
 1170SOL    HW2 4410   2.622   1.017   1.070
 1171SOL     OW 4411   2.637   0.316   0.633
 1171SOL    HW1 4412   2.599   0.303   0.541
 1171SOL    HW2 4413   2.673   0.229   0.668
 1172SOL     OW 4414   2.929   3.360   4.825
 1172SOL    HW1 4415   2.902   3.389   4.734
 1172SOL    HW2 4416   2.994   3.283   4.818
 1173SOL     OW 4417   5.123   0.671   6.199
 1173SOL    HW1 4418   5.051   0.706   6.260
 1173SOL    HW2 4419   5.192   0.624   6.254
 1174SOL     OW 4420   3.598   6.745   0.486
 1174SOL    HW1 4421   3.654   6.827   0.474
 1174SOL    HW2 4422   3.520   6.766   0.545
 1175SOL     OW 4423   6.902   5.700   5.073
 1175SOL    HW1 4424   6.846   5.740   5.000
 1175SOL    HW2 4425   6.843   5.660   5.143
 1176SOL     OW 4426   6.401   3.716   1.190
 1176SOL    HW1 4427   6.393   3.812   1.214
 1176SOL    HW2 4428   6.426   3.708   1.093
 1177SOL     OW 4429   6.387   3.382   0.354
 1177SOL    HW1 4430   6.316   3.446   0.385
 1177SOL    HW2 4431   6.353   3.289   0.359
 1178SOL     OW 4432   5.243   3.981   1.776
 1178SOL    HW1 4433   5.154   4.005   1.737
 1178SOL    HW2 4434   5.246   4.010   1.872
 1179SOL     OW 4435   2.310   5.685   6.094
 1179SOL    HW1 4436   2.324   5.682   6.193
 1179SOL    HW2 4437   2.335   5.776   6.060
 1180SOL     OW 4438   2.442   1.290   3.998
 1180SOL    HW1 4439   2.540   1.293   4.014
 1180SOL    HW2 4440   2.403   1.382   4.007
 1181SOL     OW 4441   2.099   4.360   2.958
 1181SOL    HW1 4442   2.112   4.267   2.993
 1181SOL    HW2 4443   2.187   4.406   2.951
 1182SOL     OW 4444   1.263   4.155   3.186
 1182SOL    HW1 4445   1.298   4.089   3.251
 1182SOL    HW2 4446   1.260   4.246   3.228
 1183SOL     OW 4447   4.499   5.715   0.721
 1183SOL    HW1 4448   4.432   5.641   0.724
 1183SOL    HW2 4449   4.452   5.803   0.724
 1184SOL     OW 4450   3.194   3.019   5.417
 1184SOL    HW1 4451   3.215   2.937   5.364
 1184SOL    HW2 4452   3.103   3.010   5.457
 1185SOL     OW 4453   2.746   1.841   0.276
 1185SOL    HW1 4454   2.802   1.779   0.331
 1185SOL    HW2 4455   2.655   1.802   0.263
 1186SOL     OW 4456   4.383   0.550   5.141
 1186SOL    HW1 4457   4.344   0.628   5.093
 1186SOL    HW2 4458   4.330   0.533   5.225
 1187SOL     OW 4459   0.599   1.074   5.466
 1187SOL    HW1 4460   0.671   1.007   5.485
 1187SOL    HW2 4461   0.574   1.070   5.369
 1188SOL     OW 4462   1.584   6.762   5.547
 1188SOL    HW1 4463   1.527   6.825   5.493
 1188SOL    HW2 4464   1.630   6.813   5.619
 1189SOL     OW 4465   6.864   1.158   1.256
 1189SOL    HW1 4466   6.838   1.083   1.316
 1189SOL    HW2 4467   6.874   1.125   1.163
 1190SOL     OW 4468   4.305   4.637   2.980
 1190SOL    HW1 4469   4.280   4.695   3.058
 1190SOL    HW2 4470   4.246   4.658   2.902
 1191SOL     OW 4471   3.094   4.882   0.658
 1191SOL    HW1 4472   3.124   4.788   0.641
 1191SOL    HW2 4473   3.160   4.928   0.717
 1192SOL     OW 4474   4.706   5.191   2.333
 1192SOL    HW1 4475   4.759   5.234   2.261
 1192SOL    HW2 4476   4.768   5.144   2.397
 1193SOL     OW 4477   3.914   6.925   3.878
 1193SOL    HW1 4478   3.873   7.002   3.927
 1193SOL    HW2 4479   3.990   6.889   3.931
 1194SOL     OW 4480   6.598   0.472   1.401
 1194SOL    HW1 4481   6.669   0.469   1.331
 1194SOL    HW2 4482   6.527   0.537   1.374
 1195SOL     OW 4483   3.597   6.854   7.002
 1195SOL    HW1 4484   3.662   6.836   0.056
 1195SOL    HW2 4485   3.646   6.864   6.916
 1196SOL     OW 4486   0.668   5.466   2.804
 1196SOL    HW1 4487   0.588   5.438   2.858
 1196SOL    HW2 4488   0.641   5.536   2.737
 1197SOL     OW 4489   3.198   5.310   6.604
 1197SOL    HW1 4490   3.245   5.267   6.681
 1197SOL    HW2 4491   3.264   5.361   6.549
 1198SOL     OW 4492   3.328   1.758   2.574
 1198SOL    HW1 4493   3.258   1.736   2.643
 1198SOL    HW2 4494   3.411   1.789   2.620
 1199SOL     OW 4495   3.128   3.900   3.431
 1199SOL    HW1 4496   3.136   3.953   3.515
 1199SOL    HW2 4497   3.062   3.826   3.444
 1200SOL     OW 4498   3.818   3.318   0.606
 1200SOL    HW1 4499   3.854   3.385   0.542
 1200SOL    HW2 4500   3.720   3.306   0.591
 1201SOL     OW 4501   1.318   0.768   4.603
 1201SOL    HW1 4502   1.342   0.775   4.506
 1201SOL    HW2 4503   1.227   0.808   4.619
 1202SOL     OW 4504   5.674   0.324   5.086
 1202SOL    HW1 4505   5.730   0.264   5.028
 1202SOL    HW2 4506   5.724   0.410   5.102
 1203SOL     OW 4507   6.064   6.756   1.939
 1203SOL    HW1 4508   6.075   6.759   1.840
 1203SOL    HW2 4509   6.044   6.848   1.973
 1204SOL     OW 4510   2.597   6.483   6.807
 1204SOL    HW1 4511   2.499   6.466   6.811
 1204SOL    HW2 4512   2.646   6.396   6.802
 1205SOL     OW 4513   0.686   1.857   5.145
 1205SOL    HW1 4514   0.657   1.888   5.054
 1205SOL    HW2 4515   0.606   1.848   5.204
 1206SOL     OW 4516   0.402   1.763   4.346
 1206SOL    HW1 4517   0.500   1.767   4.364
 1206SOL    HW2 4518   0.365   1.855   4.336
 1207SOL     OW 4519   6.203   5.950   6.699
 1207SOL    HW1 4520   6.119   5.898   6.684
 1207SOL    HW2 4521   6.183   6.048   6.690
 1208SOL     OW 4522   3.653   4.119   3.898
 1208SOL    HW1 4523   3.649   4.206   3.848
 1208SOL    HW2 4524   3.604   4.128   3.984
 1209SOL     OW 4525   6.746   4.022   5.215
 1209SOL    HW1 4526   6.679   3.974   5.159
 1209SOL    HW2 4527   6.761   3.971   5.300
 1210SOL     OW 4528   2.953   6.708   2.272
 1210SOL    HW1 4529   3.034   6.740   2.321
 1210SOL    HW2 4530   2.897   6.652   2.334
 1211SOL     OW 4531   1.550   3.172   3.472
 1211SOL    HW1 4532   1.505   3.120   3.546
 1211SOL    HW2 4533   1.480   3.215   3.415
 1212SOL     OW 4534   2.182   4.147   4.565
 1212SOL    HW1 4535   2.090   4.173   4.534
 1212SOL    HW2 4536   2.195   4.178   4.659
 1213SOL     OW 4537   6.011   2.993   5.348
 1213SOL    HW1 4538   5.915   2.991   5.320
 1213SOL    HW2 4539   6.018   3.030   5.441
 1214SOL     OW 4540   1.854   2.602   2.583
 1214SOL    HW1 4541   1.758   2.587   2.556
 1214SOL    HW2 4542   1.900   2.658   2.514
 1215SOL     OW 4543   6.914   5.380   1.876
 1215SOL    HW1 4544   6.854   5.456   1.900
 1215SOL    HW2 4545   6.984   5.369   1.947
 1216SOL     OW 4546   3.238   0.279   1.748
 1216SOL    HW1 4547   3.176   0.350   1.780
 1216SOL    HW2 4548   3.188   0.216   1.688
 1217SOL     OW 4549   1.763   1.444   2.574
 1217SOL    HW1 4550   1.800   1.391   2.497
 1217SOL    HW2 4551   1.761   1.387   2.656
 1218SOL     OW 4552   0.646   3.723   3.672
 1218SOL    HW1 4553   0.685   3.738   3.581
 1218SOL    HW2 4554   0.624   3.626   3.683
 1219SOL     OW 4555   2.408   6.020   3.636
 1219SOL    HW1 4556   2.427   6.067   3.723
 1219SOL    HW2 4557   2.486   6.032   3.574
 1220SOL     OW 4558   6.022   4.361   2.991
 1220SOL    HW1 4559   5.936   4.318   3.019
 1220SOL    HW2 4560   6.026   4.454   3.029
 1221SOL     OW 4561   4.761   3.715   6.517
 1221SOL    HW1 4562   4.770   3.643   6.449
 1221SOL    HW2 4563   4.688   3.691   6.582
 1222SOL     OW 4564   5.010   5.505   1.430
 1222SOL    HW1 4565   5.107   5.509   1.405
 1222SOL    HW2 4566   4.965   5.432   1.378
 1223SOL     OW 4567   5.755   5.024   4.864
 1223SOL    HW1 4568   5.818   4.952   4.836
 1223SOL    HW2 4569   5.801   5.113   4.855
 1224SOL     OW 4570   4.632   5.195   1.961
 1224SOL    HW1 4571   4.680   5.252   2.028
 1224SOL    HW2 4572   4.659   5.100   1.973
 1225SOL     OW 4573   4.248   1.084   0.214
 1225SOL    HW1 4574   4.200   1.106   0.129
 1225SOL    HW2 4575   4.272   1.168   0.262
 1226SOL     OW 4576   5.467   5.223   1.058
 1226SOL    HW1 4577   5.470   5.186   1.151
 1226SOL    HW2 4578   5.558   5.220   1.018
 1227SOL     OW 4579   4.894   4.654   6.794
 1227SOL    HW1 4580   4.993   4.648   6.789
 1227SOL    HW2 4581   4.859   4.584   6.857
 1228SOL     OW 4582   3.989   3.895   4.266
 1228SOL    HW1 4583   3.997   3.801   4.233
 1228SOL    HW2 4584   3.967   3.955   4.190
 1229SOL     OW 4585   2.498   5.738   2.323
 1229SOL    HW1 4586   2.478   5.640   2.314
 1229SOL    HW2 4587   2.435   5.790   2.264
 1230SOL     OW 4588   5.899   4.796   1.864
 1230SOL    HW1 4589   5.834   4.728   1.898
 1230SOL    HW2 4590   5.897   4.796   1.764
 1231SOL     OW 4591   2.404   1.696   6.398
 1231SOL    HW1 4592   2.304   1.706   6.402
 1231SOL    HW2 4593   2.444   1.777   6.356
 1232SOL     OW 4594   3.240   0.808   5.003
 1232SOL    HW1 4595   3.276   0.901   5.013
 1232SOL    HW2 4596   3.217   0.791   4.908
 1233SOL     OW 4597   0.346   5.670   5.177
 1233SOL    HW1 4598   0.402   5.741   5.219
 1233SOL    HW2 4599   0.405   5.595   5.145
 1234SOL     OW 4600   6.443   3.934   6.765
 1234SOL    HW1 4601   6.535   3.951   6.732
 1234SOL    HW2 4602   6.384   3.908   6.688
 1235SOL     OW 4603   6.366   4.897   1.153
 1235SOL    HW1 4604   6.298   4.826   1.170
 1235SOL    HW2 4605   6.433   4.897   1.228
 1236SOL     OW 4606   1.676   1.323   2.176
 1236SOL    HW1 4607   1.684   1.408   2.229
 1236SOL    HW2 4608   1.654   1.247   2.237
 1237SOL     OW 4609   0.894   0.017   5.021
 1237SOL    HW1 4610   0.963   6.964   5.022
 1237SOL    HW2 4611   0.861   0.030   4.927
 1238SOL     OW 4612   0.646   0.954   4.610
 1238SOL    HW1 4613   0.591   0.957   4.694
 1238SOL    HW2 4614   0.729   1.009   4.623
 1239SOL     OW 4615   5.036   4.937   3.593
 1239SOL    HW1 4616   5.131   4.909   3.603
 1239SOL    HW2 4617   4.976   4.859   3.613
 1240SOL     OW 4618   1.194   3.561   1.944
 1240SOL    HW1 4619   1.128   3.515   2.003
 1240SOL    HW2 4620   1.178   3.660   1.948
 1241SOL     OW 4621   4.024   5.588   5.896
 1241SOL    HW1 4622   4.030   5.535   5.811
 1241SOL    HW2 4623   3.993   5.681   5.875
 1242SOL     OW 4624   2.045   4.469   1.044
 1242SOL    HW1 4625   2.114   4.443   0.977
 1242SOL    HW2 4626   2.036   4.396   1.112
 1243SOL     OW 4627   1.113   3.459   3.608
 1243SOL    HW1 4628   1.019   3.432   3.628
 1243SOL    HW2 4629   1.115   3.514   3.524
 1244SOL     OW 4630   6.606   7.013   5.810
 1244SOL    HW1 4631   6.699   0.012   5.778
 1244SOL    HW2 4632   6.560   0.079   5.831
 1245SOL     OW 4633   4.750   6.463   0.798
 1245SOL    HW1 4634   4.722   6.439   0.891
 1245SOL    HW2 4635   4.828   6.525   0.801
 1246SOL     OW 4636   5.047   1.260   0.990
 1246SOL    HW1 4637   5.016   1.287   0.899
 1246SOL    HW2 4638   4.973   1.213   1.038
 1247SOL     OW 4639   6.586   0.228   3.547
 1247SOL    HW1 4640   6.548   0.209   3.638
 1247SOL    HW2 4641   6.640   0.150   3.516
 1248SOL     OW 4642   0.720   6.645   4.412
 1248SOL    HW1 4643   0.804   6.617   4.459
 1248SOL    HW2 4644   0.655   6.569   4.411
 1249SOL     OW 4645   6.001   5.717   6.490
 1249SOL    HW1 4646   5.991   5.619   6.510
 1249SOL    HW2 4647   6.097   5.736   6.470
 1250SOL     OW 4648   0.474   3.407   5.215
 1250SOL    HW1 4649   0.534   3.473   5.169
 1250SOL    HW2 4650   0.383   3.447   5.223
 1251SOL     OW 4651   2.928   0.601   2.613
 1251SOL    HW1 4652   2.942   0.674   2.547
 1251SOL    HW2 4653   2.840   0.614   2.660
 1252SOL     OW 4654   2.119   5.474   6.427
 1252SOL    HW1 4655   2.175   5.456   6.508
 1252SOL    HW2 4656   2.079   5.387   6.395
 1253SOL     OW 4657   3.333   6.950   0.034
 1253SOL    HW1 4658   3.413   6.921   7.001
 1253SOL    HW2 4659   3.276   7.010   6.998
 1254SOL     OW 4660   5.725   0.833   3.044
 1254SOL    HW1 4661   5.738   0.853   3.141
 1254SOL    HW2 4662   5.661   0.899   3.005
 1255SOL     OW 4663   5.809   1.374   5.752
 1255SOL    HW1 4664   5.837   1.369   5.848
 1255SOL    HW2 4665   5.865   1.312   5.697
 1256SOL     OW 4666   0.116   5.759   4.716
 1256SOL    HW1 4667   0.115   5.777   4.815
 1256SOL    HW2 4668   0.205   5.724   4.689
 1257SOL     OW 4669   0.153   6.271   3.008
 1257SOL    HW1 4670   0.092   6.265   2.930
 1257SOL    HW2 4671   0.214   6.191   3.010
 1258SOL     OW 4672   4.355   5.954   6.229
 1258SOL    HW1 4673   4.433   5.892   6.235
 1258SOL    HW2 4674   4.279   5.916   6.282
 1259SOL     OW 4675   5.554   0.620   5.773
 1259SOL    HW1 4676   5.552   0.656   5.679
 1259SOL    HW2 4677   5.515   0.528   5.774
 1260SOL     OW 4678   2.838   1.360   1.531
 1260SOL    HW1 4679   2.888   1.423   1.591
 1260SOL    HW2 4680   2.769   1.410   1.479
 1261SOL     OW 4681   6.786   4.838   4.812
 1261SOL    HW1 4682   6.740   4.871   4.895
 1261SOL    HW2 4683   6.717   4.821   4.741
 1262SOL     OW 4684   4.051   5.070   1.366
 1262SOL    HW1 4685   3.975   5.006   1.359
 1262SOL    HW2 4686   4.026   5.146   1.427
 1263SOL     OW 4687   6.249   2.379   0.921
 1263SOL    HW1 4688   6.342   2.412   0.940
 1263SOL    HW2 4689   6.237   2.288   0.961
 1264SOL     OW 4690   6.539   2.541   4.003
 1264SOL    HW1 4691   6.483   2.538   4.086
 1264SOL    HW2 4692   6.567   2.448   3.978
 1265SOL     OW 4693   6.817   6.075   4.838
 1265SOL    HW1 4694   6.897   6.096   4.895
 1265SOL    HW2 4695   6.837   6.100   4.743
 1266SOL     OW 4696   2.506   0.869   4.462
 1266SOL    HW1 4697   2.496   0.900   4.557
 1266SOL    HW2 4698   2.479   0.773   4.456
 1267SOL     OW 4699   6.731   4.702   2.951
 1267SOL    HW1 4700   6.782   4.767   3.007
 1267SOL    HW2 4701   6.681   4.638   3.010
 1268SOL     OW 4702   5.736   3.449   0.050
 1268SOL    HW1 4703   5.777   3.379   7.011
 1268SOL    HW2 4704   5.807   3.508   0.088
 1269SOL     OW 4705   6.848   4.942   6.139
 1269SOL    HW1 4706   6.937   4.920   6.179
 1269SOL    HW2 4707   6.832   5.041   6.148
 1270SOL     OW 4708   1.622   2.439   5.114
 1270SOL    HW1 4709   1.685   2.405   5.183
 1270SOL    HW2 4710   1.674   2.485   5.041
 1271SOL     OW 4711   4.827   2.557   3.011
 1271SOL    HW1 4712   4.856   2.574   3.105
 1271SOL    HW2 4713   4.764   2.628   2.982
 1272SOL     OW 4714   6.608   6.511   1.800
 1272SOL    HW1 4715   6.620   6.512   1.701
 1272SOL    HW2 4716   6.513   6.528   1.822
 1273SOL     OW 4717   2.453   6.326   6.549
 1273SOL    HW1 4718   2.404   6.403   6.588
 1273SOL    HW2 4719   2.395   6.278   6.482
 1274SOL     OW 4720   5.859   2.853   1.182
 1274SOL    HW1 4721   5.849   2.946   1.146
 1274SOL    HW2 4722   5.813   2.789   1.121
 1275SOL     OW 4723   4.146   1.898   3.856
 1275SOL    HW1 4724   4.122   1.817   3.801
 1275SOL    HW2 4725   4.153   1.871   3.952
 1276SOL     OW 4726   6.080   0.283   3.543
 1276SOL    HW1 4727   6.046   0.257   3.453
 1276SOL    HW2 4728   6.169   0.328   3.534
 1277SOL     OW 4729   0.327   1.185   5.407
 1277SOL    HW1 4730   0.319   1.125   5.486
 1277SOL    HW2 4731   0.372   1.136   5.332
 1278SOL     OW 4732   3.035   1.990   5.392
 1278SOL    HW1 4733   2.999   2.072   5.347
 1278SOL    HW2 4734   3.109   1.952   5.337
 1279SOL     OW 4735   3.052   5.053   0.458
 1279SOL    HW1 4736   3.014   5.119   0.523
 1279SOL    HW2 4737   3.091   4.976   0.508
 1280SOL     OW 4738   1.817   6.137   2.834
 1280SOL    HW1 4739   1.743   6.201   2.814
 1280SOL    HW2 4740   1.778   6.052   2.869
 1281SOL     OW 4741   0.765   6.507   3.854
 1281SOL    HW1 4742   0.716   6.496   3.768
 1281SOL    HW2 4743   0.861   6.531   3.835
 1282SOL     OW 4744   1.231   0.427   2.653
 1282SOL    HW1 4745   1.144   0.390   2.686
 1282SOL    HW2 4746   1.232   0.429   2.553
 1283SOL     OW 4747   5.258   4.880   5.315
 1283SOL    HW1 4748   5.243   4.782   5.329
 1283SOL    HW2 4749   5.174   4.930   5.336
 1284SOL     OW 4750   2.474   2.085   2.694
 1284SOL    HW1 4751   2.484   2.118   2.788
 1284SOL    HW2 4752   2.388   2.119   2.656
 1285SOL     OW 4753   5.373   2.674   5.854
 1285SOL    HW1 4754   5.310   2.611   5.808
 1285SOL    HW2 4755   5.412   2.737   5.787
 1286SOL     OW 4756   6.094   5.570   1.585
 1286SOL    HW1 4757   6.053   5.481   1.601
 1286SOL    HW2 4758   6.061   5.607   1.498
 1287SOL     OW 4759   5.825   5.198   6.276
 1287SOL    HW1 4760   5.908   5.148   6.253
 1287SOL    HW2 4761   5.776   5.150   6.349
 1288SOL     OW 4762   6.668   2.491   2.690
 1288SOL    HW1 4763   6.608   2.532   2.759
 1288SOL    HW2 4764   6.710   2.563   2.635
 1289SOL     OW 4765   6.415   5.808   2.811
 1289SOL    HW1 4766   6.357   5.728   2.821
 1289SOL    HW2 4767   6.510   5.784   2.832
 1290SOL     OW 4768   0.628   6.601   1.648
 1290SOL    HW1 4769   0.615   6.684   1.702
 1290SOL    HW2 4770   0.560   6.533   1.674
 1291SOL     OW 4771   2.207   0.260   0.734
 1291SOL    HW1 4772   2.120   0.308   0.747
 1291SOL    HW2 4773   2.272   0.288   0.804
 1292SOL     OW 4774   1.012   6.077   6.595
 1292SOL    HW1 4775   1.055   5.991   6.622
 1292SOL    HW2 4776   0.921   6.060   6.560
 1293SOL     OW 4777   0.147   2.705   5.700
 1293SOL    HW1 4778   0.066   2.672   5.748
 1293SOL    HW2 4779   0.168   2.798   5.730
 1294SOL     OW 4780   6.825   1.670   2.884
 1294SOL    HW1 4781   6.898   1.676   2.952
 1294SOL    HW2 4782   6.837   1.742   2.816
 1295SOL     OW 4783   6.127   3.326   2.345
 1295SOL    HW1 4784   6.114   3.227   2.352
 1295SOL    HW2 4785   6.166   3.348   2.255
 1296SOL     OW 4786   3.456   2.874   6.504
 1296SOL    HW1 4787   3.520   2.936   6.548
 1296SOL    HW2 4788   3.389   2.926   6.451
 1297SOL     OW 4789   6.810   1.384   6.687
 1297SOL    HW1 4790   6.791   1.312   6.620
 1297SOL    HW2 4791   6.723   1.423   6.719
 1298SOL     OW 4792   5.967   2.738   3.464
 1298SOL    HW1 4793   6.012   2.745   3.553
 1298SOL    HW2 4794   5.887   2.798   3.462
 1299SOL     OW 4795   1.215   3.996   4.297
 1299SOL    HW1 4796   1.291   4.051   4.261
 1299SOL    HW2 4797   1.167   3.951   4.222
 1300SOL     OW 4798   2.804   3.107   1.528
 1300SOL    HW1 4799   2.890   3.125   1.481
 1300SOL    HW2 4800   2.822   3.091   1.625
 1301SOL     OW 4801   0.604   0.290   3.361
 1301SOL    HW1 4802   0.614   0.192   3.379
 1301SOL    HW2 4803   0.614   0.307   3.263
 1302SOL     OW 4804   2.428   5.803   5.137
 1302SOL    HW1 4805   2.495   5.729   5.139
 1302SOL    HW2 4806   2.380   5.803   5.049
 1303SOL     OW 4807   3.692   0.879   1.600
 1303SOL    HW1 4808   3.649   0.916   1.682
 1303SOL    HW2 4809   3.633   0.894   1.521
 1304SOL     OW 4810   3.152   0.644   6.391
 1304SOL    HW1 4811   3.131   0.738   6.363
 1304SOL    HW2 4812   3.251   0.632   6.396
 1305SOL     OW 4813   5.303   6.804   4.824
 1305SOL    HW1 4814   5.319   6.903   4.815
 1305SOL    HW2 4815   5.316   6.760   4.736
 1306SOL     OW 4816   0.739   4.459   3.786
 1306SOL    HW1 4817   0.825   4.484   3.742
 1306SOL    HW2 4818   0.753   4.454   3.885
 1307SOL     OW 4819   2.220   1.715   4.199
 1307SOL    HW1 4820   2.299   1.678   4.152
 1307SOL    HW2 4821   2.154   1.641   4.216
 1308SOL     OW 4822   4.829   5.360   2.781
 1308SOL    HW1 4823   4.779   5.412   2.712
 1308SOL    HW2 4824   4.779   5.362   2.867
 1309SOL     OW 4825   6.004   2.296   4.602
 1309SOL    HW1 4826   5.912   2.320   4.568
 1309SOL    HW2 4827   5.997   2.216   4.660
 1310SOL     OW 4828   4.940   3.510   5.479
 1310SOL    HW1 4829   4.969   3.419   5.510
 1310SOL    HW2 4830   4.969   3.579   5.546
 1311SOL     OW 4831   5.086   5.749   5.193
 1311SOL    HW1 4832   5.145   5.797   5.259
 1311SOL    HW2 4833   5.055   5.814   5.123
 1312SOL     OW 4834   0.256   6.568   1.701
 1312SOL    HW1 4835   0.224   6.641   1.641
 1312SOL    HW2 4836   0.202   6.566   1.785
 1313SOL     OW 4837   3.440   4.808   5.179
 1313SOL    HW1 4838   3.434   4.723   5.233
 1313SOL    HW2 4839   3.348   4.834   5.149
 1314SOL     OW 4840   6.144   1.342   4.868
 1314SOL    HW1 4841   6.181   1.287   4.793
 1314SOL    HW2 4842   6.087   1.283   4.927
 1315SOL     OW 4843   2.115   0.896   3.053
 1315SOL    HW1 4844   2.109   0.820   2.988
 1315SOL    HW2 4845   2.146   0.978   3.006
 1316SOL     OW 4846   3.385   6.212   2.104
 1316SOL    HW1 4847   3.422   6.198   2.195
 1316SOL    HW2 4848   3.458   6.243   2.042
 1317SOL     OW 4849   0.356   5.213   3.500
 1317SOL    HW1 4850   0.301   5.130   3.508
 1317SOL    HW2 4851   0.442   5.201   3.550
 1318SOL     OW 4852   0.255   6.295   1.086
 1318SOL    HW1 4853   0.322   6.326   1.019
 1318SOL    HW2 4854   0.164   6.295   1.044
 1319SOL     OW 4855   6.571   1.098   0.573
 1319SOL    HW1 4856   6.499   1.165   0.556
 1319SOL    HW2 4857   6.532   1.015   0.613
 1320SOL     OW 4858   5.483   5.757   6.065
 1320SOL    HW1 4859   5.507   5.822   5.993
 1320SOL    HW2 4860   5.384   5.745   6.068
 1321SOL     OW 4861   3.809   2.352   6.516
 1321SOL    HW1 4862   3.715   2.352   6.549
 1321SOL    HW2 4863   3.860   2.278   6.561
 1322SOL     OW 4864   6.044   1.111   4.991
 1322SOL    HW1 4865   6.125   1.053   4.999
 1322SOL    HW2 4866   5.997   1.114   5.080
 1323SOL     OW 4867   5.974   1.126   4.533
 1323SOL    HW1 4868   5.911   1.203   4.524
 1323SOL    HW2 4869   5.932   1.055   4.590
 1324SOL     OW 4870   1.079   3.866   0.821
 1324SOL    HW1 4871   1.013   3.794   0.799
 1324SOL    HW2 4872   1.083   3.931   0.745
 1325SOL     OW 4873   3.369   5.432   2.917
 1325SOL    HW1 4874   3.376   5.524   2.954
 1325SOL    HW2 4875   3.293   5.384   2.962
 1326SOL     OW 4876   5.207   4.019   4.031
 1326SOL    HW1 4877   5.194   3.942   3.970
 1326SOL    HW2 4878   5.149   4.095   4.002
 1327SOL     OW 4879   3.176   5.623   3.107
 1327SOL    HW1 4880   3.197   5.533   3.146
 1327SOL    HW2 4881   3.119   5.611   3.025
 1328SOL     OW 4882   1.847   2.157   6.643
 1328SOL    HW1 4883   1.930   2.170   6.588
 1328SOL    HW2 4884   1.805   2.246   6.661
 1329SOL     OW 4885   0.869   0.344   1.547
 1329SOL    HW1 4886   0.950   0.390   1.583
 1329SOL    HW2 4887   0.835   0.278   1.613
 1330SOL     OW 4888   5.965   6.678   1.169
 1330SOL    HW1 4889   5.962   6.763   1.117
 1330SOL    HW2 4890   6.059   6.646   1.177
 1331SOL     OW 4891   6.432   0.355   2.605
 1331SOL    HW1 4892   6.401   0.357   2.510
 1331SOL    HW2 4893   6.368   0.407   2.662
 1332SOL     OW 4894   4.680   1.600   1.287
 1332SOL    HW1 4895   4.714   1.518   1.333
 1332SOL    HW2 4896   4.647   1.665   1.355
 1333SOL     OW 4897   3.712   4.292   5.133
 1333SOL    HW1 4898   3.740   4.344   5.052
 1333SOL    HW2 4899   3.736   4.196   5.121
 1334SOL     OW 4900   0.944   4.230   3.752
 1334SOL    HW1 4901   0.848   4.202   3.755
 1334SOL    HW2 4902   0.961   4.283   3.669
 1335SOL     OW 4903   2.274   4.828   2.335
 1335SOL    HW1 4904   2.271   4.734   2.369
 1335SOL    HW2 4905   2.357   4.841   2.280
 1336SOL     OW 4906   0.659   0.308   5.041
 1336SOL    HW1 4907   0.631   0.303   5.137
 1336SOL    HW2 4908   0.751   0.346   5.034
 1337SOL     OW 4909   2.850   0.881   6.133
 1337SOL    HW1 4910   2.819   0.974   6.152
 1337SOL    HW2 4911   2.898   0.879   6.045
 1338SOL     OW 4912   3.430   5.903   0.374
 1338SOL    HW1 4913   3.492   5.880   0.299
 1338SOL    HW2 4914   3.385   5.990   0.354
 1339SOL     OW 4915   7.015   4.678   4.801
 1339SOL    HW1 4916   6.924   4.719   4.808
 1339SOL    HW2 4917   7.009   4.597   4.742
 1340SOL     OW 4918   2.393   1.485   6.225
 1340SOL    HW1 4919   2.298   1.472   6.197
 1340SOL    HW2 4920   2.399   1.562   6.290
 1341SOL     OW 4921   4.824   1.587   3.644
 1341SOL    HW1 4922   4.920   1.576   3.618
 1341SOL    HW2 4923   4.803   1.685   3.651
 1342SOL     OW 4924   0.565   5.968   1.169
 1342SOL    HW1 4925   0.472   6.004   1.176
 1342SOL    HW2 4926   0.564   5.869   1.185
 1343SOL     OW 4927   3.894   4.853   3.260
 1343SOL    HW1 4928   3.909   4.841   3.358
 1343SOL    HW2 4929   3.876   4.950   3.241
 1344SOL     OW 4930   5.971   1.345   2.482
 1344SOL    HW1 4931   5.950   1.312   2.389
 1344SOL    HW2 4932   5.936   1.280   2.549
 1345SOL     OW 4933   0.991   6.845   3.655
 1345SOL    HW1 4934   1.088   6.862   3.674
 1345SOL    HW2 4935   0.979   6.829   3.557
 1346SOL     OW 4936   0.070   0.773   4.285
 1346SOL    HW1 4937   0.038   0.805   4.195
 1346SOL    HW2 4938   0.130   0.694   4.273
 1347SOL     OW 4939   5.924   0.396   2.882
 1347SOL    HW1 4940   5.837   0.434   2.914
 1347SOL    HW2 4941   5.967   0.459   2.817
 1348SOL     OW 4942   4.255   5.425   4.382
 1348SOL    HW1 4943   4.164   5.436   4.421
 1348SOL    HW2 4944   4.296   5.516   4.368
 1349SOL     OW 4945   4.520   2.596   0.103
 1349SOL    HW1 4946   4.474   2.576   0.189
 1349SOL    HW2 4947   4.452   2.602   0.030
 1350SOL     OW 4948   3.333   6.903   5.479
 1350SOL    HW1 4949   3.329   6.891   5.578
 1350SOL    HW2 4950   3.331   7.001   5.458
 1351SOL     OW 4951   0.801   1.259   4.364
 1351SOL    HW1 4952   0.712   1.260   4.319
 1351SOL    HW2 4953   0.871   1.230   4.300
 1352SOL     OW 4954   0.207   6.910   3.817
 1352SOL    HW1 4955   0.169   6.841   3.879
 1352SOL    HW2 4956   0.307   6.903   3.817
 1353SOL     OW 4957   1.903   3.932   3.691
 1353SOL    HW1 4958   1.973   3.865   3.664
 1353SOL    HW2 4959   1.820   3.883   3.719
 1354SOL     OW 4960   0.241   0.104   1.390
 1354SOL    HW1 4961   0.173   0.069   1.326
 1354SOL    HW2 4962   0.196   0.127   1.477
 1355SOL     OW 4963   4.646   3.110   0.131
 1355SOL    HW1 4964   4.672   3.203   0.157
 1355SOL    HW2 4965   4.632   3.106   0.032
 1356SOL     OW 4966   3.192   3.998   1.804
 1356SOL    HW1 4967   3.235   3.924   1.753
 1356SOL    HW2 4968   3.097   4.008   1.775
 1357SOL     OW 4969   2.788   2.491   6.097
 1357SOL    HW1 4970   2.869   2.503   6.154
 1357SOL    HW2 4971   2.718   2.558   6.123
 1358SOL     OW 4972   2.769   2.876   5.879
 1358SOL    HW1 4973   2.806   2.953   5.828
 1358SOL    HW2 4974   2.670   2.888   5.891
 1359SOL     OW 4975   0.060   1.185   0.177
 1359SOL    HW1 4976   0.025   1.092   0.179
 1359SOL    HW2 4977   7.004   1.250   0.180
 1360SOL     OW 4978   2.902   3.557   3.842
 1360SOL    HW1 4979   2.910   3.506   3.928
 1360SOL    HW2 4980   2.896   3.493   3.766
 1361SOL     OW 4981   1.040   5.981   0.999
 1361SOL    HW1 4982   0.945   5.960   0.976
 1361SOL    HW2 4983   1.100   5.907   0.967
 1362SOL     OW 4984   3.072   2.783   6.426
 1362SOL    HW1 4985   3.100   2.847   6.354
 1362SOL    HW2 4986   3.144   2.713   6.437
 1363SOL     OW 4987   6.354   6.768   2.056
 1363SOL    HW1 4988   6.399   6.805   1.974
 1363SOL    HW2 4989   6.265   6.730   2.030
 1364SOL     OW 4990   0.715   3.551   0.944
 1364SOL    HW1 4991   0.812   3.524   0.947
 1364SOL    HW2 4992   0.699   3.622   1.013
 1365SOL     OW 4993   0.260   4.027   5.389
 1365SOL    HW1 4994   0.216   3.941   5.360
 1365SOL    HW2 4995   0.203   4.104   5.360
 1366SOL     OW 4996   5.310   0.464   1.244
 1366SOL    HW1 4997   5.233   0.452   1.182
 1366SOL    HW2 4998   5.392   0.422   1.203
 1367SOL     OW 4999   1.022   6.663   4.517
 1367SOL    HW1 5000   1.002   6.698   4.608
 1367SOL    HW2 5001   1.116   6.627   4.515
 1368SOL     OW 5002   1.262   6.386   5.323
 1368SOL    HW1 5003   1.241   6.311   5.386
 1368SOL    HW2 5004   1.250   6.474   5.370
 1369SOL     OW 5005   2.825   6.441   3.397
 1369SOL    HW1 5006   2.743   6.439   3.340
 1369SOL    HW2 5007   2.824   6.363   3.460
 1370SOL     OW 5008   6.950   2.174   2.168
 1370SOL    HW1 5009   6.930   2.119   2.087
 1370SOL    HW2 5010   6.866   2.215   2.202
 1371SOL     OW 5011   6.245   2.128   5.886
 1371SOL    HW1 5012   6.158   2.176   5.894
 1371SOL    HW2 5013   6.319   2.195   5.878
 1372SOL     OW 5014   6.401   3.175   0.752
 1372SOL    HW1 5015   6.304   3.152   0.754
 1372SOL    HW2 5016   6.456   3.093   0.737
 1373SOL     OW 5017   5.422   2.237   1.282
 1373SOL    HW1 5018   5.469   2.220   1.368
 1373SOL    HW2 5019   5.331   2.275   1.300
 1374SOL     OW 5020   4.097   3.852   0.829
 1374SOL    HW1 5021   4.103   3.800   0.914
 1374SOL    HW2 5022   4.070   3.947   0.849
 1375SOL     OW 5023   5.568   5.473   3.703
 1375SOL    HW1 5024   5.608   5.494   3.792
 1375SOL    HW2 5025   5.565   5.557   3.648
 1376SOL     OW 5026   2.879   4.718   5.957
 1376SOL    HW1 5027   2.964   4.768   5.975
 1376SOL    HW2 5028   2.886   4.670   5.870
 1377SOL     OW 5029   2.028   1.479   2.622
 1377SOL    HW1 5030   1.938   1.493   2.581
 1377SOL    HW2 5031   2.038   1.538   2.702
 1378SOL     OW 5032   5.038   2.652   4.375
 1378SOL    HW1 5033   5.076   2.566   4.410
 1378SOL    HW2 5034   5.030   2.646   4.276
 1379SOL     OW 5035   4.735   5.629   1.057
 1379SOL    HW1 5036   4.802   5.703   1.065
 1379SOL    HW2 5037   4.653   5.653   1.109
 1380SOL     OW 5038   7.006   5.923   2.229
 1380SOL    HW1 5039   6.969   5.988   2.295
 1380SOL    HW2 5040   7.016   5.968   2.140
 1381SOL     OW 5041   6.507   2.516   5.618
 1381SOL    HW1 5042   6.547   2.425   5.627
 1381SOL    HW2 5043   6.492   2.537   5.521
 1382SOL     OW 5044   4.891   2.781   6.994
 1382SOL    HW1 5045   4.898   2.872   0.016
 1382SOL    HW2 5046   4.892   2.712   0.047
 1383SOL     OW 5047   0.344   1.221   1.599
 1383SOL    HW1 5048   0.259   1.243   1.551
 1383SOL    HW2 5049   0.406   1.172   1.537
 1384SOL     OW 5050   5.990   1.738   1.771
 1384SOL    HW1 5051   5.891   1.729   1.784
 1384SOL    HW2 5052   6.037   1.709   1.854
 1385SOL     OW 5053   0.741   5.576   1.079
 1385SOL    HW1 5054   0.783   5.552   0.991
 1385SOL    HW2 5055   0.798   5.643   1.126
 1386SOL     OW 5056   1.841   5.609   4.086
 1386SOL    HW1 5057   1.877   5.524   4.123
 1386SOL    HW2 5058   1.915   5.662   4.044
 1387SOL     OW 5059   2.543   6.228   1.955
 1387SOL    HW1 5060   2.485   6.196   1.880
 1387SOL    HW2 5061   2.565   6.151   2.015
 1388SOL     OW 5062   6.853   0.877   1.810
 1388SOL    HW1 5063   6.820   0.881   1.904
 1388SOL    HW2 5064   6.834   0.964   1.765
 1389SOL     OW 5065   6.113   0.943   2.700
 1389SOL    HW1 5066   6.210   0.922   2.708
 1389SOL    HW2 5067   6.063   0.897   2.774
 1390SOL     OW 5068   1.673   1.714   5.819
 1390SOL    HW1 5069   1.622   1.679   5.897
 1390SOL    HW2 5070   1.769   1.726   5.845
 1391SOL     OW 5071   0.409   2.951   3.428
 1391SOL    HW1 5072   0.392   2.918   3.521
 1391SOL    HW2 5073   0.501   2.988   3.422
 1392SOL     OW 5074   4.799   4.837   5.169
 1392SOL    HW1 5075   4.710   4.830   5.213
 1392SOL    HW2 5076   4.825   4.747   5.133
 1393SOL     OW 5077   3.268   6.568   6.069
 1393SOL    HW1 5078   3.283   6.486   6.014
 1393SOL    HW2 5079   3.346   6.581   6.130
 1394SOL     OW 5080   1.633   6.074   6.222
 1394SOL    HW1 5081   1.703   6.146   6.220
 1394SOL    HW2 5082   1.556   6.104   6.279
 1395SOL     OW 5083   3.590   4.245   5.476
 1395SOL    HW1 5084   3.537   4.250   5.391
 1395SOL    HW2 5085   3.658   4.172   5.469
 1396SOL     OW 5086   5.403   5.650   3.876
 1396SOL    HW1 5087   5.497   5.663   3.907
 1396SOL    HW2 5088   5.391   5.695   3.787
 1397SOL     OW 5089   4.179   5.911   5.547
 1397SOL    HW1 5090   4.160   6.002   5.511
 1397SOL    HW2 5091   4.228   5.857   5.477
 1398SOL     OW 5092   2.104   1.478   4.320
 1398SOL    HW1 5093   2.202   1.457   4.321
 1398SOL    HW2 5094   2.057   1.419   4.386
 1399SOL     OW 5095   3.035   6.588   1.353
 1399SOL    HW1 5096   2.977   6.511   1.378
 1399SOL    HW2 5097   2.987   6.674   1.369
 1400SOL     OW 5098   1.251   6.598   2.141
 1400SOL    HW1 5099   1.217   6.555   2.225
 1400SOL    HW2 5100   1.261   6.696   2.156
 1401SOL     OW 5101   6.586   1.370   4.885
 1401SOL    HW1 5102   6.578   1.270   4.892
 1401SOL    HW2 5103   6.568   1.398   4.791
 1402SOL     OW 5104   6.978   3.261   0.644
 1402SOL    HW1 5105   0.008   3.196   0.586
 1402SOL    HW2 5106   6.916   3.314   0.587
 1403SOL     OW 5107   2.659   1.247   2.392
 1403SOL    HW1 5108   2.602   1.296   2.326
 1403SOL    HW2 5109   2.672   1.153   2.361
 1404SOL     OW 5110   5.449   0.845   0.239
 1404SOL    HW1 5111   5.536   0.823   0.282
 1404SOL    HW2 5112   5.464   0.869   0.143
 1405SOL     OW 5113   2.364   3.759   1.005
 1405SOL    HW1 5114   2.394   3.682   0.948
 1405SOL    HW2 5115   2.328   3.725   1.091
 1406SOL     OW 5116   1.355   4.412   0.945
 1406SOL    HW1 5117   1.422   4.458   0.887
 1406SOL    HW2 5118   1.266   4.454   0.932
 1407SOL     OW 5119   6.360   2.229   2.760
 1407SOL    HW1 5120   6.419   2.269   2.831
 1407SOL    HW2 5121   6.394   2.256   2.670
 1408SOL     OW 5122   6.621   0.676   6.979
 1408SOL    HW1 5123   6.572   0.618   6.914
 1408SOL    HW2 5124   6.645   0.762   6.935
 1409SOL     OW 5125   0.555   1.188   4.306
 1409SOL    HW1 5126   0.559   1.114   4.239
 1409SOL    HW2 5127   0.477   1.173   4.368
 1410SOL     OW 5128   0.688   2.713   6.816
 1410SOL    HW1 5129   0.706   2.626   6.771
 1410SOL    HW2 5130   0.680   2.700   6.915
 1411SOL     OW 5131   2.144   6.840   1.327
 1411SOL    HW1 5132   2.106   6.886   1.407
 1411SOL    HW2 5133   2.231   6.883   1.302
 1412SOL     OW 5134   1.391   2.901   0.020
 1412SOL    HW1 5135   1.293   2.905   0.002
 1412SOL    HW2 5136   1.428   2.817   7.000
 1413SOL     OW 5137   2.584   0.400   4.165
 1413SOL    HW1 5138   2.521   0.326   4.187
 1413SOL    HW2 5139   2.638   0.375   4.085
 1414SOL     OW 5140   1.955   1.664   1.927
 1414SOL    HW1 5141   1.902   1.746   1.945
 1414SOL    HW2 5142   1.908   1.608   1.858
 1415SOL     OW 5143   4.206   6.223   5.850
 1415SOL    HW1 5144   4.222   6.138   5.800
 1415SOL    HW2 5145   4.222   6.209   5.947
 1416SOL     OW 5146   4.412   5.498   1.765
 1416SOL    HW1 5147   4.346   5.456   1.827
 1416SOL    HW2 5148   4.486   5.433   1.746
 1417SOL     OW 5149   3.215   1.768   5.678
 1417SOL    HW1 5150   3.238   1.864   5.670
 1417SOL    HW2 5151   3.267   1.727   5.754
 1418SOL     OW 5152   3.703   3.967   2.506
 1418SOL    HW1 5153   3.617   4.013   2.528
 1418SOL    HW2 5154   3.708   3.949   2.408
 1419SOL     OW 5155   4.479   6.719   4.844
 1419SOL    HW1 5156   4.545   6.774   4.894
 1419SOL    HW2 5157   4.481   6.625   4.878
 1420SOL     OW 5158   0.821   5.862   2.318
 1420SOL    HW1 5159   0.824   5.797   2.242
 1420SOL    HW2 5160   0.912   5.870   2.358
 1421SOL     OW 5161   3.184   1.168   2.591
 1421SOL    HW1 5162   3.185   1.212   2.501
 1421SOL    HW2 5163   3.089   1.151   2.619
 1422SOL     OW 5164   2.838   6.022   0.004
 1422SOL    HW1 5165   2.832   6.092   6.952
 1422SOL    HW2 5166   2.828   6.065   0.094
 1423SOL     OW 5167   4.764   6.894   2.868
 1423SOL    HW1 5168   4.824   6.939   2.935
 1423SOL    HW2 5169   4.796   6.915   2.776
 1424SOL     OW 5170   6.547   5.011   4.621
 1424SOL    HW1 5171   6.482   4.992   4.694
 1424SOL    HW2 5172   6.608   5.086   4.649
 1425SOL     OW 5173   2.410   6.786   4.111
 1425SOL    HW1 5174   2.317   6.798   4.146
 1425SOL    HW2 5175   2.419   6.833   4.023
 1426SOL     OW 5176   1.314   1.595   5.555
 1426SOL    HW1 5177   1.229   1.590   5.608
 1426SOL    HW2 5178   1.383   1.536   5.598
 1427SOL     OW 5179   6.144   0.670   4.428
 1427SOL    HW1 5180   6.076   0.675   4.501
 1427SOL    HW2 5181   6.109   0.716   4.346
 1428SOL     OW 5182   5.407   1.545   6.566
 1428SOL    HW1 5183   5.502   1.577   6.561
 1428SOL    HW2 5184   5.350   1.616   6.605
 1429SOL     OW 5185   6.798   0.848   0.681
 1429SOL    HW1 5186   6.840   0.760   0.659
 1429SOL    HW2 5187   6.698   0.838   0.683
 1430SOL     OW 5188   1.929   5.028   3.763
 1430SOL    HW1 5189   1.970   4.970   3.693
 1430SOL    HW2 5190   1.885   5.107   3.721
 1431SOL     OW 5191   1.750   0.785   0.710
 1431SOL    HW1 5192   1.723   0.704   0.761
 1431SOL    HW2 5193   1.751   0.864   0.771
 1432SOL     OW 5194   2.035   1.301   2.220
 1432SOL    HW1 5195   2.091   1.379   2.246
 1432SOL    HW2 5196   1.962   1.287   2.287
 1433SOL     OW 5197   4.370   1.065   4.370
 1433SOL    HW1 5198   4.444   1.060   4.436
 1433SOL    HW2 5199   4.406   1.057   4.277
 1434SOL     OW 5200   1.042   0.292   5.567
 1434SOL    HW1 5201   1.056   0.273   5.470
 1434SOL    HW2 5202   0.954   0.254   5.596
 1435SOL     OW 5203   6.489   1.734   2.912
 1435SOL    HW1 5204   6.533   1.651   2.945
 1435SOL    HW2 5205   6.391   1.730   2.931
 1436SOL     OW 5206   4.301   3.542   1.104
 1436SOL    HW1 5207   4.280   3.604   1.029
 1436SOL    HW2 5208   4.364   3.586   1.168
 1437SOL     OW 5209   3.730   1.025   2.187
 1437SOL    HW1 5210   3.709   0.999   2.281
 1437SOL    HW2 5211   3.824   1.000   2.165
 1438SOL     OW 5212   2.643   0.070   0.934
 1438SOL    HW1 5213   2.573   7.018   0.941
 1438SOL    HW2 5214   2.679   0.071   0.841
 1439SOL     OW 5215   0.362   5.722   2.870
 1439SOL    HW1 5216   0.448   5.769   2.894
 1439SOL    HW2 5217   0.298   5.730   2.946
 1440SOL     OW 5218   2.866   3.576   1.815
 1440SOL    HW1 5219   2.800   3.547   1.746
 1440SOL    HW2 5220   2.899   3.497   1.866
 1441SOL     OW 5221   5.614   6.484   1.035
 1441SOL    HW1 5222   5.603   6.575   0.996
 1441SOL    HW2 5223   5.678   6.488   1.112
 1442SOL     OW 5224   5.939   5.529   0.946
 1442SOL    HW1 5225   5.902   5.453   0.892
 1442SOL    HW2 5226   5.937   5.613   0.892
 1443SOL     OW 5227   0.561   2.746   2.809
 1443SOL    HW1 5228   0.544   2.818   2.742
 1443SOL    HW2 5229   0.478   2.690   2.818
 1444SOL     OW 5230   5.956   5.223   6.869
 1444SOL    HW1 5231   5.888   5.220   6.943
 1444SOL    HW2 5232   6.016   5.143   6.877
 1445SOL     OW 5233   1.385   3.256   2.094
 1445SOL    HW1 5234   1.410   3.306   2.012
 1445SOL    HW2 5235   1.465   3.208   2.130
 1446SOL     OW 5236   0.145   0.251   6.962
 1446SOL    HW1 5237   0.240   0.247   6.995
 1446SOL    HW2 5238   0.084   0.267   0.019
 1447SOL     OW 5239   6.039   5.335   4.627
 1447SOL    HW1 5240   6.111   5.268   4.609
 1447SOL    HW2 5241   6.068   5.425   4.596
 1448SOL     OW 5242   1.231   3.064   5.493
 1448SOL    HW1 5243   1.259   2.974   5.528
 1448SOL    HW2 5244   1.161   3.103   5.553
 1449SOL     OW 5245   1.981   3.596   3.845
 1449SOL    HW1 5246   1.957   3.514   3.897
 1449SOL    HW2 5247   1.939   3.592   3.755
 1450SOL     OW 5248   2.230   2.963   4.201
 1450SOL    HW1 5249   2.296   2.902   4.158
 1450SOL    HW2 5250   2.186   2.915   4.278
 1451SOL     OW 5251   2.298   0.490   1.811
 1451SOL    HW1 5252   2.383   0.455   1.853
 1451SOL    HW2 5253   2.232   0.511   1.884
 1452SOL     OW 5254   5.084   3.117   5.952
 1452SOL    HW1 5255   5.013   3.072   5.898
 1452SOL    HW2 5256   5.043   3.184   6.013
 1453SOL     OW 5257   6.977   5.089   5.076
 1453SOL    HW1 5258   0.018   5.050   5.145
 1453SOL    HW2 5259   6.951   5.182   5.103
 1454SOL     OW 5260   3.746   2.147   3.832
 1454SOL    HW1 5261   3.846   2.151   3.826
 1454SOL    HW2 5262   3.720   2.085   3.906
 1455SOL     OW 5263   0.660   5.915   1.561
 1455SOL    HW1 5264   0.688   5.836   1.506
 1455SOL    HW2 5265   0.668   5.893   1.658
 1456SOL     OW 5266   6.253   4.987   4.711
 1456SOL    HW1 5267   6.275   4.897   4.672
 1456SOL    HW2 5268   6.233   5.051   4.638
 1457SOL     OW 5269   1.057   4.313   6.361
 1457SOL    HW1 5270   1.026   4.307   6.456
 1457SOL    HW2 5271   1.051   4.407   6.330
 1458SOL     OW 5272   4.944   5.375   5.528
 1458SOL    HW1 5273   4.915   5.466   5.560
 1458SOL    HW2 5274   5.035   5.382   5.487
 1459SOL     OW 5275   5.078   6.433   4.950
 1459SOL    HW1 5276   4.983   6.440   4.979
 1459SOL    HW2 5277   5.130   6.510   4.989
 1460SOL     OW 5278   1.156   6.219   5.529
 1460SOL    HW1 5279   1.130   6.263   5.615
 1460SOL    HW2 5280   1.171   6.121   5.545
 1461SOL     OW 5281   6.838   3.139   3.249
 1461SOL    HW1 5282   6.920   3.087   3.271
 1461SOL    HW2 5283   6.819   3.203   3.323
 1462SOL     OW 5284   0.670   0.557   1.657
 1462SOL    HW1 5285   0.757   0.556   1.607
 1462SOL    HW2 5286   0.607   0.620   1.613
 1463SOL     OW 5287   1.853   5.507   0.307
 1463SOL    HW1 5288   1.874   5.500   0.404
 1463SOL    HW2 5289   1.758   5.538   0.296
 1464SOL     OW 5290   0.962   4.546   3.676
 1464SOL    HW1 5291   1.056   4.538   3.641
 1464SOL    HW2 5292   0.961   4.610   3.752
 1465SOL     OW 5293   0.965   2.561   3.544
 1465SOL    HW1 5294   0.918   2.627   3.602
 1465SOL    HW2 5295   1.009   2.491   3.601
 1466SOL     OW 5296   4.797   2.258   1.893
 1466SOL    HW1 5297   4.780   2.311   1.810
 1466SOL    HW2 5298   4.861   2.309   1.952
 1467SOL     OW 5299   1.287   1.368   4.421
 1467SOL    HW1 5300   1.206   1.426   4.419
 1467SOL    HW2 5301   1.266   1.283   4.469
 1468SOL     OW 5302   2.521   5.805   2.770
 1468SOL    HW1 5303   2.490   5.713   2.794
 1468SOL    HW2 5304   2.444   5.868   2.775
 1469SOL     OW 5305   6.486   4.074   3.036
 1469SOL    HW1 5306   6.479   3.981   2.998
 1469SOL    HW2 5307   6.441   4.139   2.975
 1470SOL     OW 5308   6.482   1.902   1.029
 1470SOL    HW1 5309   6.569   1.941   1.058
 1470SOL    HW2 5310   6.494   1.856   0.941
 1471SOL     OW 5311   5.318   6.606   1.834
 1471SOL    HW1 5312   5.400   6.619   1.778
 1471SOL    HW2 5313   5.276   6.518   1.812
 1472SOL     OW 5314   1.710   6.728   6.232
 1472SOL    HW1 5315   1.616   6.713   6.262
 1472SOL    HW2 5316   1.762   6.643   6.240
 1473SOL     OW 5317   2.082   5.714   3.933
 1473SOL    HW1 5318   2.149   5.685   4.002
 1473SOL    HW2 5319   2.049   5.634   3.883
 1474SOL     OW 5320   3.321   4.918   1.452
 1474SOL    HW1 5321   3.360   4.897   1.541
 1474SOL    HW2 5322   3.241   4.861   1.436
 1475SOL     OW 5323   5.098   0.286   0.219
 1475SOL    HW1 5324   5.160   0.279   0.140
 1475SOL    HW2 5325   5.124   0.366   0.274
 1476SOL     OW 5326   5.047   0.353   1.558
 1476SOL    HW1 5327   4.958   0.315   1.534
 1476SOL    HW2 5328   5.058   0.442   1.513
 1477SOL     OW 5329   3.675   4.822   1.509
 1477SOL    HW1 5330   3.684   4.860   1.417
 1477SOL    HW2 5331   3.618   4.882   1.565
 1478SOL     OW 5332   5.249   5.488   6.312
 1478SOL    HW1 5333   5.347   5.474   6.300
 1478SOL    HW2 5334   5.216   5.553   6.243
 1479SOL     OW 5335   4.033   3.728   1.054
 1479SOL    HW1 5336   3.946   3.693   1.019
 1479SOL    HW2 5337   4.016   3.776   1.140
 1480SOL     OW 5338   3.408   0.377   4.824
 1480SOL    HW1 5339   3.379   0.301   4.882
 1480SOL    HW2 5340   3.329   0.414   4.776
 1481SOL     OW 5341   5.190   2.744   6.200
 1481SOL    HW1 5342   5.142   2.742   6.112
 1481SOL    HW2 5343   5.271   2.803   6.192
 1482SOL     OW 5344   4.804   1.253   0.709
 1482SOL    HW1 5345   4.799   1.322   0.781
 1482SOL    HW2 5346   4.899   1.245   0.678
 1483SOL     OW 5347   5.700   1.673   5.831
 1483SOL    HW1 5348   5.703   1.577   5.856
 1483SOL    HW2 5349   5.634   1.721   5.888
 1484SOL     OW 5350   3.354   5.770   4.890
 1484SOL    HW1 5351   3.436   5.723   4.922
 1484SOL    HW2 5352   3.379   5.859   4.852
 1485SOL     OW 5353   5.292   2.241   2.948
 1485SOL    HW1 5354   5.384   2.280   2.960
 1485SOL    HW2 5355   5.227   2.315   2.931
 1486SOL     OW 5356   4.870   0.010   3.806
 1486SOL    HW1 5357   4.797   0.079   3.796
 1486SOL    HW2 5358   4.879   6.980   3.720
 1487SOL     OW 5359   6.772   0.472   1.181
 1487SOL    HW1 5360   6.772   0.440   1.086
 1487SOL    HW2 5361   6.859   0.446   1.223
 1488SOL     OW 5362   6.216   1.281   2.616
 1488SOL    HW1 5363   6.144   1.316   2.555
 1488SOL    HW2 5364   6.248   1.355   2.675
 1489SOL     OW 5365   3.514   4.222   0.227
 1489SOL    HW1 5366   3.464   4.280   0.290
 1489SOL    HW2 5367   3.612   4.242   0.233
 1490SOL     OW 5368   6.723   2.275   2.271
 1490SOL    HW1 5369   6.735   2.273   2.370
 1490SOL    HW2 5370   6.631   2.241   2.249
 1491SOL     OW 5371   6.435   2.515   3.474
 1491SOL    HW1 5372   6.476   2.485   3.560
 1491SOL    HW2 5373   6.456   2.612   3.459
 1492SOL     OW 5374   5.879   1.149   3.361
 1492SOL    HW1 5375   5.965   1.111   3.328
 1492SOL    HW2 5376   5.828   1.188   3.284
 1493SOL     OW 5377   4.408   2.546   5.777
 1493SOL    HW1 5378   4.405   2.457   5.823
 1493SOL    HW2 5379   4.339   2.606   5.816
 1494SOL     OW 5380   6.397   4.281   5.498
 1494SOL    HW1 5381   6.457   4.223   5.444
 1494SOL    HW2 5382   6.302   4.265   5.472
 1495SOL     OW 5383   6.637   3.948   4.349
 1495SOL    HW1 5384   6.708   4.002   4.302
 1495SOL    HW2 5385   6.678   3.898   4.425
 1496SOL     OW 5386   6.549   5.235   6.200
 1496SOL    HW1 5387   6.521   5.282   6.116
 1496SOL    HW2 5388   6.646   5.252   6.217
 1497SOL     OW 5389   5.669   2.746   2.852
 1497SOL    HW1 5390   5.769   2.748   2.856
 1497SOL    HW2 5391   5.632   2.761   2.944
 1498SOL     OW 5392   3.343   3.933   0.509
 1498SOL    HW1 5393   3.437   3.964   0.525
 1498SOL    HW2 5394   3.328   3.847   0.557
 1499SOL     OW 5395   0.686   4.263   5.186
 1499SOL    HW1 5396   0.735   4.176   5.182
 1499SOL    HW2 5397   0.630   4.266   5.269
 1500SOL     OW 5398   1.096   5.732   1.701
 1500SOL    HW1 5399   1.094   5.658   1.634
 1500SOL    HW2 5400   1.186   5.774   1.702
 1501SOL     OW 5401   5.878   2.411   0.427
 1501SOL    HW1 5402   5.920   2.479   0.368
 1501SOL    HW2 5403   5.779   2.409   0.410
 1502SOL     OW 5404   6.579   0.289   6.372
 1502SOL    HW1 5405   6.671   0.300   6.411
 1502SOL    HW2 5406   6.527   0.223   6.426
 1503SOL     OW 5407   6.949   4.942   2.067
 1503SOL    HW1 5408   0.017   4.968   2.106
 1503SOL    HW2 5409   6.892   5.023   2.055
 1504SOL     OW 5410   0.745   0.310   2.417
 1504SOL    HW1 5411   0.818   0.242   2.415
 1504SOL    HW2 5412   0.734   0.350   2.326
 1505SOL     OW 5413   4.863   6.155   5.170
 1505SOL    HW1 5414   4.840   6.249   5.148
 1505SOL    HW2 5415   4.893   6.107   5.088
 1506SOL     OW 5416   0.491   1.758   1.150
 1506SOL    HW1 5417   0.551   1.680   1.131
 1506SOL    HW2 5418   0.528   1.840   1.105
 1507SOL     OW 5419   1.228   3.106   4.510
 1507SOL    HW1 5420   1.140   3.068   4.481
 1507SOL    HW2 5421   1.242   3.086   4.607
 1508SOL     OW 5422   1.168   0.636   0.990
 1508SOL    HW1 5423   1.160   0.715   1.050
 1508SOL    HW2 5424   1.097   0.640   0.920
 1509SOL     OW 5425   5.207   0.564   4.147
 1509SOL    HW1 5426   5.231   0.623   4.070
 1509SOL    HW2 5427   5.133   0.606   4.199
 1510SOL     OW 5428   3.868   5.628   4.305
 1510SOL    HW1 5429   3.895   5.534   4.323
 1510SOL    HW2 5430   3.813   5.662   4.381
 1511SOL     OW 5431   3.419   3.596   4.390
 1511SOL    HW1 5432   3.374   3.523   4.441
 1511SOL    HW2 5433   3.358   3.630   4.318
 1512SOL     OW 5434   6.078   6.091   0.753
 1512SOL    HW1 5435   6.120   6.171   0.709
 1512SOL    HW2 5436   6.140   6.055   0.823
 1513SOL     OW 5437   3.177   6.937   6.199
 1513SOL    HW1 5438   3.188   7.006   6.271
 1513SOL    HW2 5439   3.100   6.962   6.141
 1514SOL     OW 5440   3.057   2.494   5.632
 1514SOL    HW1 5441   3.106   2.559   5.691
 1514SOL    HW2 5442   3.080   2.513   5.536
 1515SOL     OW 5443   5.364   1.835   1.982
 1515SOL    HW1 5444   5.367   1.755   1.922
 1515SOL    HW2 5445   5.351   1.917   1.927
 1516SOL     OW 5446   6.197   6.985   5.150
 1516SOL    HW1 5447   6.124   6.974   5.082
 1516SOL    HW2 5448   6.185   6.917   5.223
 1517SOL     OW 5449   3.913   6.135   3.535
 1517SOL    HW1 5450   3.957   6.056   3.579
 1517SOL    HW2 5451   3.960   6.219   3.561
 1518SOL     OW 5452   0.739   2.726   0.077
 1518SOL    HW1 5453   0.783   2.816   0.077
 1518SOL    HW2 5454   0.806   2.656   0.051
 1519SOL     OW 5455   6.978   4.596   6.478
 1519SOL    HW1 5456   6.949   4.536   6.403
 1519SOL    HW2 5457   0.040   4.647   6.450
 1520SOL     OW 5458   0.297   5.694   2.439
 1520SOL    HW1 5459   0.370   5.760   2.419
 1520SOL    HW2 5460   0.321   5.641   2.521
 1521SOL     OW 5461   1.962   5.196   6.000
 1521SOL    HW1 5462   1.932   5.134   6.072
 1521SOL    HW2 5463   2.061   5.194   5.993
 1522SOL     OW 5464   4.824   6.058   4.129
 1522SOL    HW1 5465   4.835   5.994   4.054
 1522SOL    HW2 5466   4.771   6.015   4.202
 1523SOL     OW 5467   4.029   6.402   0.306
 1523SOL    HW1 5468   3.960   6.335   0.331
 1523SOL    HW2 5469   3.997   6.454   0.226
 1524SOL     OW 5470   2.130   1.977   2.777
 1524SOL    HW1 5471   2.062   2.038   2.737
 1524SOL    HW2 5472   2.155   1.907   2.711
 1525SOL     OW 5473   5.335   2.813   6.659
 1525SOL    HW1 5474   5.425   2.815   6.614
 1525SOL    HW2 5475   5.304   2.718   6.666
 1526SOL     OW 5476   0.863   1.160   7.020
 1526SOL    HW1 5477   0.827   1.252   7.005
 1526SOL    HW2 5478   0.881   1.146   0.097
 1527SOL     OW 5479   3.748   1.173   3.822
 1527SOL    HW1 5480   3.702   1.130   3.900
 1527SOL    HW2 5481   3.801   1.104   3.773
 1528SOL     OW 5482   4.255   3.858   1.533
 1528SOL    HW1 5483   4.160   3.831   1.552
 1528SOL    HW2 5484   4.317   3.790   1.573
 1529SOL     OW 5485   4.964   1.212   5.734
 1529SOL    HW1 5486   5.047   1.262   5.758
 1529SOL    HW2 5487   4.931   1.160   5.813
 1530SOL     OW 5488   3.565   6.104   1.314
 1530SOL    HW1 5489   3.521   6.186   1.277
 1530SOL    HW2 5490   3.548   6.026   1.253
 1531SOL     OW 5491   3.795   6.673   3.809
 1531SOL    HW1 5492   3.855   6.752   3.823
 1531SOL    HW2 5493   3.845   6.589   3.833
 1532SOL     OW 5494   2.817   5.795   6.240
 1532SOL    HW1 5495   2.739   5.779   6.300
 1532SOL    HW2 5496   2.784   5.811   6.147
 1533SOL     OW 5497   6.041   5.001   1.423
 1533SOL    HW1 5498   6.086   5.087   1.447
 1533SOL    HW2 5499   5.999   5.010   1.332
 1534SOL     OW 5500   3.432   5.840   6.124
 1534SOL    HW1 5501   3.433   5.909   6.052
 1534SOL    HW2 5502   3.346   5.848   6.175
 1535SOL     OW 5503   5.979   6.065   4.227
 1535SOL    HW1 5504   6.076   6.087   4.228
 1535SOL    HW2 5505   5.928   6.141   4.185
 1536SOL     OW 5506   4.447   3.716   6.231
 1536SOL    HW1 5507   4.470   3.802   6.185
 1536SOL    HW2 5508   4.411   3.651   6.164
 1537SOL     OW 5509   3.432   5.274   3.446
 1537SOL    HW1 5510   3.522   5.232   3.463
 1537SOL    HW2 5511   3.368   5.205   3.412
 1538SOL     OW 5512   3.339   1.650   6.711
 1538SOL    HW1 5513   3.278   1.667   6.788
 1538SOL    HW2 5514   3.434   1.660   6.740
 1539SOL     OW 5515   5.932   3.475   0.526
 1539SOL    HW1 5516   5.928   3.386   0.570
 1539SOL    HW2 5517   5.858   3.483   0.459
 1540SOL     OW 5518   3.507   6.697   4.638
 1540SOL    HW1 5519   3.433   6.699   4.571
 1540SOL    HW2 5520   3.509   6.607   4.683
 1541SOL     OW 5521   3.567   3.171   4.895
 1541SOL    HW1 5522   3.468   3.167   4.883
 1541SOL    HW2 5523   3.605   3.239   4.832
 1542SOL     OW 5524   6.911   0.318   2.737
 1542SOL    HW1 5525   6.961   0.278   2.814
 1542SOL    HW2 5526   6.823   0.352   2.768
 1543SOL     OW 5527   2.506   4.692   0.104
 1543SOL    HW1 5528   2.548   4.614   0.151
 1543SOL    HW2 5529   2.573   4.765   0.095
 1544SOL     OW 5530   3.682   3.443   4.498
 1544SOL    HW1 5531   3.697   3.405   4.407
 1544SOL    HW2 5532   3.634   3.530   4.491
 1545SOL     OW 5533   6.197   6.571   2.251
 1545SOL    HW1 5534   6.241   6.481   2.248
 1545SOL    HW2 5535   6.125   6.574   2.182
 1546SOL     OW 5536   5.352   6.511   5.839
 1546SOL    HW1 5537   5.427   6.553   5.789
 1546SOL    HW2 5538   5.372   6.511   5.937
 1547SOL     OW 5539   1.881   3.405   6.936
 1547SOL    HW1 5540   1.818   3.394   7.013
 1547SOL    HW2 5541   1.925   3.495   6.941
 1548SOL     OW 5542   6.454   2.298   6.466
 1548SOL    HW1 5543   6.457   2.351   6.381
 1548SOL    HW2 5544   6.546   2.294   6.505
 1549SOL     OW 5545   4.789   0.466   5.104
 1549SOL    HW1 5546   4.769   0.395   5.171
 1549SOL    HW2 5547   4.773   0.430   5.012
 1550SOL     OW 5548   3.708   2.923   3.413
 1550SOL    HW1 5549   3.744   2.881   3.329
 1550SOL    HW2 5550   3.612   2.897   3.424
 1551SOL     OW 5551   6.489   4.519   6.091
 1551SOL    HW1 5552   6.416   4.486   6.152
 1551SOL    HW2 5553   6.530   4.601   6.130
 1552SOL     OW 5554   1.374   4.059   1.784
 1552SOL    HW1 5555   1.362   4.105   1.872
 1552SOL    HW2 5556   1.349   4.121   1.710
 1553SOL     OW 5557   1.171   1.531   6.004
 1553SOL    HW1 5558   1.244   1.599   6.001
 1553SOL    HW2 5559   1.208   1.442   5.976
 1554SOL     OW 5560   2.924   1.284   3.805
 1554SOL    HW1 5561   2.983   1.364   3.817
 1554SOL    HW2 5562   2.863   1.276   3.883
 1555SOL     OW 5563   6.520   3.866   6.379
 1555SOL    HW1 5564   6.588   3.825   6.318
 1555SOL    HW2 5565   6.537   3.964   6.387
 1556SOL     OW 5566   2.527   0.926   5.909
 1556SOL    HW1 5567   2.546   0.828   5.909
 1556SOL    HW2 5568   2.485   0.952   5.822
 1557SOL     OW 5569   0.219   2.857   6.564
 1557SOL    HW1 5570   0.142   2.838   6.625
 1557SOL    HW2 5571   0.302   2.867   6.617
 1558SOL     OW 5572   6.924   0.008   4.971
 1558SOL    HW1 5573   6.907   6.965   5.046
 1558SOL    HW2 5574   7.012   7.007   4.928
 1559SOL     OW 5575   1.206   2.015   6.526
 1559SOL    HW1 5576   1.209   2.072   6.444
 1559SOL    HW2 5577   1.291   2.027   6.578
 1560SOL     OW 5578   0.035   0.834   6.868
 1560SOL    HW1 5579   0.047   0.933   6.882
 1560SOL    HW2 5580   7.000   0.819   6.787
 1561SOL     OW 5581   5.749   5.899   2.794
 1561SOL    HW1 5582   5.703   5.816   2.826
 1561SOL    HW2 5583   5.698   5.938   2.718
 1562SOL     OW 5584   5.282   1.335   3.618
 1562SOL    HW1 5585   5.310   1.431   3.621
 1562SOL    HW2 5586   5.225   1.320   3.537
 1563SOL     OW 5587   4.092   0.265   5.215
 1563SOL    HW1 5588   4.129   0.230   5.301
 1563SOL    HW2 5589   4.166   0.304   5.161
 1564SOL     OW 5590   1.734   1.980   2.480
 1564SOL    HW1 5591   1.644   1.991   2.522
 1564SOL    HW2 5592   1.764   1.885   2.487
 1565SOL     OW 5593   5.326   4.093   2.027
 1565SOL    HW1 5594   5.380   4.078   2.110
 1565SOL    HW2 5595   5.317   4.191   2.011
 1566SOL     OW 5596   5.948   4.312   3.401
 1566SOL    HW1 5597   6.013   4.237   3.410
 1566SOL    HW2 5598   5.996   4.399   3.404
 1567SOL     OW 5599   6.625   5.659   5.733
 1567SOL    HW1 5600   6.536   5.615   5.719
 1567SOL    HW2 5601   6.680   5.604   5.795
 1568SOL     OW 5602   0.279   6.868   0.867
 1568SOL    HW1 5603   0.331   6.867   0.782
 1568SOL    HW2 5604   0.335   6.829   0.941
 1569SOL     OW 5605   3.709   5.928   4.943
 1569SOL    HW1 5606   3.653   6.001   4.983
 1569SOL    HW2 5607   3.719   5.854   5.008
 1570SOL     OW 5608   3.809   2.074   1.624
 1570SOL    HW1 5609   3.763   2.026   1.699
 1570SOL    HW2 5610   3.859   2.008   1.568
 1571SOL     OW 5611   6.364   4.579   1.546
 1571SOL    HW1 5612   6.366   4.677   1.524
 1571SOL    HW2 5613   6.280   4.539   1.510
 1572SOL     OW 5614   1.747   6.122   2.144
 1572SOL    HW1 5615   1.716   6.175   2.223
 1572SOL    HW2 5616   1.722   6.170   2.060
 1573SOL     OW 5617   4.025   0.338   1.112
 1573SOL    HW1 5618   3.931   0.368   1.127
 1573SOL    HW2 5619   4.025   0.251   1.064
 1574SOL     OW 5620   6.214   2.700   2.357
 1574SOL    HW1 5621   6.161   2.659   2.432
 1574SOL    HW2 5622   6.153   2.750   2.296
 1575SOL     OW 5623   2.362   2.934   0.607
 1575SOL    HW1 5624   2.271   2.974   0.595
 1575SOL    HW2 5625   2.380   2.918   0.704
 1576SOL     OW 5626   6.674   6.081   4.125
 1576SOL    HW1 5627   6.676   6.123   4.034
 1576SOL    HW2 5628   6.753   6.022   4.136
 1577SOL     OW 5629   2.119   0.415   0.280
 1577SOL    HW1 5630   2.121   0.419   0.180
 1577SOL    HW2 5631   2.170   0.493   0.317
 1578SOL     OW 5632   5.423   5.214   5.118
 1578SOL    HW1 5633   5.370   5.252   5.043
 1578SOL    HW2 5634   5.517   5.249   5.113
 1579SOL     OW 5635   0.685   0.186   3.829
 1579SOL    HW1 5636   0.612   0.163   3.893
 1579SOL    HW2 5637   0.705   0.284   3.836
 1580SOL     OW 5638   3.167   4.089   5.560
 1580SOL    HW1 5639   3.124   4.022   5.500
 1580SOL    HW2 5640   3.243   4.046   5.610
 1581SOL     OW 5641   6.883   3.674   4.290
 1581SOL    HW1 5642   6.882   3.746   4.360
 1581SOL    HW2 5643   6.798   3.622   4.296
 1582SOL     OW 5644   6.118   5.342   4.178
 1582SOL    HW1 5645   6.169   5.401   4.116
 1582SOL    HW2 5646   6.070   5.398   4.245
 1583SOL     OW 5647   1.781   2.510   3.034
 1583SOL    HW1 5648   1.869   2.463   3.030
 1583SOL    HW2 5649   1.755   2.539   2.942
 1584SOL     OW 5650   2.704   0.196   6.897
 1584SOL    HW1 5651   2.680   0.224   6.804
 1584SOL    HW2 5652   2.794   0.232   6.921
 1585SOL     OW 5653   5.403   2.093   5.575
 1585SOL    HW1 5654   5.448   2.123   5.660
 1585SOL    HW2 5655   5.472   2.057   5.512
 1586SOL     OW 5656   3.840   4.026   2.795
 1586SOL    HW1 5657   3.823   3.981   2.707
 1586SOL    HW2 5658   3.820   4.124   2.786
 1587SOL     OW 5659   2.330   5.912   6.969
 1587SOL    HW1 5660   2.406   5.850   6.990
 1587SOL    HW2 5661   2.357   5.973   6.894
 1588SOL     OW 5662   5.822   3.706   1.974
 1588SOL    HW1 5663   5.805   3.687   2.070
 1588SOL    HW2 5664   5.839   3.804   1.962
 1589SOL     OW 5665   5.493   3.818   3.704
 1589SOL    HW1 5666   5.440   3.870   3.636
 1589SOL    HW2 5667   5.433   3.794   3.780
 1590SOL     OW 5668   2.411   0.578   5.704
 1590SOL    HW1 5669   2.468   0.660   5.704
 1590SOL    HW2 5670   2.343   0.585   5.778
 1591SOL     OW 5671   0.617   4.842   1.340
 1591SOL    HW1 5672   0.632   4.768   1.406
 1591SOL    HW2 5673   0.690   4.910   1.349
 1592SOL     OW 5674   3.267   3.271   2.463
 1592SOL    HW1 5675   3.192   3.226   2.511
 1592SOL    HW2 5676   3.354   3.245   2.504
 1593SOL     OW 5677   0.839   5.386   5.348
 1593SOL    HW1 5678   0.814   5.291   5.364
 1593SOL    HW2 5679   0.933   5.390   5.312
 1594SOL     OW 5680   6.695   5.368   3.267
 1594SOL    HW1 5681   6.779   5.387   3.319
 1594SOL    HW2 5682   6.639   5.451   3.262
 1595SOL     OW 5683   0.028   4.549   5.821
 1595SOL    HW1 5684   0.060   4.474   5.764
 1595SOL    HW2 5685   6.967   4.520   5.872
 1596SOL     OW 5686   2.770   5.220   6.763
 1596SOL    HW1 5687   2.847   5.274   6.796
 1596SOL    HW2 5688   2.771   5.131   6.807
 1597SOL     OW 5689   2.558   0.327   1.385
 1597SOL    HW1 5690   2.462   0.348   1.368
 1597SOL    HW2 5691   2.566   0.265   1.462
 1598SOL     OW 5692   0.388   5.340   1.557
 1598SOL    HW1 5693   0.411   5.248   1.525
 1598SOL    HW2 5694   0.289   5.354   1.549
 1599SOL     OW 5695   3.552   5.137   6.987
 1599SOL    HW1 5696   3.624   5.120   0.034
 1599SOL    HW2 5697   3.467   5.160   0.014
 1600SOL     OW 5698   4.085   1.297   4.600
 1600SOL    HW1 5699   4.091   1.331   4.694
 1600SOL    HW2 5700   3.993   1.313   4.564
 1601SOL     OW 5701   1.037   5.180   4.386
 1601SOL    HW1 5702   1.035   5.096   4.441
 1601SOL    HW2 5703   0.948   5.191   4.340
 1602SOL     OW 5704   0.926   4.727   3.853
 1602SOL    HW1 5705   0.875   4.734   3.938
 1602SOL    HW2 5706   1.020   4.756   3.867
 1603SOL     OW 5707   6.736   6.932   1.186
 1603SOL    HW1 5708   6.796   6.937   1.266
 1603SOL    HW2 5709   6.686   6.845   1.187
 1604SOL     OW 5710   0.529   5.291   5.667
 1604SOL    HW1 5711   0.531   5.192   5.654
 1604SOL    HW2 5712   0.487   5.334   5.586
 1605SOL     OW 5713   5.235   6.350   3.178
 1605SOL    HW1 5714   5.168   6.407   3.130
 1605SOL    HW2 5715   5.321   6.399   3.187
 1606SOL     OW 5716   4.891   6.731   6.150
 1606SOL    HW1 5717   4.825   6.779   6.208
 1606SOL    HW2 5718   4.850   6.711   6.061
 1607SOL     OW 5719   4.192   2.405   0.939
 1607SOL    HW1 5720   4.147   2.316   0.952
 1607SOL    HW2 5721   4.201   2.424   0.841
 1608SOL     OW 5722   2.589   0.320   1.095
 1608SOL    HW1 5723   2.605   0.226   1.064
 1608SOL    HW2 5724   2.600   0.325   1.194
 1609SOL     OW 5725   4.857   1.816   5.387
 1609SOL    HW1 5726   4.805   1.753   5.329
 1609SOL    HW2 5727   4.832   1.910   5.363
 1610SOL     OW 5728   6.015   5.719   4.217
 1610SOL    HW1 5729   5.987   5.788   4.283
 1610SOL    HW2 5730   5.961   5.636   4.231
 1611SOL     OW 5731   2.795   3.381   1.139
 1611SOL    HW1 5732   2.839   3.458   1.185
 1611SOL    HW2 5733   2.861   3.306   1.130
 1612SOL     OW 5734   3.607   1.097   4.058
 1612SOL    HW1 5735   3.552   1.179   4.047
 1612SOL    HW2 5736   3.553   1.017   4.030
 1613SOL     OW 5737   1.715   6.042   0.766
 1613SOL    HW1 5738   1.675   6.047   0.675
 1613SOL    HW2 5739   1.811   6.070   0.761
 1614SOL     OW 5740   6.793   2.421   6.875
 1614SOL    HW1 5741   6.695   2.402   6.879
 1614SOL    HW2 5742   6.840   2.368   6.945
 1615SOL     OW 5743   6.533   4.872   6.501
 1615SOL    HW1 5744   6.565   4.911   6.588
 1615SOL    HW2 5745   6.586   4.790   6.480
 1616SOL     OW 5746   2.752   1.743   5.368
 1616SOL    HW1 5747   2.847   1.721   5.391
 1616SOL    HW2 5748   2.692   1.719   5.444
 1617SOL     OW 5749   4.389   0.608   3.979
 1617SOL    HW1 5750   4.352   0.522   3.943
 1617SOL    HW2 5751   4.343   0.630   4.065
 1618SOL     OW 5752   5.614   2.488   0.854
 1618SOL    HW1 5753   5.684   2.425   0.887
 1618SOL    HW2 5754   5.561   2.443   0.782
 1619SOL     OW 5755   1.554   3.263   4.610
 1619SOL    HW1 5756   1.630   3.328   4.605
 1619SOL    HW2 5757   1.539   3.237   4.705
 1620SOL     OW 5758   3.826   5.312   1.179
 1620SOL    HW1 5759   3.741   5.277   1.140
 1620SOL    HW2 5760   3.837   5.275   1.271
 1621SOL     OW 5761   1.549   1.133   1.820
 1621SOL    HW1 5762   1.549   1.036   1.842
 1621SOL    HW2 5763   1.459   1.160   1.786
 1622SOL     OW 5764   2.143   1.980   4.183
 1622SOL    HW1 5765   2.067   2.001   4.246
 1622SOL    HW2 5766   2.159   1.881   4.183
 1623SOL     OW 5767   2.929   2.220   4.883
 1623SOL    HW1 5768   2.968   2.231   4.792
 1623SOL    HW2 5769   3.002   2.221   4.951
 1624SOL     OW 5770   2.307   0.586   0.397
 1624SOL    HW1 5771   2.311   0.605   0.495
 1624SOL    HW2 5772   2.387   0.534   0.369
 1625SOL     OW 5773   6.694   5.564   1.968
 1625SOL    HW1 5774   6.710   5.630   2.042
 1625SOL    HW2 5775   6.624   5.600   1.907
 1626SOL     OW 5776   2.057   2.319   5.968
 1626SOL    HW1 5777   2.070   2.271   5.881
 1626SOL    HW2 5778   1.964   2.305   6.001
 1627SOL     OW 5779   5.213   3.284   3.981
 1627SOL    HW1 5780   5.305   3.309   3.951
 1627SOL    HW2 5781   5.219   3.227   4.063
 1628SOL     OW 5782   3.022   2.971   0.340
 1628SOL    HW1 5783   2.982   3.056   0.373
 1628SOL    HW2 5784   3.111   2.956   0.384
 1629SOL     OW 5785   4.786   2.335   3.707
 1629SOL    HW1 5786   4.724   2.310   3.633
 1629SOL    HW2 5787   4.789   2.435   3.715
 1630SOL     OW 5788   6.818   4.976   4.073
 1630SOL    HW1 5789   6.752   5.027   4.019
 1630SOL    HW2 5790   6.771   4.922   4.143
 1631SOL     OW 5791   0.704   6.769   5.721
 1631SOL    HW1 5792   0.753   6.700   5.667
 1631SOL    HW2 5793   0.674   6.729   5.807
 1632SOL     OW 5794   6.213   0.372   1.859
 1632SOL    HW1 5795   6.209   0.382   1.759
 1632SOL    HW2 5796   6.128   0.404   1.899
 1633SOL     OW 5797   5.483   2.913   3.568
 1633SOL    HW1 5798   5.582   2.899   3.580
 1633SOL    HW2 5799   5.451   2.976   3.638
 1634SOL     OW 5800   3.681   0.812   6.716
 1634SOL    HW1 5801   3.597   0.758   6.717
 1634SOL    HW2 5802   3.668   0.895   6.770
 1635SOL     OW 5803   0.671   5.345   3.921
 1635SOL    HW1 5804   0.742   5.275   3.914
 1635SOL    HW2 5805   0.712   5.436   3.908
 1636SOL     OW 5806   2.234   6.101   1.326
 1636SOL    HW1 5807   2.293   6.049   1.265
 1636SOL    HW2 5808   2.141   6.063   1.324
 1637SOL     OW 5809   0.230   3.060   2.580
 1637SOL    HW1 5810   0.158   3.070   2.649
 1637SOL    HW2 5811   0.188   3.041   2.491
 1638SOL     OW 5812   1.794   2.842   5.066
 1638SOL    HW1 5813   1.879   2.895   5.061
 1638SOL    HW2 5814   1.755   2.851   5.158
 1639SOL     OW 5815   4.950   4.569   2.570
 1639SOL    HW1 5816   4.874   4.569   2.636
 1639SOL    HW2 5817   4.918   4.532   2.483
 1640SOL     OW 5818   6.130   0.208   1.414
 1640SOL    HW1 5819   6.197   0.276   1.445
 1640SOL    HW2 5820   6.169   0.153   1.341
 1641SOL     OW 5821   6.418   2.749   5.218
 1641SOL    HW1 5822   6.402   2.805   5.299
 1641SOL    HW2 5823   6.502   2.695   5.231
 1642SOL     OW 5824   0.832   2.245   1.839
 1642SOL    HW1 5825   0.870   2.336   1.824
 1642SOL    HW2 5826   0.830   2.225   1.936
 1643SOL     OW 5827   4.188   0.565   5.335
 1643SOL    HW1 5828   4.109   0.512   5.365
 1643SOL    HW2 5829   4.167   0.662   5.341
 1644SOL     OW 5830   3.134   0.999   1.014
 1644SOL    HW1 5831   3.047   0.977   0.970
 1644SOL    HW2 5832   3.209   0.964   0.958
 1645SOL     OW 5833   2.085   6.692   6.288
 1645SOL    HW1 5834   2.015   6.648   6.232
 1645SOL    HW2 5835   2.141   6.752   6.232
 1646SOL     OW 5836   1.207   3.599   1.115
 1646SOL    HW1 5837   1.259   3.557   1.041
 1646SOL    HW2 5838   1.239   3.563   1.203
 1647SOL     OW 5839   6.220   2.751   3.694
 1647SOL    HW1 5840   6.300   2.781   3.641
 1647SOL    HW2 5841   6.213   2.651   3.689
 1648SOL     OW 5842   4.243   6.534   2.472
 1648SOL    HW1 5843   4.209   6.620   2.433
 1648SOL    HW2 5844   4.171   6.465   2.466
 1649SOL     OW 5845   3.283   0.683   3.072
 1649SOL    HW1 5846   3.325   0.773   3.066
 1649SOL    HW2 5847   3.260   0.651   2.980
 1650SOL     OW 5848   2.773   6.263   3.620
 1650SOL    HW1 5849   2.737   6.317   3.696
 1650SOL    HW2 5850   2.725   6.175   3.615
 1651SOL     OW 5851   1.450   6.926   0.940
 1651SOL    HW1 5852   1.369   6.941   0.995
 1651SOL    HW2 5853   1.525   6.893   0.998
 1652SOL     OW 5854   2.811   2.936   1.761
 1652SOL    HW1 5855   2.909   2.955   1.762
 1652SOL    HW2 5856   2.792   2.863   1.694
 1653SOL     OW 5857   1.049   5.230   0.669
 1653SOL    HW1 5858   1.052   5.277   0.757
 1653SOL    HW2 5859   0.955   5.229   0.635
 1654SOL     OW 5860   6.981   2.767   3.103
 1654SOL    HW1 5861   6.921   2.836   3.144
 1654SOL    HW2 5862   6.992   2.691   3.167
 1655SOL     OW 5863   4.812   4.908   5.929
 1655SOL    HW1 5864   4.892   4.961   5.956
 1655SOL    HW2 5865   4.836   4.811   5.922
 1656SOL     OW 5866   0.889   4.259   3.419
 1656SOL    HW1 5867   0.803   4.209   3.410
 1656SOL    HW2 5868   0.963   4.205   3.379
 1657SOL     OW 5869   1.153   0.381   6.060
 1657SOL    HW1 5870   1.163   0.389   5.961
 1657SOL    HW2 5871   1.116   0.291   6.083
 1658SOL     OW 5872   6.141   6.263   2.823
 1658SOL    HW1 5873   6.157   6.322   2.744
 1658SOL    HW2 5874   6.183   6.174   2.807
 1659SOL     OW 5875   4.282   2.180   5.694
 1659SOL    HW1 5876   4.227   2.107   5.654
 1659SOL    HW2 5877   4.248   2.200   5.786
 1660SOL     OW 5878   1.778   5.639   3.110
 1660SOL    HW1 5879   1.847   5.590   3.057
 1660SOL    HW2 5880   1.687   5.612   3.079
 1661SOL     OW 5881   2.681   0.150   2.252
 1661SOL    HW1 5882   2.680   0.050   2.245
 1661SOL    HW2 5883   2.616   0.178   2.323
 1662SOL     OW 5884   0.820   0.458   3.496
 1662SOL    HW1 5885   0.778   0.497   3.578
 1662SOL    HW2 5886   0.755   0.396   3.451
 1663SOL     OW 5887   3.050   0.134   3.538
 1663SOL    HW1 5888   3.081   0.099   3.626
 1663SOL    HW2 5889   3.008   0.060   3.486
 1664SOL     OW 5890   2.086   5.988   4.866
 1664SOL    HW1 5891   2.179   5.962   4.843
 1664SOL    HW2 5892   2.033   6.001   4.782
 1665SOL     OW 5893   0.613   6.461   5.208
 1665SOL    HW1 5894   0.579   6.555   5.209
 1665SOL    HW2 5895   0.713   6.462   5.215
 1666SOL     OW 5896   5.933   2.905   6.114
 1666SOL    HW1 5897   5.853   2.869   6.066
 1666SOL    HW2 5898   5.905   2.952   6.197
 1667SOL     OW 5899   6.568   0.638   6.267
 1667SOL    HW1 5900   6.573   0.560   6.204
 1667SOL    HW2 5901   6.655   0.687   6.266
 1668SOL     OW 5902   3.372   1.069   5.057
 1668SOL    HW1 5903   3.390   1.015   5.139
 1668SOL    HW2 5904   3.430   1.151   5.057
 1669SOL     OW 5905   5.926   6.960   6.421
 1669SOL    HW1 5906   5.902   7.008   6.337
 1669SOL    HW2 5907   5.970   0.004   6.485
 1670SOL     OW 5908   5.587   4.227   5.709
 1670SOL    HW1 5909   5.569   4.136   5.672
 1670SOL    HW2 5910   5.502   4.264   5.748
 1671SOL     OW 5911   5.413   4.297   0.108
 1671SOL    HW1 5912   5.344   4.230   0.135
 1671SOL    HW2 5913   5.390   4.387   0.144
 1672SOL     OW 5914   1.999   5.598   2.536
 1672SOL    HW1 5915   1.920   5.559   2.490
 1672SOL    HW2 5916   2.036   5.672   2.481
 1673SOL     OW 5917   6.627   1.874   4.152
 1673SOL    HW1 5918   6.551   1.890   4.215
 1673SOL    HW2 5919   6.686   1.801   4.188
 1674SOL     OW 5920   0.922   4.784   6.356
 1674SOL    HW1 5921   0.853   4.807   6.288
 1674SOL    HW2 5922   1.013   4.808   6.321
 1675SOL     OW 5923   4.699   2.533   6.609
 1675SOL    HW1 5924   4.607   2.567   6.630
 1675SOL    HW2 5925   4.713   2.446   6.656
 1676SOL     OW 5926   1.821   0.867   3.368
 1676SOL    HW1 5927   1.909   0.914   3.368
 1676SOL    HW2 5928   1.833   0.773   3.397
 1677SOL     OW 5929   6.230   1.102   5.482
 1677SOL    HW1 5930   6.225   1.141   5.573
 1677SOL    HW2 5931   6.186   1.163   5.417
 1678SOL     OW 5932   5.741   6.767   1.526
 1678SOL    HW1 5933   5.703   6.836   1.464
 1678SOL    HW2 5934   5.826   6.802   1.566
 1679SOL     OW 5935   0.093   3.746   0.282
 1679SOL    HW1 5936   0.035   3.826   0.264
 1679SOL    HW2 5937   0.173   3.748   0.223
 1680SOL     OW 5938   1.012   1.907   4.733
 1680SOL    HW1 5939   0.985   1.813   4.756
 1680SOL    HW2 5940   1.051   1.952   4.814
 1681SOL     OW 5941   5.945   5.413   1.371
 1681SOL    HW1 5942   5.972   5.496   1.322
 1681SOL    HW2 5943   6.026   5.355   1.384
 1682SOL     OW 5944   6.561   3.376   5.265
 1682SOL    HW1 5945   6.607   3.360   5.352
 1682SOL    HW2 5946   6.539   3.473   5.256
 1683SOL     OW 5947   5.547   5.555   0.519
 1683SOL    HW1 5948   5.508   5.609   0.594
 1683SOL    HW2 5949   5.496   5.573   0.435
 1684SOL     OW 5950   0.745   5.796   4.694
 1684SOL    HW1 5951   0.803   5.724   4.732
 1684SOL    HW2 5952   0.737   5.783   4.595
 1685SOL     OW 5953   1.373   1.923   6.963
 1685SOL    HW1 5954   1.323   2.007   6.980
 1685SOL    HW2 5955   1.456   1.921   7.019
 1686SOL     OW 5956   1.624   6.121   6.721
 1686SOL    HW1 5957   1.526   6.106   6.708
 1686SOL    HW2 5958   1.667   6.036   6.750
 1687SOL     OW 5959   1.503   0.530   1.675
 1687SOL    HW1 5960   1.438   0.606   1.671
 1687SOL    HW2 5961   1.502   0.480   1.588
 1688SOL     OW 5962   0.718   1.445   3.429
 1688SOL    HW1 5963   0.762   1.455   3.518
 1688SOL    HW2 5964   0.775   1.488   3.358
 1689SOL     OW 5965   2.777   1.534   2.331
 1689SOL    HW1 5966   2.695   1.493   2.372
 1689SOL    HW2 5967   2.809   1.477   2.256
 1690SOL     OW 5968   0.898   2.202   1.210
 1690SOL    HW1 5969   0.815   2.229   1.161
 1690SOL    HW2 5970   0.933   2.117   1.171
 1691SOL     OW 5971   4.630   5.247   2.943
 1691SOL    HW1 5972   4.625   5.198   2.856
 1691SOL    HW2 5973   4.538   5.274   2.971
 1692SOL     OW 5974   1.578   1.087   4.023
 1692SOL    HW1 5975   1.569   1.184   4.003
 1692SOL    HW2 5976   1.650   1.073   4.091
 1693SOL     OW 5977   2.589   2.411   3.682
 1693SOL    HW1 5978   2.549   2.327   3.718
 1693SOL    HW2 5979   2.673   2.389   3.631
 1694SOL     OW 5980   4.539   6.191   5.992
 1694SOL    HW1 5981   4.451   6.151   6.019
 1694SOL    HW2 5982   4.533   6.227   5.899
 1695SOL     OW 5983   2.456   2.081   5.818
 1695SOL    HW1 5984   2.552   2.107   5.819
 1695SOL    HW2 5985   2.421   2.088   5.724
 1696SOL     OW 5986   3.514   5.551   0.698
 1696SOL    HW1 5987   3.560   5.638   0.715
 1696SOL    HW2 5988   3.459   5.558   0.615
 1697SOL     OW 5989   1.026   1.472   2.129
 1697SOL    HW1 5990   0.955   1.479   2.059
 1697SOL    HW2 5991   1.008   1.394   2.188
 1698SOL     OW 5992   5.061   2.028   0.742
 1698SOL    HW1 5993   5.059   2.071   0.833
 1698SOL    HW2 5994   5.146   2.054   0.695
 1699SOL     OW 5995   2.216   3.771   0.758
 1699SOL    HW1 5996   2.244   3.782   0.663
 1699SOL    HW2 5997   2.281   3.816   0.818
 1700SOL     OW 5998   6.455   3.137   4.437
 1700SOL    HW1 5999   6.504   3.096   4.514
 1700SOL    HW2 6000   6.404   3.067   4.389
 1701SOL     OW 6001   5.588   3.654   4.558
 1701SOL    HW1 6002   5.686   3.651   4.538
 1701SOL    HW2 6003   5.541   3.701   4.483
 1702SOL     OW 6004   4.591   2.726   0.997
 1702SOL    HW1 6005   4.609   2.823   1.008
 1702SOL    HW2 6006   4.509   2.713   0.941
 1703SOL     OW 6007   2.011   3.954   0.304
 1703SOL    HW1 6008   1.988   4.041   0.348
 1703SOL    HW2 6009   1.937   3.928   0.242
 1704SOL     OW 6010   1.017   1.195   1.919
 1704SOL    HW1 6011   1.073   1.120   1.885
 1704SOL    HW2 6012   0.996   1.180   2.016
 1705SOL     OW 6013   3.862   3.355   1.797
 1705SOL    HW1 6014   3.791   3.425   1.789
 1705SOL    HW2 6015   3.860   3.296   1.716
 1706SOL     OW 6016   3.323   0.942   6.719
 1706SOL    HW1 6017   3.384   0.988   6.784
 1706SOL    HW2 6018   3.376   0.908   6.642
 1707SOL     OW 6019   6.083   1.317   2.950
 1707SOL    HW1 6020   6.152   1.270   2.897
 1707SOL    HW2 6021   6.121   1.344   3.039
 1708SOL     OW 6022   0.256   4.577   2.283
 1708SOL    HW1 6023   0.315   4.611   2.356
 1708SOL    HW2 6024   0.257   4.641   2.207
 1709SOL     OW 6025   3.559   5.801   3.526
 1709SOL    HW1 6026   3.602   5.795   3.436
 1709SOL    HW2 6027   3.607   5.741   3.590
 1710SOL     OW 6028   6.763   5.938   3.739
 1710SOL    HW1 6029   6.698   5.990   3.684
 1710SOL    HW2 6030   6.770   5.845   3.704
 1711SOL     OW 6031   1.562   4.481   5.721
 1711SOL    HW1 6032   1.553   4.573   5.684
 1711SOL    HW2 6033   1.656   4.466   5.752
 1712SOL     OW 6034   1.399   5.027   1.062
 1712SOL    HW1 6035   1.337   5.052   0.988
 1712SOL    HW2 6036   1.447   5.109   1.094
 1713SOL     OW 6037   1.819   3.089   0.600
 1713SOL    HW1 6038   1.878   3.141   0.538
 1713SOL    HW2 6039   1.728   3.078   0.559
 1714SOL     OW 6040   3.777   1.503   0.427
 1714SOL    HW1 6041   3.848   1.447   0.385
 1714SOL    HW2 6042   3.791   1.506   0.526
 1715SOL     OW 6043   0.245   3.235   3.565
 1715SOL    HW1 6044   0.284   3.284   3.486
 1715SOL    HW2 6045   0.313   3.231   3.638
 1716SOL     OW 6046   0.597   6.684   0.187
 1716SOL    HW1 6047   0.648   6.725   0.263
 1716SOL    HW2 6048   0.660   6.663   0.113
 1717SOL     OW 6049   3.475   0.431   0.306
 1717SOL    HW1 6050   3.434   0.346   0.274
 1717SOL    HW2 6051   3.404   0.497   0.327
 1718SOL     OW 6052   0.957   4.847   5.153
 1718SOL    HW1 6053   0.924   4.938   5.176
 1718SOL    HW2 6054   0.879   4.786   5.138
 1719SOL     OW 6055   2.258   3.379   1.473
 1719SOL    HW1 6056   2.334   3.322   1.503
 1719SOL    HW2 6057   2.216   3.339   1.391
 1720SOL     OW 6058   6.610   1.683   1.396
 1720SOL    HW1 6059   6.584   1.587   1.411
 1720SOL    HW2 6060   6.696   1.685   1.344
 1721SOL     OW 6061   1.873   6.376   3.565
 1721SOL    HW1 6062   1.841   6.455   3.616
 1721SOL    HW2 6063   1.876   6.296   3.625
 1722SOL     OW 6064   5.526   6.758   2.012
 1722SOL    HW1 6065   5.434   6.723   2.028
 1722SOL    HW2 6066   5.547   6.755   1.915
 1723SOL     OW 6067   6.426   1.190   2.043
 1723SOL    HW1 6068   6.448   1.233   2.130
 1723SOL    HW2 6069   6.336   1.222   2.012
 1724SOL     OW 6070   5.003   0.598   0.202
 1724SOL    HW1 6071   4.932   0.562   0.141
 1724SOL    HW2 6072   4.977   0.581   0.297
 1725SOL     OW 6073   4.219   4.840   1.387
 1725SOL    HW1 6074   4.297   4.902   1.382
 1725SOL    HW2 6075   4.135   4.893   1.396
 1726SOL     OW 6076   0.414   4.974   4.817
 1726SOL    HW1 6077   0.320   5.006   4.803
 1726SOL    HW2 6078   0.413   4.881   4.853
 1727SOL     OW 6079   3.450   3.718   5.381
 1727SOL    HW1 6080   3.456   3.636   5.439
 1727SOL    HW2 6081   3.374   3.707   5.317
 1728SOL     OW 6082   4.753   4.338   3.232
 1728SOL    HW1 6083   4.743   4.411   3.163
 1728SOL    HW2 6084   4.773   4.252   3.186
 1729SOL     OW 6085   1.719   3.568   2.933
 1729SOL    HW1 6086   1.731   3.660   2.970
 1729SOL    HW2 6087   1.745   3.568   2.836
 1730SOL     OW 6088   5.759   2.299   5.160
 1730SOL    HW1 6089   5.669   2.275   5.194
 1730SOL    HW2 6090   5.765   2.278   5.062
 1731SOL     OW 6091   1.456   5.083   0.201
 1731SOL    HW1 6092   1.540   5.074   0.255
 1731SOL    HW2 6093   1.388   5.133   0.255
 1732SOL     OW 6094   0.213   4.572   0.394
 1732SOL    HW1 6095   0.229   4.593   0.297
 1732SOL    HW2 6096   0.290   4.604   0.448
 1733SOL     OW 6097   1.361   4.076   0.555
 1733SOL    HW1 6098   1.347   4.128   0.640
 1733SOL    HW2 6099   1.311   4.121   0.481
 1734SOL     OW 6100   5.070   3.386   0.881
 1734SOL    HW1 6101   5.015   3.400   0.963
 1734SOL    HW2 6102   5.019   3.330   0.816
 1735SOL     OW 6103   5.585   5.452   1.783
 1735SOL    HW1 6104   5.655   5.433   1.853
 1735SOL    HW2 6105   5.507   5.497   1.826
 1736SOL     OW 6106   3.273   3.676   0.592
 1736SOL    HW1 6107   3.265   3.604   0.662
 1736SOL    HW2 6108   3.184   3.693   0.551
 1737SOL     OW 6109   1.372   6.475   3.760
 1737SOL    HW1 6110   1.312   6.498   3.684
 1737SOL    HW2 6111   1.364   6.377   3.779
 1738SOL     OW 6112   1.331   2.587   1.881
 1738SOL    HW1 6113   1.282   2.511   1.839
 1738SOL    HW2 6114   1.401   2.621   1.818
 1739SOL     OW 6115   3.964   1.718   5.470
 1739SOL    HW1 6116   3.869   1.695   5.493
 1739SOL    HW2 6117   3.998   1.653   5.401
 1740SOL     OW 6118   0.961   1.124   6.017
 1740SOL    HW1 6119   0.949   1.167   5.928
 1740SOL    HW2 6120   1.002   1.190   6.081
 1741SOL     OW 6121   1.896   0.540   2.769
 1741SOL    HW1 6122   1.841   0.456   2.770
 1741SOL    HW2 6123   1.991   0.518   2.787
 1742SOL     OW 6124   5.811   0.465   4.543
 1742SOL    HW1 6125   5.754   0.442   4.464
 1742SOL    HW2 6126   5.790   0.403   4.618
 1743SOL     OW 6127   4.794   1.007   0.902
 1743SOL    HW1 6128   4.842   0.960   0.829
 1743SOL    HW2 6129   4.793   1.106   0.883
 1744SOL     OW 6130   2.859   0.827   1.537
 1744SOL    HW1 6131   2.813   0.739   1.527
 1744SOL    HW2 6132   2.859   0.876   1.450
 1745SOL     OW 6133   6.964   2.279   4.286
 1745SOL    HW1 6134   6.873   2.319   4.296
 1745SOL    HW2 6135   7.003   2.306   4.198
 1746SOL     OW 6136   3.260   0.417   5.688
 1746SOL    HW1 6137   3.294   0.502   5.649
 1746SOL    HW2 6138   3.299   0.405   5.779
 1747SOL     OW 6139   4.059   0.637   1.025
 1747SOL    HW1 6140   4.077   0.550   0.980
 1747SOL    HW2 6141   3.961   0.657   1.021
 1748SOL     OW 6142   5.668   1.997   1.958
 1748SOL    HW1 6143   5.584   2.007   1.903
 1748SOL    HW2 6144   5.678   2.076   2.018
 1749SOL     OW 6145   4.473   6.982   6.113
 1749SOL    HW1 6146   4.477   6.974   6.014
 1749SOL    HW2 6147   4.381   7.012   6.140
 1750SOL     OW 6148   5.067   0.814   3.674
 1750SOL    HW1 6149   5.131   0.885   3.643
 1750SOL    HW2 6150   5.068   0.738   3.609
 1751SOL     OW 6151   1.913   5.795   3.648
 1751SOL    HW1 6152   1.991   5.762   3.702
 1751SOL    HW2 6153   1.901   5.737   3.568
 1752SOL     OW 6154   6.245   2.394   0.461
 1752SOL    HW1 6155   6.193   2.352   0.387
 1752SOL    HW2 6156   6.183   2.415   0.537
 1753SOL     OW 6157   2.495   0.473   2.250
 1753SOL    HW1 6158   2.502   0.426   2.338
 1753SOL    HW2 6159   2.579   0.456   2.198
 1754SOL     OW 6160   3.785   2.846   0.879
 1754SOL    HW1 6161   3.755   2.751   0.866
 1754SOL    HW2 6162   3.734   2.887   0.955
 1755SOL     OW 6163   5.235   3.663   0.797
 1755SOL    HW1 6164   5.331   3.643   0.779
 1755SOL    HW2 6165   5.180   3.580   0.783
 1756SOL     OW 6166   6.222   5.590   4.083
 1756SOL    HW1 6167   6.159   5.655   4.126
 1756SOL    HW2 6168   6.316   5.625   4.089
 1757SOL     OW 6169   2.900   6.543   4.199
 1757SOL    HW1 6170   2.880   6.639   4.180
 1757SOL    HW2 6171   2.984   6.517   4.152
 1758SOL     OW 6172   2.270   0.918   3.554
 1758SOL    HW1 6173   2.370   0.909   3.548
 1758SOL    HW2 6174   2.241   0.902   3.648
 1759SOL     OW 6175   0.283   5.563   6.083
 1759SOL    HW1 6176   0.307   5.531   5.992
 1759SOL    HW2 6177   0.314   5.657   6.095
 1760SOL     OW 6178   5.474   0.697   2.731
 1760SOL    HW1 6179   5.450   0.617   2.787
 1760SOL    HW2 6180   5.429   0.778   2.767
 1761SOL     OW 6181   6.567   2.734   1.310
 1761SOL    HW1 6182   6.637   2.667   1.283
 1761SOL    HW2 6183   6.477   2.702   1.280
 1762SOL     OW 6184   6.067   2.046   6.467
 1762SOL    HW1 6185   5.986   1.989   6.465
 1762SOL    HW2 6186   6.041   2.143   6.461
 1763SOL     OW 6187   2.109   3.771   3.655
 1763SOL    HW1 6188   2.115   3.721   3.741
 1763SOL    HW2 6189   2.109   3.707   3.578
 1764SOL     OW 6190   6.499   2.829   4.070
 1764SOL    HW1 6191   6.460   2.747   4.112
 1764SOL    HW2 6192   6.535   2.889   4.141
 1765SOL     OW 6193   3.044   2.482   6.216
 1765SOL    HW1 6194   3.115   2.526   6.272
 1765SOL    HW2 6195   3.086   2.441   6.135
 1766SOL     OW 6196   5.386   3.312   5.097
 1766SOL    HW1 6197   5.421   3.265   5.178
 1766SOL    HW2 6198   5.461   3.326   5.032
 1767SOL     OW 6199   5.648   3.420   2.140
 1767SOL    HW1 6200   5.710   3.343   2.134
 1767SOL    HW2 6201   5.699   3.503   2.164
 1768SOL     OW 6202   5.762   6.420   4.294
 1768SOL    HW1 6203   5.844   6.471   4.266
 1768SOL    HW2 6204   5.763   6.407   4.393
 1769SOL     OW 6205   5.270   1.393   3.163
 1769SOL    HW1 6206   5.335   1.406   3.238
 1769SOL    HW2 6207   5.177   1.414   3.195
 1770SOL     OW 6208   2.613   5.319   5.073
 1770SOL    HW1 6209   2.517   5.304   5.098
 1770SOL    HW2 6210   2.627   5.292   4.977
 1771SOL     OW 6211   4.571   5.812   6.248
 1771SOL    HW1 6212   4.617   5.895   6.220
 1771SOL    HW2 6213   4.581   5.799   6.347
 1772SOL     OW 6214   3.030   6.703   2.690
 1772SOL    HW1 6215   2.978   6.758   2.624
 1772SOL    HW2 6216   3.075   6.763   2.756
 1773SOL     OW 6217   0.454   5.262   6.995
 1773SOL    HW1 6218   0.372   5.305   6.959
 1773SOL    HW2 6219   0.464   5.285   0.072
 1774SOL     OW 6220   3.470   5.434   1.852
 1774SOL    HW1 6221   3.549   5.383   1.885
 1774SOL    HW2 6222   3.402   5.370   1.816
 1775SOL     OW 6223   0.695   4.749   1.765
 1775SOL    HW1 6224   0.766   4.758   1.835
 1775SOL    HW2 6225   0.737   4.723   1.679
 1776SOL     OW 6226   2.612   5.604   5.071
 1776SOL    HW1 6227   2.606   5.505   5.087
 1776SOL    HW2 6228   2.707   5.633   5.083
 1777SOL     OW 6229   3.926   6.112   0.608
 1777SOL    HW1 6230   3.924   6.014   0.627
 1777SOL    HW2 6231   3.844   6.155   0.647
 1778SOL     OW 6232   5.434   3.418   5.829
 1778SOL    HW1 6233   5.475   3.509   5.825
 1778SOL    HW2 6234   5.404   3.400   5.923
 1779SOL     OW 6235   2.992   6.617   5.002
 1779SOL    HW1 6236   2.990   6.525   5.042
 1779SOL    HW2 6237   2.978   6.685   5.073
 1780SOL     OW 6238   3.246   3.190   6.588
 1780SOL    HW1 6239   3.203   3.152   6.506
 1780SOL    HW2 6240   3.290   3.277   6.565
 1781SOL     OW 6241   3.659   5.428   3.244
 1781SOL    HW1 6242   3.730   5.475   3.191
 1781SOL    HW2 6243   3.594   5.495   3.280
 1782SOL     OW 6244   3.856   1.954   4.023
 1782SOL    HW1 6245   3.849   1.899   4.106
 1782SOL    HW2 6246   3.949   1.989   4.014
 1783SOL     OW 6247   1.696   5.326   0.580
 1783SOL    HW1 6248   1.776   5.384   0.595
 1783SOL    HW2 6249   1.627   5.378   0.529
 1784SOL     OW 6250   3.630   6.648   5.074
 1784SOL    HW1 6251   3.713   6.640   5.129
 1784SOL    HW2 6252   3.584   6.734   5.096
 1785SOL     OW 6253   6.560   4.216   2.622
 1785SOL    HW1 6254   6.582   4.285   2.691
 1785SOL    HW2 6255   6.558   4.125   2.665
 1786SOL     OW 6256   3.089   2.475   1.349
 1786SOL    HW1 6257   3.013   2.426   1.307
 1786SOL    HW2 6258   3.056   2.524   1.429
 1787SOL     OW 6259   3.783   0.577   5.931
 1787SOL    HW1 6260   3.828   0.661   5.901
 1787SOL    HW2 6261   3.684   0.585   5.915
 1788SOL     OW 6262   1.841   4.917   5.234
 1788SOL    HW1 6263   1.871   4.843   5.175
 1788SOL    HW2 6264   1.911   4.988   5.236
 1789SOL     OW 6265   6.451   1.315   0.189
 1789SOL    HW1 6266   6.534   1.358   0.155
 1789SOL    HW2 6267   6.465   1.216   0.194
 1790SOL     OW 6268   3.889   6.646   3.556
 1790SOL    HW1 6269   3.821   6.650   3.484
 1790SOL    HW2 6270   3.851   6.685   3.640
 1791SOL     OW 6271   0.034   6.640   2.695
 1791SOL    HW1 6272   6.989   6.642   2.619
 1791SOL    HW2 6273   0.038   6.730   2.738
 1792SOL     OW 6274   1.195   3.032   4.756
 1792SOL    HW1 6275   1.105   2.989   4.748
 1792SOL    HW2 6276   1.225   3.031   4.851
 1793SOL     OW 6277   0.164   0.400   3.902
 1793SOL    HW1 6278   0.195   0.384   3.808
 1793SOL    HW2 6279   0.112   0.485   3.905
 1794SOL     OW 6280   4.360   5.488   6.233
 1794SOL    HW1 6281   4.272   5.476   6.185
 1794SOL    HW2 6282   4.428   5.522   6.169
 1795SOL     OW 6283   0.869   3.031   0.662
 1795SOL    HW1 6284   0.952   3.075   0.628
 1795SOL    HW2 6285   0.868   2.935   0.633
 1796SOL     OW 6286   3.501   0.760   6.195
 1796SOL    HW1 6287   3.588   0.808   6.185
 1796SOL    HW2 6288   3.483   0.707   6.113
 1797SOL     OW 6289   0.976   0.112   1.067
 1797SOL    HW1 6290   0.889   0.078   1.103
 1797SOL    HW2 6291   1.043   0.116   1.141
 1798SOL     OW 6292   5.099   2.474   2.933
 1798SOL    HW1 6293   5.005   2.500   2.912
 1798SOL    HW2 6294   5.148   2.552   2.971
 1799SOL     OW 6295   1.680   1.810   6.938
 1799SOL    HW1 6296   1.764   1.775   6.898
 1799SOL    HW2 6297   1.617   1.734   6.955
 1800SOL     OW 6298   4.135   5.143   1.629
 1800SOL    HW1 6299   4.164   5.097   1.546
 1800SOL    HW2 6300   4.171   5.094   1.709
 1801SOL     OW 6301   6.547   6.754   1.238
 1801SOL    HW1 6302   6.515   6.781   1.329
 1801SOL    HW2 6303   6.479   6.780   1.170
 1802SOL     OW 6304   5.257   5.814   4.091
 1802SOL    HW1 6305   5.296   5.756   4.020
 1802SOL    HW2 6306   5.266   5.910   4.063
 1803SOL     OW 6307   6.899   5.367   1.310
 1803SOL    HW1 6308   6.941   5.368   1.219
 1803SOL    HW2 6309   6.963   5.328   1.376
 1804SOL     OW 6310   3.156   3.171   4.824
 1804SOL    HW1 6311   3.158   3.095   4.889
 1804SOL    HW2 6312   3.189   3.140   4.735
 1805SOL     OW 6313   4.600   3.152   6.859
 1805SOL    HW1 6314   4.519   3.196   6.820
 1805SOL    HW2 6315   4.609   3.059   6.824
 1806SOL     OW 6316   0.480   6.411   1.755
 1806SOL    HW1 6317   0.388   6.450   1.754
 1806SOL    HW2 6318   0.474   6.313   1.774
 1807SOL     OW 6319   6.000   1.206   5.282
 1807SOL    HW1 6320   6.080   1.260   5.258
 1807SOL    HW2 6321   5.919   1.265   5.282
 1808SOL     OW 6322   1.766   5.019   4.164
 1808SOL    HW1 6323   1.754   5.061   4.254
 1808SOL    HW2 6324   1.800   4.925   4.175
 1809SOL     OW 6325   3.879   1.085   6.450
 1809SOL    HW1 6326   3.779   1.080   6.437
 1809SOL    HW2 6327   3.914   1.166   6.405
 1810SOL     OW 6328   3.087   6.370   2.882
 1810SOL    HW1 6329   3.078   6.344   2.978
 1810SOL    HW2 6330   3.006   6.340   2.832
 1811SOL     OW 6331   6.025   5.194   3.813
 1811SOL    HW1 6332   5.939   5.233   3.845
 1811SOL    HW2 6333   6.067   5.140   3.886
 1812SOL     OW 6334   4.183   5.168   6.216
 1812SOL    HW1 6335   4.252   5.145   6.285
 1812SOL    HW2 6336   4.217   5.243   6.159
 1813SOL     OW 6337   6.192   4.746   6.025
 1813SOL    HW1 6338   6.264   4.760   6.093
 1813SOL    HW2 6339   6.232   4.747   5.934
 1814SOL     OW 6340   4.457   6.633   2.073
 1814SOL    HW1 6341   4.486   6.591   2.159
 1814SOL    HW2 6342   4.409   6.565   2.017
 1815SOL     OW 6343   0.465   0.485   3.459
 1815SOL    HW1 6344   0.509   0.402   3.426
 1815SOL    HW2 6345   0.504   0.565   3.414
 1816SOL     OW 6346   0.650   4.348   0.449
 1816SOL    HW1 6347   0.739   4.319   0.414
 1816SOL    HW2 6348   0.581   4.280   0.423
 1817SOL     OW 6349   2.242   6.153   2.019
 1817SOL    HW1 6350   2.146   6.181   2.010
 1817SOL    HW2 6351   2.273   6.113   1.933
 1818SOL     OW 6352   2.273   1.162   3.262
 1818SOL    HW1 6353   2.289   1.086   3.199
 1818SOL    HW2 6354   2.303   1.248   3.220
 1819SOL     OW 6355   1.611   4.724   2.156
 1819SOL    HW1 6356   1.583   4.765   2.069
 1819SOL    HW2 6357   1.685   4.658   2.139
 1820SOL     OW 6358   4.625   0.139   2.629
 1820SOL    HW1 6359   4.544   0.172   2.580
 1820SOL    HW2 6360   4.699   0.205   2.618
 1821SOL     OW 6361   2.840   2.240   3.216
 1821SOL    HW1 6362   2.898   2.223   3.137
 1821SOL    HW2 6363   2.821   2.154   3.263
 1822SOL     OW 6364   3.342   3.268   1.780
 1822SOL    HW1 6365   3.309   3.212   1.857
 1822SOL    HW2 6366   3.388   3.210   1.714
 1823SOL     OW 6367   3.751   6.533   2.613
 1823SOL    HW1 6368   3.753   6.461   2.543
 1823SOL    HW2 6369   3.672   6.519   2.672
 1824SOL     OW 6370   5.129   2.691   1.249
 1824SOL    HW1 6371   5.045   2.685   1.194
 1824SOL    HW2 6372   5.194   2.752   1.203
 1825SOL     OW 6373   1.004   0.744   1.870
 1825SOL    HW1 6374   1.067   0.698   1.807
 1825SOL    HW2 6375   0.922   0.688   1.881
 1826SOL     OW 6376   3.656   6.468   6.709
 1826SOL    HW1 6377   3.666   6.404   6.632
 1826SOL    HW2 6378   3.697   6.428   6.791
 1827SOL     OW 6379   6.567   6.172   1.469
 1827SOL    HW1 6380   6.507   6.194   1.545
 1827SOL    HW2 6381   6.560   6.244   1.399
 1828SOL     OW 6382   1.568   2.341   6.504
 1828SOL    HW1 6383   1.606   2.248   6.508
 1828SOL    HW2 6384   1.631   2.405   6.548
 1829SOL     OW 6385   5.576   5.057   1.993
 1829SOL    HW1 6386   5.594   5.155   2.006
 1829SOL    HW2 6387   5.604   5.029   1.902
 1830SOL     OW 6388   5.015   6.612   3.882
 1830SOL    HW1 6389   4.973   6.614   3.791
 1830SOL    HW2 6390   5.114   6.605   3.873
 1831SOL     OW 6391   4.944   7.004   3.040
 1831SOL    HW1 6392   5.044   7.004   3.038
 1831SOL    HW2 6393   4.913   0.003   3.133
 1832SOL     OW 6394   4.783   2.915   0.640
 1832SOL    HW1 6395   4.696   2.919   0.689
 1832SOL    HW2 6396   4.858   2.900   0.705
 1833SOL     OW 6397   5.672   1.792   5.594
 1833SOL    HW1 6398   5.747   1.857   5.586
 1833SOL    HW2 6399   5.681   1.742   5.681
 1834SOL     OW 6400   2.937   3.272   0.468
 1834SOL    HW1 6401   2.867   3.310   0.407
 1834SOL    HW2 6402   2.893   3.234   0.550
 1835SOL     OW 6403   1.666   4.722   6.975
 1835SOL    HW1 6404   1.720   4.757   0.033
 1835SOL    HW2 6405   1.569   4.726   6.997
 1836SOL     OW 6406   0.429   6.442   0.877
 1836SOL    HW1 6407   0.464   6.349   0.883
 1836SOL    HW2 6408   0.483   6.502   0.936
 1837SOL     OW 6409   1.083   2.484   4.890
 1837SOL    HW1 6410   1.034   2.525   4.967
 1837SOL    HW2 6411   1.178   2.517   4.890
 1838SOL     OW 6412   6.586   2.278   3.986
 1838SOL    HW1 6413   6.595   2.246   3.892
 1838SOL    HW2 6414   6.666   2.248   4.039
 1839SOL     OW 6415   0.254   2.173   5.950
 1839SOL    HW1 6416   0.229   2.140   5.858
 1839SOL    HW2 6417   0.301   2.100   6.000
 1840SOL     OW 6418   1.630   5.374   0.986
 1840SOL    HW1 6419   1.572   5.328   0.919
 1840SOL    HW2 6420   1.698   5.310   1.021
 1841SOL     OW 6421   1.336   2.682   3.440
 1841SOL    HW1 6422   1.346   2.716   3.534
 1841SOL    HW2 6423   1.280   2.599   3.440
 1842SOL     OW 6424   0.888   4.581   0.160
 1842SOL    HW1 6425   0.877   4.482   0.167
 1842SOL    HW2 6426   0.971   4.601   0.108
 1843SOL     OW 6427   2.922   1.974   4.575
 1843SOL    HW1 6428   2.949   1.894   4.627
 1843SOL    HW2 6429   2.858   1.947   4.503
 1844SOL     OW 6430   5.127   3.031   3.728
 1844SOL    HW1 6431   5.108   2.934   3.744
 1844SOL    HW2 6432   5.119   3.050   3.630
 1845SOL     OW 6433   4.119   0.614   7.003
 1845SOL    HW1 6434   4.078   0.589   0.071
 1845SOL    HW2 6435   4.110   0.712   6.988
 1846SOL     OW 6436   3.443   1.279   5.924
 1846SOL    HW1 6437   3.364   1.292   5.864
 1846SOL    HW2 6438   3.519   1.336   5.890
 1847SOL     OW 6439   0.501   0.202   0.659
 1847SOL    HW1 6440   0.564   0.279   0.672
 1847SOL    HW2 6441   0.442   0.193   0.740
 1848SOL     OW 6442   2.651   6.896   2.182
 1848SOL    HW1 6443   2.636   6.818   2.121
 1848SOL    HW2 6444   2.566   6.947   2.192
 1849SOL     OW 6445   2.795   1.659   6.709
 1849SOL    HW1 6446   2.758   1.668   6.801
 1849SOL    HW2 6447   2.851   1.738   6.687
 1850SOL     OW 6448   5.740   2.240   2.413
 1850SOL    HW1 6449   5.793   2.203   2.489
 1850SOL    HW2 6450   5.644   2.244   2.438
 1851SOL     OW 6451   6.792   2.309   2.527
 1851SOL    HW1 6452   6.740   2.360   2.595
 1851SOL    HW2 6453   6.872   2.362   2.499
 1852SOL     OW 6454   5.112   2.857   0.553
 1852SOL    HW1 6455   5.098   2.840   0.651
 1852SOL    HW2 6456   5.164   2.782   0.513
 1853SOL     OW 6457   1.328   4.791   0.749
 1853SOL    HW1 6458   1.230   4.795   0.727
 1853SOL    HW2 6459   1.379   4.845   0.682
 1854SOL     OW 6460   2.461   5.582   4.630
 1854SOL    HW1 6461   2.410   5.583   4.716
 1854SOL    HW2 6462   2.492   5.675   4.608
 1855SOL     OW 6463   4.853   4.962   1.685
 1855SOL    HW1 6464   4.764   4.964   1.730
 1855SOL    HW2 6465   4.922   4.931   1.751
 1856SOL     OW 6466   4.898   2.243   5.414
 1856SOL    HW1 6467   4.866   2.281   5.501
 1856SOL    HW2 6468   4.996   2.223   5.421
 1857SOL     OW 6469   4.485   0.988   3.288
 1857SOL    HW1 6470   4.457   0.936   3.368
 1857SOL    HW2 6471   4.417   0.977   3.216
 1858SOL     OW 6472   4.879   3.646   3.418
 1858SOL    HW1 6473   4.876   3.557   3.463
 1858SOL    HW2 6474   4.841   3.716   3.478
 1859SOL     OW 6475   4.994   1.702   3.149
 1859SOL    HW1 6476   5.031   1.734   3.062
 1859SOL    HW2 6477   5.019   1.767   3.221
 1860SOL     OW 6478   5.296   1.364   4.596
 1860SOL    HW1 6479   5.359   1.287   4.602
 1860SOL    HW2 6480   5.283   1.405   4.686
 1861SOL     OW 6481   5.848   6.560   2.718
 1861SOL    HW1 6482   5.902   6.608   2.650
 1861SOL    HW2 6483   5.759   6.534   2.679
 1862SOL     OW 6484   2.138   1.472   0.169
 1862SOL    HW1 6485   2.075   1.506   0.239
 1862SOL    HW2 6486   2.157   1.546   0.103
 1863SOL     OW 6487   3.073   3.007   1.699
 1863SOL    HW1 6488   3.081   2.908   1.702
 1863SOL    HW2 6489   3.129   3.043   1.624
 1864SOL     OW 6490   1.537   6.501   3.996
 1864SOL    HW1 6491   1.478   6.544   4.064
 1864SOL    HW2 6492   1.481   6.463   3.922
 1865SOL     OW 6493   4.416   2.278   6.416
 1865SOL    HW1 6494   4.401   2.377   6.426
 1865SOL    HW2 6495   4.330   2.230   6.430
 1866SOL     OW 6496   4.331   5.485   2.910
 1866SOL    HW1 6497   4.352   5.424   2.986
 1866SOL    HW2 6498   4.301   5.432   2.831
 1867SOL     OW 6499   0.964   4.041   6.679
 1867SOL    HW1 6500   0.933   4.015   6.770
 1867SOL    HW2 6501   0.964   4.141   6.671
 1868SOL     OW 6502   5.921   4.050   5.125
 1868SOL    HW1 6503   5.860   4.129   5.117
 1868SOL    HW2 6504   5.912   4.010   5.216
 1869SOL     OW 6505   6.256   1.306   5.255
 1869SOL    HW1 6506   6.289   1.398   5.234
 1869SOL    HW2 6507   6.271   1.246   5.177
 1870SOL     OW 6508   1.625   5.441   4.434
 1870SOL    HW1 6509   1.716   5.480   4.448
 1870SOL    HW2 6510   1.630   5.342   4.440
 1871SOL     OW 6511   1.370   0.181   1.104
 1871SOL    HW1 6512   1.279   0.210   1.134
 1871SOL    HW2 6513   1.382   0.204   1.007
 1872SOL     OW 6514   2.335   4.599   6.932
 1872SOL    HW1 6515   2.405   4.628   6.998
 1872SOL    HW2 6516   2.285   4.520   6.968
 1873SOL     OW 6517   4.242   1.405   6.969
 1873SOL    HW1 6518   4.266   1.503   6.971
 1873SOL    HW2 6519   4.220   1.378   6.876
 1874SOL     OW 6520   1.261   2.217   2.658
 1874SOL    HW1 6521   1.274   2.300   2.711
 1874SOL    HW2 6522   1.253   2.240   2.561
 1875SOL     OW 6523   0.394   6.629   0.574
 1875SOL    HW1 6524   0.350   6.643   0.485
 1875SOL    HW2 6525   0.406   6.531   0.590
 1876SOL     OW 6526   2.630   0.082   4.298
 1876SOL    HW1 6527   2.545   0.106   4.251
 1876SOL    HW2 6528   2.701   0.064   4.230
 1877SOL     OW 6529   0.709   0.035   3.372
 1877SOL    HW1 6530   0.773   0.055   3.298
 1877SOL    HW2 6531   0.755   0.049   3.460
 1878SOL     OW 6532   6.615   2.275   5.539
 1878SOL    HW1 6533   6.551   2.199   5.553
 1878SOL    HW2 6534   6.662   2.264   5.451
 1879SOL     OW 6535   1.339   4.269   5.067
 1879SOL    HW1 6536   1.324   4.170   5.072
 1879SOL    HW2 6537   1.251   4.316   5.060
 1880SOL     OW 6538   6.087   0.437   5.697
 1880SOL    HW1 6539   6.078   0.519   5.640
 1880SOL    HW2 6540   6.003   0.382   5.690
 1881SOL     OW 6541   6.855   2.308   0.302
 1881SOL    HW1 6542   6.886   2.394   0.343
 1881SOL    HW2 6543   6.756   2.311   0.287
 1882SOL     OW 6544   0.697   4.750   6.196
 1882SOL    HW1 6545   0.690   4.790   6.105
 1882SOL    HW2 6546   0.605   4.737   6.234
 1883SOL     OW 6547   0.091   1.809   3.942
 1883SOL    HW1 6548   0.018   1.877   3.930
 1883SOL    HW2 6549   0.175   1.856   3.971
 1884SOL     OW 6550   0.182   2.555   1.211
 1884SOL    HW1 6551   0.119   2.620   1.169
 1884SOL    HW2 6552   0.266   2.603   1.238
 1885SOL     OW 6553   1.819   1.811   4.594
 1885SOL    HW1 6554   1.915   1.802   4.565
 1885SOL    HW2 6555   1.790   1.728   4.642
 1886SOL     OW 6556   1.230   6.651   3.269
 1886SOL    HW1 6557   1.198   6.583   3.203
 1886SOL    HW2 6558   1.330   6.655   3.268
 1887SOL     OW 6559   1.958   5.938   6.547
 1887SOL    HW1 6560   1.913   5.920   6.459
 1887SOL    HW2 6561   2.031   5.871   6.560
 1888SOL     OW 6562   2.964   0.974   1.738
 1888SOL    HW1 6563   2.965   1.072   1.718
 1888SOL    HW2 6564   2.920   0.925   1.663
 1889SOL     OW 6565   0.373   3.210   3.303
 1889SOL    HW1 6566   0.346   3.137   3.365
 1889SOL    HW2 6567   0.392   3.173   3.212
 1890SOL     OW 6568   0.319   5.707   3.484
 1890SOL    HW1 6569   0.279   5.762   3.557
 1890SOL    HW2 6570   0.245   5.663   3.432
 1891SOL     OW 6571   3.387   3.357   2.954
 1891SOL    HW1 6572   3.291   3.373   2.934
 1891SOL    HW2 6573   3.404   3.259   2.963
 1892SOL     OW 6574   0.535   0.747   2.645
 1892SOL    HW1 6575   0.604   0.820   2.642
 1892SOL    HW2 6576   0.533   0.699   2.557
 1893SOL     OW 6577   3.624   2.905   4.115
 1893SOL    HW1 6578   3.716   2.929   4.147
 1893SOL    HW2 6579   3.558   2.923   4.188
 1894SOL     OW 6580   2.934   3.381   4.036
 1894SOL    HW1 6581   2.926   3.413   4.131
 1894SOL    HW2 6582   2.960   3.285   4.035
 1895SOL     OW 6583   2.150   5.737   6.556
 1895SOL    HW1 6584   2.097   5.664   6.512
 1895SOL    HW2 6585   2.188   5.703   6.642
 1896SOL     OW 6586   5.317   2.544   0.940
 1896SOL    HW1 6587   5.299   2.636   0.903
 1896SOL    HW2 6588   5.412   2.519   0.923
 1897SOL     OW 6589   1.994   4.865   4.300
 1897SOL    HW1 6590   1.979   4.942   4.363
 1897SOL    HW2 6591   2.064   4.804   4.338
 1898SOL     OW 6592   1.355   6.294   3.420
 1898SOL    HW1 6593   1.346   6.236   3.501
 1898SOL    HW2 6594   1.424   6.364   3.437
 1899SOL     OW 6595   0.083   0.465   2.292
 1899SOL    HW1 6596   0.023   0.394   2.255
 1899SOL    HW2 6597   0.027   0.541   2.325
 1900SOL     OW 6598   2.491   6.787   0.033
 1900SOL    HW1 6599   2.431   6.800   6.974
 1900SOL    HW2 6600   2.464   6.849   0.106
 1901SOL     OW 6601   2.894   3.557   1.322
 1901SOL    HW1 6602   2.897   3.497   1.402
 1901SOL    HW2 6603   2.883   3.652   1.353
 1902SOL     OW 6604   1.226   6.799   4.337
 1902SOL    HW1 6605   1.140   6.748   4.334
 1902SOL    HW2 6606   1.206   6.895   4.356
 1903SOL     OW 6607   0.420   2.526   4.531
 1903SOL    HW1 6608   0.518   2.546   4.542
 1903SOL    HW2 6609   0.367   2.606   4.557
 1904SOL     OW 6610   5.412   5.678   2.164
 1904SOL    HW1 6611   5.468   5.744   2.213
 1904SOL    HW2 6612   5.316   5.707   2.167
 1905SOL     OW 6613   6.787   0.749   4.167
 1905SOL    HW1 6614   6.761   0.823   4.106
 1905SOL    HW2 6615   6.868   0.775   4.219
 1906SOL     OW 6616   1.710   6.907   5.738
 1906SOL    HW1 6617   1.651   6.872   5.811
 1906SOL    HW2 6618   1.799   6.931   5.775
 1907SOL     OW 6619   5.910   2.582   0.061
 1907SOL    HW1 6620   5.939   2.593   0.156
 1907SOL    HW2 6621   5.966   2.641   0.002
 1908SOL     OW 6622   3.301   1.203   1.111
 1908SOL    HW1 6623   3.242   1.142   1.059
 1908SOL    HW2 6624   3.395   1.170   1.108
 1909SOL     OW 6625   6.629   4.492   4.830
 1909SOL    HW1 6626   6.618   4.588   4.803
 1909SOL    HW2 6627   6.586   4.478   4.920
 1910SOL     OW 6628   6.776   6.334   5.790
 1910SOL    HW1 6629   6.815   6.293   5.707
 1910SOL    HW2 6630   6.678   6.350   5.776
 1911SOL     OW 6631   0.041   5.139   3.874
 1911SOL    HW1 6632   0.070   5.079   3.949
 1911SOL    HW2 6633   0.097   5.222   3.875
 1912SOL     OW 6634   2.693   5.097   2.091
 1912SOL    HW1 6635   2.696   5.038   2.172
 1912SOL    HW2 6636   2.784   5.136   2.076
 1913SOL     OW 6637   3.304   4.581   5.967
 1913SOL    HW1 6638   3.307   4.490   5.926
 1913SOL    HW2 6639   3.393   4.625   5.957
 1914SOL     OW 6640   2.457   5.008   6.142
 1914SOL    HW1 6641   2.386   4.957   6.190
 1914SOL    HW2 6642   2.536   4.948   6.126
 1915SOL     OW 6643   4.238   2.394   5.515
 1915SOL    HW1 6644   4.228   2.484   5.559
 1915SOL    HW2 6645   4.256   2.325   5.586
 1916SOL     OW 6646   4.279   0.775   2.122
 1916SOL    HW1 6647   4.323   0.856   2.084
 1916SOL    HW2 6648   4.325   0.749   2.207
 1917SOL     OW 6649   2.195   3.979   1.566
 1917SOL    HW1 6650   2.176   4.075   1.586
 1917SOL    HW2 6651   2.116   3.923   1.592
 1918SOL     OW 6652   5.486   2.885   3.975
 1918SOL    HW1 6653   5.452   2.924   3.889
 1918SOL    HW2 6654   5.412   2.882   4.042
 1919SOL     OW 6655   0.221   2.447   0.817
 1919SOL    HW1 6656   0.299   2.510   0.813
 1919SOL    HW2 6657   0.193   2.423   0.724
 1920SOL     OW 6658   5.032   2.752   0.789
 1920SOL    HW1 6659   5.125   2.766   0.824
 1920SOL    HW2 6660   4.979   2.702   0.857
 1921SOL     OW 6661   1.702   2.660   6.794
 1921SOL    HW1 6662   1.738   2.718   6.868
 1921SOL    HW2 6663   1.744   2.688   6.708
 1922SOL     OW 6664   3.552   3.257   2.267
 1922SOL    HW1 6665   3.566   3.159   2.256
 1922SOL    HW2 6666   3.555   3.280   2.365
 1923SOL     OW 6667   3.971   0.574   5.044
 1923SOL    HW1 6668   4.047   0.627   5.081
 1923SOL    HW2 6669   4.006   0.507   4.979
 1924SOL     OW 6670   4.362   0.602   0.161
 1924SOL    HW1 6671   4.383   0.505   0.152
 1924SOL    HW2 6672   4.312   0.633   0.080
 1925SOL     OW 6673   1.604   4.235   0.673
 1925SOL    HW1 6674   1.602   4.154   0.731
 1925SOL    HW2 6675   1.636   4.313   0.726
 1926SOL     OW 6676   3.476   0.226   2.418
 1926SOL    HW1 6677   3.425   0.186   2.342
 1926SOL    HW2 6678   3.562   0.263   2.384
 1927SOL     OW 6679   2.382   5.240   1.700
 1927SOL    HW1 6680   2.439   5.237   1.618
 1927SOL    HW2 6681   2.414   5.171   1.765
 1928SOL     OW 6682   4.896   4.491   3.620
 1928SOL    HW1 6683   4.836   4.418   3.587
 1928SOL    HW2 6684   4.926   4.547   3.543
 1929SOL     OW 6685   3.434   0.057   3.118
 1929SOL    HW1 6686   3.382   7.015   3.177
 1929SOL    HW2 6687   3.531   0.054   3.144
 1930SOL     OW 6688   4.320   2.959   6.949
 1930SOL    HW1 6689   4.390   2.907   6.900
 1930SOL    HW2 6690   4.314   2.926   0.023
 1931SOL     OW 6691   7.016   1.758   4.709
 1931SOL    HW1 6692   0.068   1.694   4.738
 1931SOL    HW2 6693   6.945   1.707   4.661
 1932SOL     OW 6694   4.138   2.205   1.917
 1932SOL    HW1 6695   4.209   2.271   1.894
 1932SOL    HW2 6696   4.053   2.228   1.870
 1933SOL     OW 6697   1.228   1.071   1.290
 1933SOL    HW1 6698   1.275   1.056   1.377
 1933SOL    HW2 6699   1.261   1.156   1.249
 1934SOL     OW 6700   0.198   0.637   7.008
 1934SOL    HW1 6701   0.164   0.632   0.082
 1934SOL    HW2 6702   0.151   0.710   6.959
 1935SOL     OW 6703   6.539   5.099   4.204
 1935SOL    HW1 6704   6.487   5.164   4.259
 1935SOL    HW2 6705   6.620   5.070   4.254
 1936SOL     OW 6706   4.850   2.700   5.554
 1936SOL    HW1 6707   4.753   2.677   5.553
 1936SOL    HW2 6708   4.865   2.784   5.501
 1937SOL     OW 6709   5.725   5.018   6.439
 1937SOL    HW1 6710   5.784   4.939   6.456
 1937SOL    HW2 6711   5.636   4.987   6.406
 1938SOL     OW 6712   6.875   3.089   6.269
 1938SOL    HW1 6713   6.970   3.067   6.289
 1938SOL    HW2 6714   6.864   3.188   6.265
 1939SOL     OW 6715   1.043   0.749   5.042
 1939SOL    HW1 6716   1.140   0.757   5.021
 1939SOL    HW2 6717   0.989   0.769   4.960
 1940SOL     OW 6718   6.748   5.068   0.651
 1940SOL    HW1 6719   6.807   5.103   0.724
 1940SOL    HW2 6720   6.660   5.116   0.655
 1941SOL     OW 6721   5.322   1.844   4.536
 1941SOL    HW1 6722   5.229   1.837   4.498
 1941SOL    HW2 6723   5.329   1.927   4.591
 1942SOL     OW 6724   6.537   3.959   2.732
 1942SOL    HW1 6725   6.446   3.938   2.695
 1942SOL    HW2 6726   6.560   3.892   2.803
 1943SOL     OW 6727   1.019   2.099   2.782
 1943SOL    HW1 6728   1.099   2.147   2.748
 1943SOL    HW2 6729   0.944   2.164   2.796
 1944SOL     OW 6730   6.967   2.335   3.549
 1944SOL    HW1 6731   6.885   2.369   3.504
 1944SOL    HW2 6732   6.951   2.327   3.647
 1945SOL     OW 6733   4.881   1.544   1.671
 1945SOL    HW1 6734   4.869   1.557   1.770
 1945SOL    HW2 6735   4.794   1.519   1.630
 1946SOL     OW 6736   6.274   5.037   0.737
 1946SOL    HW1 6737   6.335   5.097   0.686
 1946SOL    HW2 6738   6.243   5.084   0.820
 1947SOL     OW 6739   6.578   4.642   3.577
 1947SOL    HW1 6740   6.543   4.730   3.611
 1947SOL    HW2 6741   6.639   4.602   3.644
 1948SOL     OW 6742   4.954   3.581   3.128
 1948SOL    HW1 6743   4.936   3.614   3.220
 1948SOL    HW2 6744   5.052   3.576   3.112
 1949SOL     OW 6745   3.313   5.166   0.075
 1949SOL    HW1 6746   3.262   5.248   0.049
 1949SOL    HW2 6747   3.256   5.109   0.134
 1950SOL     OW 6748   3.190   3.659   3.223
 1950SOL    HW1 6749   3.212   3.756   3.223
 1950SOL    HW2 6750   3.165   3.630   3.316
 1951SOL     OW 6751   6.109   4.726   5.176
 1951SOL    HW1 6752   6.188   4.787   5.185
 1951SOL    HW2 6753   6.028   4.771   5.215
 1952SOL     OW 6754   6.178   5.359   0.565
 1952SOL    HW1 6755   6.144   5.452   0.574
 1952SOL    HW2 6756   6.261   5.348   0.621
 1953SOL     OW 6757   0.780   1.435   6.979
 1953SOL    HW1 6758   0.762   1.440   6.880
 1953SOL    HW2 6759   0.821   1.520   7.009
 1954SOL     OW 6760   4.235   0.058   2.345
 1954SOL    HW1 6761   4.255   0.153   2.367
 1954SOL    HW2 6762   4.311   0.000   2.374
 1955SOL     OW 6763   0.184   2.088   3.647
 1955SOL    HW1 6764   0.106   2.088   3.584
 1955SOL    HW2 6765   0.170   2.017   3.717
 1956SOL     OW 6766   5.754   0.400   2.091
 1956SOL    HW1 6767   5.681   0.441   2.145
 1956SOL    HW2 6768   5.755   0.301   2.105
 1957SOL     OW 6769   5.750   2.223   4.904
 1957SOL    HW1 6770   5.818   2.184   4.842
 1957SOL    HW2 6771   5.662   2.176   4.890
 1958SOL     OW 6772   4.265   1.935   0.512
 1958SOL    HW1 6773   4.299   1.843   0.491
 1958SOL    HW2 6774   4.212   1.969   0.435
 1959SOL     OW 6775   0.812   1.362   5.458
 1959SOL    HW1 6776   0.776   1.413   5.380
 1959SOL    HW2 6777   0.736   1.330   5.515
 1960SOL     OW 6778   5.721   4.238   4.141
 1960SOL    HW1 6779   5.754   4.226   4.047
 1960SOL    HW2 6780   5.759   4.323   4.178
 1961SOL     OW 6781   0.471   3.503   4.075
 1961SOL    HW1 6782   0.531   3.581   4.093
 1961SOL    HW2 6783   0.383   3.535   4.042
 1962SOL     OW 6784   0.922   0.686   2.883
 1962SOL    HW1 6785   1.005   0.716   2.930
 1962SOL    HW2 6786   0.875   0.765   2.844
 1963SOL     OW 6787   0.410   2.619   0.687
 1963SOL    HW1 6788   0.426   2.649   0.781
 1963SOL    HW2 6789   0.462   2.676   0.624
 1964SOL     OW 6790   5.836   3.741   0.849
 1964SOL    HW1 6791   5.798   3.830   0.821
 1964SOL    HW2 6792   5.895   3.754   0.929
 1965SOL     OW 6793   6.696   4.049   3.815
 1965SOL    HW1 6794   6.693   4.148   3.809
 1965SOL    HW2 6795   6.647   4.018   3.897
 1966SOL     OW 6796   1.383   4.904   0.020
 1966SOL    HW1 6797   1.406   4.978   0.083
 1966SOL    HW2 6798   1.364   4.820   0.072
 1967SOL     OW 6799   6.312   3.041   3.768
 1967SOL    HW1 6800   6.301   3.053   3.867
 1967SOL    HW2 6801   6.375   2.966   3.750
 1968SOL     OW 6802   2.686   1.440   4.778
 1968SOL    HW1 6803   2.784   1.421   4.783
 1968SOL    HW2 6804   2.671   1.539   4.788
 1969SOL     OW 6805   2.097   6.268   0.570
 1969SOL    HW1 6806   2.100   6.199   0.497
 1969SOL    HW2 6807   2.184   6.317   0.573
 1970SOL     OW 6808   5.621   5.282   4.614
 1970SOL    HW1 6809   5.607   5.324   4.704
 1970SOL    HW2 6810   5.576   5.193   4.611
 1971SOL     OW 6811   1.852   5.375   5.133
 1971SOL    HW1 6812   1.776   5.318   5.165
 1971SOL    HW2 6813   1.891   5.425   5.210
 1972SOL     OW 6814   5.772   2.786   2.395
 1972SOL    HW1 6815   5.825   2.794   2.479
 1972SOL    HW2 6816   5.765   2.690   2.369
 1973SOL     OW 6817   2.368   2.830   0.900
 1973SOL    HW1 6818   2.410   2.911   0.939
 1973SOL    HW2 6819   2.397   2.749   0.951
 1974SOL     OW 6820   2.385   6.007   4.882
 1974SOL    HW1 6821   2.458   5.973   4.941
 1974SOL    HW2 6822   2.424   6.037   4.795
 1975SOL     OW 6823   2.045   2.410   3.483
 1975SOL    HW1 6824   2.067   2.485   3.545
 1975SOL    HW2 6825   2.076   2.432   3.391
 1976SOL     OW 6826   0.548   0.061   5.667
 1976SOL    HW1 6827   0.646   0.072   5.680
 1976SOL    HW2 6828   0.502   0.059   5.756
 1977SOL     OW 6829   1.904   4.778   5.777
 1977SOL    HW1 6830   1.837   4.708   5.800
 1977SOL    HW2 6831   1.938   4.820   5.861
 1978SOL     OW 6832   3.089   0.091   1.605
 1978SOL    HW1 6833   2.998   0.131   1.619
 1978SOL    HW2 6834   3.079   7.012   1.592
 1979SOL     OW 6835   6.435   4.877   6.150
 1979SOL    HW1 6836   6.462   4.971   6.171
 1979SOL    HW2 6837   6.495   4.813   6.198
 1980SOL     OW 6838   3.751   1.282   1.133
 1980SOL    HW1 6839   3.825   1.327   1.083
 1980SOL    HW2 6840   3.729   1.336   1.214
 1981SOL     OW 6841   3.283   2.126   3.016
 1981SOL    HW1 6842   3.316   2.032   3.003
 1981SOL    HW2 6843   3.285   2.148   3.114
 1982SOL     OW 6844   0.782   2.921   5.128
 1982SOL    HW1 6845   0.875   2.909   5.092
 1982SOL    HW2 6846   0.767   2.857   5.204
 1983SOL     OW 6847   0.321   0.548   2.215
 1983SOL    HW1 6848   0.383   0.526   2.291
 1983SOL    HW2 6849   0.228   0.522   2.240
 1984SOL     OW 6850   4.541   2.865   5.823
 1984SOL    HW1 6851   4.473   2.832   5.758
 1984SOL    HW2 6852   4.586   2.946   5.786
 1985SOL     OW 6853   6.532   3.146   2.717
 1985SOL    HW1 6854   6.591   3.174   2.641
 1985SOL    HW2 6855   6.439   3.132   2.683
 1986SOL     OW 6856   4.048   3.063   2.079
 1986SOL    HW1 6857   4.076   2.987   2.020
 1986SOL    HW2 6858   4.073   3.150   2.036
 1987SOL     OW 6859   2.620   1.569   0.753
 1987SOL    HW1 6860   2.675   1.571   0.836
 1987SOL    HW2 6861   2.638   1.484   0.703
 1988SOL     OW 6862   0.344   2.450   1.774
 1988SOL    HW1 6863   0.291   2.384   1.722
 1988SOL    HW2 6864   0.373   2.410   1.861
 1989SOL     OW 6865   3.083   4.868   4.526
 1989SOL    HW1 6866   3.004   4.825   4.570
 1989SOL    HW2 6867   3.075   4.861   4.426
 1990SOL     OW 6868   4.320   0.546   0.426
 1990SOL    HW1 6869   4.317   0.582   0.333
 1990SOL    HW2 6870   4.233   0.502   0.448
 1991SOL     OW 6871   2.798   5.195   0.999
 1991SOL    HW1 6872   2.843   5.112   0.966
 1991SOL    HW2 6873   2.864   5.270   1.003
 1992SOL     OW 6874   0.606   6.417   2.041
 1992SOL    HW1 6875   0.689   6.472   2.039
 1992SOL    HW2 6876   0.576   6.397   1.947
 1993SOL     OW 6877   2.171   2.336   2.888
 1993SOL    HW1 6878   2.143   2.349   2.793
 1993SOL    HW2 6879   2.251   2.276   2.891
 1994SOL     OW 6880   3.330   2.901   1.440
 1994SOL    HW1 6881   3.394   2.846   1.386
 1994SOL    HW2 6882   3.236   2.881   1.411
 1995SOL     OW 6883   5.307   2.113   4.629
 1995SOL    HW1 6884   5.219   2.161   4.622
 1995SOL    HW2 6885   5.380   2.173   4.595
 1996SOL     OW 6886   4.152   1.155   1.232
 1996SOL    HW1 6887   4.121   1.064   1.205
 1996SOL    HW2 6888   4.174   1.155   1.329
 1997SOL     OW 6889   3.886   0.582   4.130
 1997SOL    HW1 6890   3.834   0.664   4.152
 1997SOL    HW2 6891   3.861   0.508   4.191
 1998SOL     OW 6892   2.012   3.573   1.464
 1998SOL    HW1 6893   1.973   3.504   1.403
 1998SOL    HW2 6894   2.069   3.529   1.533
 1999SOL     OW 6895   1.007   0.100   0.803
 1999SOL    HW1 6896   0.921   0.051   0.787
 1999SOL    HW2 6897   1.008   0.136   0.897
 2000SOL     OW 6898   4.202   4.469   5.923
 2000SOL    HW1 6899   4.109   4.432   5.920
 2000SOL    HW2 6900   4.223   4.501   6.016
 2001SOL     OW 6901   1.961   1.668   0.992
 2001SOL    HW1 6902   1.863   1.687   0.985
 2001SOL    HW2 6903   2.002   1.731   1.058
 2002SOL     OW 6904   0.151   5.284   0.313
 2002SOL    HW1 6905   0.162   5.382   0.333
 2002SOL    HW2 6906   0.075   5.248   0.366
 2003SOL     OW 6907   6.283   4.854   2.798
 2003SOL    HW1 6908   6.296   4.797   2.879
 2003SOL    HW2 6909   6.186   4.875   2.788
 2004SOL     OW 6910   4.089   6.830   3.206
 2004SOL    HW1 6911   4.067   6.792   3.296
 2004SOL    HW2 6912   4.083   6.758   3.137
 2005SOL     OW 6913   1.361   6.107   6.720
 2005SOL    HW1 6914   1.328   6.021   6.759
 2005SOL    HW2 6915   1.309   6.183   6.759
 2006SOL     OW 6916   5.677   5.954   2.113
 2006SOL    HW1 6917   5.597   5.943   2.054
 2006SOL    HW2 6918   5.650   5.938   2.208
 2007SOL     OW 6919   5.162   4.636   6.781
 2007SOL    HW1 6920   5.240   4.650   6.842
 2007SOL    HW2 6921   5.160   4.710   6.713
 2008SOL     OW 6922   1.912   3.141   3.471
 2008SOL    HW1 6923   1.856   3.059   3.485
 2008SOL    HW2 6924   1.986   3.119   3.408
 2009SOL     OW 6925   6.481   0.203   2.870
 2009SOL    HW1 6926   6.405   0.193   2.806
 2009SOL    HW2 6927   6.534   0.119   2.874
 2010SOL     OW 6928   0.154   2.324   1.630
 2010SOL    HW1 6929   0.142   2.245   1.569
 2010SOL    HW2 6930   0.207   2.394   1.583
 2011SOL     OW 6931   1.368   0.149   5.324
 2011SOL    HW1 6932   1.397   0.099   5.406
 2011SOL    HW2 6933   1.281   0.194   5.342
 2012SOL     OW 6934   1.339   3.112   1.813
 2012SOL    HW1 6935   1.421   3.096   1.759
 2012SOL    HW2 6936   1.333   3.209   1.836
 2013SOL     OW 6937   0.519   3.158   1.799
 2013SOL    HW1 6938   0.566   3.192   1.880
 2013SOL    HW2 6939   0.513   3.058   1.803
 2014SOL     OW 6940   4.008   0.842   4.736
 2014SOL    HW1 6941   4.090   0.848   4.678
 2014SOL    HW2 6942   3.976   0.747   4.738
 2015SOL     OW 6943   4.240   0.064   1.624
 2015SOL    HW1 6944   4.153   0.065   1.674
 2015SOL    HW2 6945   4.288   0.150   1.638
 2016SOL     OW 6946   1.739   0.780   4.704
 2016SOL    HW1 6947   1.816   0.718   4.687
 2016SOL    HW2 6948   1.748   0.861   4.646
 2017SOL     OW 6949   4.209   6.503   3.729
 2017SOL    HW1 6950   4.143   6.494   3.803
 2017SOL    HW2 6951   4.166   6.477   3.643
 2018SOL     OW 6952   0.898   0.668   4.495
 2018SOL    HW1 6953   0.850   0.602   4.552
 2018SOL    HW2 6954   0.917   0.627   4.405
 2019SOL     OW 6955   5.392   5.139   6.216
 2019SOL    HW1 6956   5.334   5.075   6.267
 2019SOL    HW2 6957   5.459   5.087   6.162
 2020SOL     OW 6958   1.939   6.432   0.302
 2020SOL    HW1 6959   2.014   6.414   0.238
 2020SOL    HW2 6960   1.964   6.510   0.360
 2021SOL     OW 6961   6.905   6.154   4.532
 2021SOL    HW1 6962   6.996   6.136   4.569
 2021SOL    HW2 6963   6.875   6.075   4.479
 2022SOL     OW 6964   2.057   3.868   4.530
 2022SOL    HW1 6965   2.053   3.778   4.575
 2022SOL    HW2 6966   2.107   3.932   4.589
 2023SOL     OW 6967   6.795   6.850   6.877
 2023SOL    HW1 6968   6.792   6.929   6.816
 2023SOL    HW2 6969   6.735   6.865   6.956
 2024SOL     OW 6970   0.611   6.051   3.851
 2024SOL    HW1 6971   0.678   5.981   3.828
 2024SOL    HW2 6972   0.533   6.009   3.897
 2025SOL     OW 6973   1.410   6.278   4.222
 2025SOL    HW1 6974   1.397   6.199   4.162
 2025SOL    HW2 6975   1.321   6.311   4.253
 2026SOL     OW 6976   0.367   0.361   5.970
 2026SOL    HW1 6977   0.450   0.352   6.024
 2026SOL    HW2 6978   0.306   0.428   6.014
 2027SOL     OW 6979   6.718   6.077   1.886
 2027SOL    HW1 6980   6.711   6.033   1.975
 2027SOL    HW2 6981   6.769   6.163   1.895
 2028SOL     OW 6982   3.134   5.523   4.808
 2028SOL    HW1 6983   3.184   5.510   4.894
 2028SOL    HW2 6984   3.036   5.515   4.824
 2029SOL     OW 6985   5.878   3.003   6.350
 2029SOL    HW1 6986   5.854   3.096   6.377
 2029SOL    HW2 6987   5.935   2.961   6.421
 2030SOL     OW 6988   1.923   0.020   1.959
 2030SOL    HW1 6989   1.945   7.005   2.050
 2030SOL    HW2 6990   1.853   6.982   1.918
 2031SOL     OW 6991   0.527   5.974   4.294
 2031SOL    HW1 6992   0.483   5.983   4.204
 2031SOL    HW2 6993   0.554   6.064   4.327
 2032SOL     OW 6994   2.401   2.441   5.778
 2032SOL    HW1 6995   2.379   2.423   5.874
 2032SOL    HW2 6996   2.340   2.388   5.719
 2033SOL     OW 6997   2.566   2.044   0.718
 2033SOL    HW1 6998   2.631   1.976   0.753
 2033SOL    HW2 6999   2.611   2.100   0.649
 2034SOL     OW 7000   0.611   4.093   4.914
 2034SOL    HW1 7001   0.523   4.097   4.961
 2034SOL    HW2 7002   0.684   4.084   4.981
 2035SOL     OW 7003   5.122   6.935   3.344
 2035SOL    HW1 7004   5.162   6.844   3.344
 2035SOL    HW2 7005   5.023   6.928   3.338
 2036SOL     OW 7006   0.641   5.059   6.930
 2036SOL    HW1 7007   0.594   4.976   6.960
 2036SOL    HW2 7008   0.587   5.139   6.955
 2037SOL     OW 7009   1.030   2.354   6.912
 2037SOL    HW1 7010   0.934   2.325   6.915
 2037SOL    HW2 7011   1.057   2.368   6.817
 2038SOL     OW 7012   1.222   1.191   6.360
 2038SOL    HW1 7013   1.197   1.138   6.278
 2038SOL    HW2 7014   1.229   1.288   6.336
 2039SOL     OW 7015   5.098   6.486   3.510
 2039SOL    HW1 7016   5.015   6.530   3.544
 2039SOL    HW2 7017   5.074   6.420   3.438
 2040SOL     OW 7018   2.311   2.312   0.429
 2040SOL    HW1 7019   2.316   2.364   0.344
 2040SOL    HW2 7020   2.367   2.230   0.422
 2041SOL     OW 7021   2.734   0.766   6.415
 2041SOL    HW1 7022   2.668   0.769   6.340
 2041SOL    HW2 7023   2.814   0.822   6.391
 2042SOL     OW 7024   6.071   0.902   5.947
 2042SOL    HW1 7025   6.059   0.889   5.849
 2042SOL    HW2 7026   6.112   0.992   5.964
 2043SOL     OW 7027   0.474   4.001   1.381
 2043SOL    HW1 7028   0.378   4.005   1.408
 2043SOL    HW2 7029   0.532   4.030   1.457
 2044SOL     OW 7030   4.134   0.688   1.384
 2044SOL    HW1 7031   4.218   0.686   1.438
 2044SOL    HW2 7032   4.098   0.595   1.373
 2045SOL     OW 7033   1.293   6.518   4.534
 2045SOL    HW1 7034   1.286   6.568   4.621
 2045SOL    HW2 7035   1.389   6.506   4.510
 2046SOL     OW 7036   0.909   2.551   5.091
 2046SOL    HW1 7037   0.815   2.557   5.056
 2046SOL    HW2 7038   0.906   2.533   5.189
 2047SOL     OW 7039   0.043   0.661   0.577
 2047SOL    HW1 7040   0.081   0.666   0.669
 2047SOL    HW2 7041   0.062   0.747   0.529
 2048SOL     OW 7042   1.183   2.068   3.939
 2048SOL    HW1 7043   1.190   2.165   3.964
 2048SOL    HW2 7044   1.164   2.060   3.842
 2049SOL     OW 7045   4.655   2.110   4.624
 2049SOL    HW1 7046   4.668   2.103   4.525
 2049SOL    HW2 7047   4.561   2.086   4.647
 2050SOL     OW 7048   0.684   1.196   3.933
 2050SOL    HW1 7049   0.665   1.294   3.928
 2050SOL    HW2 7050   0.781   1.179   3.920
 2051SOL     OW 7051   2.347   6.608   0.206
 2051SOL    HW1 7052   2.360   6.623   0.304
 2051SOL    HW2 7053   2.412   6.665   0.155
 2052SOL     OW 7054   0.842   4.287   0.290
 2052SOL    HW1 7055   0.924   4.302   0.346
 2052SOL    HW2 7056   0.842   4.192   0.258
 2053SOL     OW 7057   6.619   5.180   3.088
 2053SOL    HW1 7058   6.655   5.263   3.131
 2053SOL    HW2 7059   6.532   5.201   3.043
 2054SOL     OW 7060   2.957   3.762   2.894
 2054SOL    HW1 7061   2.997   3.757   2.803
 2054SOL    HW2 7062   2.886   3.833   2.896
 2055SOL     OW 7063   3.735   2.439   5.343
 2055SOL    HW1 7064   3.806   2.509   5.345
 2055SOL    HW2 7065   3.649   2.476   5.377
 2056SOL     OW 7066   3.430   4.688   1.284
 2056SOL    HW1 7067   3.422   4.608   1.226
 2056SOL    HW2 7068   3.355   4.689   1.350
 2057SOL     OW 7069   5.244   3.124   4.205
 2057SOL    HW1 7070   5.188   3.125   4.288
 2057SOL    HW2 7071   5.334   3.164   4.225
 2058SOL     OW 7072   6.760   6.969   3.550
 2058SOL    HW1 7073   6.842   0.006   3.555
 2058SOL    HW2 7074   6.725   6.954   3.643
 2059SOL     OW 7075   1.716   1.142   5.394
 2059SOL    HW1 7076   1.801   1.139   5.446
 2059SOL    HW2 7077   1.639   1.156   5.457
 2060SOL     OW 7078   1.887   2.988   6.782
 2060SOL    HW1 7079   1.971   3.012   6.831
 2060SOL    HW2 7080   1.808   3.016   6.837
 2061SOL     OW 7081   1.720   2.643   2.809
 2061SOL    HW1 7082   1.713   2.737   2.841
 2061SOL    HW2 7083   1.778   2.639   2.728
 2062SOL     OW 7084   0.127   4.993   4.880
 2062SOL    HW1 7085   0.058   5.032   4.941
 2062SOL    HW2 7086   0.100   4.899   4.856
 2063SOL     OW 7087   1.052   1.655   4.362
 2063SOL    HW1 7088   1.117   1.730   4.348
 2063SOL    HW2 7089   1.040   1.607   4.275
 2064SOL     OW 7090   0.930   3.321   3.879
 2064SOL    HW1 7091   0.889   3.357   3.795
 2064SOL    HW2 7092   0.957   3.226   3.864
 2065SOL     OW 7093   4.216   3.564   5.816
 2065SOL    HW1 7094   4.152   3.487   5.811
 2065SOL    HW2 7095   4.207   3.620   5.734
 2066SOL     OW 7096   1.065   3.213   5.692
 2066SOL    HW1 7097   1.027   3.289   5.641
 2066SOL    HW2 7098   1.162   3.229   5.708
 2067SOL     OW 7099   6.236   4.849   1.612
 2067SOL    HW1 7100   6.178   4.929   1.598
 2067SOL    HW2 7101   6.331   4.878   1.622
 2068SOL     OW 7102   4.517   0.644   4.748
 2068SOL    HW1 7103   4.489   0.708   4.677
 2068SOL    HW2 7104   4.455   0.566   4.749
 2069SOL     OW 7105   0.049   0.919   3.418
 2069SOL    HW1 7106   0.068   1.015   3.441
 2069SOL    HW2 7107   6.973   0.909   3.394
 2070SOL     OW 7108   1.233   5.014   1.626
 2070SOL    HW1 7109   1.261   5.105   1.656
 2070SOL    HW2 7110   1.184   4.968   1.701
 2071SOL     OW 7111   0.484   1.908   5.906
 2071SOL    HW1 7112   0.563   1.849   5.921
 2071SOL    HW2 7113   0.428   1.910   5.989
 2072SOL     OW 7114   5.187   4.132   5.396
 2072SOL    HW1 7115   5.131   4.144   5.477
 2072SOL    HW2 7116   5.221   4.038   5.392
 2073SOL     OW 7117   3.381   5.596   6.983
 2073SOL    HW1 7118   3.473   5.562   6.965
 2073SOL    HW2 7119   3.326   5.524   0.005
 2074SOL     OW 7120   1.715   4.829   6.131
 2074SOL    HW1 7121   1.750   4.735   6.123
 2074SOL    HW2 7122   1.671   4.855   6.045
 2075SOL     OW 7123   5.909   2.978   1.438
 2075SOL    HW1 7124   5.921   2.913   1.364
 2075SOL    HW2 7125   5.893   3.069   1.401
 2076SOL     OW 7126   6.166   6.814   4.493
 2076SOL    HW1 7127   6.223   6.845   4.418
 2076SOL    HW2 7128   6.083   6.771   4.457
 2077SOL     OW 7129   6.029   4.624   0.969
 2077SOL    HW1 7130   6.030   4.533   0.927
 2077SOL    HW2 7131   6.044   4.693   0.899
 2078SOL     OW 7132   0.733   3.401   5.562
 2078SOL    HW1 7133   0.833   3.403   5.559
 2078SOL    HW2 7134   0.698   3.336   5.495
 2079SOL     OW 7135   5.186   0.832   2.574
 2079SOL    HW1 7136   5.173   0.751   2.631
 2079SOL    HW2 7137   5.279   0.866   2.586
 2080SOL     OW 7138   2.442   3.207   6.289
 2080SOL    HW1 7139   2.345   3.185   6.302
 2080SOL    HW2 7140   2.452   3.306   6.279
 2081SOL     OW 7141   5.783   6.225   1.853
 2081SOL    HW1 7142   5.876   6.223   1.816
 2081SOL    HW2 7143   5.765   6.141   1.904
 2082SOL     OW 7144   6.459   6.090   4.311
 2082SOL    HW1 7145   6.438   6.187   4.322
 2082SOL    HW2 7146   6.537   6.080   4.249
 2083SOL     OW 7147   0.050   6.735   3.971
 2083SOL    HW1 7148   7.008   6.666   4.009
 2083SOL    HW2 7149   0.111   6.767   4.044
 2084SOL     OW 7150   6.619   2.151   0.587
 2084SOL    HW1 7151   6.602   2.249   0.596
 2084SOL    HW2 7152   6.551   2.111   0.526
 2085SOL     OW 7153   6.474   5.839   0.609
 2085SOL    HW1 7154   6.461   5.785   0.692
 2085SOL    HW2 7155   6.543   5.909   0.625
 2086SOL     OW 7156   4.828   1.045   0.005
 2086SOL    HW1 7157   4.798   1.132   0.045
 2086SOL    HW2 7158   4.871   0.989   0.076
 2087SOL     OW 7159   4.326   1.676   6.961
 2087SOL    HW1 7160   4.333   1.758   7.018
 2087SOL    HW2 7161   4.260   1.692   6.887
 2088SOL     OW 7162   0.789   5.099   5.410
 2088SOL    HW1 7163   0.712   5.072   5.467
 2088SOL    HW2 7164   0.875   5.082   5.458
 2089SOL     OW 7165   2.392   3.221   6.587
 2089SOL    HW1 7166   2.404   3.203   6.489
 2089SOL    HW2 7167   2.479   3.252   6.626
 2090SOL     OW 7168   5.363   3.101   5.868
 2090SOL    HW1 7169   5.420   3.124   5.947
 2090SOL    HW2 7170   5.267   3.115   5.891
 2091SOL     OW 7171   5.285   5.990   1.093
 2091SOL    HW1 7172   5.208   5.930   1.115
 2091SOL    HW2 7173   5.266   6.082   1.130
 2092SOL     OW 7174   3.666   3.540   1.727
 2092SOL    HW1 7175   3.685   3.638   1.732
 2092SOL    HW2 7176   3.574   3.522   1.763
 2093SOL     OW 7177   4.397   1.293   1.466
 2093SOL    HW1 7178   4.349   1.378   1.446
 2093SOL    HW2 7179   4.333   1.225   1.501
 2094SOL     OW 7180   5.759   1.971   6.688
 2094SOL    HW1 7181   5.708   1.918   6.757
 2094SOL    HW2 7182   5.766   1.918   6.604
 2095SOL     OW 7183   5.143   5.594   3.808
 2095SOL    HW1 7184   5.126   5.584   3.906
 2095SOL    HW2 7185   5.242   5.593   3.792
 2096SOL     OW 7186   3.903   6.737   1.349
 2096SOL    HW1 7187   3.970   6.779   1.410
 2096SOL    HW2 7188   3.815   6.731   1.397
 2097SOL     OW 7189   0.680   5.636   6.066
 2097SOL    HW1 7190   0.741   5.570   6.110
 2097SOL    HW2 7191   0.731   5.691   6.000
 2098SOL     OW 7192   2.965   6.103   3.496
 2098SOL    HW1 7193   3.051   6.095   3.545
 2098SOL    HW2 7194   2.906   6.170   3.542
 2099SOL     OW 7195   4.476   2.087   6.191
 2099SOL    HW1 7196   4.489   2.171   6.138
 2099SOL    HW2 7197   4.441   2.110   6.282
 2100SOL     OW 7198   5.059   6.688   1.682
 2100SOL    HW1 7199   5.142   6.643   1.649
 2100SOL    HW2 7200   4.999   6.709   1.604
 2101SOL     OW 7201   1.003   0.418   3.052
 2101SOL    HW1 7202   0.955   0.343   3.007
 2101SOL    HW2 7203   0.968   0.506   3.018
 2102SOL     OW 7204   3.642   2.285   1.212
 2102SOL    HW1 7205   3.626   2.275   1.310
 2102SOL    HW2 7206   3.727   2.239   1.188
 2103SOL     OW 7207   2.010   6.486   0.683
 2103SOL    HW1 7208   2.007   6.551   0.607
 2103SOL    HW2 7209   2.028   6.394   0.647
 2104SOL     OW 7210   1.863   4.057   3.447
 2104SOL    HW1 7211   1.859   3.998   3.527
 2104SOL    HW2 7212   1.914   4.140   3.469
 2105SOL     OW 7213   5.534   6.809   5.075
 2105SOL    HW1 7214   5.541   6.889   5.015
 2105SOL    HW2 7215   5.559   6.727   5.024
 2106SOL     OW 7216   4.216   3.345   1.277
 2106SOL    HW1 7217   4.228   3.389   1.188
 2106SOL    HW2 7218   4.280   3.385   1.343
 2107SOL     OW 7219   4.987   5.025   5.191
 2107SOL    HW1 7220   4.916   4.956   5.187
 2107SOL    HW2 7221   4.986   5.068   5.282
 2108SOL     OW 7222   5.027   0.361   4.960
 2108SOL    HW1 7223   5.070   0.395   4.876
 2108SOL    HW2 7224   4.928   0.371   4.954
 2109SOL     OW 7225   3.123   6.361   2.056
 2109SOL    HW1 7226   3.190   6.292   2.083
 2109SOL    HW2 7227   3.075   6.330   1.974
 2110SOL     OW 7228   3.467   6.253   0.123
 2110SOL    HW1 7229   3.555   6.208   0.110
 2110SOL    HW2 7230   3.466   6.299   0.212
 2111SOL     OW 7231   1.207   2.183   5.786
 2111SOL    HW1 7232   1.119   2.220   5.756
 2111SOL    HW2 7233   1.210   2.085   5.767
 2112SOL     OW 7234   1.529   0.261   0.117
 2112SOL    HW1 7235   1.499   0.316   0.195
 2112SOL    HW2 7236   1.490   0.169   0.124
 2113SOL     OW 7237   6.537   1.433   4.615
 2113SOL    HW1 7238   6.489   1.375   4.549
 2113SOL    HW2 7239   6.626   1.458   4.577
 2114SOL     OW 7240   2.538   1.180   6.020
 2114SOL    HW1 7241   2.528   1.193   6.119
 2114SOL    HW2 7242   2.496   1.093   5.993
 2115SOL     OW 7243   6.143   6.137   3.620
 2115SOL    HW1 7244   6.063   6.125   3.680
 2115SOL    HW2 7245   6.124   6.095   3.531
 2116SOL     OW 7246   2.190   1.640   6.992
 2116SOL    HW1 7247   2.232   1.712   0.027
 2116SOL    HW2 7248   2.230   1.641   6.900
 2117SOL     OW 7249   6.687   1.463   2.513
 2117SOL    HW1 7250   6.767   1.487   2.568
 2117SOL    HW2 7251   6.619   1.417   2.571
 2118SOL     OW 7252   6.923   2.075   2.615
 2118SOL    HW1 7253   6.896   2.164   2.577
 2118SOL    HW2 7254   6.941   2.085   2.713
 2119SOL     OW 7255   0.931   2.065   0.634
 2119SOL    HW1 7256   1.030   2.076   0.638
 2119SOL    HW2 7257   0.894   2.124   0.563
 2120SOL     OW 7258   5.396   1.665   0.588
 2120SOL    HW1 7259   5.320   1.725   0.563
 2120SOL    HW2 7260   5.451   1.645   0.507
 2121SOL     OW 7261   1.902   0.006   0.689
 2121SOL    HW1 7262   1.804   7.008   0.684
 2121SOL    HW2 7263   1.944   7.014   0.599
 2122SOL     OW 7264   6.404   0.334   4.555
 2122SOL    HW1 7265   6.468   0.375   4.490
 2122SOL    HW2 7266   6.438   0.346   4.648
 2123SOL     OW 7267   1.460   5.504   2.742
 2123SOL    HW1 7268   1.416   5.437   2.682
 2123SOL    HW2 7269   1.433   5.596   2.713
 2124SOL     OW 7270   4.378   3.936   6.804
 2124SOL    HW1 7271   4.404   3.840   6.807
 2124SOL    HW2 7272   4.430   3.982   6.732
 2125SOL     OW 7273   1.502   6.018   4.522
 2125SOL    HW1 7274   1.572   6.091   4.519
 2125SOL    HW2 7275   1.442   6.027   4.443
 2126SOL     OW 7276   2.757   3.775   6.555
 2126SOL    HW1 7277   2.692   3.801   6.484
 2126SOL    HW2 7278   2.780   3.855   6.610
 2127SOL     OW 7279   0.956   3.101   4.415
 2127SOL    HW1 7280   0.966   3.194   4.448
 2127SOL    HW2 7281   0.906   3.047   4.483
 2128SOL     OW 7282   5.122   3.132   1.837
 2128SOL    HW1 7283   5.206   3.185   1.825
 2128SOL    HW2 7284   5.046   3.193   1.858
 2129SOL     OW 7285   5.244   4.844   4.325
 2129SOL    HW1 7286   5.182   4.787   4.271
 2129SOL    HW2 7287   5.337   4.808   4.318
 2130SOL     OW 7288   2.594   1.250   1.170
 2130SOL    HW1 7289   2.689   1.220   1.173
 2130SOL    HW2 7290   2.534   1.174   1.194
 2131SOL     OW 7291   5.490   0.344   5.827
 2131SOL    HW1 7292   5.534   0.310   5.911
 2131SOL    HW2 7293   5.391   0.355   5.844
 2132SOL     OW 7294   2.572   2.479   0.057
 2132SOL    HW1 7295   2.663   2.440   0.071
 2132SOL    HW2 7296   2.579   2.557   7.015
 2133SOL     OW 7297   3.261   2.158   1.344
 2133SOL    HW1 7298   3.322   2.196   1.274
 2133SOL    HW2 7299   3.310   2.090   1.398
 2134SOL     OW 7300   2.245   6.109   5.354
 2134SOL    HW1 7301   2.202   6.200   5.353
 2134SOL    HW2 7302   2.211   6.056   5.276
 2135SOL     OW 7303   0.909   6.089   3.391
 2135SOL    HW1 7304   0.837   6.034   3.431
 2135SOL    HW2 7305   0.954   6.038   3.317
 2136SOL     OW 7306   1.496   4.805   3.553
 2136SOL    HW1 7307   1.479   4.848   3.642
 2136SOL    HW2 7308   1.561   4.730   3.565
 2137SOL     OW 7309   1.118   1.596   4.854
 2137SOL    HW1 7310   1.218   1.593   4.856
 2137SOL    HW2 7311   1.085   1.666   4.917
 2138SOL     OW 7312   1.226   2.506   5.654
 2138SOL    HW1 7313   1.322   2.495   5.630
 2138SOL    HW2 7314   1.177   2.548   5.577
 2139SOL     OW 7315   2.674   0.265   4.715
 2139SOL    HW1 7316   2.725   0.342   4.676
 2139SOL    HW2 7317   2.619   0.298   4.792
 2140SOL     OW 7318   1.574   5.985   3.403
 2140SOL    HW1 7319   1.659   5.980   3.352
 2140SOL    HW2 7320   1.552   5.895   3.441
 2141SOL     OW 7321   0.059   1.578   0.150
 2141SOL    HW1 7322   0.121   1.500   0.164
 2141SOL    HW2 7323   0.091   1.656   0.204
 2142SOL     OW 7324   2.832   1.430   3.545
 2142SOL    HW1 7325   2.875   1.520   3.532
 2142SOL    HW2 7326   2.899   1.359   3.524
 2143SOL     OW 7327   4.253   6.354   6.981
 2143SOL    HW1 7328   4.217   6.294   6.909
 2143SOL    HW2 7329   4.352   6.360   6.973
 2144SOL     OW 7330   0.365   0.847   2.209
 2144SOL    HW1 7331   0.297   0.918   2.230
 2144SOL    HW2 7332   0.330   0.758   2.237
 2145SOL     OW 7333   3.762   5.573   2.523
 2145SOL    HW1 7334   3.859   5.548   2.522
 2145SOL    HW2 7335   3.742   5.620   2.609
 2146SOL     OW 7336   3.232   2.446   0.936
 2146SOL    HW1 7337   3.218   2.537   0.898
 2146SOL    HW2 7338   3.323   2.441   0.978
 2147SOL     OW 7339   0.459   0.753   5.518
 2147SOL    HW1 7340   0.446   0.663   5.560
 2147SOL    HW2 7341   0.553   0.783   5.532
 2148SOL     OW 7342   5.314   3.252   3.345
 2148SOL    HW1 7343   5.392   3.275   3.287
 2148SOL    HW2 7344   5.237   3.223   3.287
 2149SOL     OW 7345   2.958   0.417   2.803
 2149SOL    HW1 7346   3.035   0.358   2.778
 2149SOL    HW2 7347   2.941   0.484   2.731
 2150SOL     OW 7348   3.804   1.348   2.211
 2150SOL    HW1 7349   3.737   1.280   2.180
 2150SOL    HW2 7350   3.802   1.353   2.311
 2151SOL     OW 7351   3.349   3.276   5.523
 2151SOL    HW1 7352   3.255   3.305   5.511
 2151SOL    HW2 7353   3.360   3.182   5.489
 2152SOL     OW 7354   6.068   6.171   1.771
 2152SOL    HW1 7355   6.137   6.133   1.709
 2152SOL    HW2 7356   6.027   6.098   1.825
 2153SOL     OW 7357   4.729   2.323   2.511
 2153SOL    HW1 7358   4.639   2.362   2.533
 2153SOL    HW2 7359   4.789   2.329   2.590
 2154SOL     OW 7360   3.983   6.124   5.270
 2154SOL    HW1 7361   4.042   6.065   5.215
 2154SOL    HW2 7362   3.887   6.100   5.253
 2155SOL     OW 7363   5.891   3.829   6.590
 2155SOL    HW1 7364   5.917   3.754   6.651
 2155SOL    HW2 7365   5.908   3.916   6.636
 2156SOL     OW 7366   0.786   0.920   1.290
 2156SOL    HW1 7367   0.850   0.921   1.213
 2156SOL    HW2 7368   0.771   0.826   1.319
 2157SOL     OW 7369   6.356   1.302   4.382
 2157SOL    HW1 7370   6.310   1.236   4.321
 2157SOL    HW2 7371   6.454   1.279   4.386
 2158SOL     OW 7372   4.739   6.418   2.921
 2158SOL    HW1 7373   4.780   6.485   2.860
 2158SOL    HW2 7374   4.693   6.347   2.867
 2159SOL     OW 7375   2.257   6.780   5.029
 2159SOL    HW1 7376   2.317   6.840   4.977
 2159SOL    HW2 7377   2.271   6.795   5.127
 2160SOL     OW 7378   2.851   3.054   1.092
 2160SOL    HW1 7379   2.860   3.042   0.993
 2160SOL    HW2 7380   2.924   3.114   1.125
 2161SOL     OW 7381   5.088   2.262   4.066
 2161SOL    HW1 7382   5.094   2.174   4.020
 2161SOL    HW2 7383   5.013   2.316   4.026
 2162SOL     OW 7384   1.956   1.208   0.634
 2162SOL    HW1 7385   1.914   1.290   0.594
 2162SOL    HW2 7386   2.045   1.192   0.591
 2163SOL     OW 7387   2.670   1.502   1.368
 2163SOL    HW1 7388   2.601   1.438   1.332
 2163SOL    HW2 7389   2.624   1.580   1.410
 2164SOL     OW 7390   0.323   0.731   1.851
 2164SOL    HW1 7391   0.406   0.749   1.797
 2164SOL    HW2 7392   0.285   0.643   1.826
 2165SOL     OW 7393   3.098   0.335   1.292
 2165SOL    HW1 7394   3.176   0.278   1.264
 2165SOL    HW2 7395   3.126   0.397   1.365
 2166SOL     OW 7396   6.155   2.806   6.199
 2166SOL    HW1 7397   6.235   2.839   6.150
 2166SOL    HW2 7398   6.073   2.849   6.161
 2167SOL     OW 7399   2.987   0.516   2.191
 2167SOL    HW1 7400   3.046   0.481   2.264
 2167SOL    HW2 7401   3.043   0.557   2.119
 2168SOL     OW 7402   5.688   5.866   5.005
 2168SOL    HW1 7403   5.641   5.902   5.086
 2168SOL    HW2 7404   5.660   5.918   4.924
 2169SOL     OW 7405   6.446   1.386   5.492
 2169SOL    HW1 7406   6.356   1.415   5.524
 2169SOL    HW2 7407   6.435   1.309   5.429
 2170SOL     OW 7408   5.567   4.731   4.068
 2170SOL    HW1 7409   5.655   4.712   4.024
 2170SOL    HW2 7410   5.543   4.827   4.053
 2171SOL     OW 7411   6.796   3.063   0.331
 2171SOL    HW1 7412   6.757   3.041   0.420
 2171SOL    HW2 7413   6.841   2.982   0.293
 2172SOL     OW 7414   2.742   0.683   1.118
 2172SOL    HW1 7415   2.747   0.781   1.097
 2172SOL    HW2 7416   2.677   0.639   1.055
 2173SOL     OW 7417   4.932   2.155   5.016
 2173SOL    HW1 7418   4.908   2.215   4.940
 2173SOL    HW2 7419   4.925   2.060   4.987
 2174SOL     OW 7420   1.258   5.560   4.686
 2174SOL    HW1 7421   1.278   5.654   4.659
 2174SOL    HW2 7422   1.299   5.542   4.776
 2175SOL     OW 7423   1.457   6.229   5.916
 2175SOL    HW1 7424   1.489   6.191   5.830
 2175SOL    HW2 7425   1.531   6.282   5.958
 2176SOL     OW 7426   1.853   2.781   2.344
 2176SOL    HW1 7427   1.773   2.731   2.311
 2176SOL    HW2 7428   1.889   2.838   2.270
 2177SOL     OW 7429   0.087   1.291   2.409
 2177SOL    HW1 7430   0.135   1.377   2.394
 2177SOL    HW2 7431   0.110   1.256   2.500
 2178SOL     OW 7432   0.098   5.565   1.054
 2178SOL    HW1 7433   0.057   5.479   1.023
 2178SOL    HW2 7434   0.197   5.554   1.061
 2179SOL     OW 7435   1.324   3.894   3.945
 2179SOL    HW1 7436   1.253   3.862   4.008
 2179SOL    HW2 7437   1.367   3.976   3.983
 2180SOL     OW 7438   4.020   2.879   1.418
 2180SOL    HW1 7439   4.070   2.963   1.437
 2180SOL    HW2 7440   4.064   2.802   1.464
 2181SOL     OW 7441   3.979   6.686   0.910
 2181SOL    HW1 7442   4.050   6.727   0.853
 2181SOL    HW2 7443   3.900   6.663   0.853
 2182SOL     OW 7444   5.451   2.100   0.419
 2182SOL    HW1 7445   5.507   2.101   0.502
 2182SOL    HW2 7446   5.388   2.022   0.422
 2183SOL     OW 7447   2.816   2.579   0.220
 2183SOL    HW1 7448   2.738   2.601   0.278
 2183SOL    HW2 7449   2.827   2.650   0.150
 2184SOL     OW 7450   4.337   3.248   5.908
 2184SOL    HW1 7451   4.336   3.262   6.007
 2184SOL    HW2 7452   4.277   3.171   5.884
 2185SOL     OW 7453   0.395   6.937   1.693
 2185SOL    HW1 7454   0.317   6.891   1.649
 2185SOL    HW2 7455   0.449   6.870   1.743
 2186SOL     OW 7456   0.268   4.592   2.914
 2186SOL    HW1 7457   0.209   4.514   2.938
 2186SOL    HW2 7458   0.331   4.611   2.990
 2187SOL     OW 7459   6.560   1.496   6.726
 2187SOL    HW1 7460   6.470   1.528   6.757
 2187SOL    HW2 7461   6.621   1.575   6.719
 2188SOL     OW 7462   4.687   1.171   3.446
 2188SOL    HW1 7463   4.635   1.120   3.378
 2188SOL    HW2 7464   4.652   1.150   3.537
 2189SOL     OW 7465   3.093   0.309   6.484
 2189SOL    HW1 7466   3.014   0.287   6.542
 2189SOL    HW2 7467   3.150   0.227   6.475
 2190SOL     OW 7468   5.071   2.134   0.976
 2190SOL    HW1 7469   5.061   2.105   1.071
 2190SOL    HW2 7470   5.163   2.172   0.962
 2191SOL     OW 7471   3.184   1.685   6.938
 2191SOL    HW1 7472   3.093   1.726   6.936
 2191SOL    HW2 7473   3.241   1.732   7.005
 2192SOL     OW 7474   4.000   5.604   2.780
 2192SOL    HW1 7475   4.013   5.517   2.828
 2192SOL    HW2 7476   3.926   5.655   2.825
 2193SOL     OW 7477   6.811   5.919   5.283
 2193SOL    HW1 7478   6.753   5.856   5.231
 2193SOL    HW2 7479   6.905   5.886   5.281
 2194SOL     OW 7480   2.997   0.099   1.340
 2194SOL    HW1 7481   3.094   0.082   1.362
 2194SOL    HW2 7482   2.982   0.197   1.331
 2195SOL     OW 7483   1.330   5.123   2.690
 2195SOL    HW1 7484   1.417   5.082   2.664
 2195SOL    HW2 7485   1.256   5.057   2.676
 2196SOL     OW 7486   4.539   2.838   6.772
 2196SOL    HW1 7487   4.638   2.853   6.768
 2196SOL    HW2 7488   4.519   2.742   6.756
 2197SOL     OW 7489   4.801   4.381   6.863
 2197SOL    HW1 7490   4.710   4.356   6.898
 2197SOL    HW2 7491   4.791   4.430   6.777
 2198SOL     OW 7492   6.139   4.499   0.378
 2198SOL    HW1 7493   6.107   4.516   0.285
 2198SOL    HW2 7494   6.075   4.437   0.424
 2199SOL     OW 7495   3.852   0.597   2.277
 2199SOL    HW1 7496   3.773   0.558   2.324
 2199SOL    HW2 7497   3.854   0.696   2.292
 2200SOL     OW 7498   2.028   6.587   3.880
 2200SOL    HW1 7499   2.018   6.616   3.975
 2200SOL    HW2 7500   2.005   6.490   3.872
 2201SOL     OW 7501   4.761   4.248   3.480
 2201SOL    HW1 7502   4.718   4.283   3.564
 2201SOL    HW2 7503   4.735   4.306   3.403
 2202SOL     OW 7504   4.952   6.327   3.803
 2202SOL    HW1 7505   5.013   6.406   3.799
 2202SOL    HW2 7506   4.881   6.342   3.872
 2203SOL     OW 7507   3.329   1.852   2.936
 2203SOL    HW1 7508   3.240   1.863   2.892
 2203SOL    HW2 7509   3.400   1.848   2.865
 2204SOL     OW 7510   2.428   3.023   1.249
 2204SOL    HW1 7511   2.468   2.931   1.257
 2204SOL    HW2 7512   2.418   3.063   1.340
 2205SOL     OW 7513   2.636   0.887   1.786
 2205SOL    HW1 7514   2.615   0.791   1.771
 2205SOL    HW2 7515   2.735   0.902   1.776
 2206SOL     OW 7516   2.200   3.289   0.216
 2206SOL    HW1 7517   2.218   3.278   0.119
 2206SOL    HW2 7518   2.279   3.255   0.268
 2207SOL     OW 7519   0.339   4.309   4.526
 2207SOL    HW1 7520   0.284   4.374   4.578
 2207SOL    HW2 7521   0.433   4.312   4.558
 2208SOL     OW 7522   6.904   4.813   2.307
 2208SOL    HW1 7523   6.904   4.874   2.229
 2208SOL    HW2 7524   6.996   4.811   2.348
 2209SOL     OW 7525   1.331   6.950   1.490
 2209SOL    HW1 7526   1.285   6.897   1.560
 2209SOL    HW2 7527   1.429   6.933   1.494
 2210SOL     OW 7528   2.079   5.195   3.946
 2210SOL    HW1 7529   2.156   5.242   3.902
 2210SOL    HW2 7530   2.042   5.125   3.884
 2211SOL     OW 7531   6.741   1.655   5.801
 2211SOL    HW1 7532   6.827   1.610   5.825
 2211SOL    HW2 7533   6.674   1.640   5.874
 2212SOL     OW 7534   2.174   0.149   6.224
 2212SOL    HW1 7535   2.215   0.168   6.135
 2212SOL    HW2 7536   2.203   0.059   6.256
 2213SOL     OW 7537   3.709   0.738   3.087
 2213SOL    HW1 7538   3.753   0.648   3.082
 2213SOL    HW2 7539   3.731   0.781   3.175
 2214SOL     OW 7540   4.172   6.676   5.364
 2214SOL    HW1 7541   4.110   6.600   5.388
 2214SOL    HW2 7542   4.119   6.760   5.354
 2215SOL     OW 7543   5.872   2.656   5.565
 2215SOL    HW1 7544   5.868   2.630   5.469
 2215SOL    HW2 7545   5.815   2.592   5.618
 2216SOL     OW 7546   2.867   0.791   2.376
 2216SOL    HW1 7547   2.784   0.833   2.413
 2216SOL    HW2 7548   2.842   0.712   2.319
 2217SOL     OW 7549   4.496   0.902   1.860
 2217SOL    HW1 7550   4.398   0.902   1.842
 2217SOL    HW2 7551   4.514   0.950   1.946
 2218SOL     OW 7552   1.460   6.847   3.084
 2218SOL    HW1 7553   1.515   6.897   3.018
 2218SOL    HW2 7554   1.465   6.892   3.173
 2219SOL     OW 7555   1.527   2.296   2.581
 2219SOL    HW1 7556   1.466   2.218   2.589
 2219SOL    HW2 7557   1.527   2.348   2.666
 2220SOL     OW 7558   0.267   0.140   1.786
 2220SOL    HW1 7559   0.313   0.052   1.788
 2220SOL    HW2 7560   0.333   0.213   1.802
 2221SOL     OW 7561   1.380   1.694   6.790
 2221SOL    HW1 7562   1.394   1.782   6.836
 2221SOL    HW2 7563   1.322   1.708   6.710
 2222SOL     OW 7564   6.229   6.006   2.845
 2222SOL    HW1 7565   6.296   5.931   2.842
 2222SOL    HW2 7566   6.137   5.967   2.840
 2223SOL     OW 7567   6.374   5.533   1.617
 2223SOL    HW1 7568   6.280   5.566   1.622
 2223SOL    HW2 7569   6.377   5.435   1.637
 2224SOL     OW 7570   0.840   4.722   1.993
 2224SOL    HW1 7571   0.935   4.697   2.008
 2224SOL    HW2 7572   0.782   4.640   1.999
 2225SOL     OW 7573   0.131   4.668   1.156
 2225SOL    HW1 7574   0.106   4.573   1.134
 2225SOL    HW2 7575   0.164   4.673   1.250
 2226SOL     OW 7576   3.979   4.044   1.838
 2226SOL    HW1 7577   4.070   4.073   1.808
 2226SOL    HW2 7578   3.987   3.976   1.911
 2227SOL     OW 7579   0.667   2.651   4.593
 2227SOL    HW1 7580   0.665   2.727   4.659
 2227SOL    HW2 7581   0.761   2.636   4.562
 2228SOL     OW 7582   3.266   5.045   4.647
 2228SOL    HW1 7583   3.211   4.966   4.619
 2228SOL    HW2 7584   3.209   5.107   4.700
 2229SOL     OW 7585   5.735   0.006   3.437
 2229SOL    HW1 7586   5.759   6.971   3.358
 2229SOL    HW2 7587   5.647   0.050   3.421
 2230SOL     OW 7588   2.622   5.483   1.589
 2230SOL    HW1 7589   2.610   5.440   1.679
 2230SOL    HW2 7590   2.707   5.451   1.548
 2231SOL     OW 7591   2.631   5.816   0.990
 2231SOL    HW1 7592   2.589   5.873   0.919
 2231SOL    HW2 7593   2.683   5.874   1.053
 2232SOL     OW 7594   5.413   3.074   3.780
 2232SOL    HW1 7595   5.314   3.080   3.797
 2232SOL    HW2 7596   5.454   3.165   3.793
 2233SOL     OW 7597   2.413   2.091   6.180
 2233SOL    HW1 7598   2.451   2.026   6.246
 2233SOL    HW2 7599   2.352   2.044   6.117
 2234SOL     OW 7600   3.369   2.550   1.343
 2234SOL    HW1 7601   3.273   2.553   1.372
 2234SOL    HW2 7602   3.420   2.490   1.404
 2235SOL     OW 7603   2.354   1.581   0.860
 2235SOL    HW1 7604   2.437   1.541   0.820
 2235SOL    HW2 7605   2.356   1.570   0.959
 2236SOL     OW 7606   0.528   4.555   5.989
 2236SOL    HW1 7607   0.464   4.623   6.024
 2236SOL    HW2 7608   0.551   4.577   5.894
 2237SOL     OW 7609   6.312   3.030   4.045
 2237SOL    HW1 7610   6.361   2.945   4.061
 2237SOL    HW2 7611   6.280   3.067   4.133
 2238SOL     OW 7612   6.453   5.947   1.337
 2238SOL    HW1 7613   6.481   6.017   1.402
 2238SOL    HW2 7614   6.466   5.856   1.377
 2239SOL     OW 7615   5.544   5.817   2.375
 2239SOL    HW1 7616   5.472   5.770   2.427
 2239SOL    HW2 7617   5.575   5.897   2.426
 2240SOL     OW 7618   5.523   3.809   2.006
 2240SOL    HW1 7619   5.458   3.783   1.935
 2240SOL    HW2 7620   5.609   3.759   1.994
 2241SOL     OW 7621   1.163   6.974   2.420
 2241SOL    HW1 7622   1.200   6.906   2.483
 2241SOL    HW2 7623   1.232   0.025   2.404
 2242SOL     OW 7624   3.838   2.162   2.714
 2242SOL    HW1 7625   3.821   2.078   2.662
 2242SOL    HW2 7626   3.753   2.211   2.729
 2243SOL     OW 7627   2.370   6.575   5.238
 2243SOL    HW1 7628   2.332   6.667   5.243
 2243SOL    HW2 7629   2.391   6.543   5.330
 2244SOL     OW 7630   3.577   0.809   4.946
 2244SOL    HW1 7631   3.515   0.877   4.984
 2244SOL    HW2 7632   3.548   0.717   4.974
 2245SOL     OW 7633   0.276   2.223   2.004
 2245SOL    HW1 7634   0.253   2.155   1.935
 2245SOL    HW2 7635   0.355   2.192   2.057
 2246SOL     OW 7636   1.762   4.763   4.835
 2246SOL    HW1 7637   1.850   4.784   4.878
 2246SOL    HW2 7638   1.693   4.754   4.907
 2247SOL     OW 7639   2.096   1.479   4.855
 2247SOL    HW1 7640   2.019   1.539   4.834
 2247SOL    HW2 7641   2.177   1.535   4.873
 2248SOL     OW 7642   4.202   4.025   5.551
 2248SOL    HW1 7643   4.256   4.003   5.633
 2248SOL    HW2 7644   4.209   3.949   5.486
 2249SOL     OW 7645   3.550   5.005   4.976
 2249SOL    HW1 7646   3.512   4.953   5.053
 2249SOL    HW2 7647   3.559   4.945   4.897
 2250SOL     OW 7648   5.042   4.849   1.065
 2250SOL    HW1 7649   5.134   4.811   1.072
 2250SOL    HW2 7650   4.983   4.783   1.018
 2251SOL     OW 7651   0.710   0.231   6.300
 2251SOL    HW1 7652   0.802   0.208   6.332
 2251SOL    HW2 7653   0.663   0.147   6.273
 2252SOL     OW 7654   3.913   1.071   6.093
 2252SOL    HW1 7655   3.956   1.093   6.180
 2252SOL    HW2 7656   3.870   0.981   6.098
 2253SOL     OW 7657   1.306   2.714   6.207
 2253SOL    HW1 7658   1.227   2.772   6.225
 2253SOL    HW2 7659   1.315   2.700   6.108
 2254SOL     OW 7660   1.716   3.908   5.994
 2254SOL    HW1 7661   1.628   3.861   5.989
 2254SOL    HW2 7662   1.723   3.975   5.921
 2255SOL     OW 7663   5.164   3.265   0.383
 2255SOL    HW1 7664   5.213   3.246   0.468
 2255SOL    HW2 7665   5.137   3.361   0.380
 2256SOL     OW 7666   3.252   4.821   2.002
 2256SOL    HW1 7667   3.233   4.835   2.099
 2256SOL    HW2 7668   3.336   4.768   1.992
 2257SOL     OW 7669   2.124   3.646   4.288
 2257SOL    HW1 7670   2.064   3.675   4.362
 2257SOL    HW2 7671   2.136   3.547   4.292
 2258SOL     OW 7672   1.629   4.784   5.374
 2258SOL    HW1 7673   1.562   4.727   5.328
 2258SOL    HW2 7674   1.676   4.841   5.307
 2259SOL     OW 7675   6.178   3.166   6.333
 2259SOL    HW1 7676   6.249   3.101   6.359
 2259SOL    HW2 7677   6.196   3.200   6.241
 2260SOL     OW 7678   4.536   3.783   1.069
 2260SOL    HW1 7679   4.522   3.748   1.161
 2260SOL    HW2 7680   4.484   3.728   1.004
 2261SOL     OW 7681   2.855   6.428   4.866
 2261SOL    HW1 7682   2.894   6.518   4.888
 2261SOL    HW2 7683   2.906   6.388   4.790
 2262SOL     OW 7684   3.412   1.669   3.595
 2262SOL    HW1 7685   3.474   1.603   3.636
 2262SOL    HW2 7686   3.349   1.705   3.665
 2263SOL     OW 7687   0.526   3.544   5.486
 2263SOL    HW1 7688   0.614   3.510   5.517
 2263SOL    HW2 7689   0.505   3.505   5.396
 2264SOL     OW 7690   3.125   3.967   3.154
 2264SOL    HW1 7691   3.109   3.971   3.253
 2264SOL    HW2 7692   3.086   3.883   3.117
 2265SOL     OW 7693   0.709   6.667   3.243
 2265SOL    HW1 7694   0.699   6.666   3.342
 2265SOL    HW2 7695   0.633   6.718   3.202
 2266SOL     OW 7696   6.586   0.562   6.734
 2266SOL    HW1 7697   6.515   0.592   6.671
 2266SOL    HW2 7698   6.656   0.511   6.684
 2267SOL     OW 7699   6.024   2.155   5.572
 2267SOL    HW1 7700   5.985   2.143   5.663
 2267SOL    HW2 7701   6.032   2.253   5.552
 2268SOL     OW 7702   6.519   4.896   0.015
 2268SOL    HW1 7703   6.498   4.923   0.109
 2268SOL    HW2 7704   6.588   4.824   0.016
 2269SOL     OW 7705   0.286   6.043   3.021
 2269SOL    HW1 7706   0.372   6.037   2.971
 2269SOL    HW2 7707   0.226   5.967   2.993
 2270SOL     OW 7708   3.751   3.146   2.736
 2270SOL    HW1 7709   3.778   3.074   2.672
 2270SOL    HW2 7710   3.832   3.179   2.785
 2271SOL     OW 7711   0.398   4.057   2.733
 2271SOL    HW1 7712   0.443   4.000   2.801
 2271SOL    HW2 7713   0.405   4.153   2.760
 2272SOL     OW 7714   5.503   2.166   5.812
 2272SOL    HW1 7715   5.598   2.133   5.810
 2272SOL    HW2 7716   5.451   2.114   5.880
 2273SOL     OW 7717   0.615   0.591   3.702
 2273SOL    HW1 7718   0.557   0.598   3.621
 2273SOL    HW2 7719   0.570   0.637   3.779
 2274SOL     OW 7720   0.716   4.045   3.066
 2274SOL    HW1 7721   0.735   4.136   3.104
 2274SOL    HW2 7722   0.799   3.990   3.069
 2275SOL     OW 7723   4.620   6.247   3.620
 2275SOL    HW1 7724   4.703   6.209   3.580
 2275SOL    HW2 7725   4.557   6.274   3.547
 2276SOL     OW 7726   3.291   5.752   1.756
 2276SOL    HW1 7727   3.289   5.814   1.678
 2276SOL    HW2 7728   3.378   5.763   1.806
 2277SOL     OW 7729   3.126   3.526   1.009
 2277SOL    HW1 7730   3.209   3.530   1.064
 2277SOL    HW2 7731   3.138   3.461   0.934
 2278SOL     OW 7732   4.962   6.335   1.078
 2278SOL    HW1 7733   5.042   6.329   1.138
 2278SOL    HW2 7734   4.955   6.252   1.023
 2279SOL     OW 7735   5.649   4.075   5.294
 2279SOL    HW1 7736   5.717   4.139   5.257
 2279SOL    HW2 7737   5.560   4.096   5.254
 2280SOL     OW 7738   5.845   6.697   6.142
 2280SOL    HW1 7739   5.937   6.682   6.106
 2280SOL    HW2 7740   5.845   6.683   6.241
 2281SOL     OW 7741   3.232   2.009   0.471
 2281SOL    HW1 7742   3.274   1.925   0.438
 2281SOL    HW2 7743   3.254   2.021   0.568
 2282SOL     OW 7744   4.604   5.789   2.056
 2282SOL    HW1 7745   4.602   5.773   1.958
 2282SOL    HW2 7746   4.511   5.804   2.090
 2283SOL     OW 7747   6.825   4.223   2.008
 2283SOL    HW1 7748   6.887   4.255   1.936
 2283SOL    HW2 7749   6.836   4.281   2.089
 2284SOL     OW 7750   2.709   2.304   2.199
 2284SOL    HW1 7751   2.631   2.257   2.159
 2284SOL    HW2 7752   2.788   2.297   2.137
 2285SOL     OW 7753   1.794   3.963   6.619
 2285SOL    HW1 7754   1.801   3.885   6.681
 2285SOL    HW2 7755   1.753   3.933   6.532
 2286SOL     OW 7756   5.950   6.644   4.459
 2286SOL    HW1 7757   5.871   6.683   4.412
 2286SOL    HW2 7758   5.927   6.626   4.555
 2287SOL     OW 7759   1.970   2.214   0.759
 2287SOL    HW1 7760   2.017   2.141   0.809
 2287SOL    HW2 7761   2.038   2.278   0.723
 2288SOL     OW 7762   1.601   5.798   4.677
 2288SOL    HW1 7763   1.571   5.862   4.606
 2288SOL    HW2 7764   1.521   5.753   4.717
 2289SOL     OW 7765   4.593   1.175   0.340
 2289SOL    HW1 7766   4.504   1.200   0.300
 2289SOL    HW2 7767   4.660   1.161   0.267
 2290SOL     OW 7768   3.092   3.577   3.466
 2290SOL    HW1 7769   3.155   3.503   3.490
 2290SOL    HW2 7770   3.042   3.607   3.548
 2291SOL     OW 7771   1.178   2.181   6.327
 2291SOL    HW1 7772   1.190   2.278   6.308
 2291SOL    HW2 7773   1.101   2.146   6.274
 2292SOL     OW 7774   4.910   1.696   2.781
 2292SOL    HW1 7775   5.010   1.705   2.783
 2292SOL    HW2 7776   4.872   1.759   2.714
 2293SOL     OW 7777   0.799   0.684   0.039
 2293SOL    HW1 7778   0.737   0.747   0.084
 2293SOL    HW2 7779   0.768   0.667   6.965
 2294SOL     OW 7780   0.175   0.755   5.942
 2294SOL    HW1 7781   0.174   0.702   5.857
 2294SOL    HW2 7782   0.257   0.813   5.944
 2295SOL     OW 7783   5.694   5.351   1.322
 2295SOL    HW1 7784   5.662   5.365   1.228
 2295SOL    HW2 7785   5.794   5.362   1.325
 2296SOL     OW 7786   3.986   5.123   4.421
 2296SOL    HW1 7787   4.059   5.058   4.440
 2296SOL    HW2 7788   3.952   5.110   4.327
 2297SOL     OW 7789   5.372   4.044   5.205
 2297SOL    HW1 7790   5.276   4.064   5.189
 2297SOL    HW2 7791   5.400   3.965   5.151
 2298SOL     OW 7792   3.011   3.854   4.728
 2298SOL    HW1 7793   2.943   3.895   4.667
 2298SOL    HW2 7794   2.970   3.779   4.779
 2299SOL     OW 7795   5.629   3.130   3.995
 2299SOL    HW1 7796   5.719   3.086   3.994
 2299SOL    HW2 7797   5.558   3.060   4.005
 2300SOL     OW 7798   5.051   6.990   1.925
 2300SOL    HW1 7799   4.960   7.005   1.963
 2300SOL    HW2 7800   5.051   7.014   1.828
 2301SOL     OW 7801   3.937   3.099   4.921
 2301SOL    HW1 7802   3.972   3.053   4.840
 2301SOL    HW2 7803   3.939   3.198   4.907
 2302SOL     OW 7804   6.273   2.908   5.914
 2302SOL    HW1 7805   6.313   2.929   5.825
 2302SOL    HW2 7806   6.340   2.926   5.986
 2303SOL     OW 7807   3.128   2.516   0.015
 2303SOL    HW1 7808   3.172   2.598   6.998
 2303SOL    HW2 7809   3.197   2.459   0.060
 2304SOL     OW 7810   6.622   6.299   2.617
 2304SOL    HW1 7811   6.643   6.207   2.584
 2304SOL    HW2 7812   6.678   6.320   2.696
 2305SOL     OW 7813   2.443   6.938   4.930
 2305SOL    HW1 7814   2.461   0.004   4.979
 2305SOL    HW2 7815   2.492   6.939   4.843
 2306SOL     OW 7816   1.939   4.955   4.611
 2306SOL    HW1 7817   1.979   5.033   4.659
 2306SOL    HW2 7818   1.839   4.956   4.622
 2307SOL     OW 7819   6.040   3.342   4.817
 2307SOL    HW1 7820   6.011   3.322   4.911
 2307SOL    HW2 7821   6.052   3.441   4.807
 2308SOL     OW 7822   0.963   5.291   2.387
 2308SOL    HW1 7823   0.985   5.389   2.392
 2308SOL    HW2 7824   1.037   5.238   2.428
 2309SOL     OW 7825   1.952   0.621   4.647
 2309SOL    HW1 7826   1.945   0.582   4.738
 2309SOL    HW2 7827   2.042   0.664   4.636
 2310SOL     OW 7828   4.573   6.819   1.408
 2310SOL    HW1 7829   4.512   6.862   1.341
 2310SOL    HW2 7830   4.534   6.829   1.499
 2311SOL     OW 7831   2.359   4.907   1.074
 2311SOL    HW1 7832   2.351   4.827   1.133
 2311SOL    HW2 7833   2.417   4.975   1.118
 2312SOL     OW 7834   3.374   4.599   1.643
 2312SOL    HW1 7835   3.385   4.693   1.610
 2312SOL    HW2 7836   3.433   4.585   1.723
 2313SOL     OW 7837   4.885   5.063   1.433
 2313SOL    HW1 7838   4.852   5.157   1.432
 2313SOL    HW2 7839   4.865   5.022   1.522
 2314SOL     OW 7840   2.709   4.781   4.095
 2314SOL    HW1 7841   2.704   4.686   4.067
 2314SOL    HW2 7842   2.703   4.787   4.195
 2315SOL     OW 7843   4.414   2.547   6.163
 2315SOL    HW1 7844   4.379   2.623   6.109
 2315SOL    HW2 7845   4.391   2.560   6.259
 2316SOL     OW 7846   5.285   3.607   2.162
 2316SOL    HW1 7847   5.273   3.534   2.230
 2316SOL    HW2 7848   5.305   3.693   2.209
 2317SOL     OW 7849   0.159   5.748   3.040
 2317SOL    HW1 7850   0.167   5.697   3.125
 2317SOL    HW2 7851   0.075   5.802   3.041
 2318SOL     OW 7852   6.997   1.098   4.321
 2318SOL    HW1 7853   0.018   1.158   4.390
 2318SOL    HW2 7854   0.037   1.092   4.242
 2319SOL     OW 7855   1.610   5.126   2.272
 2319SOL    HW1 7856   1.702   5.154   2.299
 2319SOL    HW2 7857   1.597   5.030   2.297
 2320SOL     OW 7858   6.426   4.733   4.907
 2320SOL    HW1 7859   6.389   4.796   4.975
 2320SOL    HW2 7860   6.462   4.652   4.953
 2321SOL     OW 7861   3.510   4.949   4.719
 2321SOL    HW1 7862   3.563   4.963   4.635
 2321SOL    HW2 7863   3.415   4.977   4.704
 2322SOL     OW 7864   2.995   0.375   5.046
 2322SOL    HW1 7865   2.976   0.470   5.073
 2322SOL    HW2 7866   2.910   0.331   5.017
 2323SOL     OW 7867   5.265   3.672   2.613
 2323SOL    HW1 7868   5.309   3.725   2.540
 2323SOL    HW2 7869   5.223   3.735   2.679
 2324SOL     OW 7870   0.539   4.655   3.542
 2324SOL    HW1 7871   0.521   4.642   3.640
 2324SOL    HW2 7872   0.627   4.701   3.530
 2325SOL     OW 7873   0.515   2.457   0.489
 2325SOL    HW1 7874   0.577   2.511   0.432
 2325SOL    HW2 7875   0.464   2.518   0.550
 2326SOL     OW 7876   0.692   3.967   0.718
 2326SOL    HW1 7877   0.681   3.908   0.798
 2326SOL    HW2 7878   0.603   3.980   0.673
 2327SOL     OW 7879   5.520   1.946   3.729
 2327SOL    HW1 7880   5.424   1.961   3.753
 2327SOL    HW2 7881   5.568   2.034   3.731
 2328SOL     OW 7882   6.636   6.500   3.329
 2328SOL    HW1 7883   6.655   6.550   3.414
 2328SOL    HW2 7884   6.539   6.507   3.307
 2329SOL     OW 7885   6.657   5.496   3.000
 2329SOL    HW1 7886   6.756   5.479   3.007
 2329SOL    HW2 7887   6.642   5.590   2.969
 2330SOL     OW 7888   0.368   3.914   1.720
 2330SOL    HW1 7889   0.424   3.834   1.699
 2330SOL    HW2 7890   0.273   3.895   1.698
 2331SOL     OW 7891   1.076   4.241   5.627
 2331SOL    HW1 7892   0.996   4.298   5.645
 2331SOL    HW2 7893   1.157   4.285   5.665
 2332SOL     OW 7894   5.177   2.228   5.106
 2332SOL    HW1 7895   5.088   2.194   5.075
 2332SOL    HW2 7896   5.169   2.262   5.200
 2333SOL     OW 7897   2.890   4.857   3.586
 2333SOL    HW1 7898   2.855   4.785   3.646
 2333SOL    HW2 7899   2.813   4.910   3.550
 2334SOL     OW 7900   2.714   6.952   6.963
 2334SOL    HW1 7901   2.642   6.882   6.965
 2334SOL    HW2 7902   2.682   0.011   6.910
 2335SOL     OW 7903   4.624   5.438   4.790
 2335SOL    HW1 7904   4.688   5.408   4.719
 2335SOL    HW2 7905   4.584   5.357   4.835
 2336SOL     OW 7906   3.877   2.842   5.591
 2336SOL    HW1 7907   3.800   2.779   5.593
 2336SOL    HW2 7908   3.862   2.916   5.657
 2337SOL     OW 7909   6.155   0.402   4.433
 2337SOL    HW1 7910   6.167   0.500   4.424
 2337SOL    HW2 7911   6.238   0.361   4.470
 2338SOL     OW 7912   1.237   0.272   6.743
 2338SOL    HW1 7913   1.319   0.261   6.686
 2338SOL    HW2 7914   1.193   0.359   6.720
 2339SOL     OW 7915   4.003   4.839   6.316
 2339SOL    HW1 7916   3.969   4.911   6.256
 2339SOL    HW2 7917   4.103   4.849   6.326
 2340SOL     OW 7918   3.853   4.860   3.837
 2340SOL    HW1 7919   3.795   4.895   3.910
 2340SOL    HW2 7920   3.832   4.909   3.752
 2341SOL     OW 7921   5.638   4.553   6.174
 2341SOL    HW1 7922   5.633   4.651   6.154
 2341SOL    HW2 7923   5.554   4.508   6.145
 2342SOL     OW 7924   0.092   0.074   5.557
 2342SOL    HW1 7925   0.156   0.065   5.481
 2342SOL    HW2 7926   0.002   0.102   5.522
 2343SOL     OW 7927   0.904   0.428   1.106
 2343SOL    HW1 7928   0.921   0.461   1.199
 2343SOL    HW2 7929   0.960   0.347   1.088
 2344SOL     OW 7930   3.072   1.609   3.329
 2344SOL    HW1 7931   3.103   1.574   3.240
 2344SOL    HW2 7932   3.008   1.685   3.314
 2345SOL     OW 7933   1.264   1.785   3.112
 2345SOL    HW1 7934   1.313   1.839   3.180
 2345SOL    HW2 7935   1.237   1.844   3.036
 2346SOL     OW 7936   4.812   3.199   5.462
 2346SOL    HW1 7937   4.865   3.244   5.389
 2346SOL    HW2 7938   4.756   3.268   5.508
 2347SOL     OW 7939   1.373   3.475   0.944
 2347SOL    HW1 7940   1.320   3.476   0.859
 2347SOL    HW2 7941   1.468   3.454   0.923
 2348SOL     OW 7942   2.678   6.281   1.716
 2348SOL    HW1 7943   2.650   6.296   1.810
 2348SOL    HW2 7944   2.674   6.367   1.666
 2349SOL     OW 7945   4.339   4.335   6.247
 2349SOL    HW1 7946   4.398   4.416   6.235
 2349SOL    HW2 7947   4.262   4.340   6.184
 2350SOL     OW 7948   2.281   5.592   5.355
 2350SOL    HW1 7949   2.251   5.572   5.449
 2350SOL    HW2 7950   2.309   5.687   5.349
 2351SOL     OW 7951   2.341   5.302   3.078
 2351SOL    HW1 7952   2.284   5.292   2.997
 2351SOL    HW2 7953   2.285   5.287   3.160
 2352SOL     OW 7954   5.874   4.323   1.128
 2352SOL    HW1 7955   5.855   4.343   1.224
 2352SOL    HW2 7956   5.972   4.317   1.113
 2353SOL     OW 7957   2.309   4.031   6.533
 2353SOL    HW1 7958   2.222   4.036   6.483
 2353SOL    HW2 7959   2.338   3.936   6.539
 2354SOL     OW 7960   3.927   2.286   1.763
 2354SOL    HW1 7961   3.915   2.202   1.710
 2354SOL    HW2 7962   3.846   2.301   1.820
 2355SOL     OW 7963   6.927   1.454   1.622
 2355SOL    HW1 7964   6.970   1.537   1.586
 2355SOL    HW2 7965   6.828   1.461   1.609
 2356SOL     OW 7966   3.108   4.962   3.708
 2356SOL    HW1 7967   3.037   4.918   3.653
 2356SOL    HW2 7968   3.089   5.060   3.714
 2357SOL     OW 7969   0.128   4.383   1.126
 2357SOL    HW1 7970   0.141   4.400   1.028
 2357SOL    HW2 7971   0.031   4.394   1.149
 2358SOL     OW 7972   3.541   1.298   5.132
 2358SOL    HW1 7973   3.623   1.298   5.189
 2358SOL    HW2 7974   3.541   1.378   5.072
 2359SOL     OW 7975   2.585   1.337   5.788
 2359SOL    HW1 7976   2.634   1.425   5.787
 2359SOL    HW2 7977   2.595   1.294   5.878
 2360SOL     OW 7978   3.207   4.997   0.246
 2360SOL    HW1 7979   3.141   5.012   0.320
 2360SOL    HW2 7980   3.286   4.947   0.281
 2361SOL     OW 7981   3.533   5.880   1.171
 2361SOL    HW1 7982   3.550   5.919   1.081
 2361SOL    HW2 7983   3.491   5.790   1.161
 2362SOL     OW 7984   3.387   4.962   3.678
 2362SOL    HW1 7985   3.293   4.926   3.677
 2362SOL    HW2 7986   3.400   5.020   3.758
 2363SOL     OW 7987   1.713   3.394   0.156
 2363SOL    HW1 7988   1.624   3.423   0.121
 2363SOL    HW2 7989   1.713   3.394   0.256
 2364SOL     OW 7990   3.661   1.790   2.461
 2364SOL    HW1 7991   3.675   1.770   2.558
 2364SOL    HW2 7992   3.587   1.733   2.426
 2365SOL     OW 7993   5.088   4.155   3.156
 2365SOL    HW1 7994   5.125   4.193   3.072
 2365SOL    HW2 7995   5.019   4.086   3.134
 2366SOL     OW 7996   3.048   5.090   5.426
 2366SOL    HW1 7997   3.079   5.004   5.385
 2366SOL    HW2 7998   3.113   5.118   5.497
 2367SOL     OW 7999   6.061   5.042   5.501
 2367SOL    HW1 8000   6.052   5.142   5.505
 2367SOL    HW2 8001   6.039   5.003   5.591
 2368SOL     OW 8002   5.650   0.148   5.389
 2368SOL    HW1 8003   5.689   0.095   5.314
 2368SOL    HW2 8004   5.551   0.154   5.377
 2369SOL     OW 8005   3.847   2.125   4.287
 2369SOL    HW1 8006   3.924   2.177   4.250
 2369SOL    HW2 8007   3.878   2.032   4.310
 2370SOL     OW 8008   5.050   2.076   1.973
 2370SOL    HW1 8009   4.999   2.037   2.050
 2370SOL    HW2 8010   5.085   2.002   1.916
 2371SOL     OW 8011   1.014   6.362   1.722
 2371SOL    HW1 8012   1.064   6.437   1.766
 2371SOL    HW2 8013   1.041   6.356   1.626
 2372SOL     OW 8014   6.544   6.421   0.267
 2372SOL    HW1 8015   6.546   6.489   0.340
 2372SOL    HW2 8016   6.537   6.467   0.178
 2373SOL     OW 8017   6.078   4.205   6.154
 2373SOL    HW1 8018   6.087   4.302   6.130
 2373SOL    HW2 8019   6.008   4.195   6.225
 2374SOL     OW 8020   6.104   6.995   2.529
 2374SOL    HW1 8021   6.091   7.010   2.431
 2374SOL    HW2 8022   6.017   7.008   2.576
 2375SOL     OW 8023   1.839   0.467   4.453
 2375SOL    HW1 8024   1.776   0.401   4.495
 2375SOL    HW2 8025   1.869   0.532   4.522
 2376SOL     OW 8026   4.950   2.647   2.636
 2376SOL    HW1 8027   4.963   2.640   2.537
 2376SOL    HW2 8028   4.909   2.562   2.670
 2377SOL     OW 8029   4.704   3.685   5.713
 2377SOL    HW1 8030   4.747   3.775   5.705
 2377SOL    HW2 8031   4.663   3.675   5.804
 2378SOL     OW 8032   0.650   1.563   0.203
 2378SOL    HW1 8033   0.551   1.574   0.203
 2378SOL    HW2 8034   0.675   1.487   0.143
 2379SOL     OW 8035   6.944   5.734   2.435
 2379SOL    HW1 8036   6.847   5.717   2.415
 2379SOL    HW2 8037   6.980   5.802   2.372
 2380SOL     OW 8038   4.956   5.402   6.712
 2380SOL    HW1 8039   5.049   5.400   6.676
 2380SOL    HW2 8040   4.954   5.458   6.795
 2381SOL     OW 8041   2.204   4.052   3.654
 2381SOL    HW1 8042   2.165   3.960   3.648
 2381SOL    HW2 8043   2.237   4.068   3.747
 2382SOL     OW 8044   6.630   4.775   3.229
 2382SOL    HW1 8045   6.586   4.843   3.170
 2382SOL    HW2 8046   6.677   4.821   3.304
 2383SOL     OW 8047   5.310   4.266   5.887
 2383SOL    HW1 8048   5.308   4.310   5.797
 2383SOL    HW2 8049   5.250   4.186   5.886
 2384SOL     OW 8050   7.009   1.783   3.041
 2384SOL    HW1 8051   6.957   1.867   3.056
 2384SOL    HW2 8052   0.005   1.737   3.128
 2385SOL     OW 8053   0.281   1.168   0.648
 2385SOL    HW1 8054   0.302   1.259   0.612
 2385SOL    HW2 8055   0.203   1.173   0.710
 2386SOL     OW 8056   5.892   6.312   4.985
 2386SOL    HW1 8057   5.793   6.307   4.980
 2386SOL    HW2 8058   5.919   6.369   5.062
 2387SOL     OW 8059   1.129   1.542   4.117
 2387SOL    HW1 8060   1.213   1.573   4.159
 2387SOL    HW2 8061   1.105   1.603   4.041
 2388SOL     OW 8062   0.278   2.981   5.284
 2388SOL    HW1 8063   0.347   2.981   5.357
 2388SOL    HW2 8064   0.191   3.011   5.322
 2389SOL     OW 8065   3.920   5.140   3.217
 2389SOL    HW1 8066   4.002   5.172   3.264
 2389SOL    HW2 8067   3.936   5.141   3.119
 2390SOL     OW 8068   4.683   2.676   5.956
 2390SOL    HW1 8069   4.638   2.747   5.901
 2390SOL    HW2 8070   4.623   2.649   6.031
 2391SOL     OW 8071   3.417   4.933   6.423
 2391SOL    HW1 8072   3.452   4.985   6.501
 2391SOL    HW2 8073   3.480   4.857   6.404
 2392SOL     OW 8074   4.293   4.409   5.662
 2392SOL    HW1 8075   4.301   4.404   5.762
 2392SOL    HW2 8076   4.202   4.442   5.637
 2393SOL     OW 8077   4.727   4.392   0.743
 2393SOL    HW1 8078   4.648   4.389   0.805
 2393SOL    HW2 8079   4.801   4.338   0.782
 2394SOL     OW 8080   0.383   1.651   3.643
 2394SOL    HW1 8081   0.399   1.586   3.569
 2394SOL    HW2 8082   0.446   1.728   3.633
 2395SOL     OW 8083   1.119   3.061   3.877
 2395SOL    HW1 8084   1.114   2.965   3.851
 2395SOL    HW2 8085   1.202   3.077   3.930
 2396SOL     OW 8086   0.901   0.474   6.240
 2396SOL    HW1 8087   0.860   0.388   6.208
 2396SOL    HW2 8088   0.892   0.543   6.168
 2397SOL     OW 8089   0.636   3.666   5.154
 2397SOL    HW1 8090   0.549   3.698   5.192
 2397SOL    HW2 8091   0.711   3.702   5.209
 2398SOL     OW 8092   4.019   7.003   3.622
 2398SOL    HW1 8093   3.997   6.954   3.707
 2398SOL    HW2 8094   4.033   0.080   3.641
 2399SOL     OW 8095   3.236   2.061   3.318
 2399SOL    HW1 8096   3.234   1.971   3.362
 2399SOL    HW2 8097   3.328   2.099   3.323
 2400SOL     OW 8098   1.568   3.879   0.563
 2400SOL    HW1 8099   1.582   3.853   0.468
 2400SOL    HW2 8100   1.522   3.968   0.567
 2401SOL     OW 8101   1.951   6.756   6.723
 2401SOL    HW1 8102   1.898   6.815   6.662
 2401SOL    HW2 8103   1.895   6.678   6.751
 2402SOL     OW 8104   0.786   3.967   2.335
 2402SOL    HW1 8105   0.737   3.965   2.248
 2402SOL    HW2 8106   0.732   4.018   2.403
 2403SOL     OW 8107   3.314   3.695   4.723
 2403SOL    HW1 8108   3.297   3.782   4.771
 2403SOL    HW2 8109   3.390   3.706   4.660
 2404SOL     OW 8110   5.915   1.726   0.800
 2404SOL    HW1 8111   5.885   1.632   0.787
 2404SOL    HW2 8112   5.953   1.738   0.892
 2405SOL     OW 8113   1.193   3.388   0.767
 2405SOL    HW1 8114   1.206   3.290   0.753
 2405SOL    HW2 8115   1.097   3.406   0.788
 2406SOL     OW 8116   2.815   5.776   4.490
 2406SOL    HW1 8117   2.728   5.784   4.538
 2406SOL    HW2 8118   2.807   5.815   4.398
 2407SOL     OW 8119   2.830   0.931   3.349
 2407SOL    HW1 8120   2.848   1.009   3.289
 2407SOL    HW2 8121   2.732   0.911   3.350
 2408SOL     OW 8122   2.914   6.356   5.574
 2408SOL    HW1 8123   2.992   6.416   5.592
 2408SOL    HW2 8124   2.938   6.263   5.602
 2409SOL     OW 8125   0.929   3.396   0.291
 2409SOL    HW1 8126   0.915   3.387   0.390
 2409SOL    HW2 8127   0.986   3.476   0.273
 2410SOL     OW 8128   6.951   2.579   4.337
 2410SOL    HW1 8129   6.872   2.611   4.285
 2410SOL    HW2 8130   0.012   2.579   4.278
 2411SOL     OW 8131   3.382   2.175   6.369
 2411SOL    HW1 8132   3.320   2.253   6.371
 2411SOL    HW2 8133   3.476   2.207   6.373
 2412SOL     OW 8134   3.247   1.469   5.458
 2412SOL    HW1 8135   3.264   1.404   5.383
 2412SOL    HW2 8136   3.156   1.507   5.448
 2413SOL     OW 8137   0.305   2.970   6.853
 2413SOL    HW1 8138   0.385   2.945   6.798
 2413SOL    HW2 8139   0.295   2.905   6.929
 2414SOL     OW 8140   6.603   1.509   5.107
 2414SOL    HW1 8141   6.581   1.445   5.033
 2414SOL    HW2 8142   6.528   1.573   5.119
 2415SOL     OW 8143   2.750   5.232   6.487
 2415SOL    HW1 8144   2.838   5.261   6.450
 2415SOL    HW2 8145   2.756   5.225   6.586
 2416SOL     OW 8146   0.347   2.592   2.857
 2416SOL    HW1 8147   0.322   2.503   2.819
 2416SOL    HW2 8148   0.365   2.583   2.955
 2417SOL     OW 8149   2.683   2.718   1.637
 2417SOL    HW1 8150   2.757   2.652   1.625
 2417SOL    HW2 8151   2.599   2.682   1.597
 2418SOL     OW 8152   4.851   3.964   6.511
 2418SOL    HW1 8153   4.860   4.005   6.601
 2418SOL    HW2 8154   4.822   3.868   6.521
 2419SOL     OW 8155   2.913   0.520   3.778
 2419SOL    HW1 8156   2.848   0.525   3.702
 2419SOL    HW2 8157   2.877   0.569   3.857
 2420SOL     OW 8158   1.253   4.131   2.377
 2420SOL    HW1 8159   1.333   4.075   2.398
 2420SOL    HW2 8160   1.172   4.094   2.423
 2421SOL     OW 8161   3.104   6.692   3.691
 2421SOL    HW1 8162   3.147   6.767   3.641
 2421SOL    HW2 8163   3.022   6.662   3.642
 2422SOL     OW 8164   4.096   4.801   1.097
 2422SOL    HW1 8165   4.079   4.820   1.000
 2422SOL    HW2 8166   4.150   4.717   1.105
 2423SOL     OW 8167   2.389   5.589   2.882
 2423SOL    HW1 8168   2.473   5.561   2.928
 2423SOL    HW2 8169   2.322   5.618   2.951
 2424SOL     OW 8170   5.168   6.926   6.433
 2424SOL    HW1 8171   5.128   6.928   6.342
 2424SOL    HW2 8172   5.240   6.856   6.437
 2425SOL     OW 8173   4.866   5.642   4.678
 2425SOL    HW1 8174   4.823   5.560   4.642
 2425SOL    HW2 8175   4.814   5.675   4.756
 2426SOL     OW 8176   1.994   2.524   5.013
 2426SOL    HW1 8177   1.896   2.539   4.996
 2426SOL    HW2 8178   2.028   2.596   5.074
 2427SOL     OW 8179   5.420   0.649   0.769
 2427SOL    HW1 8180   5.371   0.566   0.746
 2427SOL    HW2 8181   5.363   0.729   0.748
 2428SOL     OW 8182   1.399   1.214   2.712
 2428SOL    HW1 8183   1.480   1.192   2.767
 2428SOL    HW2 8184   1.393   1.152   2.634
 2429SOL     OW 8185   5.892   5.093   1.799
 2429SOL    HW1 8186   5.941   5.021   1.848
 2429SOL    HW2 8187   5.809   5.055   1.758
 2430SOL     OW 8188   6.274   0.805   6.569
 2430SOL    HW1 8189   6.257   0.763   6.480
 2430SOL    HW2 8190   6.270   0.905   6.561
 2431SOL     OW 8191   0.546   3.696   1.739
 2431SOL    HW1 8192   0.516   3.612   1.693
 2431SOL    HW2 8193   0.576   3.674   1.832
 2432SOL     OW 8194   2.119   5.308   1.786
 2432SOL    HW1 8195   2.195   5.280   1.727
 2432SOL    HW2 8196   2.044   5.341   1.729
 2433SOL     OW 8197   0.195   3.937   5.085
 2433SOL    HW1 8198   0.193   3.864   5.017
 2433SOL    HW2 8199   0.106   3.983   5.086
 2434SOL     OW 8200   4.018   0.538   2.589
 2434SOL    HW1 8201   3.942   0.602   2.601
 2434SOL    HW2 8202   4.015   0.469   2.662
 2435SOL     OW 8203   5.945   6.793   6.695
 2435SOL    HW1 8204   5.875   6.799   6.624
 2435SOL    HW2 8205   6.012   6.866   6.683
 2436SOL     OW 8206   0.840   2.532   1.151
 2436SOL    HW1 8207   0.745   2.514   1.176
 2436SOL    HW2 8208   0.899   2.458   1.184
 2437SOL     OW 8209   6.921   3.878   2.482
 2437SOL    HW1 8210   6.975   3.944   2.430
 2437SOL    HW2 8211   6.898   3.915   2.572
 2438SOL     OW 8212   4.050   1.853   4.731
 2438SOL    HW1 8213   4.120   1.791   4.766
 2438SOL    HW2 8214   4.037   1.928   4.795
 2439SOL     OW 8215   1.791   5.926   1.434
 2439SOL    HW1 8216   1.885   5.957   1.447
 2439SOL    HW2 8217   1.775   5.908   1.337
 2440SOL     OW 8218   6.475   1.307   5.766
 2440SOL    HW1 8219   6.461   1.362   5.684
 2440SOL    HW2 8220   6.471   1.367   5.847
 2441SOL     OW 8221   6.108   0.478   0.529
 2441SOL    HW1 8222   6.123   0.572   0.561
 2441SOL    HW2 8223   6.031   0.476   0.466
 2442SOL     OW 8224   5.456   3.085   1.322
 2442SOL    HW1 8225   5.362   3.076   1.357
 2442SOL    HW2 8226   5.453   3.098   1.223
 2443SOL     OW 8227   0.817   2.972   1.781
 2443SOL    HW1 8228   0.835   3.049   1.842
 2443SOL    HW2 8229   0.903   2.938   1.743
 2444SOL     OW 8230   3.123   5.700   2.330
 2444SOL    HW1 8231   3.064   5.722   2.251
 2444SOL    HW2 8232   3.192   5.772   2.340
 2445SOL     OW 8233   0.831   2.240   1.578
 2445SOL    HW1 8234   0.846   2.152   1.531
 2445SOL    HW2 8235   0.845   2.228   1.676
 2446SOL     OW 8236   0.980   5.437   2.069
 2446SOL    HW1 8237   1.045   5.364   2.049
 2446SOL    HW2 8238   0.901   5.398   2.118
 2447SOL     OW 8239   2.338   6.964   0.206
 2447SOL    HW1 8240   2.328   0.018   0.140
 2447SOL    HW2 8241   2.339   7.001   0.299
 2448SOL     OW 8242   5.444   1.082   4.578
 2448SOL    HW1 8243   5.483   1.068   4.487
 2448SOL    HW2 8244   5.368   1.018   4.592
 2449SOL     OW 8245   0.976   4.260   1.826
 2449SOL    HW1 8246   0.910   4.251   1.900
 2449SOL    HW2 8247   1.008   4.169   1.799
 2450SOL     OW 8248   1.113   6.668   5.208
 2450SOL    HW1 8249   1.020   6.638   5.233
 2450SOL    HW2 8250   1.151   6.723   5.282
 2451SOL     OW 8251   1.232   6.316   5.046
 2451SOL    HW1 8252   1.220   6.325   5.145
 2451SOL    HW2 8253   1.329   6.328   5.023
 2452SOL     OW 8254   2.706   2.002   3.329
 2452SOL    HW1 8255   2.624   1.954   3.299
 2452SOL    HW2 8256   2.705   2.012   3.428
 2453SOL     OW 8257   1.239   1.062   5.463
 2453SOL    HW1 8258   1.228   0.962   5.466
 2453SOL    HW2 8259   1.155   1.106   5.494
 2454SOL     OW 8260   3.675   5.771   0.774
 2454SOL    HW1 8261   3.634   5.860   0.752
 2454SOL    HW2 8262   3.774   5.777   0.765
 2455SOL     OW 8263   3.868   2.506   0.328
 2455SOL    HW1 8264   3.964   2.498   0.356
 2455SOL    HW2 8265   3.863   2.559   0.243
 2456SOL     OW 8266   0.686   2.845   5.738
 2456SOL    HW1 8267   0.590   2.835   5.709
 2456SOL    HW2 8268   0.689   2.899   5.822
 2457SOL     OW 8269   4.527   2.123   5.100
 2457SOL    HW1 8270   4.490   2.179   5.173
 2457SOL    HW2 8271   4.616   2.087   5.127
 2458SOL     OW 8272   0.857   0.595   2.626
 2458SOL    HW1 8273   0.766   0.557   2.646
 2458SOL    HW2 8274   0.899   0.626   2.711
 2459SOL     OW 8275   2.256   0.163   0.077
 2459SOL    HW1 8276   2.164   0.165   0.039
 2459SOL    HW2 8277   2.286   0.257   0.096
 2460SOL     OW 8278   1.224   1.342   4.980
 2460SOL    HW1 8279   1.187   1.417   4.924
 2460SOL    HW2 8280   1.163   1.326   5.058
 2461SOL     OW 8281   4.495   0.516   3.714
 2461SOL    HW1 8282   4.549   0.577   3.656
 2461SOL    HW2 8283   4.514   0.537   3.810
 2462SOL     OW 8284   0.216   4.599   0.085
 2462SOL    HW1 8285   0.272   4.537   0.029
 2462SOL    HW2 8286   0.237   4.694   0.061
 2463SOL     OW 8287   6.705   0.723   0.354
 2463SOL    HW1 8288   6.742   0.816   0.353
 2463SOL    HW2 8289   6.613   0.723   0.315
 2464SOL     OW 8290   0.750   2.368   3.978
 2464SOL    HW1 8291   0.692   2.445   3.952
 2464SOL    HW2 8292   0.762   2.368   4.077
 2465SOL     OW 8293   0.347   6.760   6.084
 2465SOL    HW1 8294   0.387   6.669   6.094
 2465SOL    HW2 8295   0.378   6.818   6.160
 2466SOL     OW 8296   0.582   1.932   2.020
 2466SOL    HW1 8297   0.678   1.906   2.037
 2466SOL    HW2 8298   0.558   2.009   2.078
 2467SOL     OW 8299   6.080   2.640   5.179
 2467SOL    HW1 8300   6.082   2.719   5.117
 2467SOL    HW2 8301   6.002   2.649   5.242
 2468SOL     OW 8302   3.436   6.834   5.231
 2468SOL    HW1 8303   3.387   6.864   5.150
 2468SOL    HW2 8304   3.384   6.858   5.313
 2469SOL     OW 8305   3.531   1.525   5.446
 2469SOL    HW1 8306   3.547   1.554   5.351
 2469SOL    HW2 8307   3.433   1.513   5.461
 2470SOL     OW 8308   2.911   4.801   6.363
 2470SOL    HW1 8309   2.958   4.862   6.299
 2470SOL    HW2 8310   2.865   4.729   6.311
 2471SOL     OW 8311   2.666   5.348   1.824
 2471SOL    HW1 8312   2.662   5.404   1.906
 2471SOL    HW2 8313   2.601   5.272   1.831
 2472SOL     OW 8314   5.172   1.834   3.379
 2472SOL    HW1 8315   5.250   1.806   3.323
 2472SOL    HW2 8316   5.118   1.902   3.330
 2473SOL     OW 8317   0.394   3.813   3.973
 2473SOL    HW1 8318   0.364   3.903   3.941
 2473SOL    HW2 8319   0.317   3.749   3.966
 2474SOL     OW 8320   1.140   6.045   1.644
 2474SOL    HW1 8321   1.131   6.050   1.743
 2474SOL    HW2 8322   1.091   6.121   1.602
 2475SOL     OW 8323   4.883   0.927   0.654
 2475SOL    HW1 8324   4.947   1.003   0.660
 2475SOL    HW2 8325   4.798   0.959   0.612
 2476SOL     OW 8326   5.211   1.047   0.477
 2476SOL    HW1 8327   5.246   1.078   0.388
 2476SOL    HW2 8328   5.157   0.964   0.465
 2477SOL     OW 8329   4.010   0.084   3.214
 2477SOL    HW1 8330   4.036   0.144   3.290
 2477SOL    HW2 8331   4.061   7.018   3.220
 2478SOL     OW 8332   4.493   6.816   4.574
 2478SOL    HW1 8333   4.582   6.861   4.575
 2478SOL    HW2 8334   4.488   6.750   4.649
 2479SOL     OW 8335   5.516   3.115   0.055
 2479SOL    HW1 8336   5.508   3.041   0.122
 2479SOL    HW2 8337   5.451   3.188   0.077
 2480SOL     OW 8338   3.307   2.328   1.688
 2480SOL    HW1 8339   3.289   2.427   1.686
 2480SOL    HW2 8340   3.221   2.280   1.709
 2481SOL     OW 8341   3.267   0.522   0.978
 2481SOL    HW1 8342   3.176   0.503   1.015
 2481SOL    HW2 8343   3.258   0.570   0.891
 2482SOL     OW 8344   5.929   3.323   6.360
 2482SOL    HW1 8345   5.913   3.348   6.264
 2482SOL    HW2 8346   6.021   3.285   6.369
 2483SOL     OW 8347   1.217   2.522   0.167
 2483SOL    HW1 8348   1.231   2.504   0.069
 2483SOL    HW2 8349   1.298   2.568   0.205
 2484SOL     OW 8350   5.534   0.740   1.192
 2484SOL    HW1 8351   5.438   0.742   1.222
 2484SOL    HW2 8352   5.593   0.729   1.272
 2485SOL     OW 8353   6.878   2.151   6.166
 2485SOL    HW1 8354   6.908   2.133   6.260
 2485SOL    HW2 8355   6.800   2.092   6.144
 2486SOL     OW 8356   6.702   4.989   5.064
 2486SOL    HW1 8357   6.792   5.027   5.088
 2486SOL    HW2 8358   6.631   5.057   5.083
 2487SOL     OW 8359   5.234   5.955   6.489
 2487SOL    HW1 8360   5.303   5.932   6.422
 2487SOL    HW2 8361   5.276   6.007   6.564
 2488SOL     OW 8362   6.399   3.981   0.808
 2488SOL    HW1 8363   6.422   3.900   0.861
 2488SOL    HW2 8364   6.321   3.960   0.748
 2489SOL     OW 8365   0.074   6.298   4.750
 2489SOL    HW1 8366   0.135   6.370   4.786
 2489SOL    HW2 8367   0.129   6.224   4.712
 2490SOL     OW 8368   2.648   5.855   2.544
 2490SOL    HW1 8369   2.582   5.847   2.469
 2490SOL    HW2 8370   2.602   5.836   2.631
 2491SOL     OW 8371   3.714   4.482   1.458
 2491SOL    HW1 8372   3.736   4.460   1.363
 2491SOL    HW2 8373   3.684   4.399   1.505
 2492SOL     OW 8374   6.921   4.718   1.914
 2492SOL    HW1 8375   6.925   4.804   1.965
 2492SOL    HW2 8376   7.007   4.669   1.926
 2493SOL     OW 8377   6.333   6.593   1.458
 2493SOL    HW1 8378   6.313   6.691   1.454
 2493SOL    HW2 8379   6.330   6.562   1.553
 2494SOL     OW 8380   6.559   3.810   2.485
 2494SOL    HW1 8381   6.465   3.777   2.487
 2494SOL    HW2 8382   6.585   3.842   2.576
 2495SOL     OW 8383   6.548   4.496   3.264
 2495SOL    HW1 8384   6.578   4.475   3.358
 2495SOL    HW2 8385   6.564   4.593   3.245
 2496SOL     OW 8386   6.030   5.025   6.217
 2496SOL    HW1 8387   6.122   5.048   6.249
 2496SOL    HW2 8388   6.035   4.942   6.161
 2497SOL     OW 8389   0.582   0.376   2.207
 2497SOL    HW1 8390   0.568   0.310   2.133
 2497SOL    HW2 8391   0.546   0.338   2.292
 2498SOL     OW 8392   1.893   3.708   6.159
 2498SOL    HW1 8393   1.850   3.618   6.159
 2498SOL    HW2 8394   1.826   3.776   6.128
 2499SOL     OW 8395   6.486   3.911   1.854
 2499SOL    HW1 8396   6.471   3.831   1.913
 2499SOL    HW2 8397   6.572   3.956   1.880
 2500SOL     OW 8398   3.825   3.794   6.834
 2500SOL    HW1 8399   3.890   3.798   6.910
 2500SOL    HW2 8400   3.802   3.699   6.814
 2501SOL     OW 8401   5.652   5.404   0.284
 2501SOL    HW1 8402   5.640   5.475   0.215
 2501SOL    HW2 8403   5.615   5.435   0.372
 2502SOL     OW 8404   2.884   5.125   4.321
 2502SOL    HW1 8405   2.817   5.167   4.260
 2502SOL    HW2 8406   2.971   5.173   4.313
 2503SOL     OW 8407   2.405   6.548   6.100
 2503SOL    HW1 8408   2.438   6.588   6.014
 2503SOL    HW2 8409   2.481   6.541   6.165
 2504SOL     OW 8410   3.446   6.201   3.227
 2504SOL    HW1 8411   3.434   6.116   3.279
 2504SOL    HW2 8412   3.520   6.255   3.268
 2505SOL     OW 8413   0.427   5.454   3.362
 2505SOL    HW1 8414   0.414   5.548   3.394
 2505SOL    HW2 8415   0.376   5.391   3.421
 2506SOL     OW 8416   5.174   5.638   6.118
 2506SOL    HW1 8417   5.150   5.615   6.024
 2506SOL    HW2 8418   5.111   5.708   6.152
 2507SOL     OW 8419   6.835   3.377   0.445
 2507SOL    HW1 8420   6.901   3.390   0.371
 2507SOL    HW2 8421   6.776   3.457   0.452
 2508SOL     OW 8422   4.610   2.310   3.935
 2508SOL    HW1 8423   4.612   2.257   4.020
 2508SOL    HW2 8424   4.703   2.337   3.911
 2509SOL     OW 8425   0.122   4.306   5.402
 2509SOL    HW1 8426   0.090   4.321   5.496
 2509SOL    HW2 8427   0.044   4.292   5.342
 2510SOL     OW 8428   3.433   4.129   1.852
 2510SOL    HW1 8429   3.431   4.095   1.946
 2510SOL    HW2 8430   3.350   4.098   1.804
 2511SOL     OW 8431   2.179   0.335   4.973
 2511SOL    HW1 8432   2.214   0.266   5.036
 2511SOL    HW2 8433   2.189   0.426   5.014
 2512SOL     OW 8434   3.651   5.180   4.292
 2512SOL    HW1 8435   3.657   5.214   4.386
 2512SOL    HW2 8436   3.695   5.091   4.286
 2513SOL     OW 8437   2.219   6.092   6.111
 2513SOL    HW1 8438   2.199   6.189   6.100
 2513SOL    HW2 8439   2.184   6.060   6.199
 2514SOL     OW 8440   1.450   2.810   2.988
 2514SOL    HW1 8441   1.533   2.861   3.013
 2514SOL    HW2 8442   1.370   2.859   3.021
 2515SOL     OW 8443   1.390   1.671   1.594
 2515SOL    HW1 8444   1.451   1.633   1.663
 2515SOL    HW2 8445   1.391   1.612   1.513
 2516SOL     OW 8446   5.791   1.858   4.006
 2516SOL    HW1 8447   5.717   1.822   4.063
 2516SOL    HW2 8448   5.781   1.957   3.998
 2517SOL     OW 8449   1.369   1.589   4.218
 2517SOL    HW1 8450   1.431   1.649   4.269
 2517SOL    HW2 8451   1.370   1.498   4.259
 2518SOL     OW 8452   2.807   4.271   1.244
 2518SOL    HW1 8453   2.882   4.225   1.290
 2518SOL    HW2 8454   2.724   4.263   1.299
 2519SOL     OW 8455   1.273   1.104   0.448
 2519SOL    HW1 8456   1.180   1.101   0.484
 2519SOL    HW2 8457   1.338   1.097   0.524
 2520SOL     OW 8458   2.859   2.402   0.824
 2520SOL    HW1 8459   2.932   2.334   0.825
 2520SOL    HW2 8460   2.899   2.494   0.827
 2521SOL     OW 8461   5.192   1.317   5.004
 2521SOL    HW1 8462   5.113   1.257   5.020
 2521SOL    HW2 8463   5.225   1.352   5.091
 2522SOL     OW 8464   0.750   2.177   6.100
 2522SOL    HW1 8465   0.834   2.176   6.046
 2522SOL    HW2 8466   0.671   2.173   6.039
 2523SOL     OW 8467   2.012   4.993   0.053
 2523SOL    HW1 8468   2.033   4.901   0.019
 2523SOL    HW2 8469   1.975   5.048   6.998
 2524SOL     OW 8470   1.286   6.782   3.999
 2524SOL    HW1 8471   1.221   6.858   4.009
 2524SOL    HW2 8472   1.239   6.695   4.011
 2525SOL     OW 8473   6.777   2.122   4.141
 2525SOL    HW1 8474   6.784   2.151   4.237
 2525SOL    HW2 8475   6.742   2.028   4.138
 2526SOL     OW 8476   1.021   6.475   0.912
 2526SOL    HW1 8477   1.106   6.506   0.870
 2526SOL    HW2 8478   1.004   6.528   0.995
 2527SOL     OW 8479   4.869   4.783   6.560
 2527SOL    HW1 8480   4.827   4.873   6.568
 2527SOL    HW2 8481   4.888   4.746   6.651
 2528SOL     OW 8482   4.944   5.109   6.664
 2528SOL    HW1 8483   4.935   5.209   6.662
 2528SOL    HW2 8484   4.934   5.076   6.758
 2529SOL     OW 8485   0.244   6.908   6.405
 2529SOL    HW1 8486   0.217   6.995   6.363
 2529SOL    HW2 8487   0.267   6.924   6.501
 2530SOL     OW 8488   1.786   5.742   6.038
 2530SOL    HW1 8489   1.855   5.672   6.021
 2530SOL    HW2 8490   1.765   5.791   5.954
 2531SOL     OW 8491   6.065   5.418   6.004
 2531SOL    HW1 8492   6.046   5.425   6.102
 2531SOL    HW2 8493   6.038   5.328   5.970
 2532SOL     OW 8494   6.324   6.567   0.963
 2532SOL    HW1 8495   6.244   6.604   0.915
 2532SOL    HW2 8496   6.403   6.568   0.901
 2533SOL     OW 8497   4.933   0.788   3.350
 2533SOL    HW1 8498   4.884   0.767   3.265
 2533SOL    HW2 8499   5.025   0.749   3.345
 2534SOL     OW 8500   4.747   1.918   2.688
 2534SOL    HW1 8501   4.674   1.956   2.632
 2534SOL    HW2 8502   4.707   1.863   2.761
 2535SOL     OW 8503   3.711   2.812   6.008
 2535SOL    HW1 8504   3.682   2.732   6.062
 2535SOL    HW2 8505   3.635   2.843   5.951
 2536SOL     OW 8506   1.532   0.400   6.878
 2536SOL    HW1 8507   1.554   0.357   6.965
 2536SOL    HW2 8508   1.609   0.456   6.848
 2537SOL     OW 8509   4.304   0.930   6.924
 2537SOL    HW1 8510   4.217   0.937   6.973
 2537SOL    HW2 8511   4.357   1.015   6.938
 2538SOL     OW 8512   6.943   3.468   3.939
 2538SOL    HW1 8513   7.006   3.479   3.862
 2538SOL    HW2 8514   6.957   3.379   3.982
 2539SOL     OW 8515   4.729   1.625   5.267
 2539SOL    HW1 8516   4.782   1.585   5.192
 2539SOL    HW2 8517   4.699   1.552   5.328
 2540SOL     OW 8518   3.485   1.626   2.329
 2540SOL    HW1 8519   3.500   1.557   2.258
 2540SOL    HW2 8520   3.464   1.714   2.286
 2541SOL     OW 8521   3.550   6.376   5.141
 2541SOL    HW1 8522   3.578   6.471   5.150
 2541SOL    HW2 8523   3.450   6.369   5.146
 2542SOL     OW 8524   1.167   4.862   6.245
 2542SOL    HW1 8525   1.209   4.802   6.178
 2542SOL    HW2 8526   1.223   4.864   6.328
 2543SOL     OW 8527   1.809   1.290   4.115
 2543SOL    HW1 8528   1.775   1.273   4.022
 2543SOL    HW2 8529   1.736   1.331   4.170
 2544SOL     OW 8530   0.857   5.228   0.156
 2544SOL    HW1 8531   0.814   5.282   0.229
 2544SOL    HW2 8532   0.832   5.267   0.067
 2545SOL     OW 8533   2.088   6.169   2.795
 2545SOL    HW1 8534   2.089   6.227   2.713
 2545SOL    HW2 8535   1.995   6.166   2.832
 2546SOL     OW 8536   5.947   2.088   0.969
 2546SOL    HW1 8537   5.985   2.082   0.877
 2546SOL    HW2 8538   5.909   2.000   0.996
 2547SOL     OW 8539   0.309   3.649   5.193
 2547SOL    HW1 8540   0.239   3.654   5.264
 2547SOL    HW2 8541   0.314   3.737   5.145
 2548SOL     OW 8542   0.372   6.021   4.043
 2548SOL    HW1 8543   0.425   6.100   4.074
 2548SOL    HW2 8544   0.331   6.041   3.954
 2549SOL     OW 8545   0.599   1.371   0.520
 2549SOL    HW1 8546   0.597   1.283   0.568
 2549SOL    HW2 8547   0.614   1.355   0.422
 2550SOL     OW 8548   5.491   6.274   0.894
 2550SOL    HW1 8549   5.545   6.350   0.930
 2550SOL    HW2 8550   5.536   6.188   0.916
 2551SOL     OW 8551   1.431   4.026   6.513
 2551SOL    HW1 8552   1.403   3.969   6.590
 2551SOL    HW2 8553   1.359   4.029   6.445
 2552SOL     OW 8554   2.465   5.825   3.229
 2552SOL    HW1 8555   2.536   5.759   3.252
 2552SOL    HW2 8556   2.405   5.839   3.308
 2553SOL     OW 8557   4.161   3.541   6.907
 2553SOL    HW1 8558   4.130   3.526   6.813
 2553SOL    HW2 8559   4.258   3.517   6.914
 2554SOL     OW 8560   1.421   1.292   0.343
 2554SOL    HW1 8561   1.500   1.255   0.295
 2554SOL    HW2 8562   1.357   1.218   0.365
 2555SOL     OW 8563   6.064   2.590   6.696
 2555SOL    HW1 8564   6.089   2.630   6.608
 2555SOL    HW2 8565   6.146   2.576   6.751
 2556SOL     OW 8566   3.323   6.117   0.671
 2556SOL    HW1 8567   3.266   6.046   0.631
 2556SOL    HW2 8568   3.269   6.172   0.735
 2557SOL     OW 8569   1.799   4.059   6.923
 2557SOL    HW1 8570   1.878   4.120   6.933
 2557SOL    HW2 8571   1.783   4.042   6.826
 2558SOL     OW 8572   4.435   1.059   5.802
 2558SOL    HW1 8573   4.511   1.015   5.754
 2558SOL    HW2 8574   4.381   0.989   5.849
 2559SOL     OW 8575   0.288   4.588   4.634
 2559SOL    HW1 8576   0.266   4.669   4.688
 2559SOL    HW2 8577   0.204   4.539   4.610
 2560SOL     OW 8578   6.094   1.836   6.248
 2560SOL    HW1 8579   6.039   1.919   6.258
 2560SOL    HW2 8580   6.165   1.835   6.318
 2561SOL     OW 8581   2.880   5.453   4.880
 2561SOL    HW1 8582   2.810   5.400   4.833
 2561SOL    HW2 8583   2.872   5.440   4.979
 2562SOL     OW 8584   1.619   3.803   0.289
 2562SOL    HW1 8585   1.530   3.795   0.245
 2562SOL    HW2 8586   1.681   3.855   0.231
 2563SOL     OW 8587   3.099   1.103   6.931
 2563SOL    HW1 8588   3.147   1.060   6.854
 2563SOL    HW2 8589   3.103   1.202   6.920
 2564SOL     OW 8590   1.655   5.458   1.902
 2564SOL    HW1 8591   1.663   5.387   1.833
 2564SOL    HW2 8592   1.603   5.535   1.865
 2565SOL     OW 8593   1.428   0.780   1.308
 2565SOL    HW1 8594   1.330   0.774   1.289
 2565SOL    HW2 8595   1.442   0.799   1.406
 2566SOL     OW 8596   1.625   6.453   7.017
 2566SOL    HW1 8597   1.683   6.443   6.936
 2566SOL    HW2 8598   1.678   6.495   0.071
 2567SOL     OW 8599   1.426   6.343   0.144
 2567SOL    HW1 8600   1.501   6.357   0.080
 2567SOL    HW2 8601   1.445   6.392   0.229
 2568SOL     OW 8602   4.789   2.591   0.170
 2568SOL    HW1 8603   4.708   2.565   0.119
 2568SOL    HW2 8604   4.765   2.657   0.241
 2569SOL     OW 8605   3.223   0.305   3.436
 2569SOL    HW1 8606   3.190   0.390   3.476
 2569SOL    HW2 8607   3.161   0.230   3.458
 2570SOL     OW 8608   5.336   1.732   6.180
 2570SOL    HW1 8609   5.242   1.763   6.193
 2570SOL    HW2 8610   5.344   1.637   6.209
 2571SOL     OW 8611   1.165   4.643   4.254
 2571SOL    HW1 8612   1.258   4.629   4.220
 2571SOL    HW2 8613   1.139   4.566   4.313
 2572SOL     OW 8614   2.276   4.619   2.663
 2572SOL    HW1 8615   2.253   4.711   2.630
 2572SOL    HW2 8616   2.196   4.560   2.656
 2573SOL     OW 8617   0.656   0.667   1.337
 2573SOL    HW1 8618   0.708   0.581   1.340
 2573SOL    HW2 8619   0.583   0.659   1.270
 2574SOL     OW 8620   6.691   3.170   6.650
 2574SOL    HW1 8621   6.726   3.184   6.743
 2574SOL    HW2 8622   6.599   3.131   6.653
 2575SOL     OW 8623   0.012   5.590   5.927
 2575SOL    HW1 8624   0.102   5.546   5.935
 2575SOL    HW2 8625   0.025   5.689   5.921
 2576SOL     OW 8626   4.783   6.348   4.073
 2576SOL    HW1 8627   4.843   6.270   4.094
 2576SOL    HW2 8628   4.698   6.314   4.033
 2577SOL     OW 8629   2.659   4.659   2.397
 2577SOL    HW1 8630   2.705   4.726   2.338
 2577SOL    HW2 8631   2.698   4.568   2.380
 2578SOL     OW 8632   4.264   1.850   3.529
 2578SOL    HW1 8633   4.235   1.874   3.436
 2578SOL    HW2 8634   4.191   1.800   3.575
 2579SOL     OW 8635   1.055   6.215   3.577
 2579SOL    HW1 8636   0.977   6.174   3.531
 2579SOL    HW2 8637   1.044   6.205   3.676
 2580SOL     OW 8638   2.263   2.869   6.996
 2580SOL    HW1 8639   2.299   2.869   6.903
 2580SOL    HW2 8640   2.174   2.914   6.997
 2581SOL     OW 8641   2.913   6.798   5.229
 2581SOL    HW1 8642   2.817   6.775   5.241
 2581SOL    HW2 8643   2.922   6.898   5.223
 2582SOL     OW 8644   0.393   3.172   1.504
 2582SOL    HW1 8645   0.374   3.267   1.478
 2582SOL    HW2 8646   0.471   3.138   1.451
 2583SOL     OW 8647   5.956   6.949   1.084
 2583SOL    HW1 8648   5.938   6.988   0.993
 2583SOL    HW2 8649   5.875   6.962   1.141
 2584SOL     OW 8650   4.354   4.867   5.204
 2584SOL    HW1 8651   4.433   4.858   5.265
 2584SOL    HW2 8652   4.329   4.964   5.196
 2585SOL     OW 8653   3.282   5.146   6.805
 2585SOL    HW1 8654   3.278   5.138   6.905
 2585SOL    HW2 8655   3.266   5.056   6.764
 2586SOL     OW 8656   2.208   0.651   4.795
 2586SOL    HW1 8657   2.271   0.583   4.757
 2586SOL    HW2 8658   2.175   0.619   4.884
 2587SOL     OW 8659   6.507   1.110   3.430
 2587SOL    HW1 8660   6.539   1.077   3.519
 2587SOL    HW2 8661   6.581   1.161   3.385
 2588SOL     OW 8662   4.553   0.829   5.391
 2588SOL    HW1 8663   4.562   0.926   5.368
 2588SOL    HW2 8664   4.601   0.774   5.322
 2589SOL     OW 8665   1.739   6.763   0.071
 2589SOL    HW1 8666   1.814   6.828   0.063
 2589SOL    HW2 8667   1.680   6.770   7.011
 2590SOL     OW 8668   2.905   5.242   0.579
 2590SOL    HW1 8669   2.943   5.326   0.617
 2590SOL    HW2 8670   2.827   5.212   0.634
 2591SOL     OW 8671   5.898   5.517   3.742
 2591SOL    HW1 8672   5.862   5.441   3.796
 2591SOL    HW2 8673   5.834   5.594   3.747
 2592SOL     OW 8674   2.328   4.688   0.323
 2592SOL    HW1 8675   2.400   4.685   0.253
 2592SOL    HW2 8676   2.246   4.644   0.288
 2593SOL     OW 8677   3.048   3.723   0.447
 2593SOL    HW1 8678   3.034   3.819   0.423
 2593SOL    HW2 8679   3.061   3.670   0.364
 2594SOL     OW 8680   1.633   3.983   4.627
 2594SOL    HW1 8681   1.657   3.989   4.530
 2594SOL    HW2 8682   1.542   4.021   4.642
 2595SOL     OW 8683   1.697   1.136   3.402
 2595SOL    HW1 8684   1.751   1.169   3.479
 2595SOL    HW2 8685   1.728   1.044   3.376
 2596SOL     OW 8686   1.224   2.147   6.955
 2596SOL    HW1 8687   1.136   2.193   6.951
 2596SOL    HW2 8688   1.286   2.187   6.888
 2597SOL     OW 8689   6.813   5.833   6.177
 2597SOL    HW1 8690   6.841   5.924   6.146
 2597SOL    HW2 8691   6.760   5.789   6.105
 2598SOL     OW 8692   5.477   2.640   2.245
 2598SOL    HW1 8693   5.428   2.712   2.196
 2598SOL    HW2 8694   5.527   2.583   2.179
 2599SOL     OW 8695   3.046   6.098   1.884
 2599SOL    HW1 8696   3.022   6.122   1.790
 2599SOL    HW2 8697   3.143   6.074   1.889
 2600SOL     OW 8698   6.094   3.997   4.345
 2600SOL    HW1 8699   6.124   3.904   4.320
 2600SOL    HW2 8700   6.004   3.993   4.387
 2601SOL     OW 8701   0.199   1.962   3.253
 2601SOL    HW1 8702   0.153   2.011   3.327
 2601SOL    HW2 8703   0.245   1.881   3.289
 2602SOL     OW 8704   1.722   4.912   3.900
 2602SOL    HW1 8705   1.724   4.961   3.987
 2602SOL    HW2 8706   1.796   4.946   3.841
 2603SOL     OW 8707   2.741   0.175   2.869
 2603SOL    HW1 8708   2.813   0.176   2.937
 2603SOL    HW2 8709   2.759   0.103   2.802
 2604SOL     OW 8710   4.490   2.414   2.604
 2604SOL    HW1 8711   4.403   2.379   2.570
 2604SOL    HW2 8712   4.510   2.373   2.693
 2605SOL     OW 8713   1.505   3.671   1.921
 2605SOL    HW1 8714   1.465   3.715   1.840
 2605SOL    HW2 8715   1.602   3.653   1.904
 2606SOL     OW 8716   4.482   3.655   1.317
 2606SOL    HW1 8717   4.440   3.584   1.372
 2606SOL    HW2 8718   4.571   3.680   1.356
 2607SOL     OW 8719   2.635   2.105   1.393
 2607SOL    HW1 8720   2.569   2.114   1.318
 2607SOL    HW2 8721   2.720   2.066   1.359
 2608SOL     OW 8722   2.709   5.381   5.488
 2608SOL    HW1 8723   2.796   5.363   5.442
 2608SOL    HW2 8724   2.720   5.366   5.587
 2609SOL     OW 8725   0.023   1.372   0.555
 2609SOL    HW1 8726   0.110   1.388   0.510
 2609SOL    HW2 8727   0.039   1.353   0.652
 2610SOL     OW 8728   1.227   4.554   4.591
 2610SOL    HW1 8729   1.300   4.563   4.523
 2610SOL    HW2 8730   1.182   4.465   4.580
 2611SOL     OW 8731   5.463   6.946   6.453
 2611SOL    HW1 8732   5.380   6.991   6.420
 2611SOL    HW2 8733   5.543   6.999   6.424
 2612SOL     OW 8734   6.169   6.993   5.825
 2612SOL    HW1 8735   6.128   0.038   5.889
 2612SOL    HW2 8736   6.218   0.023   5.753
 2613SOL     OW 8737   1.053   5.918   6.934
 2613SOL    HW1 8738   1.133   5.890   6.987
 2613SOL    HW2 8739   1.018   6.005   6.970
 2614SOL     OW 8740   6.783   1.228   6.462
 2614SOL    HW1 8741   6.757   1.214   6.366
 2614SOL    HW2 8742   6.876   1.196   6.477
 2615SOL     OW 8743   0.847   3.284   0.528
 2615SOL    HW1 8744   0.759   3.244   0.552
 2615SOL    HW2 8745   0.908   3.213   0.494
 2616SOL     OW 8746   1.608   0.531   5.604
 2616SOL    HW1 8747   1.663   0.605   5.567
 2616SOL    HW2 8748   1.535   0.508   5.539
 2617SOL     OW 8749   5.714   0.292   1.482
 2617SOL    HW1 8750   5.790   0.340   1.526
 2617SOL    HW2 8751   5.629   0.316   1.528
 2618SOL     OW 8752   1.049   6.564   6.403
 2618SOL    HW1 8753   0.990   6.634   6.362
 2618SOL    HW2 8754   1.092   6.510   6.331
 2619SOL     OW 8755   4.816   1.113   2.360
 2619SOL    HW1 8756   4.911   1.143   2.358
 2619SOL    HW2 8757   4.794   1.074   2.450
 2620SOL     OW 8758   6.267   1.013   1.096
 2620SOL    HW1 8759   6.193   1.065   1.052
 2620SOL    HW2 8760   6.257   1.017   1.195
 2621SOL     OW 8761   1.489   6.436   1.837
 2621SOL    HW1 8762   1.500   6.375   1.759
 2621SOL    HW2 8763   1.435   6.391   1.907
 2622SOL     OW 8764   3.582   3.452   6.305
 2622SOL    HW1 8765   3.656   3.471   6.241
 2622SOL    HW2 8766   3.612   3.385   6.372
 2623SOL     OW 8767   0.791   6.576   3.495
 2623SOL    HW1 8768   0.872   6.522   3.473
 2623SOL    HW2 8769   0.730   6.522   3.553
 2624SOL     OW 8770   0.347   1.585   5.314
 2624SOL    HW1 8771   0.391   1.672   5.335
 2624SOL    HW2 8772   0.406   1.531   5.254
 2625SOL     OW 8773   2.234   5.239   6.127
 2625SOL    HW1 8774   2.243   5.332   6.090
 2625SOL    HW2 8775   2.324   5.208   6.160
 2626SOL     OW 8776   6.764   5.485   6.777
 2626SOL    HW1 8777   6.710   5.409   6.814
 2626SOL    HW2 8778   6.800   5.540   6.852
 2627SOL     OW 8779   1.875   0.129   5.454
 2627SOL    HW1 8780   1.894   0.065   5.528
 2627SOL    HW2 8781   1.795   0.099   5.403
 2628SOL     OW 8782   0.434   4.725   2.493
 2628SOL    HW1 8783   0.457   4.783   2.571
 2628SOL    HW2 8784   0.501   4.739   2.421
 2629SOL     OW 8785   3.440   3.768   2.581
 2629SOL    HW1 8786   3.473   3.821   2.503
 2629SOL    HW2 8787   3.384   3.692   2.547
 2630SOL     OW 8788   4.042   0.707   3.686
 2630SOL    HW1 8789   4.061   0.690   3.783
 2630SOL    HW2 8790   3.994   0.794   3.677
 2631SOL     OW 8791   6.278   0.370   6.737
 2631SOL    HW1 8792   6.325   0.392   6.651
 2631SOL    HW2 8793   6.331   0.405   6.814
 2632SOL     OW 8794   5.063   4.546   2.274
 2632SOL    HW1 8795   5.084   4.500   2.187
 2632SOL    HW2 8796   5.006   4.626   2.256
 2633SOL     OW 8797   0.230   3.405   6.049
 2633SOL    HW1 8798   0.247   3.320   6.098
 2633SOL    HW2 8799   0.145   3.447   6.081
 2634SOL     OW 8800   0.847   0.865   5.907
 2634SOL    HW1 8801   0.879   0.948   5.954
 2634SOL    HW2 8802   0.872   0.785   5.961
 2635SOL     OW 8803   5.235   5.072   3.227
 2635SOL    HW1 8804   5.289   5.134   3.170
 2635SOL    HW2 8805   5.247   5.096   3.323
 2636SOL     OW 8806   3.782   5.733   5.096
 2636SOL    HW1 8807   3.872   5.701   5.069
 2636SOL    HW2 8808   3.771   5.726   5.195
 2637SOL     OW 8809   0.774   1.484   3.685
 2637SOL    HW1 8810   0.692   1.463   3.738
 2637SOL    HW2 8811   0.851   1.433   3.722
 2638SOL     OW 8812   0.683   6.187   4.350
 2638SOL    HW1 8813   0.747   6.148   4.284
 2638SOL    HW2 8814   0.733   6.240   4.418
 2639SOL     OW 8815   4.062   4.792   5.045
 2639SOL    HW1 8816   4.027   4.818   4.955
 2639SOL    HW2 8817   4.023   4.851   5.115
 2640SOL     OW 8818   1.735   6.939   3.651
 2640SOL    HW1 8819   1.777   6.859   3.608
 2640SOL    HW2 8820   1.659   6.971   3.594
 2641SOL     OW 8821   5.663   2.716   0.055
 2641SOL    HW1 8822   5.623   2.695   6.985
 2641SOL    HW2 8823   5.738   2.652   0.073
 2642SOL     OW 8824   5.983   1.337   3.863
 2642SOL    HW1 8825   6.001   1.308   3.769
 2642SOL    HW2 8826   5.884   1.345   3.877
 2643SOL     OW 8827   2.268   4.672   3.507
 2643SOL    HW1 8828   2.299   4.693   3.600
 2643SOL    HW2 8829   2.275   4.574   3.491
 2644SOL     OW 8830   5.031   5.249   4.504
 2644SOL    HW1 8831   5.025   5.195   4.420
 2644SOL    HW2 8832   5.128   5.260   4.529
 2645SOL     OW 8833   4.669   5.636   3.701
 2645SOL    HW1 8834   4.668   5.621   3.602
 2645SOL    HW2 8835   4.662   5.734   3.720
 2646SOL     OW 8836   0.700   2.691   6.121
 2646SOL    HW1 8837   0.763   2.640   6.180
 2646SOL    HW2 8838   0.606   2.671   6.149
 2647SOL     OW 8839   5.601   0.469   1.861
 2647SOL    HW1 8840   5.572   0.565   1.867
 2647SOL    HW2 8841   5.676   0.453   1.925
 2648SOL     OW 8842   0.788   0.093   6.696
 2648SOL    HW1 8843   0.783   0.163   6.767
 2648SOL    HW2 8844   0.884   0.078   6.671
 2649SOL     OW 8845   4.855   1.954   2.101
 2649SOL    HW1 8846   4.836   1.901   2.019
 2649SOL    HW2 8847   4.772   1.964   2.155
 2650SOL     OW 8848   2.615   6.010   3.974
 2650SOL    HW1 8849   2.572   5.920   3.975
 2650SOL    HW2 8850   2.713   6.001   3.990
 2651SOL     OW 8851   4.320   2.353   4.314
 2651SOL    HW1 8852   4.236   2.303   4.290
 2651SOL    HW2 8853   4.346   2.412   4.237
 2652SOL     OW 8854   4.898   3.950   5.406
 2652SOL    HW1 8855   4.947   3.941   5.320
 2652SOL    HW2 8856   4.800   3.954   5.388
 2653SOL     OW 8857   2.547   5.500   0.496
 2653SOL    HW1 8858   2.479   5.428   0.506
 2653SOL    HW2 8859   2.504   5.582   0.457
 2654SOL     OW 8860   6.423   1.017   0.208
 2654SOL    HW1 8861   6.389   1.045   0.298
 2654SOL    HW2 8862   6.359   1.047   0.138
 2655SOL     OW 8863   4.924   6.270   2.701
 2655SOL    HW1 8864   4.831   6.275   2.663
 2655SOL    HW2 8865   4.988   6.314   2.638
 2656SOL     OW 8866   4.099   6.444   3.225
 2656SOL    HW1 8867   4.145   6.404   3.145
 2656SOL    HW2 8868   4.001   6.449   3.208
 2657SOL     OW 8869   0.490   4.156   0.379
 2657SOL    HW1 8870   0.414   4.140   0.443
 2657SOL    HW2 8871   0.510   4.072   0.329
 2658SOL     OW 8872   3.681   5.210   0.455
 2658SOL    HW1 8873   3.587   5.211   0.420
 2658SOL    HW2 8874   3.744   5.234   0.381
 2659SOL     OW 8875   0.204   1.768   5.045
 2659SOL    HW1 8876   0.268   1.844   5.037
 2659SOL    HW2 8877   0.186   1.750   5.142
 2660SOL     OW 8878   0.374   1.752   2.009
 2660SOL    HW1 8879   0.283   1.780   1.979
 2660SOL    HW2 8880   0.438   1.828   1.996
 2661SOL     OW 8881   1.519   1.243   1.081
 2661SOL    HW1 8882   1.522   1.145   1.104
 2661SOL    HW2 8883   1.603   1.287   1.111
 2662SOL     OW 8884   2.833   1.386   2.120
 2662SOL    HW1 8885   2.879   1.439   2.049
 2662SOL    HW2 8886   2.769   1.322   2.078
 2663SOL     OW 8887   3.924   6.929   0.190
 2663SOL    HW1 8888   3.919   6.967   0.098
 2663SOL    HW2 8889   3.844   6.870   0.205
 2664SOL     OW 8890   4.704   3.677   5.446
 2664SOL    HW1 8891   4.692   3.663   5.544
 2664SOL    HW2 8892   4.633   3.738   5.412
 2665SOL     OW 8893   2.175   3.824   4.876
 2665SOL    HW1 8894   2.191   3.803   4.972
 2665SOL    HW2 8895   2.194   3.743   4.820
 2666SOL     OW 8896   2.198   3.929   2.310
 2666SOL    HW1 8897   2.163   3.928   2.404
 2666SOL    HW2 8898   2.268   4.000   2.302
 2667SOL     OW 8899   0.130   3.100   4.763
 2667SOL    HW1 8900   0.210   3.154   4.792
 2667SOL    HW2 8901   0.052   3.121   4.822
 2668SOL     OW 8902   6.048   0.665   3.535
 2668SOL    HW1 8903   6.141   0.629   3.527
 2668SOL    HW2 8904   6.020   0.664   3.631
 2669SOL     OW 8905   2.508   0.724   0.064
 2669SOL    HW1 8906   2.417   0.722   0.105
 2669SOL    HW2 8907   2.509   0.667   7.002
 2670SOL     OW 8908   0.724   0.245   6.911
 2670SOL    HW1 8909   0.787   0.318   6.885
 2670SOL    HW2 8910   0.695   0.257   7.006
 2671SOL     OW 8911   5.242   4.632   5.985
 2671SOL    HW1 8912   5.150   4.600   5.960
 2671SOL    HW2 8913   5.301   4.553   6.003
 2672SOL     OW 8914   3.530   1.460   2.108
 2672SOL    HW1 8915   3.516   1.504   2.020
 2672SOL    HW2 8916   3.511   1.362   2.100
 2673SOL     OW 8917   3.570   0.254   2.670
 2673SOL    HW1 8918   3.584   0.170   2.722
 2673SOL    HW2 8919   3.531   0.231   2.580
 2674SOL     OW 8920   6.886   5.398   2.742
 2674SOL    HW1 8921   6.806   5.418   2.685
 2674SOL    HW2 8922   6.969   5.410   2.688
 2675SOL     OW 8923   5.167   0.956   4.129
 2675SOL    HW1 8924   5.156   0.878   4.191
 2675SOL    HW2 8925   5.258   0.954   4.089
 2676SOL     OW 8926   3.985   3.784   3.549
 2676SOL    HW1 8927   4.063   3.813   3.604
 2676SOL    HW2 8928   3.909   3.848   3.564
 2677SOL     OW 8929   2.647   5.126   1.216
 2677SOL    HW1 8930   2.708   5.167   1.149
 2677SOL    HW2 8931   2.691   5.046   1.257
 2678SOL     OW 8932   4.360   1.901   2.992
 2678SOL    HW1 8933   4.331   1.926   3.084
 2678SOL    HW2 8934   4.414   1.817   2.996
 2679SOL     OW 8935   2.112   3.289   2.786
 2679SOL    HW1 8936   2.104   3.189   2.789
 2679SOL    HW2 8937   2.103   3.320   2.692
 2680SOL     OW 8938   5.989   1.734   0.007
 2680SOL    HW1 8939   6.063   1.670   0.029
 2680SOL    HW2 8940   5.993   1.813   0.069
 2681SOL     OW 8941   1.715   2.297   4.251
 2681SOL    HW1 8942   1.670   2.355   4.183
 2681SOL    HW2 8943   1.815   2.306   4.242
 2682SOL     OW 8944   3.871   4.056   1.557
 2682SOL    HW1 8945   3.856   3.960   1.535
 2682SOL    HW2 8946   3.915   4.063   1.646
 2683SOL     OW 8947   2.226   4.408   1.980
 2683SOL    HW1 8948   2.285   4.451   2.049
 2683SOL    HW2 8949   2.206   4.314   2.008
 2684SOL     OW 8950   6.662   6.774   4.105
 2684SOL    HW1 8951   6.724   6.811   4.035
 2684SOL    HW2 8952   6.637   6.847   4.169
 2685SOL     OW 8953   0.867   5.743   5.889
 2685SOL    HW1 8954   0.957   5.725   5.929
 2685SOL    HW2 8955   0.872   5.824   5.831
 2686SOL     OW 8956   0.651   1.244   5.665
 2686SOL    HW1 8957   0.561   1.280   5.689
 2686SOL    HW2 8958   0.641   1.162   5.609
 2687SOL     OW 8959   3.950   1.906   1.455
 2687SOL    HW1 8960   4.047   1.883   1.450
 2687SOL    HW2 8961   3.900   1.831   1.496
 2688SOL     OW 8962   4.158   2.709   6.295
 2688SOL    HW1 8963   4.157   2.809   6.290
 2688SOL    HW2 8964   4.068   2.676   6.323
 2689SOL     OW 8965   1.656   4.090   3.248
 2689SOL    HW1 8966   1.728   4.070   3.314
 2689SOL    HW2 8967   1.585   4.021   3.253
 2690SOL     OW 8968   4.484   1.499   5.904
 2690SOL    HW1 8969   4.424   1.577   5.924
 2690SOL    HW2 8970   4.578   1.523   5.928
 2691SOL     OW 8971   6.685   3.703   5.074
 2691SOL    HW1 8972   6.642   3.760   5.004
 2691SOL    HW2 8973   6.623   3.692   5.151
 2692SOL     OW 8974   2.550   6.411   2.153
 2692SOL    HW1 8975   2.588   6.361   2.232
 2692SOL    HW2 8976   2.541   6.348   2.076
 2693SOL     OW 8977   1.399   6.159   3.192
 2693SOL    HW1 8978   1.381   6.185   3.286
 2693SOL    HW2 8979   1.438   6.067   3.189
 2694SOL     OW 8980   2.598   0.414   2.802
 2694SOL    HW1 8981   2.646   0.328   2.819
 2694SOL    HW2 8982   2.662   0.480   2.764
 2695SOL     OW 8983   0.018   5.533   3.646
 2695SOL    HW1 8984   0.070   5.484   3.716
 2695SOL    HW2 8985   0.076   5.600   3.602
 2696SOL     OW 8986   5.412   4.786   5.873
 2696SOL    HW1 8987   5.394   4.774   5.775
 2696SOL    HW2 8988   5.350   4.728   5.926
 2697SOL     OW 8989   4.313   2.528   6.417
 2697SOL    HW1 8990   4.262   2.496   6.497
 2697SOL    HW2 8991   4.270   2.611   6.381
 2698SOL     OW 8992   1.368   5.136   5.816
 2698SOL    HW1 8993   1.273   5.157   5.793
 2698SOL    HW2 8994   1.382   5.148   5.914
 2699SOL     OW 8995   2.668   6.256   2.332
 2699SOL    HW1 8996   2.697   6.179   2.275
 2699SOL    HW2 8997   2.708   6.246   2.424
 2700SOL     OW 8998   4.015   1.929   1.985
 2700SOL    HW1 8999   4.031   1.838   2.023
 2700SOL    HW2 9000   4.099   1.965   1.946
 2701SOL     OW 9001   5.125   3.165   4.992
 2701SOL    HW1 9002   5.099   3.075   5.028
 2701SOL    HW2 9003   5.221   3.183   5.013
 2702SOL     OW 9004   2.754   0.805   4.988
 2702SOL    HW1 9005   2.677   0.810   5.051
 2702SOL    HW2 9006   2.724   0.833   4.896
 2703SOL     OW 9007   2.141   6.930   2.613
 2703SOL    HW1 9008   2.240   6.935   2.626
 2703SOL    HW2 9009   2.117   6.963   2.521
 2704SOL     OW 9010   5.359   0.574   3.650
 2704SOL    HW1 9011   5.412   0.629   3.586
 2704SOL    HW2 9012   5.401   0.484   3.659
 2705SOL     OW 9013   0.687   0.703   5.757
 2705SOL    HW1 9014   0.626   0.660   5.824
 2705SOL    HW2 9015   0.734   0.780   5.799
 2706SOL     OW 9016   6.693   3.890   3.584
 2706SOL    HW1 9017   6.731   3.957   3.648
 2706SOL    HW2 9018   6.682   3.802   3.629
 2707SOL     OW 9019   4.549   1.273   2.813
 2707SOL    HW1 9020   4.520   1.224   2.731
 2707SOL    HW2 9021   4.631   1.327   2.793
 2708SOL     OW 9022   5.307   3.670   6.302
 2708SOL    HW1 9023   5.394   3.642   6.261
 2708SOL    HW2 9024   5.297   3.769   6.292
 2709SOL     OW 9025   5.363   1.646   5.484
 2709SOL    HW1 9026   5.383   1.590   5.404
 2709SOL    HW2 9027   5.271   1.684   5.477
 2710SOL     OW 9028   0.224   2.400   4.661
 2710SOL    HW1 9029   0.157   2.474   4.665
 2710SOL    HW2 9030   0.304   2.431   4.610
 2711SOL     OW 9031   3.712   1.122   1.923
 2711SOL    HW1 9032   3.719   1.094   2.018
 2711SOL    HW2 9033   3.622   1.097   1.887
 2712SOL     OW 9034   3.879   6.250   2.197
 2712SOL    HW1 9035   3.889   6.345   2.167
 2712SOL    HW2 9036   3.937   6.191   2.141
 2713SOL     OW 9037   3.702   4.771   5.590
 2713SOL    HW1 9038   3.605   4.749   5.591
 2713SOL    HW2 9039   3.755   4.688   5.570
 2714SOL     OW 9040   3.171   4.707   6.493
 2714SOL    HW1 9041   3.126   4.650   6.424
 2714SOL    HW2 9042   3.170   4.803   6.464
 2715SOL     OW 9043   4.586   1.139   6.858
 2715SOL    HW1 9044   4.544   1.110   6.772
 2715SOL    HW2 9045   4.685   1.140   6.848
 2716SOL     OW 9046   3.709   1.681   2.863
 2716SOL    HW1 9047   3.774   1.755   2.883
 2716SOL    HW2 9048   3.703   1.620   2.942
 2717SOL     OW 9049   0.570   1.374   2.394
 2717SOL    HW1 9050   0.525   1.463   2.392
 2717SOL    HW2 9051   0.527   1.317   2.463
 2718SOL     OW 9052   0.490   0.652   5.939
 2718SOL    HW1 9053   0.559   0.583   5.963
 2718SOL    HW2 9054   0.458   0.636   5.846
 2719SOL     OW 9055   1.612   4.837   2.836
 2719SOL    HW1 9056   1.581   4.826   2.930
 2719SOL    HW2 9057   1.567   4.916   2.795
 2720SOL     OW 9058   2.241   6.243   6.396
 2720SOL    HW1 9059   2.237   6.295   6.311
 2720SOL    HW2 9060   2.152   6.246   6.441
 2721SOL     OW 9061   2.874   6.403   1.487
 2721SOL    HW1 9062   2.792   6.456   1.512
 2721SOL    HW2 9063   2.931   6.390   1.568
 2722SOL     OW 9064   4.138   5.688   6.887
 2722SOL    HW1 9065   4.129   5.619   6.815
 2722SOL    HW2 9066   4.106   5.650   6.974
 2723SOL     OW 9067   3.094   6.146   6.816
 2723SOL    HW1 9068   3.122   6.237   6.845
 2723SOL    HW2 9069   3.170   6.082   6.828
 2724SOL     OW 9070   0.595   6.546   1.097
 2724SOL    HW1 9071   0.566   6.474   1.161
 2724SOL    HW2 9072   0.692   6.567   1.112
 2725SOL     OW 9073   5.898   4.092   4.545
 2725SOL    HW1 9074   5.869   4.187   4.536
 2725SOL    HW2 9075   5.974   4.086   4.611
 2726SOL     OW 9076   5.997   1.842   2.272
 2726SOL    HW1 9077   5.993   1.918   2.207
 2726SOL    HW2 9078   6.091   1.830   2.302
 2727SOL     OW 9079   1.609   5.461   3.394
 2727SOL    HW1 9080   1.588   5.375   3.441
 2727SOL    HW2 9081   1.651   5.441   3.306
 2728SOL     OW 9082   4.703   5.487   5.737
 2728SOL    HW1 9083   4.675   5.395   5.765
 2728SOL    HW2 9084   4.640   5.521   5.667
 2729SOL     OW 9085   5.450   0.292   6.386
 2729SOL    HW1 9086   5.439   0.256   6.293
 2729SOL    HW2 9087   5.531   0.350   6.390
 2730SOL     OW 9088   1.264   5.550   2.009
 2730SOL    HW1 9089   1.347   5.523   2.057
 2730SOL    HW2 9090   1.184   5.508   2.053
 2731SOL     OW 9091   2.980   3.805   4.213
 2731SOL    HW1 9092   2.885   3.795   4.184
 2731SOL    HW2 9093   2.986   3.797   4.312
 2732SOL     OW 9094   5.548   0.516   2.234
 2732SOL    HW1 9095   5.548   0.573   2.317
 2732SOL    HW2 9096   5.523   0.422   2.259
 2733SOL     OW 9097   1.417   6.564   6.772
 2733SOL    HW1 9098   1.364   6.607   6.845
 2733SOL    HW2 9099   1.459   6.481   6.806
 2734SOL     OW 9100   3.408   6.188   2.386
 2734SOL    HW1 9101   3.456   6.191   2.474
 2734SOL    HW2 9102   3.310   6.192   2.402
 2735SOL     OW 9103   0.637   1.554   1.603
 2735SOL    HW1 9104   0.598   1.616   1.535
 2735SOL    HW2 9105   0.588   1.564   1.689
 2736SOL     OW 9106   4.746   4.479   3.009
 2736SOL    HW1 9107   4.700   4.562   3.043
 2736SOL    HW2 9108   4.723   4.465   2.913
 2737SOL     OW 9109   3.030   0.512   5.423
 2737SOL    HW1 9110   2.987   0.435   5.376
 2737SOL    HW2 9111   2.985   0.597   5.395
 2738SOL     OW 9112   5.001   6.090   1.596
 2738SOL    HW1 9113   5.009   6.016   1.530
 2738SOL    HW2 9114   5.039   6.061   1.684
 2739SOL     OW 9115   6.705   5.360   1.709
 2739SOL    HW1 9116   6.781   5.367   1.774
 2739SOL    HW2 9117   6.699   5.444   1.655
 2740SOL     OW 9118   0.045   5.967   3.429
 2740SOL    HW1 9119   0.043   5.869   3.409
 2740SOL    HW2 9120   0.136   6.003   3.410
 2741SOL     OW 9121   1.864   0.678   5.940
 2741SOL    HW1 9122   1.848   0.580   5.943
 2741SOL    HW2 9123   1.792   0.725   5.991
 2742SOL     OW 9124   2.969   5.506   1.781
 2742SOL    HW1 9125   2.870   5.517   1.771
 2742SOL    HW2 9126   3.013   5.513   1.692
 2743SOL     OW 9127   5.447   2.253   2.474
 2743SOL    HW1 9128   5.408   2.345   2.487
 2743SOL    HW2 9129   5.426   2.220   2.382
 2744SOL     OW 9130   3.403   3.830   2.277
 2744SOL    HW1 9131   3.422   3.846   2.180
 2744SOL    HW2 9132   3.415   3.733   2.298
 2745SOL     OW 9133   0.635   6.501   0.462
 2745SOL    HW1 9134   0.620   6.599   0.447
 2745SOL    HW2 9135   0.724   6.487   0.506
 2746SOL     OW 9136   1.172   1.181   3.758
 2746SOL    HW1 9137   1.183   1.179   3.658
 2746SOL    HW2 9138   1.186   1.275   3.790
 2747SOL     OW 9139   3.713   4.544   0.770
 2747SOL    HW1 9140   3.747   4.618   0.712
 2747SOL    HW2 9141   3.789   4.485   0.798
 2748SOL     OW 9142   4.339   0.270   0.723
 2748SOL    HW1 9143   4.381   0.186   0.758
 2748SOL    HW2 9144   4.409   0.338   0.705
 2749SOL     OW 9145   3.483   2.154   0.445
 2749SOL    HW1 9146   3.385   2.144   0.425
 2749SOL    HW2 9147   3.495   2.218   0.521
 2750SOL     OW 9148   2.957   5.817   2.120
 2750SOL    HW1 9149   2.953   5.804   2.021
 2750SOL    HW2 9150   2.953   5.915   2.141
 2751SOL     OW 9151   5.707   4.939   1.139
 2751SOL    HW1 9152   5.680   5.012   1.076
 2751SOL    HW2 9153   5.797   4.960   1.178
 2752SOL     OW 9154   3.808   5.179   6.823
 2752SOL    HW1 9155   3.880   5.113   6.843
 2752SOL    HW2 9156   3.721   5.131   6.811
 2753SOL     OW 9157   5.963   5.421   5.235
 2753SOL    HW1 9158   6.037   5.476   5.197
 2753SOL    HW2 9159   5.961   5.332   5.188
 2754SOL     OW 9160   1.305   6.693   6.082
 2754SOL    HW1 9161   1.307   6.625   6.156
 2754SOL    HW2 9162   1.347   6.655   6.000
 2755SOL     OW 9163   3.271   0.602   2.124
 2755SOL    HW1 9164   3.242   0.690   2.086
 2755SOL    HW2 9165   3.312   0.616   2.214
 2756SOL     OW 9166   4.983   6.139   0.329
 2756SOL    HW1 9167   4.909   6.204   0.309
 2756SOL    HW2 9168   4.943   6.049   0.349
 2757SOL     OW 9169   0.480   5.095   1.449
 2757SOL    HW1 9170   0.569   5.112   1.406
 2757SOL    HW2 9171   0.413   5.073   1.378
 2758SOL     OW 9172   4.432   0.578   6.260
 2758SOL    HW1 9173   4.345   0.555   6.216
 2758SOL    HW2 9174   4.503   0.584   6.190
 2759SOL     OW 9175   4.946   5.906   4.726
 2759SOL    HW1 9176   4.950   5.809   4.702
 2759SOL    HW2 9177   4.990   5.960   4.654
 2760SOL     OW 9178   2.510   5.655   3.743
 2760SOL    HW1 9179   2.597   5.689   3.777
 2760SOL    HW2 9180   2.524   5.604   3.658
 2761SOL     OW 9181   2.106   5.530   3.289
 2761SOL    HW1 9182   2.150   5.452   3.334
 2761SOL    HW2 9183   2.069   5.501   3.201
 2762SOL     OW 9184   1.362   6.996   5.105
 2762SOL    HW1 9185   1.370   0.051   5.039
 2762SOL    HW2 9186   1.327   0.012   5.191
 2763SOL     OW 9187   4.991   1.850   1.766
 2763SOL    HW1 9188   5.071   1.839   1.707
 2763SOL    HW2 9189   4.994   1.781   1.839
 2764SOL     OW 9190   6.591   1.118   1.824
 2764SOL    HW1 9191   6.567   1.159   1.911
 2764SOL    HW2 9192   6.546   1.029   1.816
 2765SOL     OW 9193   5.071   1.741   1.999
 2765SOL    HW1 9194   5.169   1.723   2.008
 2765SOL    HW2 9195   5.027   1.736   2.089
 2766SOL     OW 9196   6.002   0.585   2.706
 2766SOL    HW1 9197   5.967   0.604   2.614
 2766SOL    HW2 9198   6.022   0.671   2.753
 2767SOL     OW 9199   5.928   4.418   5.827
 2767SOL    HW1 9200   5.967   4.439   5.916
 2767SOL    HW2 9201   5.972   4.336   5.790
 2768SOL     OW 9202   6.224   1.343   6.957
 2768SOL    HW1 9203   6.126   1.338   6.935
 2768SOL    HW2 9204   6.263   1.422   6.910
 2769SOL     OW 9205   1.259   4.084   1.522
 2769SOL    HW1 9206   1.355   4.101   1.502
 2769SOL    HW2 9207   1.202   4.148   1.470
 2770SOL     OW 9208   6.692   5.521   1.177
 2770SOL    HW1 9209   6.754   5.462   1.229
 2770SOL    HW2 9210   6.622   5.557   1.238
 2771SOL     OW 9211   4.866   1.014   1.696
 2771SOL    HW1 9212   4.768   1.009   1.715
 2771SOL    HW2 9213   4.916   0.989   1.779
 2772SOL     OW 9214   3.364   2.711   6.094
 2772SOL    HW1 9215   3.335   2.687   6.001
 2772SOL    HW2 9216   3.284   2.735   6.149
 2773SOL     OW 9217   3.539   4.103   6.589
 2773SOL    HW1 9218   3.541   4.041   6.667
 2773SOL    HW2 9219   3.471   4.071   6.523
 2774SOL     OW 9220   5.645   3.792   2.602
 2774SOL    HW1 9221   5.721   3.818   2.542
 2774SOL    HW2 9222   5.633   3.693   2.600
 2775SOL     OW 9223   0.061   6.146   2.006
 2775SOL    HW1 9224   0.090   6.089   1.930
 2775SOL    HW2 9225   0.050   6.241   1.975
 2776SOL     OW 9226   3.047   5.927   5.999
 2776SOL    HW1 9227   3.127   5.894   5.950
 2776SOL    HW2 9228   3.052   6.027   6.008
 2777SOL     OW 9229   3.535   1.842   2.724
 2777SOL    HW1 9230   3.605   1.792   2.774
 2777SOL    HW2 9231   3.546   1.940   2.740
 2778SOL     OW 9232   2.613   1.446   5.233
 2778SOL    HW1 9233   2.534   1.465   5.292
 2778SOL    HW2 9234   2.670   1.528   5.226
 2779SOL     OW 9235   6.132   0.914   0.001
 2779SOL    HW1 9236   6.135   0.999   0.053
 2779SOL    HW2 9237   6.121   0.836   0.064
 2780SOL     OW 9238   5.095   5.332   0.038
 2780SOL    HW1 9239   5.013   5.380   0.005
 2780SOL    HW2 9240   5.140   5.389   0.108
 2781SOL     OW 9241   4.682   4.532   0.227
 2781SOL    HW1 9242   4.705   4.436   0.245
 2781SOL    HW2 9243   4.585   4.546   0.246
 2782SOL     OW 9244   3.070   2.307   6.459
 2782SOL    HW1 9245   2.974   2.276   6.461
 2782SOL    HW2 9246   3.086   2.361   6.377
 2783SOL     OW 9247   0.390   4.362   5.286
 2783SOL    HW1 9248   0.451   4.403   5.354
 2783SOL    HW2 9249   0.297   4.355   5.324
 2784SOL     OW 9250   2.190   2.056   2.062
 2784SOL    HW1 9251   2.290   2.060   2.050
 2784SOL    HW2 9252   2.149   2.137   2.021
 2785SOL     OW 9253   6.249   1.148   1.359
 2785SOL    HW1 9254   6.206   1.233   1.330
 2785SOL    HW2 9255   6.347   1.162   1.369
 2786SOL     OW 9256   3.961   0.090   0.975
 2786SOL    HW1 9257   4.054   0.071   1.005
 2786SOL    HW2 9258   3.900   0.018   1.007
 2787SOL     OW 9259   2.139   2.359   5.366
 2787SOL    HW1 9260   2.098   2.417   5.296
 2787SOL    HW2 9261   2.204   2.296   5.323
 2788SOL     OW 9262   1.346   3.750   0.721
 2788SOL    HW1 9263   1.302   3.805   0.792
 2788SOL    HW2 9264   1.406   3.808   0.665
 2789SOL     OW 9265   6.886   1.730   4.207
 2789SOL    HW1 9266   6.900   1.691   4.116
 2789SOL    HW2 9267   6.955   1.801   4.223
 2790SOL     OW 9268   4.042   5.479   3.391
 2790SOL    HW1 9269   4.055   5.562   3.337
 2790SOL    HW2 9270   4.132   5.442   3.416
 2791SOL     OW 9271   1.778   2.767   3.742
 2791SOL    HW1 9272   1.746   2.822   3.665
 2791SOL    HW2 9273   1.774   2.670   3.718
 2792SOL     OW 9274   0.977   2.232   5.454
 2792SOL    HW1 9275   1.061   2.286   5.451
 2792SOL    HW2 9276   0.996   2.143   5.494
 2793SOL     OW 9277   5.164   1.213   3.410
 2793SOL    HW1 9278   5.093   1.149   3.384
 2793SOL    HW2 9279   5.240   1.207   3.346
 2794SOL     OW 9280   1.155   0.881   1.113
 2794SOL    HW1 9281   1.178   0.950   1.181
 2794SOL    HW2 9282   1.062   0.847   1.129
 2795SOL     OW 9283   2.100   3.966   2.015
 2795SOL    HW1 9284   2.104   3.884   1.957
 2795SOL    HW2 9285   2.158   3.951   2.096
 2796SOL     OW 9286   4.975   4.295   2.765
 2796SOL    HW1 9287   5.048   4.231   2.742
 2796SOL    HW2 9288   4.935   4.331   2.680
 2797SOL     OW 9289   4.504   4.587   4.724
 2797SOL    HW1 9290   4.555   4.673   4.724
 2797SOL    HW2 9291   4.466   4.571   4.815
 2798SOL     OW 9292   1.536   3.607   3.920
 2798SOL    HW1 9293   1.453   3.610   3.975
 2798SOL    HW2 9294   1.562   3.512   3.903
 2799SOL     OW 9295   6.409   5.019   5.848
 2799SOL    HW1 9296   6.436   4.983   5.937
 2799SOL    HW2 9297   6.335   4.962   5.811
 2800SOL     OW 9298   2.847   3.295   6.627
 2800SOL    HW1 9299   2.883   3.383   6.657
 2800SOL    HW2 9300   2.888   3.222   6.680
 2801SOL     OW 9301   4.734   5.525   2.595
 2801SOL    HW1 9302   4.803   5.487   2.534
 2801SOL    HW2 9303   4.660   5.565   2.541
 2802SOL     OW 9304   5.147   1.129   6.064
 2802SOL    HW1 9305   5.116   1.201   6.126
 2802SOL    HW2 9306   5.208   1.067   6.113
 2803SOL     OW 9307   2.265   5.824   6.339
 2803SOL    HW1 9308   2.334   5.894   6.355
 2803SOL    HW2 9309   2.220   5.800   6.425
 2804SOL     OW 9310   0.068   4.080   3.157
 2804SOL    HW1 9311   0.042   4.108   3.065
 2804SOL    HW2 9312   0.013   4.001   3.185
 2805SOL     OW 9313   5.666   3.874   0.056
 2805SOL    HW1 9314   5.627   3.782   0.051
 2805SOL    HW2 9315   5.762   3.868   0.084
 2806SOL     OW 9316   6.422   5.922   3.335
 2806SOL    HW1 9317   6.422   6.021   3.321
 2806SOL    HW2 9318   6.330   5.886   3.323
 2807SOL     OW 9319   4.288   4.937   3.688
 2807SOL    HW1 9320   4.202   4.950   3.736
 2807SOL    HW2 9321   4.325   4.846   3.710
 2808SOL     OW 9322   5.056   6.997   4.032
 2808SOL    HW1 9323   4.990   7.004   3.958
 2808SOL    HW2 9324   5.017   6.942   4.106
 2809SOL     OW 9325   5.251   3.233   0.621
 2809SOL    HW1 9326   5.299   3.148   0.597
 2809SOL    HW2 9327   5.308   3.311   0.596
 2810SOL     OW 9328   1.906   0.499   5.233
 2810SOL    HW1 9329   1.940   0.474   5.324
 2810SOL    HW2 9330   1.902   0.416   5.176
 2811SOL     OW 9331   0.127   0.718   3.612
 2811SOL    HW1 9332   0.225   0.721   3.635
 2811SOL    HW2 9333   0.108   0.783   3.539
 2812SOL     OW 9334   4.955   3.728   2.411
 2812SOL    HW1 9335   4.920   3.687   2.327
 2812SOL    HW2 9336   5.036   3.784   2.390
 2813SOL     OW 9337   6.092   1.336   6.223
 2813SOL    HW1 9338   6.025   1.409   6.207
 2813SOL    HW2 9339   6.136   1.312   6.137
 2814SOL     OW 9340   5.003   3.939   5.162
 2814SOL    HW1 9341   4.943   4.018   5.155
 2814SOL    HW2 9342   5.000   3.886   5.078
 2815SOL     OW 9343   0.321   0.961   5.621
 2815SOL    HW1 9344   0.339   0.948   5.719
 2815SOL    HW2 9345   0.359   0.884   5.570
 2816SOL     OW 9346   5.598   0.056   3.128
 2816SOL    HW1 9347   5.620   0.154   3.122
 2816SOL    HW2 9348   5.679   0.005   3.154
 2817SOL     OW 9349   1.205   2.589   1.263
 2817SOL    HW1 9350   1.295   2.569   1.302
 2817SOL    HW2 9351   1.137   2.591   1.337
 2818SOL     OW 9352   0.001   4.629   5.322
 2818SOL    HW1 9353   0.098   4.654   5.322
 2818SOL    HW2 9354   6.998   4.580   5.238
 2819SOL     OW 9355   6.959   2.578   0.370
 2819SOL    HW1 9356   6.905   2.614   0.447
 2819SOL    HW2 9357   0.036   2.588   0.391
 2820SOL     OW 9358   6.589   3.017   4.643
 2820SOL    HW1 9359   6.676   2.975   4.618
 2820SOL    HW2 9360   6.582   3.023   4.743
 2821SOL     OW 9361   1.349   3.556   4.240
 2821SOL    HW1 9362   1.339   3.480   4.176
 2821SOL    HW2 9363   1.388   3.522   4.326
 2822SOL     OW 9364   3.549   1.851   0.224
 2822SOL    HW1 9365   3.616   1.904   0.278
 2822SOL    HW2 9366   3.552   1.881   0.129
 2823SOL     OW 9367   1.443   6.738   3.560
 2823SOL    HW1 9368   1.411   6.787   3.641
 2823SOL    HW2 9369   1.449   6.640   3.582
 2824SOL     OW 9370   3.111   1.652   4.472
 2824SOL    HW1 9371   3.153   1.728   4.520
 2824SOL    HW2 9372   3.018   1.676   4.445
 2825SOL     OW 9373   6.481   5.672   0.830
 2825SOL    HW1 9374   6.519   5.751   0.878
 2825SOL    HW2 9375   6.382   5.681   0.824
 2826SOL     OW 9376   4.769   2.059   4.389
 2826SOL    HW1 9377   4.781   1.961   4.404
 2826SOL    HW2 9378   4.856   2.099   4.358
 2827SOL     OW 9379   5.902   0.501   5.393
 2827SOL    HW1 9380   5.874   0.539   5.481
 2827SOL    HW2 9381   5.909   0.401   5.400
 2828SOL     OW 9382   3.837   1.416   5.494
 2828SOL    HW1 9383   3.922   1.425   5.442
 2828SOL    HW2 9384   3.776   1.492   5.473
 2829SOL     OW 9385   1.994   6.361   6.711
 2829SOL    HW1 9386   1.984   6.301   6.791
 2829SOL    HW2 9387   2.090   6.381   6.697
 2830SOL     OW 9388   3.744   3.341   6.767
 2830SOL    HW1 9389   3.755   3.249   6.803
 2830SOL    HW2 9390   3.743   3.407   6.843
 2831SOL     OW 9391   5.848   5.889   4.386
 2831SOL    HW1 9392   5.893   5.967   4.343
 2831SOL    HW2 9393   5.901   5.858   4.464
 2832SOL     OW 9394   0.300   1.188   1.884
 2832SOL    HW1 9395   0.224   1.123   1.880
 2832SOL    HW2 9396   0.340   1.199   1.793
 2833SOL     OW 9397   6.161   2.888   1.507
 2833SOL    HW1 9398   6.071   2.884   1.464
 2833SOL    HW2 9399   6.229   2.913   1.439
 2834SOL     OW 9400   3.783   0.960   5.529
 2834SOL    HW1 9401   3.700   0.905   5.541
 2834SOL    HW2 9402   3.808   1.003   5.616
 2835SOL     OW 9403   0.872   6.252   2.324
 2835SOL    HW1 9404   0.957   6.304   2.330
 2835SOL    HW2 9405   0.806   6.288   2.390
 2836SOL     OW 9406   6.917   1.038   1.031
 2836SOL    HW1 9407   6.865   1.056   0.947
 2836SOL    HW2 9408   6.968   0.952   1.020
 2837SOL     OW 9409   5.868   3.138   3.681
 2837SOL    HW1 9410   5.823   3.225   3.662
 2837SOL    HW2 9411   5.960   3.139   3.642
 2838SOL     OW 9412   3.055   5.034   2.894
 2838SOL    HW1 9413   3.100   5.118   2.926
 2838SOL    HW2 9414   3.023   4.982   2.973
 2839SOL     OW 9415   4.950   1.927   0.508
 2839SOL    HW1 9416   4.871   1.868   0.526
 2839SOL    HW2 9417   4.976   1.974   0.593
 2840SOL     OW 9418   6.863   1.870   5.546
 2840SOL    HW1 9419   6.835   1.778   5.518
 2840SOL    HW2 9420   6.868   1.929   5.465
 2841SOL     OW 9421   0.952   5.860   1.506
 2841SOL    HW1 9422   1.002   5.890   1.588
 2841SOL    HW2 9423   0.973   5.921   1.430
 2842SOL     OW 9424   6.488   3.079   3.372
 2842SOL    HW1 9425   6.417   3.149   3.374
 2842SOL    HW2 9426   6.522   3.068   3.279
 2843SOL     OW 9427   4.277   1.712   4.814
 2843SOL    HW1 9428   4.286   1.624   4.861
 2843SOL    HW2 9429   4.324   1.783   4.868
 2844SOL     OW 9430   6.727   3.844   5.910
 2844SOL    HW1 9431   6.678   3.924   5.875
 2844SOL    HW2 9432   6.826   3.862   5.909
 2845SOL     OW 9433   6.762   4.102   5.587
 2845SOL    HW1 9434   6.709   4.118   5.670
 2845SOL    HW2 9435   6.791   4.189   5.548
 2846SOL     OW 9436   4.603   1.881   6.454
 2846SOL    HW1 9437   4.660   1.881   6.372
 2846SOL    HW2 9438   4.593   1.788   6.488
 2847SOL     OW 9439   5.369   4.521   4.102
 2847SOL    HW1 9440   5.427   4.591   4.061
 2847SOL    HW2 9441   5.285   4.562   4.136
 2848SOL     OW 9442   0.774   5.528   4.322
 2848SOL    HW1 9443   0.801   5.559   4.414
 2848SOL    HW2 9444   0.729   5.603   4.274
 2849SOL     OW 9445   2.520   2.784   1.333
 2849SOL    HW1 9446   2.488   2.739   1.416
 2849SOL    HW2 9447   2.618   2.802   1.341
 2850SOL     OW 9448   3.955   1.031   0.168
 2850SOL    HW1 9449   4.028   0.984   0.217
 2850SOL    HW2 9450   3.990   1.113   0.125
 2851SOL     OW 9451   1.979   4.723   6.096
 2851SOL    HW1 9452   1.969   4.710   6.194
 2851SOL    HW2 9453   2.058   4.671   6.063
 2852SOL     OW 9454   0.395   3.608   6.318
 2852SOL    HW1 9455   0.368   3.607   6.414
 2852SOL    HW2 9456   0.316   3.587   6.261
 2853SOL     OW 9457   3.099   3.808   1.370
 2853SOL    HW1 9458   3.035   3.822   1.445
 2853SOL    HW2 9459   3.147   3.721   1.382
 2854SOL     OW 9460   2.281   1.533   3.975
 2854SOL    HW1 9461   2.227   1.613   3.949
 2854SOL    HW2 9462   2.219   1.455   3.991
 2855SOL     OW 9463   3.127   0.780   5.263
 2855SOL    HW1 9464   3.166   0.850   5.323
 2855SOL    HW2 9465   3.183   0.772   5.181
 2856SOL     OW 9466   2.431   2.600   4.952
 2856SOL    HW1 9467   2.488   2.522   4.927
 2856SOL    HW2 9468   2.407   2.594   5.049
 2857SOL     OW 9469   3.290   3.265   2.092
 2857SOL    HW1 9470   3.382   3.276   2.129
 2857SOL    HW2 9471   3.237   3.348   2.110
 2858SOL     OW 9472   6.417   3.408   2.772
 2858SOL    HW1 9473   6.454   3.315   2.772
 2858SOL    HW2 9474   6.389   3.433   2.865
 2859SOL     OW 9475   5.905   6.744   0.492
 2859SOL    HW1 9476   5.841   6.819   0.509
 2859SOL    HW2 9477   5.932   6.703   0.579
 2860SOL     OW 9478   3.902   0.953   1.817
 2860SOL    HW1 9479   3.945   1.000   1.739
 2860SOL    HW2 9480   3.829   1.010   1.854
 2861SOL     OW 9481   3.712   6.043   5.285
 2861SOL    HW1 9482   3.641   6.034   5.215
 2861SOL    HW2 9483   3.735   5.952   5.321
 2862SOL     OW 9484   5.510   0.998   4.329
 2862SOL    HW1 9485   5.547   0.922   4.382
 2862SOL    HW2 9486   5.482   0.965   4.239
 2863SOL     OW 9487   6.344   2.061   6.500
 2863SOL    HW1 9488   6.395   2.139   6.464
 2863SOL    HW2 9489   6.250   2.065   6.468
 2864SOL     OW 9490   3.795   1.278   6.920
 2864SOL    HW1 9491   3.808   1.342   6.995
 2864SOL    HW2 9492   3.708   1.298   6.874
 2865SOL     OW 9493   4.641   4.797   4.877
 2865SOL    HW1 9494   4.548   4.801   4.913
 2865SOL    HW2 9495   4.693   4.727   4.926
 2866SOL     OW 9496   0.244   6.668   6.661
 2866SOL    HW1 9497   0.235   6.632   6.754
 2866SOL    HW2 9498   0.289   6.757   6.664
 2867SOL     OW 9499   6.743   4.530   3.753
 2867SOL    HW1 9500   6.835   4.527   3.712
 2867SOL    HW2 9501   6.739   4.606   3.818
 2868SOL     OW 9502   1.690   4.082   5.771
 2868SOL    HW1 9503   1.657   4.137   5.695
 2868SOL    HW2 9504   1.776   4.039   5.747
 2869SOL     OW 9505   6.206   1.494   2.154
 2869SOL    HW1 9506   6.136   1.450   2.211
 2869SOL    HW2 9507   6.252   1.425   2.098
 2870SOL     OW 9508   5.323   1.269   2.355
 2870SOL    HW1 9509   5.371   1.288   2.441
 2870SOL    HW2 9510   5.355   1.333   2.285
 2871SOL     OW 9511   1.601   1.947   6.064
 2871SOL    HW1 9512   1.599   1.969   5.967
 2871SOL    HW2 9513   1.690   1.908   6.087
 2872SOL     OW 9514   2.729   6.698   3.750
 2872SOL    HW1 9515   2.771   6.789   3.750
 2872SOL    HW2 9516   2.633   6.705   3.774
 2873SOL     OW 9517   0.046   5.171   1.443
 2873SOL    HW1 9518   0.068   5.117   1.524
 2873SOL    HW2 9519   0.124   5.230   1.419
 2874SOL     OW 9520   5.379   2.507   2.506
 2874SOL    HW1 9521   5.305   2.537   2.566
 2874SOL    HW2 9522   5.357   2.533   2.412
 2875SOL     OW 9523   3.437   4.754   6.820
 2875SOL    HW1 9524   3.340   4.774   6.836
 2875SOL    HW2 9525   3.476   4.710   6.900
 2876SOL     OW 9526   0.108   1.431   2.105
 2876SOL    HW1 9527   0.186   1.372   2.128
 2876SOL    HW2 9528   0.120   1.467   2.013
 2877SOL     OW 9529   2.941   2.631   5.893
 2877SOL    HW1 9530   2.908   2.560   5.955
 2877SOL    HW2 9531   2.871   2.701   5.883
 2878SOL     OW 9532   2.823   4.684   6.612
 2878SOL    HW1 9533   2.859   4.743   6.540
 2878SOL    HW2 9534   2.791   4.598   6.572
 2879SOL     OW 9535   5.099   4.913   0.337
 2879SOL    HW1 9536   5.159   4.968   0.395
 2879SOL    HW2 9537   5.056   4.972   0.268
 2880SOL     OW 9538   1.058   6.006   1.255
 2880SOL    HW1 9539   1.032   6.009   1.159
 2880SOL    HW2 9540   1.152   6.039   1.265
 2881SOL     OW 9541   6.957   6.998   0.822
 2881SOL    HW1 9542   6.874   6.969   0.775
 2881SOL    HW2 9543   6.933   0.037   0.899
 2882SOL     OW 9544   6.768   2.910   3.150
 2882SOL    HW1 9545   6.766   2.995   3.203
 2882SOL    HW2 9546   6.695   2.912   3.082
 2883SOL     OW 9547   4.097   6.787   2.335
 2883SOL    HW1 9548   4.109   6.886   2.348
 2883SOL    HW2 9549   4.014   6.757   2.382
 2884SOL     OW 9550   1.203   6.142   2.933
 2884SOL    HW1 9551   1.202   6.188   2.845
 2884SOL    HW2 9552   1.216   6.209   3.006
 2885SOL     OW 9553   0.625   2.334   3.261
 2885SOL    HW1 9554   0.568   2.341   3.179
 2885SOL    HW2 9555   0.645   2.238   3.279
 2886SOL     OW 9556   2.113   2.079   5.791
 2886SOL    HW1 9557   2.189   2.018   5.813
 2886SOL    HW2 9558   2.030   2.047   5.837
 2887SOL     OW 9559   1.638   0.716   4.953
 2887SOL    HW1 9560   1.660   0.785   5.022
 2887SOL    HW2 9561   1.683   0.739   4.867
 2888SOL     OW 9562   6.191   5.090   6.910
 2888SOL    HW1 9563   6.208   5.014   6.973
 2888SOL    HW2 9564   6.264   5.158   6.919
 2889SOL     OW 9565   0.035   6.976   1.773
 2889SOL    HW1 9566   0.097   0.032   1.788
 2889SOL    HW2 9567   0.053   6.904   1.840
 2890SOL     OW 9568   4.111   0.412   1.359
 2890SOL    HW1 9569   4.070   0.389   1.271
 2890SOL    HW2 9570   4.206   0.379   1.362
 2891SOL     OW 9571   2.486   4.979   3.895
 2891SOL    HW1 9572   2.520   4.889   3.868
 2891SOL    HW2 9573   2.558   5.028   3.944
 2892SOL     OW 9574   4.716   4.129   5.769
 2892SOL    HW1 9575   4.722   4.105   5.866
 2892SOL    HW2 9576   4.694   4.226   5.760
 2893SOL     OW 9577   2.309   7.019   5.570
 2893SOL    HW1 9578   2.290   0.083   5.622
 2893SOL    HW2 9579   2.396   0.009   5.522
 2894SOL     OW 9580   3.540   3.089   0.329
 2894SOL    HW1 9581   3.570   3.024   0.398
 2894SOL    HW2 9582   3.609   3.095   0.256
 2895SOL     OW 9583   3.583   3.671   6.477
 2895SOL    HW1 9584   3.552   3.638   6.565
 2895SOL    HW2 9585   3.577   3.598   6.409
 2896SOL     OW 9586   2.975   4.991   1.414
 2896SOL    HW1 9587   2.880   4.961   1.413
 2896SOL    HW2 9588   2.995   5.043   1.331
 2897SOL     OW 9589   2.152   6.395   3.628
 2897SOL    HW1 9590   2.052   6.396   3.623
 2897SOL    HW2 9591   2.180   6.409   3.723
 2898SOL     OW 9592   3.093   5.409   2.122
 2898SOL    HW1 9593   3.110   5.328   2.066
 2898SOL    HW2 9594   3.099   5.491   2.065
 2899SOL     OW 9595   0.211   6.801   0.062
 2899SOL    HW1 9596   0.215   6.723   7.019
 2899SOL    HW2 9597   0.149   6.780   0.137
 2900SOL     OW 9598   1.889   5.376   5.421
 2900SOL    HW1 9599   1.887   5.297   5.482
 2900SOL    HW2 9600   1.805   5.428   5.433
 2901SOL     OW 9601   2.656   1.165   1.549
 2901SOL    HW1 9602   2.731   1.227   1.528
 2901SOL    HW2 9603   2.595   1.208   1.617
 2902SOL     OW 9604   5.521   5.948   1.723
 2902SOL    HW1 9605   5.593   5.880   1.731
 2902SOL    HW2 9606   5.537   6.005   1.643
 2903SOL     OW 9607   2.480   1.917   1.951
 2903SOL    HW1 9608   2.538   1.988   1.991
 2903SOL    HW2 9609   2.427   1.956   1.876
 2904SOL     OW 9610   1.908   2.943   4.671
 2904SOL    HW1 9611   1.954   2.882   4.735
 2904SOL    HW2 9612   1.809   2.937   4.685
 2905SOL     OW 9613   2.030   2.706   1.785
 2905SOL    HW1 9614   1.982   2.625   1.750
 2905SOL    HW2 9615   1.971   2.754   1.850
 2906SOL     OW 9616   5.776   5.682   1.968
 2906SOL    HW1 9617   5.789   5.714   2.062
 2906SOL    HW2 9618   5.776   5.583   1.965
 2907SOL     OW 9619   6.222   1.144   4.204
 2907SOL    HW1 9620   6.212   1.152   4.104
 2907SOL    HW2 9621   6.146   1.089   4.240
 2908SOL     OW 9622   3.958   6.214   4.798
 2908SOL    HW1 9623   3.906   6.234   4.881
 2908SOL    HW2 9624   3.918   6.136   4.750
 2909SOL     OW 9625   1.389   6.040   4.786
 2909SOL    HW1 9626   1.343   6.128   4.777
 2909SOL    HW2 9627   1.457   6.030   4.713
 2910SOL     OW 9628   5.754   6.284   6.407
 2910SOL    HW1 9629   5.698   6.344   6.350
 2910SOL    HW2 9630   5.743   6.310   6.503
 2911SOL     OW 9631   2.012   4.149   3.177
 2911SOL    HW1 9632   2.093   4.091   3.190
 2911SOL    HW2 9633   1.957   4.148   3.260
 2912SOL     OW 9634   2.522   5.953   0.786
 2912SOL    HW1 9635   2.508   5.984   0.692
 2912SOL    HW2 9636   2.440   5.908   0.819
 2913SOL     OW 9637   1.514   3.817   3.122
 2913SOL    HW1 9638   1.545   3.780   3.209
 2913SOL    HW2 9639   1.483   3.742   3.063
 2914SOL     OW 9640   5.862   5.726   6.176
 2914SOL    HW1 9641   5.912   5.642   6.197
 2914SOL    HW2 9642   5.766   5.714   6.204
 2915SOL     OW 9643   4.619   1.257   4.025
 2915SOL    HW1 9644   4.679   1.286   3.951
 2915SOL    HW2 9645   4.524   1.282   4.003
 2916SOL     OW 9646   5.301   5.721   4.560
 2916SOL    HW1 9647   5.255   5.768   4.485
 2916SOL    HW2 9648   5.245   5.644   4.591
 2917SOL     OW 9649   4.475   0.285   2.419
 2917SOL    HW1 9650   4.533   0.366   2.418
 2917SOL    HW2 9651   4.379   0.313   2.412
 2918SOL     OW 9652   0.071   4.052   3.583
 2918SOL    HW1 9653   0.002   4.083   3.519
 2918SOL    HW2 9654   0.027   4.013   3.664
 2919SOL     OW 9655   6.521   5.790   0.302
 2919SOL    HW1 9656   6.490   5.837   0.384
 2919SOL    HW2 9657   6.533   5.856   0.228
 2920SOL     OW 9658   4.129   2.192   3.375
 2920SOL    HW1 9659   4.137   2.267   3.309
 2920SOL    HW2 9660   4.033   2.168   3.387
 2921SOL     OW 9661   0.828   0.011   1.986
 2921SOL    HW1 9662   0.921   0.029   2.018
 2921SOL    HW2 9663   0.801   6.939   2.011
 2922SOL     OW 9664   4.315   6.585   5.146
 2922SOL    HW1 9665   4.253   6.617   5.218
 2922SOL    HW2 9666   4.381   6.657   5.126
 2923SOL     OW 9667   6.469   4.787   2.107
 2923SOL    HW1 9668   6.432   4.698   2.078
 2923SOL    HW2 9669   6.393   4.849   2.127
 2924SOL     OW 9670   6.794   1.007   5.502
 2924SOL    HW1 9671   6.884   0.966   5.511
 2924SOL    HW2 9672   6.770   1.015   5.405
 2925SOL     OW 9673   5.471   3.923   1.350
 2925SOL    HW1 9674   5.437   3.862   1.422
 2925SOL    HW2 9675   5.442   4.016   1.370
 2926SOL     OW 9676   0.239   1.375   4.518
 2926SOL    HW1 9677   0.338   1.375   4.529
 2926SOL    HW2 9678   0.217   1.359   4.421
 2927SOL     OW 9679   0.636   2.504   2.708
 2927SOL    HW1 9680   0.603   2.578   2.765
 2927SOL    HW2 9681   0.567   2.432   2.703
 2928SOL     OW 9682   6.528   6.510   0.790
 2928SOL    HW1 9683   6.594   6.534   0.717
 2928SOL    HW2 9684   6.571   6.445   0.853
 2929SOL     OW 9685   0.854   6.732   6.304
 2929SOL    HW1 9686   0.772   6.765   6.351
 2929SOL    HW2 9687   0.827   6.686   6.219
 2930SOL     OW 9688   3.543   6.486   4.841
 2930SOL    HW1 9689   3.602   6.426   4.895
 2930SOL    HW2 9690   3.552   6.580   4.874
 2931SOL     OW 9691   4.150   6.388   5.629
 2931SOL    HW1 9692   4.055   6.406   5.603
 2931SOL    HW2 9693   4.152   6.335   5.714
 2932SOL     OW 9694   1.100   4.863   1.824
 2932SOL    HW1 9695   1.065   4.777   1.787
 2932SOL    HW2 9696   1.025   4.929   1.833
 2933SOL     OW 9697   5.042   1.989   3.207
 2933SOL    HW1 9698   4.994   2.073   3.183
 2933SOL    HW2 9699   5.112   1.970   3.138
 2934SOL     OW 9700   2.497   0.436   0.289
 2934SOL    HW1 9701   2.573   0.486   0.330
 2934SOL    HW2 9702   2.510   0.338   0.305
 2935SOL     OW 9703   6.087   2.525   1.272
 2935SOL    HW1 9704   6.151   2.451   1.295
 2935SOL    HW2 9705   6.043   2.506   1.184
 2936SOL     OW 9706   4.521   6.035   0.424
 2936SOL    HW1 9707   4.496   6.105   0.492
 2936SOL    HW2 9708   4.590   5.974   0.464
 2937SOL     OW 9709   3.258   4.667   0.140
 2937SOL    HW1 9710   3.224   4.705   0.226
 2937SOL    HW2 9711   3.184   4.621   0.091
 2938SOL     OW 9712   4.866   5.644   5.584
 2938SOL    HW1 9713   4.805   5.622   5.660
 2938SOL    HW2 9714   4.813   5.682   5.509
 2939SOL     OW 9715   0.538   6.355   5.862
 2939SOL    HW1 9716   0.554   6.259   5.882
 2939SOL    HW2 9717   0.596   6.384   5.785
 2940SOL     OW 9718   4.703   6.874   5.757
 2940SOL    HW1 9719   4.634   6.838   5.694
 2940SOL    HW2 9720   4.690   6.973   5.767
 2941SOL     OW 9721   1.871   1.799   5.272
 2941SOL    HW1 9722   1.890   1.767   5.364
 2941SOL    HW2 9723   1.778   1.773   5.245
 2942SOL     OW 9724   3.500   6.027   3.648
 2942SOL    HW1 9725   3.577   6.077   3.689
 2942SOL    HW2 9726   3.535   5.946   3.601
 2943SOL     OW 9727   5.924   3.716   3.712
 2943SOL    HW1 9728   5.983   3.758   3.643
 2943SOL    HW2 9729   5.846   3.777   3.730
 2944SOL     OW 9730   4.301   5.693   6.396
 2944SOL    HW1 9731   4.342   5.614   6.351
 2944SOL    HW2 9732   4.203   5.694   6.378
 2945SOL     OW 9733   2.989   3.210   3.237
 2945SOL    HW1 9734   2.909   3.268   3.256
 2945SOL    HW2 9735   3.055   3.262   3.182
 2946SOL     OW 9736   6.685   5.865   6.617
 2946SOL    HW1 9737   6.684   5.958   6.653
 2946SOL    HW2 9738   6.779   5.830   6.619
 2947SOL     OW 9739   6.594   4.611   0.348
 2947SOL    HW1 9740   6.568   4.533   0.291
 2947SOL    HW2 9741   6.650   4.675   0.295
 2948SOL     OW 9742   5.994   4.323   4.834
 2948SOL    HW1 9743   5.913   4.367   4.796
 2948SOL    HW2 9744   6.043   4.387   4.893
 2949SOL     OW 9745   1.549   0.140   0.642
 2949SOL    HW1 9746   1.620   0.076   0.613
 2949SOL    HW2 9747   1.484   0.092   0.702
 2950SOL     OW 9748   4.897   3.644   4.469
 2950SOL    HW1 9749   4.957   3.576   4.511
 2950SOL    HW2 9750   4.859   3.704   4.540
 2951SOL     OW 9751   6.845   1.660   1.220
 2951SOL    HW1 9752   6.898   1.700   1.145
 2951SOL    HW2 9753   6.866   1.563   1.227
 2952SOL     OW 9754   1.892   3.607   2.191
 2952SOL    HW1 9755   1.852   3.679   2.247
 2952SOL    HW2 9756   1.992   3.617   2.189
 2953SOL     OW 9757   4.621   1.304   2.284
 2953SOL    HW1 9758   4.675   1.365   2.225
 2953SOL    HW2 9759   4.683   1.241   2.330
 2954SOL     OW 9760   6.001   6.529   2.057
 2954SOL    HW1 9761   6.067   6.471   2.009
 2954SOL    HW2 9762   6.000   6.619   2.013
 2955SOL     OW 9763   0.119   2.936   0.671
 2955SOL    HW1 9764   0.178   2.979   0.740
 2955SOL    HW2 9765   0.102   3.001   0.597
 2956SOL     OW 9766   6.477   5.811   2.502
 2956SOL    HW1 9767   6.477   5.816   2.602
 2956SOL    HW2 9768   6.534   5.735   2.472
 2957SOL     OW 9769   0.867   3.791   1.537
 2957SOL    HW1 9770   0.956   3.794   1.492
 2957SOL    HW2 9771   0.799   3.755   1.473
 2958SOL     OW 9772   2.377   5.079   5.883
 2958SOL    HW1 9773   2.305   5.020   5.846
 2958SOL    HW2 9774   2.388   5.061   5.981
 2959SOL     OW 9775   3.853   5.351   6.583
 2959SOL    HW1 9776   3.819   5.293   6.657
 2959SOL    HW2 9777   3.775   5.388   6.531
 2960SOL     OW 9778   2.016   1.571   0.408
 2960SOL    HW1 9779   2.082   1.562   0.483
 2960SOL    HW2 9780   1.956   1.650   0.426
 2961SOL     OW 9781   5.901   3.002   3.949
 2961SOL    HW1 9782   5.889   3.046   3.861
 2961SOL    HW2 9783   5.977   2.938   3.945
 2962SOL     OW 9784   4.375   0.919   3.518
 2962SOL    HW1 9785   4.322   0.965   3.589
 2962SOL    HW2 9786   4.369   0.820   3.530
 2963SOL     OW 9787   2.172   2.790   4.414
 2963SOL    HW1 9788   2.260   2.751   4.385
 2963SOL    HW2 9789   2.185   2.842   4.499
 2964SOL     OW 9790   3.743   6.517   0.648
 2964SOL    HW1 9791   3.682   6.589   0.617
 2964SOL    HW2 9792   3.737   6.438   0.586
 2965SOL     OW 9793   0.588   1.991   6.614
 2965SOL    HW1 9794   0.567   2.069   6.674
 2965SOL    HW2 9795   0.608   2.025   6.522
 2966SOL     OW 9796   4.488   4.484   4.150
 2966SOL    HW1 9797   4.534   4.492   4.239
 2966SOL    HW2 9798   4.389   4.485   4.163
 2967SOL     OW 9799   5.675   2.501   3.981
 2967SOL    HW1 9800   5.643   2.515   4.074
 2967SOL    HW2 9801   5.649   2.409   3.950
 2968SOL     OW 9802   0.357   4.032   3.208
 2968SOL    HW1 9803   0.267   4.014   3.248
 2968SOL    HW2 9804   0.347   4.099   3.134
 2969SOL     OW 9805   4.668   1.589   4.822
 2969SOL    HW1 9806   4.646   1.672   4.772
 2969SOL    HW2 9807   4.762   1.562   4.802
 2970SOL     OW 9808   0.799   4.550   6.031
 2970SOL    HW1 9809   0.717   4.545   5.973
 2970SOL    HW2 9810   0.773   4.583   6.122
 2971SOL     OW 9811   5.205   3.234   2.908
 2971SOL    HW1 9812   5.190   3.333   2.904
 2971SOL    HW2 9813   5.162   3.190   2.829
 2972SOL     OW 9814   0.247   3.619   5.543
 2972SOL    HW1 9815   0.195   3.686   5.490
 2972SOL    HW2 9816   0.340   3.613   5.508
 2973SOL     OW 9817   5.397   6.344   4.337
 2973SOL    HW1 9818   5.453   6.401   4.276
 2973SOL    HW2 9819   5.451   6.267   4.369
 2974SOL     OW 9820   0.313   3.692   2.391
 2974SOL    HW1 9821   0.309   3.787   2.422
 2974SOL    HW2 9822   0.224   3.665   2.354
 2975SOL     OW 9823   0.471   1.078   5.214
 2975SOL    HW1 9824   0.550   1.131   5.182
 2975SOL    HW2 9825   0.403   1.072   5.141
 2976SOL     OW 9826   3.644   0.315   2.072
 2976SOL    HW1 9827   3.595   0.228   2.061
 2976SOL    HW2 9828   3.727   0.299   2.127
 2977SOL     OW 9829   3.265   6.164   4.245
 2977SOL    HW1 9830   3.275   6.264   4.244
 2977SOL    HW2 9831   3.168   6.140   4.247
 2978SOL     OW 9832   4.820   5.431   7.004
 2978SOL    HW1 9833   4.797   5.406   0.078
 2978SOL    HW2 9834   4.756   5.387   6.941
 2979SOL     OW 9835   3.399   0.951   3.161
 2979SOL    HW1 9836   3.414   0.868   3.215
 2979SOL    HW2 9837   3.487   0.988   3.133
 2980SOL     OW 9838   0.156   6.562   4.375
 2980SOL    HW1 9839   0.062   6.538   4.400
 2980SOL    HW2 9840   0.172   6.536   4.280
 2981SOL     OW 9841   2.818   0.740   5.769
 2981SOL    HW1 9842   2.870   0.654   5.763
 2981SOL    HW2 9843   2.739   0.727   5.829
 2982SOL     OW 9844   4.778   6.524   2.319
 2982SOL    HW1 9845   4.741   6.452   2.260
 2982SOL    HW2 9846   4.729   6.525   2.406
 2983SOL     OW 9847   6.447   0.629   3.978
 2983SOL    HW1 9848   6.480   0.621   4.072
 2983SOL    HW2 9849   6.524   0.648   3.917
 2984SOL     OW 9850   5.319   5.406   1.671
 2984SOL    HW1 9851   5.399   5.451   1.632
 2984SOL    HW2 9852   5.294   5.449   1.758
 2985SOL     OW 9853   5.894   2.422   2.755
 2985SOL    HW1 9854   5.879   2.325   2.776
 2985SOL    HW2 9855   5.808   2.472   2.763
 2986SOL     OW 9856   2.064   3.836   5.513
 2986SOL    HW1 9857   2.151   3.884   5.524
 2986SOL    HW2 9858   2.034   3.844   5.418
 2987SOL     OW 9859   4.354   2.291   4.602
 2987SOL    HW1 9860   4.377   2.194   4.596
 2987SOL    HW2 9861   4.321   2.323   4.513
 2988SOL     OW 9862   0.542   0.642   2.048
 2988SOL    HW1 9863   0.459   0.697   2.034
 2988SOL    HW2 9864   0.519   0.559   2.098
 2989SOL     OW 9865   6.555   4.862   1.341
 2989SOL    HW1 9866   6.561   4.844   1.439
 2989SOL    HW2 9867   6.610   4.942   1.318
 2990SOL     OW 9868   3.477   0.709   1.304
 2990SOL    HW1 9869   3.439   0.739   1.217
 2990SOL    HW2 9870   3.577   0.716   1.301
 2991SOL     OW 9871   6.360   3.921   0.288
 2991SOL    HW1 9872   6.359   3.971   0.202
 2991SOL    HW2 9873   6.444   3.941   0.338
 2992SOL     OW 9874   3.993   4.532   6.094
 2992SOL    HW1 9875   3.977   4.448   6.146
 2992SOL    HW2 9876   4.060   4.589   6.142
 2993SOL     OW 9877   1.984   5.233   1.252
 2993SOL    HW1 9878   1.935   5.271   1.330
 2993SOL    HW2 9879   2.082   5.251   1.261
 2994SOL     OW 9880   4.657   6.672   0.044
 2994SOL    HW1 9881   4.631   6.632   6.976
 2994SOL    HW2 9882   4.578   6.672   0.105
 2995SOL     OW 9883   2.746   1.518   6.256
 2995SOL    HW1 9884   2.718   1.554   6.345
 2995SOL    HW2 9885   2.835   1.555   6.231
 2996SOL     OW 9886   3.758   5.526   5.715
 2996SOL    HW1 9887   3.771   5.616   5.759
 2996SOL    HW2 9888   3.847   5.480   5.709
 2997SOL     OW 9889   5.263   6.904   0.863
 2997SOL    HW1 9890   5.224   6.951   0.784
 2997SOL    HW2 9891   5.326   6.966   0.911
 2998SOL     OW 9892   6.444   5.846   5.482
 2998SOL    HW1 9893   6.373   5.778   5.470
 2998SOL    HW2 9894   6.423   5.927   5.426
 2999SOL     OW 9895   2.937   0.046   3.045
 2999SOL    HW1 9896   2.970   0.014   2.956
 2999SOL    HW2 9897   2.916   6.987   3.103
 3000SOL     OW 9898   1.262   2.986   5.011
 3000SOL    HW1 9899   1.307   3.036   5.085
 3000SOL    HW2 9900   1.181   2.940   5.046
 3001SOL     OW 9901   4.925   6.944   5.937
 3001SOL    HW1 9902   4.868   6.958   6.018
 3001SOL    HW2 9903   4.873   6.896   5.867
 3002SOL     OW 9904   3.998   0.164   5.707
 3002SOL    HW1 9905   4.036   0.217   5.782
 3002SOL    HW2 9906   3.945   0.224   5.647
 3003SOL     OW 9907   2.212   0.089   6.676
 3003SOL    HW1 9908   2.277   0.024   6.636
 3003SOL    HW2 9909   2.257   0.139   6.750
 3004SOL     OW 9910   6.076   2.932   4.669
 3004SOL    HW1 9911   6.080   2.833   4.654
 3004SOL    HW2 9912   6.169   2.969   4.672
 3005SOL     OW 9913   4.614   2.543   1.196
 3005SOL    HW1 9914   4.610   2.607   1.120
 3005SOL    HW2 9915   4.523   2.535   1.238
 3006SOL     OW 9916   5.782   0.711   1.763
 3006SOL    HW1 9917   5.838   0.774   1.817
 3006SOL    HW2 9918   5.692   0.702   1.804
 3007SOL     OW 9919   6.399   5.082   2.870
 3007SOL    HW1 9920   6.369   5.003   2.816
 3007SOL    HW2 9921   6.325   5.112   2.930
 3008SOL     OW 9922   3.012   6.047   6.362
 3008SOL    HW1 9923   3.012   6.127   6.302
 3008SOL    HW2 9924   2.942   5.982   6.333
 3009SOL     OW 9925   2.120   0.608   3.640
 3009SOL    HW1 9926   2.038   0.571   3.597
 3009SOL    HW2 9927   2.182   0.533   3.664
 3010SOL     OW 9928   3.742   6.461   1.864
 3010SOL    HW1 9929   3.824   6.448   1.920
 3010SOL    HW2 9930   3.724   6.559   1.853
 3011SOL     OW 9931   5.364   0.634   6.971
 3011SOL    HW1 9932   5.399   0.727   6.979
 3011SOL    HW2 9933   5.382   0.599   6.879
 3012SOL     OW 9934   6.910   3.488   2.923
 3012SOL    HW1 9935   6.991   3.439   2.955
 3012SOL    HW2 9936   6.828   3.433   2.939
 3013SOL     OW 9937   6.146   4.913   2.495
 3013SOL    HW1 9938   6.106   4.821   2.505
 3013SOL    HW2 9939   6.133   4.964   2.579
 3014SOL     OW 9940   4.985   0.710   4.835
 3014SOL    HW1 9941   4.926   0.635   4.805
 3014SOL    HW2 9942   4.993   0.778   4.762
 3015SOL     OW 9943   2.802   2.321   0.100
 3015SOL    HW1 9944   2.885   2.310   0.046
 3015SOL    HW2 9945   2.823   2.375   0.182
 3016SOL     OW 9946   4.037   6.424   3.497
 3016SOL    HW1 9947   4.080   6.437   3.407
 3016SOL    HW2 9948   3.985   6.506   3.521
 3017SOL     OW 9949   0.519   5.707   1.179
 3017SOL    HW1 9950   0.460   5.657   1.243
 3017SOL    HW2 9951   0.599   5.652   1.157
 3018SOL     OW 9952   3.804   6.416   6.939
 3018SOL    HW1 9953   3.790   6.329   6.986
 3018SOL    HW2 9954   3.873   6.469   6.988
 3019SOL     OW 9955   4.335   6.841   1.972
 3019SOL    HW1 9956   4.376   6.767   2.025
 3019SOL    HW2 9957   4.407   6.902   1.939
 3020SOL     OW 9958   1.745   2.429   0.579
 3020SOL    HW1 9959   1.716   2.334   0.568
 3020SOL    HW2 9960   1.769   2.446   0.674
 3021SOL     OW 9961   3.021   1.651   6.347
 3021SOL    HW1 9962   3.006   1.742   6.384
 3021SOL    HW2 9963   3.025   1.584   6.421
 3022SOL     OW 9964   4.872   6.894   3.296
 3022SOL    HW1 9965   4.790   6.950   3.284
 3022SOL    HW2 9966   4.855   6.802   3.259
 3023SOL     OW 9967   4.897   6.583   2.023
 3023SOL    HW1 9968   4.935   6.609   2.112
 3023SOL    HW2 9969   4.819   6.642   2.002
 3024SOL     OW 9970   3.154   6.446   6.807
 3024SOL    HW1 9971   3.074   6.453   6.867
 3024SOL    HW2 9972   3.236   6.466   6.859
 3025SOL     OW 9973   2.054   2.318   1.115
 3025SOL    HW1 9974   2.100   2.306   1.203
 3025SOL    HW2 9975   2.105   2.383   1.059
 3026SOL     OW 9976   2.079   4.179   0.938
 3026SOL    HW1 9977   2.009   4.122   0.894
 3026SOL    HW2 9978   2.042   4.217   1.022
 3027SOL     OW 9979   0.882   2.011   3.363
 3027SOL    HW1 9980   0.942   2.083   3.328
 3027SOL    HW2 9981   0.913   1.923   3.327
 3028SOL     OW 9982   1.524   6.806   5.191
 3028SOL    HW1 9983   1.455   6.872   5.160
 3028SOL    HW2 9984   1.492   6.714   5.172
 3029SOL     OW 9985   5.337   6.350   5.437
 3029SOL    HW1 9986   5.327   6.325   5.533
 3029SOL    HW2 9987   5.363   6.269   5.383
 3030SOL     OW 9988   1.448   2.334   4.935
 3030SOL    HW1 9989   1.516   2.386   4.986
 3030SOL    HW2 9990   1.422   2.386   4.853
 3031SOL     OW 9991   0.834   4.901   6.581
 3031SOL    HW1 9992   0.884   4.866   6.501
 3031SOL    HW2 9993   0.872   4.862   6.664
 3032SOL     OW 9994   4.973   0.365   5.879
 3032SOL    HW1 9995   5.063   0.395   5.849
 3032SOL    HW2 9996   4.982   0.285   5.939
 3033SOL     OW 9997   5.990   3.606   6.758
 3033SOL    HW1 9998   5.917   3.546   6.726
 3033SOL    HW2 9999   6.072   3.590   6.704
 3034SOL     OW10000   2.313   6.833   4.631
 3034SOL    HW110001   2.371   6.785   4.697
 3034SOL    HW210002   2.247   6.890   4.680
 3035SOL     OW10003   6.312   0.516   7.001
 3035SOL    HW110004   6.241   0.548   0.043
 3035SOL    HW210005   6.372   0.453   0.030
 3036SOL     OW10006   1.091   4.565   6.233
 3036SOL    HW110007   1.152   4.605   6.165
 3036SOL    HW210008   1.004   4.613   6.233
 3037SOL     OW10009   6.397   6.825   5.814
 3037SOL    HW110010   6.305   6.862   5.806
 3037SOL    HW210011   6.464   6.899   5.809
 3038SOL     OW10012   5.368   6.907   5.997
 3038SOL    HW110013   5.308   6.944   5.926
 3038SOL    HW210014   5.439   6.850   5.954
 3039SOL     OW10015   1.177   4.743   1.141
 3039SOL    HW110016   1.265   4.738   1.094
 3039SOL    HW210017   1.131   4.829   1.116
 3040SOL     OW10018   2.646   2.974   6.918
 3040SOL    HW110019   2.629   2.995   6.821
 3040SOL    HW210020   2.578   3.020   6.975
 3041SOL     OW10021   1.731   2.365   5.639
 3041SOL    HW110022   1.646   2.417   5.631
 3041SOL    HW210023   1.809   2.427   5.629
 3042SOL     OW10024   4.585   0.290   2.085
 3042SOL    HW110025   4.606   0.215   2.149
 3042SOL    HW210026   4.501   0.270   2.036
 3043SOL     OW10027   0.213   5.549   0.334
 3043SOL    HW110028   0.229   5.621   0.266
 3043SOL    HW210029   0.299   5.529   0.382
 3044SOL     OW10030   3.628   4.268   6.337
 3044SOL    HW110031   3.590   4.229   6.422
 3044SOL    HW210032   3.564   4.250   6.262
 3045SOL     OW10033   5.466   2.600   3.001
 3045SOL    HW110034   5.467   2.595   3.100
 3045SOL    HW210035   5.521   2.526   2.963
 3046SOL     OW10036   2.183   3.013   5.495
 3046SOL    HW110037   2.282   3.012   5.481
 3046SOL    HW210038   2.137   3.026   5.407
 3047SOL     OW10039   6.404   5.072   2.466
 3047SOL    HW110040   6.317   5.025   2.448
 3047SOL    HW210041   6.478   5.025   2.419
 3048SOL     OW10042   3.318   2.616   1.719
 3048SOL    HW110043   3.400   2.558   1.719
 3048SOL    HW210044   3.345   2.711   1.738
 3049SOL     OW10045   0.545   0.597   2.412
 3049SOL    HW110046   0.576   0.524   2.472
 3049SOL    HW210047   0.621   0.627   2.354
 3050SOL     OW10048   4.334   6.010   4.142
 3050SOL    HW110049   4.344   5.951   4.222
 3050SOL    HW210050   4.404   5.988   4.074
 3051SOL     OW10051   2.282   4.676   6.023
 3051SOL    HW110052   2.258   4.761   6.071
 3051SOL    HW210053   2.377   4.653   6.042
 3052SOL     OW10054   4.136   6.677   2.701
 3052SOL    HW110055   4.055   6.701   2.647
 3052SOL    HW210056   4.193   6.614   2.650
 3053SOL     OW10057   5.401   6.569   0.194
 3053SOL    HW110058   5.420   6.658   0.152
 3053SOL    HW210059   5.318   6.531   0.155
 3054SOL     OW10060   1.292   3.362   6.440
 3054SOL    HW110061   1.255   3.295   6.504
 3054SOL    HW210062   1.387   3.340   6.419
 3055SOL     OW10063   6.356   6.501   3.294
 3055SOL    HW110064   6.295   6.553   3.354
 3055SOL    HW210065   6.310   6.482   3.207
 3056SOL     OW10066   6.981   0.763   1.028
 3056SOL    HW110067   0.008   0.723   0.949
 3056SOL    HW210068   6.992   0.703   1.107
 3057SOL     OW10069   5.951   5.195   2.873
 3057SOL    HW110070   5.878   5.132   2.846
 3057SOL    HW210071   6.021   5.146   2.925
 3058SOL     OW10072   6.547   4.874   1.607
 3058SOL    HW110073   6.540   4.973   1.618
 3058SOL    HW210074   6.594   4.835   1.686
 3059SOL     OW10075   1.920   2.972   4.390
 3059SOL    HW110076   1.988   3.040   4.364
 3059SOL    HW210077   1.924   2.956   4.488
 3060SOL     OW10078   6.698   6.970   0.702
 3060SOL    HW110079   6.625   6.915   0.661
 3060SOL    HW210080   6.756   7.008   0.630
 3061SOL     OW10081   0.154   0.255   6.485
 3061SOL    HW110082   0.165   0.347   6.448
 3061SOL    HW210083   0.136   0.191   6.410
 3062SOL     OW10084   3.424   6.647   0.092
 3062SOL    HW110085   3.455   6.739   0.067
 3062SOL    HW210086   3.436   6.586   0.014
 3063SOL     OW10087   2.003   4.664   1.413
 3063SOL    HW110088   2.084   4.691   1.466
 3063SOL    HW210089   2.012   4.698   1.320
 3064SOL     OW10090   6.104   3.526   3.369
 3064SOL    HW110091   6.053   3.510   3.454
 3064SOL    HW210092   6.200   3.499   3.382
 3065SOL     OW10093   1.983   0.877   6.981
 3065SOL    HW110094   2.011   0.898   0.055
 3065SOL    HW210095   1.901   0.928   6.958
 3066SOL     OW10096   5.832   4.873   1.600
 3066SOL    HW110097   5.748   4.894   1.550
 3066SOL    HW210098   5.910   4.915   1.554
 3067SOL     OW10099   5.287   0.118   3.899
 3067SOL    HW110100   5.328   0.165   3.977
 3067SOL    HW210101   5.204   0.070   3.928
 3068SOL     OW10102   5.795   4.940   0.114
 3068SOL    HW110103   5.869   4.887   0.155
 3068SOL    HW210104   5.831   5.029   0.084
 3069SOL     OW10105   0.738   6.155   2.589
 3069SOL    HW110106   0.711   6.241   2.544
 3069SOL    HW210107   0.762   6.088   2.519
 3070SOL     OW10108   4.080   1.190   4.015
 3070SOL    HW110109   4.007   1.255   3.993
 3070SOL    HW210110   4.103   1.198   4.112
 3071SOL     OW10111   6.022   6.422   3.287
 3071SOL    HW110112   6.023   6.369   3.372
 3071SOL    HW210113   6.022   6.360   3.209
 3072SOL     OW10114   0.645   0.438   2.644
 3072SOL    HW110115   0.559   0.421   2.693
 3072SOL    HW210116   0.658   0.367   2.575
 3073SOL     OW10117   1.090   3.254   5.111
 3073SOL    HW110118   1.142   3.335   5.082
 3073SOL    HW210119   1.154   3.181   5.136
 3074SOL     OW10120   4.798   2.958   5.977
 3074SOL    HW110121   4.714   2.907   5.996
 3074SOL    HW210122   4.851   2.966   6.061
 3075SOL     OW10123   2.046   5.976   1.540
 3075SOL    HW110124   2.049   5.928   1.627
 3075SOL    HW210125   2.091   5.920   1.470
 3076SOL     OW10126   0.562   0.790   5.191
 3076SOL    HW110127   0.607   0.762   5.276
 3076SOL    HW210128   0.489   0.855   5.212
 3077SOL     OW10129   5.334   4.971   3.717
 3077SOL    HW110130   5.360   5.061   3.751
 3077SOL    HW210131   5.389   4.947   3.638
 3078SOL     OW10132   1.707   3.468   1.684
 3078SOL    HW110133   1.777   3.400   1.668
 3078SOL    HW210134   1.743   3.541   1.742
 3079SOL     OW10135   0.168   2.129   5.675
 3079SOL    HW110136   0.151   2.212   5.621
 3079SOL    HW210137   0.161   2.049   5.616
 3080SOL     OW10138   6.471   5.217   0.627
 3080SOL    HW110139   6.465   5.285   0.700
 3080SOL    HW210140   6.517   5.258   0.548
 3081SOL     OW10141   0.212   5.064   5.657
 3081SOL    HW110142   0.209   5.164   5.658
 3081SOL    HW210143   0.123   5.027   5.682
 3082SOL     OW10144   2.795   0.259   2.535
 3082SOL    HW110145   2.861   0.288   2.604
 3082SOL    HW210146   2.843   0.222   2.456
 3083SOL     OW10147   3.483   0.345   1.616
 3083SOL    HW110148   3.401   0.338   1.672
 3083SOL    HW210149   3.550   0.404   1.662
 3084SOL     OW10150   5.308   5.883   4.805
 3084SOL    HW110151   5.257   5.839   4.879
 3084SOL    HW210152   5.325   5.817   4.732
 3085SOL     OW10153   0.603   5.574   2.173
 3085SOL    HW110154   0.575   5.543   2.264
 3085SOL    HW210155   0.658   5.502   2.130
 3086SOL     OW10156   4.807   1.342   3.779
 3086SOL    HW110157   4.825   1.430   3.735
 3086SOL    HW210158   4.893   1.297   3.801
 3087SOL     OW10159   6.722   3.165   2.516
 3087SOL    HW110160   6.754   3.106   2.442
 3087SOL    HW210161   6.780   3.247   2.521
 3088SOL     OW10162   3.057   4.908   5.759
 3088SOL    HW110163   3.025   4.836   5.696
 3088SOL    HW210164   3.082   4.866   5.846
 3089SOL     OW10165   1.797   2.372   0.112
 3089SOL    HW110166   1.824   2.301   0.177
 3089SOL    HW210167   1.715   2.418   0.146
 3090SOL     OW10168   1.481   1.917   0.927
 3090SOL    HW110169   1.538   1.845   0.887
 3090SOL    HW210170   1.534   2.001   0.936
 3091SOL     OW10171   3.000   6.804   0.197
 3091SOL    HW110172   3.069   6.733   0.211
 3091SOL    HW210173   2.975   6.809   0.100
 3092SOL     OW10174   5.090   6.585   0.439
 3092SOL    HW110175   5.011   6.633   0.477
 3092SOL    HW210176   5.106   6.501   0.491
 3093SOL     OW10177   5.419   6.023   4.375
 3093SOL    HW110178   5.341   5.961   4.374
 3093SOL    HW210179   5.469   6.012   4.461
 3094SOL     OW10180   2.764   5.907   5.711
 3094SOL    HW110181   2.798   5.862   5.629
 3094SOL    HW210182   2.664   5.912   5.709
 3095SOL     OW10183   2.984   4.874   4.941
 3095SOL    HW110184   3.067   4.872   4.997
 3095SOL    HW210185   2.933   4.789   4.954
 3096SOL     OW10186   1.356   0.551   6.190
 3096SOL    HW110187   1.430   0.576   6.253
 3096SOL    HW210188   1.284   0.503   6.240
 3097SOL     OW10189   1.620   3.024   6.933
 3097SOL    HW110190   1.533   2.989   6.967
 3097SOL    HW210191   1.605   3.111   6.886
 3098SOL     OW10192   3.321   2.450   0.610
 3098SOL    HW110193   3.342   2.475   0.516
 3098SOL    HW210194   3.266   2.522   0.653
 3099SOL     OW10195   0.750   5.622   5.223
 3099SOL    HW110196   0.784   5.552   5.286
 3099SOL    HW210197   0.731   5.580   5.134
 3100SOL     OW10198   0.156   7.002   6.860
 3100SOL    HW110199   0.143   6.947   6.942
 3100SOL    HW210200   0.166   0.078   6.885
 3101SOL     OW10201   4.643   7.006   1.000
 3101SOL    HW110202   4.685   6.964   1.080
 3101SOL    HW210203   4.714   0.031   0.945
 3102SOL     OW10204   1.722   4.404   1.215
 3102SOL    HW110205   1.637   4.397   1.268
 3102SOL    HW210206   1.723   4.333   1.144
 3103SOL     OW10207   4.109   3.306   1.927
 3103SOL    HW110208   4.025   3.333   1.880
 3103SOL    HW210209   4.119   3.359   2.011
 3104SOL     OW10210   6.265   5.928   4.007
 3104SOL    HW110211   6.321   5.904   3.927
 3104SOL    HW210212   6.169   5.927   3.981
 3105SOL     OW10213   5.736   6.181   4.052
 3105SOL    HW110214   5.828   6.195   4.016
 3105SOL    HW210215   5.720   6.245   4.127
 3106SOL     OW10216   6.915   2.336   3.823
 3106SOL    HW110217   6.865   2.252   3.843
 3106SOL    HW210218   6.850   2.411   3.809
 3107SOL     OW10219   3.027   0.447   4.472
 3107SOL    HW110220   2.990   0.483   4.386
 3107SOL    HW210221   2.955   0.443   4.540
 3108SOL     OW10222   3.498   0.741   3.302
 3108SOL    HW110223   3.494   0.653   3.254
 3108SOL    HW210224   3.591   0.778   3.296
 3109SOL     OW10225   4.525   5.379   3.337
 3109SOL    HW110226   4.432   5.387   3.373
 3109SOL    HW210227   4.563   5.471   3.326
 3110SOL     OW10228   0.590   2.828   2.438
 3110SOL    HW110229   0.538   2.769   2.376
 3110SOL    HW210230   0.661   2.774   2.483
 3111SOL     OW10231   0.201   4.957   3.509
 3111SOL    HW110232   0.105   4.937   3.492
 3111SOL    HW210233   0.229   4.915   3.596
 3112SOL     OW10234   4.276   4.074   6.282
 3112SOL    HW110235   4.316   4.159   6.315
 3112SOL    HW210236   4.189   4.094   6.236
 3113SOL     OW10237   2.950   6.285   3.894
 3113SOL    HW110238   3.020   6.313   3.827
 3113SOL    HW210239   2.870   6.344   3.885
 3114SOL     OW10240   6.033   5.646   1.307
 3114SOL    HW110241   6.101   5.673   1.239
 3114SOL    HW210242   5.957   5.711   1.306
 3115SOL     OW10243   2.564   3.615   1.362
 3115SOL    HW110244   2.612   3.701   1.375
 3115SOL    HW210245   2.587   3.577   1.272
 3116SOL     OW10246   0.174   1.811   0.263
 3116SOL    HW110247   0.165   1.870   0.343
 3116SOL    HW210248   0.122   1.850   0.187
 3117SOL     OW10249   3.990   3.628   5.294
 3117SOL    HW110250   4.069   3.666   5.343
 3117SOL    HW210251   3.923   3.593   5.360
 3118SOL     OW10252   5.891   3.917   0.510
 3118SOL    HW110253   5.947   3.959   0.438
 3118SOL    HW210254   5.889   3.976   0.590
 3119SOL     OW10255   1.600   4.252   5.559
 3119SOL    HW110256   1.597   4.351   5.574
 3119SOL    HW210257   1.629   4.233   5.465
 3120SOL     OW10258   3.187   5.535   5.214
 3120SOL    HW110259   3.243   5.482   5.277
 3120SOL    HW210260   3.199   5.633   5.233
 3121SOL     OW10261   0.042   6.568   2.143
 3121SOL    HW110262   6.967   6.582   2.170
 3121SOL    HW210263   0.102   6.583   2.221
 3122SOL     OW10264   3.231   5.290   0.458
 3122SOL    HW110265   3.205   5.348   0.535
 3122SOL    HW210266   3.161   5.220   0.443
 3123SOL     OW10267   3.353   6.586   3.935
 3123SOL    HW110268   3.407   6.507   3.907
 3123SOL    HW210269   3.348   6.652   3.861
 3124SOL     OW10270   4.415   0.817   6.515
 3124SOL    HW110271   4.337   0.812   6.452
 3124SOL    HW210272   4.382   0.806   6.609
 3125SOL     OW10273   0.297   1.910   6.109
 3125SOL    HW110274   0.252   1.900   6.197
 3125SOL    HW210275   0.239   1.871   6.037
 3126SOL     OW10276   4.577   6.030   0.157
 3126SOL    HW110277   4.551   6.050   0.252
 3126SOL    HW210278   4.553   5.936   0.135
 3127SOL     OW10279   0.404   1.373   3.759
 3127SOL    HW110280   0.370   1.459   3.722
 3127SOL    HW210281   0.461   1.390   3.839
 3128SOL     OW10282   1.564   1.695   0.805
 3128SOL    HW110283   1.529   1.613   0.759
 3128SOL    HW210284   1.639   1.670   0.865
 3129SOL     OW10285   0.736   3.229   4.808
 3129SOL    HW110286   0.680   3.265   4.734
 3129SOL    HW210287   0.756   3.301   4.874
 3130SOL     OW10288   1.518   5.594   3.023
 3130SOL    HW110289   1.437   5.619   3.077
 3130SOL    HW210290   1.489   5.556   2.935
 3131SOL     OW10291   6.809   3.338   3.491
 3131SOL    HW110292   6.775   3.369   3.579
 3131SOL    HW210293   6.862   3.412   3.448
 3132SOL     OW10294   5.805   6.011   6.046
 3132SOL    HW110295   5.798   6.037   6.142
 3132SOL    HW210296   5.727   6.049   5.996
 3133SOL     OW10297   2.913   1.852   3.259
 3133SOL    HW110298   2.841   1.913   3.291
 3133SOL    HW210299   2.925   1.863   3.160
 3134SOL     OW10300   4.899   3.013   2.244
 3134SOL    HW110301   4.842   2.980   2.320
 3134SOL    HW210302   4.844   3.014   2.160
 3135SOL     OW10303   3.272   1.791   3.398
 3135SOL    HW110304   3.206   1.715   3.395
 3135SOL    HW210305   3.334   1.778   3.476
 3136SOL     OW10306   5.539   6.476   5.299
 3136SOL    HW110307   5.452   6.447   5.338
 3136SOL    HW210308   5.533   6.475   5.199
 3137SOL     OW10309   5.951   2.313   4.182
 3137SOL    HW110310   5.934   2.268   4.270
 3137SOL    HW210311   5.886   2.279   4.114
 3138SOL     OW10312   5.788   1.184   4.877
 3138SOL    HW110313   5.878   1.161   4.916
 3138SOL    HW210314   5.735   1.236   4.943
 3139SOL     OW10315   4.934   6.355   5.406
 3139SOL    HW110316   4.906   6.371   5.311
 3139SOL    HW210317   4.948   6.257   5.420
 3140SOL     OW10318   6.452   6.170   0.039
 3140SOL    HW110319   6.433   6.107   6.984
 3140SOL    HW210320   6.368   6.219   0.063
 3141SOL     OW10321   1.108   5.130   0.258
 3141SOL    HW110322   1.034   5.164   0.200
 3141SOL    HW210323   1.116   5.031   0.248
 3142SOL     OW10324   4.485   6.649   0.272
 3142SOL    HW110325   4.411   6.695   0.320
 3142SOL    HW210326   4.533   6.588   0.335
 3143SOL     OW10327   6.266   1.442   1.027
 3143SOL    HW110328   6.315   1.404   0.949
 3143SOL    HW210329   6.320   1.516   1.067
 3144SOL     OW10330   1.779   3.456   6.188
 3144SOL    HW110331   1.702   3.392   6.191
 3144SOL    HW210332   1.864   3.406   6.206
 3145SOL     OW10333   3.251   6.122   3.574
 3145SOL    HW110334   3.334   6.079   3.611
 3145SOL    HW210335   3.252   6.116   3.474
 3146SOL     OW10336   1.873   0.401   3.750
 3146SOL    HW110337   1.956   0.350   3.775
 3146SOL    HW210338   1.793   0.343   3.765
 3147SOL     OW10339   4.660   4.267   0.284
 3147SOL    HW110340   4.647   4.233   0.378
 3147SOL    HW210341   4.706   4.197   0.230
 3148SOL     OW10342   3.498   5.723   4.522
 3148SOL    HW110343   3.421   5.701   4.583
 3148SOL    HW210344   3.583   5.688   4.562
 3149SOL     OW10345   3.681   6.803   5.575
 3149SOL    HW110346   3.624   6.768   5.501
 3149SOL    HW210347   3.646   6.891   5.607
 3150SOL     OW10348   6.097   0.433   4.717
 3150SOL    HW110349   6.148   0.360   4.763
 3150SOL    HW210350   6.131   0.444   4.624
 3151SOL     OW10351   4.249   1.113   6.189
 3151SOL    HW110352   4.232   1.110   6.091
 3151SOL    HW210353   4.204   1.035   6.233
 3152SOL     OW10354   1.488   5.222   0.817
 3152SOL    HW110355   1.419   5.163   0.860
 3152SOL    HW210356   1.449   5.265   0.736
 3153SOL     OW10357   6.653   4.067   2.352
 3153SOL    HW110358   6.604   4.133   2.409
 3153SOL    HW210359   6.639   3.974   2.388
 3154SOL     OW10360   5.486   2.549   6.376
 3154SOL    HW110361   5.517   2.512   6.289
 3154SOL    HW210362   5.396   2.512   6.398
 3155SOL     OW10363   5.391   5.819   0.618
 3155SOL    HW110364   5.437   5.761   0.686
 3155SOL    HW210365   5.358   5.902   0.662
 3156SOL     OW10366   3.388   3.947   3.464
 3156SOL    HW110367   3.411   3.916   3.556
 3156SOL    HW210368   3.294   3.920   3.442
 3157SOL     OW10369   2.089   3.384   4.533
 3157SOL    HW110370   2.108   3.366   4.437
 3157SOL    HW210371   2.134   3.315   4.590
 3158SOL     OW10372   4.765   6.316   0.344
 3158SOL    HW110373   4.681   6.284   0.300
 3158SOL    HW210374   4.793   6.403   0.304
 3159SOL     OW10375   5.422   4.833   0.603
 3159SOL    HW110376   5.355   4.760   0.589
 3159SOL    HW210377   5.387   4.919   0.565
 3160SOL     OW10378   5.805   4.164   6.912
 3160SOL    HW110379   5.748   4.085   6.934
 3160SOL    HW210380   5.878   4.136   6.849
 3161SOL     OW10381   0.651   2.036   2.906
 3161SOL    HW110382   0.653   2.135   2.925
 3161SOL    HW210383   0.564   1.998   2.938
 3162SOL     OW10384   0.081   5.997   6.270
 3162SOL    HW110385   7.006   6.029   6.271
 3162SOL    HW210386   0.103   5.956   6.358
 3163SOL     OW10387   2.447   4.024   5.904
 3163SOL    HW110388   2.406   4.043   5.994
 3163SOL    HW210389   2.465   4.110   5.857
 3164SOL     OW10390   5.616   5.618   6.245
 3164SOL    HW110391   5.564   5.654   6.168
 3164SOL    HW210392   5.591   5.523   6.261
 3165SOL     OW10393   6.847   2.210   1.344
 3165SOL    HW110394   6.944   2.223   1.323
 3165SOL    HW210395   6.834   2.122   1.388
 3166SOL     OW10396   5.086   2.762   5.963
 3166SOL    HW110397   5.136   2.783   5.878
 3166SOL    HW210398   4.997   2.723   5.940
 3167SOL     OW10399   0.615   4.753   2.304
 3167SOL    HW110400   0.601   4.654   2.297
 3167SOL    HW210401   0.593   4.796   2.217
 3168SOL     OW10402   5.618   3.245   0.925
 3168SOL    HW110403   5.679   3.314   0.886
 3168SOL    HW210404   5.523   3.275   0.916
 3169SOL     OW10405   1.604   1.827   5.574
 3169SOL    HW110406   1.644   1.793   5.659
 3169SOL    HW210407   1.615   1.926   5.569
 3170SOL     OW10408   4.641   0.893   6.370
 3170SOL    HW110409   4.580   0.936   6.303
 3170SOL    HW210410   4.590   0.826   6.423
 3171SOL     OW10411   6.463   6.850   3.398
 3171SOL    HW110412   6.501   6.760   3.419
 3171SOL    HW210413   6.444   6.856   3.300
 3172SOL     OW10414   6.329   6.664   5.584
 3172SOL    HW110415   6.257   6.598   5.605
 3172SOL    HW210416   6.362   6.705   5.669
 3173SOL     OW10417   1.838   1.454   1.281
 3173SOL    HW110418   1.802   1.362   1.299
 3173SOL    HW210419   1.937   1.450   1.271
 3174SOL     OW10420   2.119   3.448   5.931
 3174SOL    HW110421   2.122   3.462   5.832
 3174SOL    HW210422   2.157   3.529   5.977
 3175SOL     OW10423   0.234   6.397   0.678
 3175SOL    HW110424   0.184   6.480   0.655
 3175SOL    HW210425   0.310   6.420   0.739
 3176SOL     OW10426   0.346   5.073   6.541
 3176SOL    HW110427   0.303   5.143   6.597
 3176SOL    HW210428   0.437   5.052   6.578
 3177SOL     OW10429   6.902   0.141   5.367
 3177SOL    HW110430   6.850   0.059   5.342
 3177SOL    HW210431   6.895   0.208   5.293
 3178SOL     OW10432   1.263   3.181   1.526
 3178SOL    HW110433   1.344   3.202   1.581
 3178SOL    HW210434   1.195   3.254   1.539
 3179SOL     OW10435   2.250   1.934   3.010
 3179SOL    HW110436   2.213   1.845   3.036
 3179SOL    HW210437   2.218   1.959   2.919
 3180SOL     OW10438   5.799   1.061   6.034
 3180SOL    HW110439   5.820   1.017   5.947
 3180SOL    HW210440   5.823   1.158   6.029
 3181SOL     OW10441   0.368   1.460   2.941
 3181SOL    HW110442   0.373   1.559   2.957
 3181SOL    HW210443   0.276   1.428   2.965
 3182SOL     OW10444   1.432   4.655   5.237
 3182SOL    HW110445   1.332   4.660   5.230
 3182SOL    HW210446   1.462   4.561   5.222
 3183SOL     OW10447   3.986   3.193   1.320
 3183SOL    HW110448   4.073   3.243   1.326
 3183SOL    HW210449   3.938   3.218   1.236
 3184SOL     OW10450   2.615   1.124   2.935
 3184SOL    HW110451   2.530   1.160   2.895
 3184SOL    HW210452   2.633   1.170   3.022
 3185SOL     OW10453   6.956   6.524   5.840
 3185SOL    HW110454   0.018   6.484   5.881
 3185SOL    HW210455   6.892   6.451   5.816
 3186SOL     OW10456   3.262   0.539   1.416
 3186SOL    HW110457   3.274   0.549   1.515
 3186SOL    HW210458   3.316   0.609   1.369
 3187SOL     OW10459   2.851   4.322   0.227
 3187SOL    HW110460   2.807   4.252   0.171
 3187SOL    HW210461   2.949   4.321   0.210
 3188SOL     OW10462   4.059   6.660   3.005
 3188SOL    HW110463   4.103   6.661   2.915
 3188SOL    HW210464   3.967   6.621   2.997
 3189SOL     OW10465   1.274   0.240   2.086
 3189SOL    HW110466   1.306   0.166   2.027
 3189SOL    HW210467   1.185   0.214   2.125
 3190SOL     OW10468   0.694   6.777   2.075
 3190SOL    HW110469   0.686   6.783   2.174
 3190SOL    HW210470   0.753   6.699   2.051
 3191SOL     OW10471   3.533   0.600   0.742
 3191SOL    HW110472   3.599   0.572   0.672
 3191SOL    HW210473   3.506   0.520   0.795
 3192SOL     OW10474   6.536   2.613   2.887
 3192SOL    HW110475   6.476   2.656   2.954
 3192SOL    HW210476   6.627   2.655   2.892
 3193SOL     OW10477   4.868   3.623   0.049
 3193SOL    HW110478   4.828   3.695   7.011
 3193SOL    HW210479   4.937   3.573   7.017
 3194SOL     OW10480   1.107   3.564   5.832
 3194SOL    HW110481   1.146   3.626   5.900
 3194SOL    HW210482   1.019   3.600   5.801
 3195SOL     OW10483   0.456   3.591   3.235
 3195SOL    HW110484   0.524   3.657   3.202
 3195SOL    HW210485   0.414   3.625   3.319
 3196SOL     OW10486   0.383   6.973   5.466
 3196SOL    HW110487   0.363   6.882   5.501
 3196SOL    HW210488   0.425   0.009   5.538
 3197SOL     OW10489   1.419   4.096   4.087
 3197SOL    HW110490   1.395   4.188   4.053
 3197SOL    HW210491   1.498   4.103   4.148
 3198SOL     OW10492   6.914   1.386   0.222
 3198SOL    HW110493   6.966   1.467   0.194
 3198SOL    HW210494   6.865   1.406   0.307
 3199SOL     OW10495   3.541   2.115   2.810
 3199SOL    HW110496   3.564   2.145   2.902
 3199SOL    HW210497   3.502   2.192   2.758
 3200SOL     OW10498   6.782   2.322   0.973
 3200SOL    HW110499   6.776   2.371   0.886
 3200SOL    HW210500   6.875   2.289   0.987
 3201SOL     OW10501   4.463   4.448   2.816
 3201SOL    HW110502   4.501   4.359   2.843
 3201SOL    HW210503   4.380   4.466   2.867
 3202SOL     OW10504   2.124   5.823   1.289
 3202SOL    HW110505   2.184   5.743   1.295
 3202SOL    HW210506   2.077   5.824   1.201
 3203SOL     OW10507   6.433   0.560   1.893
 3203SOL    HW110508   6.353   0.504   1.875
 3203SOL    HW210509   6.431   0.590   1.989
 3204SOL     OW10510   6.133   5.840   1.761
 3204SOL    HW110511   6.194   5.913   1.729
 3204SOL    HW210512   6.083   5.802   1.684
 3205SOL     OW10513   1.769   3.798   3.035
 3205SOL    HW110514   1.678   3.838   3.019
 3205SOL    HW210515   1.780   3.778   3.132
 3206SOL     OW10516   1.652   0.085   0.365
 3206SOL    HW110517   1.610   0.176   0.366
 3206SOL    HW210518   1.629   0.038   0.280
 3207SOL     OW10519   0.517   1.031   4.086
 3207SOL    HW110520   0.544   0.936   4.103
 3207SOL    HW210521   0.584   1.074   4.025
 3208SOL     OW10522   6.327   0.317   5.675
 3208SOL    HW110523   6.405   0.379   5.675
 3208SOL    HW210524   6.243   0.369   5.686
 3209SOL     OW10525   2.515   0.629   3.407
 3209SOL    HW110526   2.493   0.532   3.399
 3209SOL    HW210527   2.561   0.646   3.494
 3210SOL     OW10528   6.979   4.834   3.412
 3210SOL    HW110529   6.879   4.845   3.409
 3210SOL    HW210530   7.013   4.814   3.320
 3211SOL     OW10531   1.075   4.151   2.160
 3211SOL    HW110532   1.039   4.244   2.171
 3211SOL    HW210533   1.137   4.130   2.235
 3212SOL     OW10534   4.886   2.608   5.805
 3212SOL    HW110535   4.886   2.661   5.721
 3212SOL    HW210536   4.806   2.631   5.859
 3213SOL     OW10537   5.255   6.008   1.730
 3213SOL    HW110538   5.239   6.088   1.789
 3213SOL    HW210539   5.354   5.995   1.720
 3214SOL     OW10540   3.974   4.653   5.825
 3214SOL    HW110541   3.915   4.733   5.829
 3214SOL    HW210542   4.003   4.628   5.918
 3215SOL     OW10543   6.032   1.362   0.291
 3215SOL    HW110544   6.052   1.449   0.246
 3215SOL    HW210545   6.072   1.361   0.382
 3216SOL     OW10546   5.594   6.970   4.853
 3216SOL    HW110547   5.670   6.972   4.787
 3216SOL    HW210548   5.512   7.008   4.811
 3217SOL     OW10549   6.837   3.999   1.202
 3217SOL    HW110550   6.800   3.907   1.211
 3217SOL    HW210551   6.906   4.000   1.130
 3218SOL     OW10552   2.957   1.071   2.002
 3218SOL    HW110553   2.943   1.031   1.911
 3218SOL    HW210554   2.962   0.997   2.070
 3219SOL     OW10555   6.849   6.990   4.027
 3219SOL    HW110556   6.931   0.025   4.012
 3219SOL    HW210557   6.815   7.003   4.120
 3220SOL     OW10558   5.739   3.021   5.271
 3220SOL    HW110559   5.786   3.106   5.249
 3220SOL    HW210560   5.693   2.985   5.190
 3221SOL     OW10561   3.606   6.972   2.668
 3221SOL    HW110562   3.693   6.969   2.716
 3221SOL    HW210563   3.620   6.947   2.572
 3222SOL     OW10564   6.213   2.985   3.203
 3222SOL    HW110565   6.133   2.968   3.261
 3222SOL    HW210566   6.187   3.044   3.126
 3223SOL     OW10567   2.397   4.790   4.689
 3223SOL    HW110568   2.448   4.704   4.690
 3223SOL    HW210569   2.458   4.865   4.662
 3224SOL     OW10570   3.921   5.380   0.880
 3224SOL    HW110571   3.922   5.433   0.965
 3224SOL    HW210572   3.861   5.424   0.813
 3225SOL     OW10573   2.211   2.643   1.280
 3225SOL    HW110574   2.247   2.567   1.227
 3225SOL    HW210575   2.121   2.669   1.245
 3226SOL     OW10576   0.294   0.924   4.382
 3226SOL    HW110577   0.370   0.866   4.410
 3226SOL    HW210578   0.228   0.869   4.330
 3227SOL     OW10579   2.595   1.157   5.288
 3227SOL    HW110580   2.499   1.132   5.303
 3227SOL    HW210581   2.603   1.256   5.277
 3228SOL     OW10582   4.874   3.155   4.882
 3228SOL    HW110583   4.944   3.115   4.942
 3228SOL    HW210584   4.879   3.255   4.888
 3229SOL     OW10585   3.834   2.088   5.126
 3229SOL    HW110586   3.831   1.990   5.140
 3229SOL    HW210587   3.882   2.108   5.040
 3230SOL     OW10588   1.346   0.562   3.936
 3230SOL    HW110589   1.258   0.603   3.960
 3230SOL    HW210590   1.408   0.633   3.903
 3231SOL     OW10591   5.550   5.677   0.770
 3231SOL    HW110592   5.563   5.714   0.862
 3231SOL    HW210593   5.608   5.596   0.759
 3232SOL     OW10594   2.053   4.239   3.522
 3232SOL    HW110595   2.124   4.293   3.477
 3232SOL    HW210596   2.096   4.163   3.571
 3233SOL     OW10597   1.428   4.299   1.176
 3233SOL    HW110598   1.393   4.351   1.099
 3233SOL    HW210599   1.379   4.327   1.259
 3234SOL     OW10600   6.336   1.900   4.576
 3234SOL    HW110601   6.384   1.812   4.580
 3234SOL    HW210602   6.238   1.883   4.562
 3235SOL     OW10603   5.717   0.546   3.014
 3235SOL    HW110604   5.731   0.642   3.038
 3235SOL    HW210605   5.646   0.539   2.943
 3236SOL     OW10606   0.562   2.897   1.864
 3236SOL    HW110607   0.652   2.925   1.830
 3236SOL    HW210608   0.533   2.814   1.816
 3237SOL     OW10609   3.284   6.428   4.347
 3237SOL    HW110610   3.263   6.495   4.419
 3237SOL    HW210611   3.382   6.431   4.327
 3238SOL     OW10612   6.258   6.788   6.658
 3238SOL    HW110613   6.245   6.697   6.700
 3238SOL    HW210614   6.304   6.778   6.570
 3239SOL     OW10615   0.347   6.577   5.755
 3239SOL    HW110616   0.267   6.545   5.704
 3239SOL    HW210617   0.412   6.502   5.765
 3240SOL     OW10618   0.684   1.261   4.869
 3240SOL    HW110619   0.616   1.189   4.851
 3240SOL    HW210620   0.741   1.273   4.787
 3241SOL     OW10621   5.017   1.076   5.096
 3241SOL    HW110622   4.975   0.985   5.091
 3241SOL    HW210623   5.028   1.102   5.192
 3242SOL     OW10624   3.286   6.507   0.512
 3242SOL    HW110625   3.304   6.605   0.503
 3242SOL    HW210626   3.208   6.493   0.572
 3243SOL     OW10627   3.599   5.406   6.993
 3243SOL    HW110628   3.693   5.414   6.959
 3243SOL    HW210629   3.574   5.309   6.997
 3244SOL     OW10630   2.069   6.122   5.796
 3244SOL    HW110631   1.977   6.130   5.758
 3244SOL    HW210632   2.125   6.064   5.737
 3245SOL     OW10633   2.953   1.919   5.988
 3245SOL    HW110634   3.021   1.991   5.973
 3245SOL    HW210635   2.976   1.840   5.931
 3246SOL     OW10636   5.299   6.565   4.048
 3246SOL    HW110637   5.312   6.594   3.953
 3246SOL    HW210638   5.389   6.554   4.092
 3247SOL     OW10639   6.740   1.735   4.818
 3247SOL    HW110640   6.717   1.737   4.720
 3247SOL    HW210641   6.795   1.654   4.838
 3248SOL     OW10642   5.305   3.952   2.596
 3248SOL    HW110643   5.347   4.041   2.612
 3248SOL    HW210644   5.253   3.925   2.677
 3249SOL     OW10645   2.867   4.305   5.340
 3249SOL    HW110646   2.868   4.372   5.266
 3249SOL    HW210647   2.824   4.220   5.308
 3250SOL     OW10648   4.280   6.174   1.860
 3250SOL    HW110649   4.344   6.151   1.787
 3250SOL    HW210650   4.210   6.236   1.825
 3251SOL     OW10651   3.217   1.119   3.673
 3251SOL    HW110652   3.166   1.187   3.620
 3251SOL    HW210653   3.301   1.160   3.708
 3252SOL     OW10654   3.145   2.190   3.671
 3252SOL    HW110655   3.123   2.188   3.574
 3252SOL    HW210656   3.067   2.226   3.723
 3253SOL     OW10657   4.405   3.709   0.858
 3253SOL    HW110658   4.473   3.762   0.807
 3253SOL    HW210659   4.389   3.622   0.810
 3254SOL     OW10660   4.777   4.898   2.559
 3254SOL    HW110661   4.718   4.851   2.493
 3254SOL    HW210662   4.870   4.904   2.523
 3255SOL     OW10663   3.910   4.416   0.870
 3255SOL    HW110664   3.894   4.376   0.960
 3255SOL    HW210665   4.002   4.456   0.867
 3256SOL     OW10666   6.115   6.595   6.092
 3256SOL    HW110667   6.156   6.516   6.138
 3256SOL    HW210668   6.170   6.677   6.111
 3257SOL     OW10669   2.130   2.013   0.844
 3257SOL    HW110670   2.184   2.001   0.761
 3257SOL    HW210671   2.189   2.005   0.925
 3258SOL     OW10672   5.822   0.036   1.574
 3258SOL    HW110673   5.846   0.001   1.483
 3258SOL    HW210674   5.764   0.117   1.564
 3259SOL     OW10675   6.045   6.243   3.089
 3259SOL    HW110676   5.984   6.166   3.076
 3259SOL    HW210677   6.094   6.263   3.004
 3260SOL     OW10678   1.447   3.349   0.421
 3260SOL    HW110679   1.368   3.393   0.464
 3260SOL    HW210680   1.510   3.419   0.388
 3261SOL     OW10681   4.579   0.119   3.625
 3261SOL    HW110682   4.633   0.158   3.699
 3261SOL    HW210683   4.554   0.025   3.648
 3262SOL     OW10684   3.993   1.543   4.398
 3262SOL    HW110685   4.084   1.583   4.381
 3262SOL    HW210686   3.961   1.572   4.488
 3263SOL     OW10687   3.065   5.516   2.529
 3263SOL    HW110688   3.000   5.558   2.592
 3263SOL    HW210689   3.078   5.575   2.449
 3264SOL     OW10690   4.722   4.651   5.803
 3264SOL    HW110691   4.700   4.732   5.748
 3264SOL    HW210692   4.703   4.569   5.750
 3265SOL     OW10693   5.124   0.926   6.564
 3265SOL    HW110694   5.144   0.830   6.585
 3265SOL    HW210695   5.077   0.932   6.475
 3266SOL     OW10696   0.306   1.958   6.928
 3266SOL    HW110697   0.221   1.914   6.901
 3266SOL    HW210698   0.380   1.891   6.927
 3267SOL     OW10699   4.948   2.425   1.208
 3267SOL    HW110700   4.865   2.371   1.222
 3267SOL    HW210701   5.026   2.378   1.250
 3268SOL     OW10702   1.334   4.899   6.469
 3268SOL    HW110703   1.424   4.866   6.439
 3268SOL    HW210704   1.286   4.825   6.515
 3269SOL     OW10705   4.585   3.832   0.681
 3269SOL    HW110706   4.570   3.909   0.743
 3269SOL    HW210707   4.670   3.786   0.704
 3270SOL     OW10708   0.313   5.528   4.279
 3270SOL    HW110709   0.391   5.467   4.265
 3270SOL    HW210710   0.237   5.476   4.318
 3271SOL     OW10711   5.326   1.155   2.002
 3271SOL    HW110712   5.371   1.086   1.946
 3271SOL    HW210713   5.281   1.222   1.944
 3272SOL     OW10714   4.860   0.168   0.280
 3272SOL    HW110715   4.947   0.206   0.250
 3272SOL    HW210716   4.792   0.242   0.286
 3273SOL     OW10717   0.465   6.956   3.306
 3273SOL    HW110718   0.554   6.997   3.327
 3273SOL    HW210719   0.392   7.017   3.338
 3274SOL     OW10720   3.813   1.924   6.490
 3274SOL    HW110721   3.763   1.973   6.562
 3274SOL    HW210722   3.807   1.975   6.404
 3275SOL     OW10723   4.090   0.861   0.442
 3275SOL    HW110724   4.067   0.949   0.484
 3275SOL    HW210725   4.190   0.854   0.432
 3276SOL     OW10726   1.996   6.684   0.389
 3276SOL    HW110727   2.027   6.744   0.463
 3276SOL    HW210728   2.033   6.718   0.302
 3277SOL     OW10729   6.902   6.241   5.561
 3277SOL    HW110730   6.853   6.290   5.488
 3277SOL    HW210731   6.973   6.184   5.521
 3278SOL     OW10732   1.357   0.988   0.189
 3278SOL    HW110733   1.298   1.029   0.259
 3278SOL    HW210734   1.367   0.891   0.207
 3279SOL     OW10735   2.089   6.398   1.182
 3279SOL    HW110736   2.054   6.430   1.094
 3279SOL    HW210737   2.032   6.322   1.215
 3280SOL     OW10738   2.182   5.580   5.100
 3280SOL    HW110739   2.083   5.587   5.114
 3280SOL    HW210740   2.229   5.580   5.189
 3281SOL     OW10741   2.356   6.399   0.575
 3281SOL    HW110742   2.440   6.354   0.545
 3281SOL    HW210743   2.355   6.493   0.541
 3282SOL     OW10744   2.281   6.249   2.295
 3282SOL    HW110745   2.224   6.331   2.302
 3282SOL    HW210746   2.288   6.222   2.199
 3283SOL     OW10747   1.850   0.283   4.079
 3283SOL    HW110748   1.926   0.308   4.140
 3283SOL    HW210749   1.812   0.195   4.108
 3284SOL     OW10750   1.062   4.107   5.861
 3284SOL    HW110751   1.012   4.172   5.919
 3284SOL    HW210752   1.086   4.151   5.775
 3285SOL     OW10753   0.294   2.172   4.803
 3285SOL    HW110754   0.272   2.225   4.720
 3285SOL    HW210755   0.254   2.081   4.796
 3286SOL     OW10756   4.201   4.939   5.493
 3286SOL    HW110757   4.265   4.972   5.562
 3286SOL    HW210758   4.148   5.016   5.457
 3287SOL     OW10759   0.217   4.344   1.739
 3287SOL    HW110760   0.163   4.383   1.665
 3287SOL    HW210761   0.306   4.316   1.705
 3288SOL     OW10762   1.726   6.395   6.748
 3288SOL    HW110763   1.668   6.314   6.751
 3288SOL    HW210764   1.817   6.369   6.713
 3289SOL     OW10765   1.211   5.271   4.700
 3289SOL    HW110766   1.209   5.367   4.673
 3289SOL    HW210767   1.248   5.216   4.625
 3290SOL     OW10768   0.004   4.516   3.009
 3290SOL    HW110769   0.026   4.456   3.086
 3290SOL    HW210770   7.019   4.611   3.040
 3291SOL     OW10771   2.244   6.982   1.659
 3291SOL    HW110772   2.280   6.896   1.623
 3291SOL    HW210773   2.156   7.001   1.616
 3292SOL     OW10774   0.544   5.428   5.431
 3292SOL    HW110775   0.644   5.426   5.436
 3292SOL    HW210776   0.515   5.411   5.337
 3293SOL     OW10777   6.335   0.541   2.767
 3293SOL    HW110778   6.293   0.470   2.822
 3293SOL    HW210779   6.346   0.624   2.822
 3294SOL     OW10780   0.769   0.435   0.868
 3294SOL    HW110781   0.827   0.428   0.949
 3294SOL    HW210782   0.673   0.446   0.896
 3295SOL     OW10783   1.683   2.083   6.309
 3295SOL    HW110784   1.646   2.068   6.217
 3295SOL    HW210785   1.771   2.038   6.318
 3296SOL     OW10786   0.796   6.507   1.445
 3296SOL    HW110787   0.740   6.537   1.522
 3296SOL    HW210788   0.736   6.480   1.369
 3297SOL     OW10789   3.078   1.514   6.097
 3297SOL    HW110790   3.115   1.575   6.028
 3297SOL    HW210791   3.067   1.563   6.184
 3298SOL     OW10792   6.594   3.777   3.002
 3298SOL    HW110793   6.515   3.729   2.965
 3298SOL    HW210794   6.637   3.721   3.073
 3299SOL     OW10795   0.935   1.059   5.124
 3299SOL    HW110796   0.960   1.047   5.028
 3299SOL    HW210797   0.979   0.988   5.178
 3300SOL     OW10798   6.882   0.272   5.075
 3300SOL    HW110799   6.896   0.189   5.021
 3300SOL    HW210800   6.944   0.343   5.043
 3301SOL     OW10801   0.109   3.481   2.530
 3301SOL    HW110802   0.113   3.536   2.612
 3301SOL    HW210803   0.073   3.535   2.454
 3302SOL     OW10804   1.158   5.411   4.366
 3302SOL    HW110805   1.165   5.312   4.379
 3302SOL    HW210806   1.094   5.448   4.433
 3303SOL     OW10807   3.139   4.004   3.694
 3303SOL    HW110808   3.096   3.974   3.779
 3303SOL    HW210809   3.217   4.063   3.715
 3304SOL     OW10810   1.642   0.581   3.651
 3304SOL    HW110811   1.732   0.538   3.656
 3304SOL    HW210812   1.620   0.622   3.740
 3305SOL     OW10813   1.089   1.975   1.144
 3305SOL    HW110814   1.140   1.972   1.058
 3305SOL    HW210815   1.145   2.017   1.215
 3306SOL     OW10816   0.860   3.380   2.493
 3306SOL    HW110817   0.879   3.461   2.438
 3306SOL    HW210818   0.761   3.363   2.496
 3307SOL     OW10819   0.839   6.513   0.644
 3307SOL    HW110820   0.809   6.586   0.706
 3307SOL    HW210821   0.936   6.494   0.659
 3308SOL     OW10822   5.943   6.505   0.710
 3308SOL    HW110823   5.949   6.419   0.659
 3308SOL    HW210824   5.847   6.530   0.720
 3309SOL     OW10825   1.461   5.339   2.027
 3309SOL    HW110826   1.487   5.243   2.034
 3309SOL    HW210827   1.539   5.393   1.997
 3310SOL     OW10828   1.356   6.362   2.382
 3310SOL    HW110829   1.396   6.272   2.369
 3310SOL    HW210830   1.425   6.425   2.417
 3311SOL     OW10831   3.896   6.873   1.094
 3311SOL    HW110832   3.889   6.797   1.031
 3311SOL    HW210833   3.904   6.839   1.188
 3312SOL     OW10834   1.956   3.313   6.673
 3312SOL    HW110835   1.904   3.353   6.749
 3312SOL    HW210836   1.892   3.275   6.606
 3313SOL     OW10837   6.384   6.295   5.393
 3313SOL    HW110838   6.367   6.197   5.402
 3313SOL    HW210839   6.333   6.344   5.464
 3314SOL     OW10840   0.306   3.444   6.926
 3314SOL    HW110841   0.374   3.517   6.916
 3314SOL    HW210842   0.353   3.358   6.946
 3315SOL     OW10843   6.383   3.683   2.852
 3315SOL    HW110844   6.414   3.594   2.816
 3315SOL    HW210845   6.335   3.733   2.780
 3316SOL     OW10846   4.623   1.475   0.389
 3316SOL    HW110847   4.573   1.489   0.304
 3316SOL    HW210848   4.601   1.384   0.426
 3317SOL     OW10849   4.211   2.869   1.731
 3317SOL    HW110850   4.308   2.847   1.719
 3317SOL    HW210851   4.155   2.791   1.702
 3318SOL     OW10852   2.745   5.037   4.932
 3318SOL    HW110853   2.843   5.018   4.938
 3318SOL    HW210854   2.695   4.953   4.913
 3319SOL     OW10855   0.153   5.924   6.540
 3319SOL    HW110856   0.126   5.931   6.636
 3319SOL    HW210857   0.241   5.878   6.534
 3320SOL     OW10858   0.734   1.064   6.286
 3320SOL    HW110859   0.731   1.094   6.381
 3320SOL    HW210860   0.643   1.074   6.245
 3321SOL     OW10861   3.814   3.708   4.107
 3321SOL    HW110862   3.759   3.769   4.165
 3321SOL    HW210863   3.793   3.726   4.011
 3322SOL     OW10864   4.379   2.926   1.292
 3322SOL    HW110865   4.303   2.958   1.349
 3322SOL    HW210866   4.345   2.907   1.200
 3323SOL     OW10867   2.702   4.851   0.002
 3323SOL    HW110868   2.786   4.884   0.045
 3323SOL    HW210869   2.695   4.887   6.929
 3324SOL     OW10870   6.450   3.094   1.308
 3324SOL    HW110871   6.507   3.037   1.368
 3324SOL    HW210872   6.420   3.040   1.229
 3325SOL     OW10873   1.043   3.421   6.403
 3325SOL    HW110874   1.138   3.392   6.411
 3325SOL    HW210875   1.035   3.487   6.328
 3326SOL     OW10876   6.789   1.172   1.666
 3326SOL    HW110877   6.791   1.092   1.606
 3326SOL    HW210878   6.714   1.163   1.731
 3327SOL     OW10879   3.841   6.083   1.878
 3327SOL    HW110880   3.914   6.082   1.947
 3327SOL    HW210881   3.832   5.992   1.839
 3328SOL     OW10882   4.863   0.373   3.656
 3328SOL    HW110883   4.862   0.433   3.576
 3328SOL    HW210884   4.957   0.348   3.678
 3329SOL     OW10885   5.524   0.626   6.188
 3329SOL    HW110886   5.496   0.669   6.102
 3329SOL    HW210887   5.443   0.611   6.245
 3330SOL     OW10888   6.860   6.098   3.273
 3330SOL    HW110889   6.901   6.068   3.359
 3330SOL    HW210890   6.902   6.184   3.244
 3331SOL     OW10891   1.466   3.461   2.509
 3331SOL    HW110892   1.487   3.448   2.412
 3331SOL    HW210893   1.372   3.431   2.527
 3332SOL     OW10894   3.430   4.862   0.377
 3332SOL    HW110895   3.476   4.793   0.320
 3332SOL    HW210896   3.446   4.841   0.473
 3333SOL     OW10897   2.421   3.187   1.693
 3333SOL    HW110898   2.414   3.246   1.774
 3333SOL    HW210899   2.468   3.102   1.718
 3334SOL     OW10900   2.098   2.280   1.907
 3334SOL    HW110901   2.073   2.203   1.848
 3334SOL    HW210902   2.143   2.351   1.852
 3335SOL     OW10903   3.927   3.977   4.800
 3335SOL    HW110904   3.930   4.074   4.776
 3335SOL    HW210905   3.908   3.923   4.718
 3336SOL     OW10906   4.471   5.698   5.196
 3336SOL    HW110907   4.501   5.607   5.170
 3336SOL    HW210908   4.550   5.759   5.202
 3337SOL     OW10909   3.826   2.932   2.578
 3337SOL    HW110910   3.901   2.961   2.518
 3337SOL    HW210911   3.789   2.845   2.545
 3338SOL     OW10912   2.512   3.324   1.226
 3338SOL    HW110913   2.524   3.271   1.310
 3338SOL    HW210914   2.600   3.335   1.180
 3339SOL     OW10915   1.871   0.480   6.553
 3339SOL    HW110916   1.820   0.541   6.614
 3339SOL    HW210917   1.808   0.414   6.513
 3340SOL     OW10918   4.084   1.163   5.341
 3340SOL    HW110919   4.018   1.090   5.322
 3340SOL    HW210920   4.100   1.168   5.440
 3341SOL     OW10921   1.073   4.621   2.079
 3341SOL    HW110922   1.159   4.639   2.127
 3341SOL    HW210923   1.092   4.572   1.994
 3342SOL     OW10924   6.469   0.946   2.645
 3342SOL    HW110925   6.421   0.865   2.612
 3342SOL    HW210926   6.543   0.968   2.582
 3343SOL     OW10927   4.449   5.580   0.271
 3343SOL    HW110928   4.366   5.545   0.228
 3343SOL    HW210929   4.485   5.656   0.217
 3344SOL     OW10930   1.010   3.389   2.118
 3344SOL    HW110931   1.068   3.343   2.184
 3344SOL    HW210932   0.934   3.434   2.165
 3345SOL     OW10933   5.676   5.458   1.079
 3345SOL    HW110934   5.762   5.490   1.039
 3345SOL    HW210935   5.615   5.427   1.006
 3346SOL     OW10936   1.956   0.598   6.944
 3346SOL    HW110937   1.912   0.590   0.014
 3346SOL    HW210938   1.963   0.695   6.920
 3347SOL     OW10939   0.566   3.804   5.594
 3347SOL    HW110940   0.516   3.719   5.581
 3347SOL    HW210941   0.519   3.862   5.661
 3348SOL     OW10942   3.654   4.231   5.916
 3348SOL    HW110943   3.664   4.299   5.843
 3348SOL    HW210944   3.744   4.201   5.947
 3349SOL     OW10945   2.153   5.786   2.382
 3349SOL    HW110946   2.209   5.704   2.382
 3349SOL    HW210947   2.111   5.798   2.292
 3350SOL     OW10948   1.678   5.014   4.639
 3350SOL    HW110949   1.647   5.085   4.702
 3350SOL    HW210950   1.599   4.964   4.604
 3351SOL     OW10951   5.714   1.027   2.049
 3351SOL    HW110952   5.784   0.976   2.100
 3351SOL    HW210953   5.648   1.066   2.113
 3352SOL     OW10954   5.690   1.735   6.911
 3352SOL    HW110955   5.649   1.644   6.906
 3352SOL    HW210956   5.765   1.734   6.978
 3353SOL     OW10957   3.821   0.344   0.008
 3353SOL    HW110958   3.732   0.377   0.041
 3353SOL    HW210959   3.828   0.361   6.929
 3354SOL     OW10960   2.812   4.039   6.805
 3354SOL    HW110961   2.834   4.128   6.844
 3354SOL    HW210962   2.718   4.014   6.829
 3355SOL     OW10963   1.181   0.365   5.032
 3355SOL    HW110964   1.249   0.407   4.972
 3355SOL    HW210965   1.089   0.390   5.001
 3356SOL     OW10966   1.987   0.693   6.374
 3356SOL    HW110967   2.010   0.672   6.279
 3356SOL    HW210968   1.943   0.614   6.416
 3357SOL     OW10969   3.260   2.954   2.826
 3357SOL    HW110970   3.241   2.863   2.863
 3357SOL    HW210971   3.287   3.015   2.901
 3358SOL     OW10972   0.001   1.192   2.070
 3358SOL    HW110973   0.009   1.283   2.109
 3358SOL    HW210974   0.007   1.198   1.970
 3359SOL     OW10975   0.966   6.252   5.082
 3359SOL    HW110976   0.921   6.341   5.088
 3359SOL    HW210977   1.061   6.264   5.052
 3360SOL     OW10978   2.041   4.888   4.043
 3360SOL    HW110979   1.997   4.901   4.131
 3360SOL    HW210980   2.002   4.951   3.976
 3361SOL     OW10981   6.792   6.795   5.580
 3361SOL    HW110982   6.719   6.728   5.564
 3361SOL    HW210983   6.791   6.823   5.676
 3362SOL     OW10984   3.717   0.469   3.901
 3362SOL    HW110985   3.773   0.510   3.973
 3362SOL    HW210986   3.634   0.429   3.940
 3363SOL     OW10987   5.576   4.310   0.345
 3363SOL    HW110988   5.523   4.312   0.260
 3363SOL    HW210989   5.665   4.353   0.330
 3364SOL     OW10990   1.494   3.502   2.225
 3364SOL    HW110991   1.400   3.497   2.190
 3364SOL    HW210992   1.514   3.595   2.254
 3365SOL     OW10993   0.935   3.482   3.246
 3365SOL    HW110994   0.853   3.539   3.252
 3365SOL    HW210995   0.925   3.417   3.171
 3366SOL     OW10996   5.863   3.128   4.699
 3366SOL    HW110997   5.910   3.207   4.738
 3366SOL    HW210998   5.928   3.054   4.683
 3367SOL     OW10999   3.179   2.988   3.624
 3367SOL    HW111000   3.165   3.070   3.567
 3367SOL    HW211001   3.129   2.998   3.710
 3368SOL     OW11002   2.757   0.925   2.767
 3368SOL    HW111003   2.820   0.988   2.722
 3368SOL    HW211004   2.716   0.969   2.847
 3369SOL     OW11005   4.899   2.625   1.019
 3369SOL    HW111006   4.915   2.542   1.073
 3369SOL    HW211007   4.801   2.642   1.013
 3370SOL     OW11008   0.131   5.491   2.620
 3370SOL    HW111009   0.122   5.396   2.590
 3370SOL    HW211010   0.110   5.552   2.544
 3371SOL     OW11011   1.995   2.964   1.597
 3371SOL    HW111012   2.051   3.004   1.669
 3371SOL    HW211013   2.030   2.991   1.507
 3372SOL     OW11014   6.035   3.640   2.934
 3372SOL    HW111015   6.038   3.547   2.896
 3372SOL    HW211016   5.997   3.702   2.865
 3373SOL     OW11017   0.067   4.253   1.932
 3373SOL    HW111018   0.122   4.300   1.862
 3373SOL    HW211019   0.123   4.182   1.976
 3374SOL     OW11020   0.521   6.312   3.884
 3374SOL    HW111021   0.514   6.353   3.793
 3374SOL    HW211022   0.589   6.239   3.882
 3375SOL     OW11023   0.264   5.846   6.104
 3375SOL    HW111024   0.324   5.921   6.133
 3375SOL    HW211025   0.176   5.853   6.152
 3376SOL     OW11026   3.521   2.984   4.342
 3376SOL    HW111027   3.579   2.923   4.396
 3376SOL    HW211028   3.518   3.074   4.384
 3377SOL     OW11029   0.159   5.340   4.449
 3377SOL    HW111030   0.174   5.245   4.422
 3377SOL    HW211031   0.194   5.354   4.542
 3378SOL     OW11032   1.629   6.085   1.211
 3378SOL    HW111033   1.666   6.145   1.139
 3378SOL    HW211034   1.622   5.992   1.176
 3379SOL     OW11035   6.259   3.753   4.489
 3379SOL    HW111036   6.270   3.789   4.582
 3379SOL    HW211037   6.326   3.796   4.429
 3380SOL     OW11038   2.465   4.633   0.742
 3380SOL    HW111039   2.516   4.599   0.821
 3380SOL    HW211040   2.452   4.559   0.677
 3381SOL     OW11041   2.497   3.713   5.920
 3381SOL    HW111042   2.451   3.659   5.849
 3381SOL    HW211043   2.445   3.796   5.938
 3382SOL     OW11044   6.805   3.811   0.089
 3382SOL    HW111045   6.812   3.910   0.080
 3382SOL    HW211046   6.711   3.785   0.111
 3383SOL     OW11047   4.293   5.451   6.914
 3383SOL    HW111048   4.284   5.480   7.009
 3383SOL    HW211049   4.210   5.400   6.887
 3384SOL     OW11050   2.693   3.105   6.354
 3384SOL    HW111051   2.756   3.182   6.349
 3384SOL    HW211052   2.599   3.138   6.346
 3385SOL     OW11053   6.409   2.118   4.106
 3385SOL    HW111054   6.467   2.177   4.049
 3385SOL    HW211055   6.464   2.078   4.179
 3386SOL     OW11056   0.114   5.947   4.514
 3386SOL    HW111057   0.085   5.889   4.590
 3386SOL    HW211058   0.155   5.891   4.442
 3387SOL     OW11059   5.980   0.823   2.912
 3387SOL    HW111060   5.994   0.775   2.999
 3387SOL    HW211061   5.884   0.851   2.905
 3388SOL     OW11062   6.714   4.249   1.077
 3388SOL    HW111063   6.763   4.162   1.077
 3388SOL    HW211064   6.626   4.237   1.031
 3389SOL     OW11065   5.733   5.727   6.486
 3389SOL    HW111066   5.684   5.672   6.419
 3389SOL    HW211067   5.829   5.702   6.486
 3390SOL     OW11068   3.183   5.388   0.008
 3390SOL    HW111069   3.129   5.388   6.944
 3390SOL    HW211070   3.132   5.435   0.080
 3391SOL     OW11071   4.740   4.219   4.898
 3391SOL    HW111072   4.817   4.251   4.842
 3391SOL    HW211073   4.671   4.177   4.839
 3392SOL     OW11074   4.599   6.565   6.208
 3392SOL    HW111075   4.618   6.652   6.253
 3392SOL    HW211076   4.679   6.505   6.216
 3393SOL     OW11077   3.584   6.025   0.681
 3393SOL    HW111078   3.632   5.990   0.601
 3393SOL    HW211079   3.492   6.053   0.655
 3394SOL     OW11080   3.275   5.365   1.274
 3394SOL    HW111081   3.329   5.281   1.268
 3394SOL    HW211082   3.306   5.419   1.352
 3395SOL     OW11083   1.843   6.921   2.800
 3395SOL    HW111084   1.827   6.848   2.867
 3395SOL    HW211085   1.909   6.986   2.838
 3396SOL     OW11086   4.663   0.013   4.185
 3396SOL    HW111087   4.667   7.011   4.087
 3396SOL    HW211088   4.691   6.953   4.238
 3397SOL     OW11089   2.492   5.632   6.661
 3397SOL    HW111090   2.550   5.675   6.591
 3397SOL    HW211091   2.491   5.533   6.646
 3398SOL     OW11092   0.039   1.768   5.760
 3398SOL    HW111093   0.113   1.705   5.736
 3398SOL    HW211094   0.012   1.819   5.678
 3399SOL     OW11095   6.656   6.090   2.204
 3399SOL    HW111096   6.560   6.073   2.228
 3399SOL    HW211097   6.691   6.166   2.259
 3400SOL     OW11098   3.792   3.071   5.720
 3400SOL    HW111099   3.789   3.051   5.818
 3400SOL    HW211100   3.709   3.120   5.693
 3401SOL     OW11101   0.128   3.716   4.184
 3401SOL    HW111102   0.028   3.712   4.183
 3401SOL    HW211103   0.160   3.737   4.277
 3402SOL     OW11104   6.419   3.677   0.924
 3402SOL    HW111105   6.390   3.583   0.941
 3402SOL    HW211106   6.478   3.680   0.843
 3403SOL     OW11107   5.162   0.093   6.783
 3403SOL    HW111108   5.104   0.088   6.701
 3403SOL    HW211109   5.176   0.001   6.819
 3404SOL     OW11110   5.037   5.288   3.853
 3404SOL    HW111111   5.110   5.355   3.866
 3404SOL    HW211112   5.045   5.247   3.762
 3405SOL     OW11113   4.194   5.966   6.843
 3405SOL    HW111114   4.287   5.970   6.880
 3405SOL    HW211115   4.150   5.881   6.872
 3406SOL     OW11116   3.142   5.567   1.132
 3406SOL    HW111117   3.179   5.480   1.165
 3406SOL    HW211118   3.089   5.611   1.205
 3407SOL     OW11119   1.214   3.883   6.703
 3407SOL    HW111120   1.134   3.943   6.704
 3407SOL    HW211121   1.187   3.793   6.670
 3408SOL     OW11122   4.637   0.051   3.373
 3408SOL    HW111123   4.544   0.040   3.336
 3408SOL    HW211124   4.631   0.083   3.467
 3409SOL     OW11125   4.059   1.229   0.037
 3409SOL    HW111126   4.128   1.291   0.000
 3409SOL    HW211127   3.969   1.256   0.002
 3410SOL     OW11128   6.430   0.575   3.239
 3410SOL    HW111129   6.354   0.532   3.191
 3410SOL    HW211130   6.479   0.506   3.293
 3411SOL     OW11131   6.263   3.193   5.516
 3411SOL    HW111132   6.325   3.119   5.490
 3411SOL    HW211133   6.256   3.259   5.441
 3412SOL     OW11134   5.621   3.520   2.567
 3412SOL    HW111135   5.719   3.516   2.550
 3412SOL    HW211136   5.576   3.444   2.520
 3413SOL     OW11137   6.412   1.567   0.670
 3413SOL    HW111138   6.438   1.496   0.736
 3413SOL    HW211139   6.333   1.617   0.705
 3414SOL     OW11140   3.418   3.525   1.863
 3414SOL    HW111141   3.391   3.430   1.849
 3414SOL    HW211142   3.401   3.551   1.958
 3415SOL     OW11143   2.275   1.696   5.694
 3415SOL    HW111144   2.210   1.623   5.675
 3415SOL    HW211145   2.300   1.695   5.791
 3416SOL     OW11146   6.317   6.986   6.861
 3416SOL    HW111147   6.385   0.018   6.809
 3416SOL    HW211148   6.301   6.898   6.816
 3417SOL     OW11149   6.577   6.978   2.922
 3417SOL    HW111150   6.607   6.933   2.837
 3417SOL    HW211151   6.653   6.981   2.986
 3418SOL     OW11152   4.133   5.574   0.430
 3418SOL    HW111153   4.097   5.667   0.418
 3418SOL    HW211154   4.149   5.557   0.527
 3419SOL     OW11155   2.474   4.723   5.080
 3419SOL    HW111156   2.414   4.801   5.097
 3419SOL    HW211157   2.541   4.747   5.010
 3420SOL     OW11158   4.344   1.319   2.354
 3420SOL    HW111159   4.443   1.307   2.356
 3420SOL    HW211160   4.320   1.384   2.282
 3421SOL     OW11161   0.100   1.713   5.305
 3421SOL    HW111162   0.155   1.632   5.324
 3421SOL    HW211163   0.005   1.686   5.287
 3422SOL     OW11164   2.982   6.646   0.891
 3422SOL    HW111165   2.901   6.694   0.926
 3422SOL    HW211166   3.044   6.625   0.966
 3423SOL     OW11167   2.733   4.486   5.560
 3423SOL    HW111168   2.739   4.506   5.463
 3423SOL    HW211169   2.731   4.386   5.573
 3424SOL     OW11170   5.111   0.775   2.312
 3424SOL    HW111171   5.107   0.846   2.242
 3424SOL    HW211172   5.154   0.812   2.395
 3425SOL     OW11173   6.369   3.504   5.968
 3425SOL    HW111174   6.367   3.604   5.973
 3425SOL    HW211175   6.406   3.477   5.879
 3426SOL     OW11176   6.330   4.105   0.082
 3426SOL    HW111177   6.321   4.183   0.143
 3426SOL    HW211178   6.339   4.136   7.008
 3427SOL     OW11179   1.687   1.987   0.142
 3427SOL    HW111180   1.720   1.933   0.065
 3427SOL    HW211181   1.765   2.019   0.196
 3428SOL     OW11182   4.823   6.924   4.900
 3428SOL    HW111183   4.901   6.974   4.862
 3428SOL    HW211184   4.828   6.828   4.873
 3429SOL     OW11185   4.456   6.885   1.163
 3429SOL    HW111186   4.504   6.962   1.122
 3429SOL    HW211187   4.458   6.807   1.100
 3430SOL     OW11188   2.613   4.168   6.319
 3430SOL    HW111189   2.566   4.225   6.387
 3430SOL    HW211190   2.591   4.200   6.227
 3431SOL     OW11191   0.652   4.564   2.641
 3431SOL    HW111192   0.664   4.465   2.631
 3431SOL    HW211193   0.633   4.604   2.551
 3432SOL     OW11194   0.433   4.671   0.493
 3432SOL    HW111195   0.526   4.641   0.470
 3432SOL    HW211196   0.427   4.770   0.484
 3433SOL     OW11197   1.869   0.596   0.187
 3433SOL    HW111198   1.942   0.571   0.250
 3433SOL    HW211199   1.801   0.653   0.233
 3434SOL     OW11200   3.634   2.570   1.735
 3434SOL    HW111201   3.674   2.644   1.790
 3434SOL    HW211202   3.663   2.482   1.773
 3435SOL     OW11203   1.796   2.405   1.131
 3435SOL    HW111204   1.779   2.432   1.226
 3435SOL    HW211205   1.894   2.405   1.114
 3436SOL     OW11206   3.673   6.849   6.327
 3436SOL    HW111207   3.649   6.773   6.268
 3436SOL    HW211208   3.633   6.835   6.418
 3437SOL     OW11209   1.545   6.954   0.180
 3437SOL    HW111210   1.449   6.929   0.169
 3437SOL    HW211211   1.601   6.871   0.182
 3438SOL     OW11212   2.476   4.079   0.625
 3438SOL    HW111213   2.393   4.053   0.576
 3438SOL    HW211214   2.464   4.168   0.667
 3439SOL     OW11215   2.752   6.070   0.280
 3439SOL    HW111216   2.683   6.004   0.310
 3439SOL    HW211217   2.801   6.106   0.359
 3440SOL     OW11218   3.493   3.529   5.542
 3440SOL    HW111219   3.472   3.446   5.491
 3440SOL    HW211220   3.466   3.518   5.638
 3441SOL     OW11221   6.546   4.746   4.668
 3441SOL    HW111222   6.545   4.838   4.629
 3441SOL    HW211223   6.464   4.734   4.725
 3442SOL     OW11224   1.720   2.965   1.014
 3442SOL    HW111225   1.780   2.950   0.936
 3442SOL    HW211226   1.740   2.898   1.085
 3443SOL     OW11227   0.515   5.922   2.371
 3443SOL    HW111228   0.614   5.905   2.364
 3443SOL    HW211229   0.495   5.965   2.459
 3444SOL     OW11230   6.621   3.722   5.685
 3444SOL    HW111231   6.713   3.703   5.650
 3444SOL    HW211232   6.628   3.762   5.776
 3445SOL     OW11233   6.150   4.442   4.431
 3445SOL    HW111234   6.197   4.357   4.457
 3445SOL    HW211235   6.208   4.495   4.369
 3446SOL     OW11236   4.792   1.454   0.897
 3446SOL    HW111237   4.693   1.446   0.903
 3446SOL    HW211238   4.816   1.528   0.834
 3447SOL     OW11239   5.776   0.925   6.493
 3447SOL    HW111240   5.680   0.913   6.467
 3447SOL    HW211241   5.832   0.936   6.410
 3448SOL     OW11242   0.891   4.509   4.875
 3448SOL    HW111243   0.854   4.518   4.782
 3448SOL    HW211244   0.825   4.462   4.933
 3449SOL     OW11245   0.590   4.210   5.476
 3449SOL    HW111246   0.563   4.295   5.521
 3449SOL    HW211247   0.539   4.134   5.515
 3450SOL     OW11248   2.392   0.026   2.157
 3450SOL    HW111249   2.323   7.017   2.224
 3450SOL    HW211250   2.357   0.010   2.065
 3451SOL     OW11251   1.639   2.157   0.856
 3451SOL    HW111252   1.725   2.108   0.864
 3451SOL    HW211253   1.614   2.165   0.759
 3452SOL     OW11254   4.297   1.380   5.424
 3452SOL    HW111255   4.290   1.392   5.523
 3452SOL    HW211256   4.326   1.286   5.404
 3453SOL     OW11257   4.272   6.618   6.843
 3453SOL    HW111258   4.314   6.552   6.782
 3453SOL    HW211259   4.197   6.574   6.893
 3454SOL     OW11260   0.204   3.143   1.981
 3454SOL    HW111261   0.124   3.171   2.034
 3454SOL    HW211262   0.228   3.216   1.917
 3455SOL     OW11263   0.474   3.894   6.272
 3455SOL    HW111264   0.463   3.794   6.279
 3455SOL    HW211265   0.405   3.930   6.209
 3456SOL     OW11266   4.849   5.614   3.900
 3456SOL    HW111267   4.793   5.598   3.819
 3456SOL    HW211268   4.931   5.557   3.895
 3457SOL     OW11269   3.843   4.414   6.759
 3457SOL    HW111270   3.829   4.463   6.844
 3457SOL    HW211271   3.755   4.399   6.713
 3458SOL     OW11272   4.105   1.839   2.393
 3458SOL    HW111273   4.096   1.744   2.360
 3458SOL    HW211274   4.014   1.879   2.401
 3459SOL     OW11275   5.411   5.955   2.008
 3459SOL    HW111276   5.314   5.948   2.027
 3459SOL    HW211277   5.426   5.948   1.909
 3460SOL     OW11278   3.759   1.893   4.891
 3460SOL    HW111279   3.788   1.805   4.928
 3460SOL    HW211280   3.839   1.951   4.876
 3461SOL     OW11281   4.856   5.412   4.136
 3461SOL    HW111282   4.806   5.325   4.133
 3461SOL    HW211283   4.796   5.487   4.108
 3462SOL     OW11284   0.733   4.164   6.205
 3462SOL    HW111285   0.782   4.122   6.282
 3462SOL    HW211286   0.696   4.092   6.146
 3463SOL     OW11287   5.402   3.646   0.434
 3463SOL    HW111288   5.397   3.675   0.338
 3463SOL    HW211289   5.465   3.705   0.483
 3464SOL     OW11290   0.185   4.503   4.303
 3464SOL    HW111291   0.241   4.470   4.228
 3464SOL    HW211292   0.238   4.566   4.360
 3465SOL     OW11293   0.851   2.224   2.508
 3465SOL    HW111294   0.878   2.206   2.602
 3465SOL    HW211295   0.847   2.138   2.457
 3466SOL     OW11296   0.030   3.488   4.412
 3466SOL    HW111297   6.984   3.562   4.400
 3466SOL    HW211298   7.003   3.406   4.445
 3467SOL     OW11299   1.785   2.344   5.306
 3467SOL    HW111300   1.786   2.377   5.400
 3467SOL    HW211301   1.773   2.244   5.306
 3468SOL     OW11302   4.424   6.439   2.286
 3468SOL    HW111303   4.401   6.457   2.381
 3468SOL    HW211304   4.341   6.439   2.230
 3469SOL     OW11305   5.509   3.824   1.090
 3469SOL    HW111306   5.507   3.892   1.017
 3469SOL    HW211307   5.497   3.870   1.179
 3470SOL     OW11308   0.229   5.308   1.292
 3470SOL    HW111309   0.239   5.257   1.206
 3470SOL    HW211310   0.238   5.405   1.274
 3471SOL     OW11311   4.232   6.779   4.596
 3471SOL    HW111312   4.210   6.869   4.634
 3471SOL    HW211313   4.328   6.778   4.567
 3472SOL     OW11314   4.674   1.142   4.780
 3472SOL    HW111315   4.663   1.054   4.826
 3472SOL    HW211316   4.755   1.139   4.721
 3473SOL     OW11317   3.860   0.160   4.039
 3473SOL    HW111318   3.852   0.251   4.080
 3473SOL    HW211319   3.846   0.090   4.109
 3474SOL     OW11320   4.857   4.537   1.131
 3474SOL    HW111321   4.869   4.565   1.036
 3474SOL    HW211322   4.922   4.464   1.153
 3475SOL     OW11323   1.691   6.095   5.131
 3475SOL    HW111324   1.776   6.142   5.103
 3475SOL    HW211325   1.712   6.000   5.154
 3476SOL     OW11326   4.427   1.905   4.950
 3476SOL    HW111327   4.390   1.975   5.011
 3476SOL    HW211328   4.504   1.859   4.994
 3477SOL     OW11329   4.394   5.837   1.490
 3477SOL    HW111330   4.342   5.919   1.469
 3477SOL    HW211331   4.492   5.858   1.486
 3478SOL     OW11332   4.221   4.240   0.136
 3478SOL    HW111333   4.188   4.305   0.069
 3478SOL    HW211334   4.217   4.147   0.098
 3479SOL     OW11335   1.489   0.407   1.433
 3479SOL    HW111336   1.415   0.340   1.433
 3479SOL    HW211337   1.552   0.387   1.357
 3480SOL     OW11338   0.902   6.956   4.188
 3480SOL    HW111339   0.932   6.861   4.179
 3480SOL    HW211340   0.931   6.992   4.277
 3481SOL     OW11341   1.676   6.157   0.017
 3481SOL    HW111342   1.718   6.113   6.957
 3481SOL    HW211343   1.642   6.247   7.011
 3482SOL     OW11344   0.897   2.467   2.379
 3482SOL    HW111345   0.925   2.460   2.283
 3482SOL    HW211346   0.857   2.380   2.409
 3483SOL     OW11347   3.616   1.946   0.552
 3483SOL    HW111348   3.560   2.012   0.502
 3483SOL    HW211349   3.696   1.993   0.589
 3484SOL     OW11350   4.114   3.414   3.585
 3484SOL    HW111351   4.044   3.465   3.535
 3484SOL    HW211352   4.200   3.416   3.534
 3485SOL     OW11353   6.585   1.883   4.983
 3485SOL    HW111354   6.652   1.850   4.916
 3485SOL    HW211355   6.517   1.940   4.937
 3486SOL     OW11356   4.960   0.597   2.528
 3486SOL    HW111357   4.937   0.635   2.439
 3486SOL    HW211358   4.976   0.672   2.593
 3487SOL     OW11359   0.483   0.943   0.707
 3487SOL    HW111360   0.424   0.967   0.630
 3487SOL    HW211361   0.444   0.980   0.791
 3488SOL     OW11362   6.482   3.638   4.046
 3488SOL    HW111363   6.460   3.540   4.051
 3488SOL    HW211364   6.581   3.651   4.048
 3489SOL     OW11365   2.360   5.280   0.587
 3489SOL    HW111366   2.394   5.216   0.656
 3489SOL    HW211367   2.272   5.317   0.616
 3490SOL     OW11368   4.524   3.324   1.002
 3490SOL    HW111369   4.453   3.388   1.028
 3490SOL    HW211370   4.487   3.257   0.937
 3491SOL     OW11371   0.362   3.195   5.771
 3491SOL    HW111372   0.301   3.266   5.734
 3491SOL    HW211373   0.441   3.185   5.712
 3492SOL     OW11374   5.882   4.578   6.916
 3492SOL    HW111375   5.949   4.630   6.864
 3492SOL    HW211376   5.849   4.501   6.861
 3493SOL     OW11377   6.876   4.974   1.785
 3493SOL    HW111378   6.819   5.014   1.857
 3493SOL    HW211379   6.838   4.886   1.757
 3494SOL     OW11380   2.761   6.790   0.983
 3494SOL    HW111381   2.676   6.751   0.948
 3494SOL    HW211382   2.741   6.857   1.054
 3495SOL     OW11383   5.956   3.882   0.122
 3495SOL    HW111384   6.010   3.938   0.185
 3495SOL    HW211385   5.999   3.883   0.032
 3496SOL     OW11386   0.755   4.743   0.718
 3496SOL    HW111387   0.798   4.705   0.800
 3496SOL    HW211388   0.756   4.675   0.645
 3497SOL     OW11389   4.500   6.322   4.563
 3497SOL    HW111390   4.566   6.247   4.554
 3497SOL    HW211391   4.514   6.368   4.651
 3498SOL     OW11392   1.250   1.766   0.864
 3498SOL    HW111393   1.280   1.692   0.804
 3498SOL    HW211394   1.328   1.823   0.888
 3499SOL     OW11395   0.203   4.212   4.304
 3499SOL    HW111396   0.245   4.263   4.379
 3499SOL    HW211397   0.149   4.275   4.247
 3500SOL     OW11398   6.211   3.436   0.674
 3500SOL    HW111399   6.174   3.526   0.651
 3500SOL    HW211400   6.267   3.443   0.756
 3501SOL     OW11401   0.890   3.799   3.109
 3501SOL    HW111402   0.944   3.761   3.034
 3501SOL    HW211403   0.947   3.860   3.164
 3502SOL     OW11404   0.952   5.096   1.860
 3502SOL    HW111405   0.866   5.070   1.903
 3502SOL    HW211406   1.018   5.121   1.931
 3503SOL     OW11407   3.433   6.807   3.742
 3503SOL    HW111408   3.490   6.739   3.697
 3503SOL    HW211409   3.489   6.884   3.772
 3504SOL     OW11410   2.324   2.813   2.855
 3504SOL    HW111411   2.341   2.777   2.947
 3504SOL    HW211412   2.404   2.865   2.825
 3505SOL     OW11413   4.221   6.073   4.935
 3505SOL    HW111414   4.171   6.148   4.893
 3505SOL    HW211415   4.319   6.088   4.924
 3506SOL     OW11416   5.758   4.962   2.622
 3506SOL    HW111417   5.758   5.036   2.554
 3506SOL    HW211418   5.845   4.914   2.618
 3507SOL     OW11419   0.186   0.481   6.362
 3507SOL    HW111420   0.275   0.523   6.379
 3507SOL    HW211421   0.162   0.490   6.266
 3508SOL     OW11422   5.986   4.042   6.759
 3508SOL    HW111423   6.054   3.975   6.792
 3508SOL    HW211424   6.032   4.113   6.706
 3509SOL     OW11425   5.908   0.449   0.316
 3509SOL    HW111426   5.859   0.501   0.385
 3509SOL    HW211427   5.878   0.353   0.318
 3510SOL     OW11428   2.278   2.665   2.313
 3510SOL    HW111429   2.361   2.627   2.354
 3510SOL    HW211430   2.219   2.591   2.282
 3511SOL     OW11431   0.697   1.190   5.112
 3511SOL    HW111432   0.693   1.223   5.017
 3511SOL    HW211433   0.780   1.135   5.124
 3512SOL     OW11434   3.070   2.849   1.350
 3512SOL    HW111435   3.061   2.766   1.295
 3512SOL    HW211436   2.986   2.903   1.342
 3513SOL     OW11437   5.104   4.483   1.321
 3513SOL    HW111438   5.080   4.419   1.248
 3513SOL    HW211439   5.039   4.473   1.396
 3514SOL     OW11440   1.541   6.953   1.831
 3514SOL    HW111441   1.526   6.890   1.754
 3514SOL    HW211442   1.587   0.015   1.798
 3515SOL     OW11443   3.711   6.230   3.694
 3515SOL    HW111444   3.744   6.225   3.600
 3515SOL    HW211445   3.782   6.196   3.756
 3516SOL     OW11446   2.171   1.171   0.469
 3516SOL    HW111447   2.166   1.192   0.371
 3516SOL    HW211448   2.264   1.187   0.501
 3517SOL     OW11449   0.887   0.481   6.511
 3517SOL    HW111450   0.923   0.572   6.529
 3517SOL    HW211451   0.864   0.472   6.414
 3518SOL     OW11452   4.678   3.398   5.620
 3518SOL    HW111453   4.582   3.394   5.649
 3518SOL    HW211454   4.718   3.485   5.648
 3519SOL     OW11455   3.271   6.764   0.494
 3519SOL    HW111456   3.206   6.779   0.568
 3519SOL    HW211457   3.249   6.824   0.417
 3520SOL     OW11458   3.924   4.841   1.300
 3520SOL    HW111459   3.830   4.844   1.266
 3520SOL    HW211460   3.987   4.832   1.222
 3521SOL     OW11461   5.880   2.558   6.070
 3521SOL    HW111462   5.811   2.530   6.004
 3521SOL    HW211463   5.854   2.645   6.111
 3522SOL     OW11464   2.743   0.575   0.753
 3522SOL    HW111465   2.696   0.500   0.799
 3522SOL    HW211466   2.839   0.549   0.738
 3523SOL     OW11467   2.644   4.569   5.292
 3523SOL    HW111468   2.601   4.646   5.245
 3523SOL    HW211469   2.736   4.554   5.256
 3524SOL     OW11470   2.032   0.244   1.851
 3524SOL    HW111471   2.038   0.154   1.894
 3524SOL    HW211472   1.963   0.299   1.899
 3525SOL     OW11473   1.607   3.938   2.737
 3525SOL    HW111474   1.591   3.850   2.693
 3525SOL    HW211475   1.702   3.943   2.768
 3526SOL     OW11476   4.138   6.779   3.493
 3526SOL    HW111477   4.057   6.724   3.513
 3526SOL    HW211478   4.120   6.874   3.520
 3527SOL     OW11479   5.309   3.105   6.255
 3527SOL    HW111480   5.345   3.032   6.196
 3527SOL    HW211481   5.368   3.114   6.335
 3528SOL     OW11482   1.277   0.045   4.663
 3528SOL    HW111483   1.313   0.102   4.737
 3528SOL    HW211484   1.341   6.990   4.645
 3529SOL     OW11485   4.012   6.561   0.036
 3529SOL    HW111486   4.035   6.636   0.097
 3529SOL    HW211487   4.090   6.499   0.028
 3530SOL     OW11488   1.835   6.669   2.632
 3530SOL    HW111489   1.766   6.733   2.666
 3530SOL    HW211490   1.926   6.699   2.663
 3531SOL     OW11491   5.165   4.389   6.615
 3531SOL    HW111492   5.189   4.326   6.689
 3531SOL    HW211493   5.137   4.477   6.654
 3532SOL     OW11494   1.765   6.611   0.727
 3532SOL    HW111495   1.857   6.571   0.727
 3532SOL    HW211496   1.766   6.696   0.779
 3533SOL     OW11497   1.525   1.377   3.973
 3533SOL    HW111498   1.433   1.396   3.939
 3533SOL    HW211499   1.527   1.390   4.073
 3534SOL     OW11500   5.385   0.804   5.322
 3534SOL    HW111501   5.289   0.779   5.313
 3534SOL    HW211502   5.432   0.789   5.235
 3535SOL     OW11503   4.838   6.262   6.715
 3535SOL    HW111504   4.777   6.215   6.652
 3535SOL    HW211505   4.789   6.283   6.800
 3536SOL     OW11506   0.879   3.860   2.731
 3536SOL    HW111507   0.821   3.802   2.674
 3536SOL    HW211508   0.974   3.827   2.726
 3537SOL     OW11509   2.709   4.189   1.007
 3537SOL    HW111510   2.669   4.099   1.023
 3537SOL    HW211511   2.706   4.242   1.092
 3538SOL     OW11512   4.180   1.091   3.377
 3538SOL    HW111513   4.176   1.056   3.283
 3538SOL    HW211514   4.248   1.041   3.429
 3539SOL     OW11515   5.458   6.119   6.199
 3539SOL    HW111516   5.442   6.032   6.245
 3539SOL    HW211517   5.445   6.194   6.264
 3540SOL     OW11518   2.660   4.884   6.003
 3540SOL    HW111519   2.743   4.828   6.003
 3540SOL    HW211520   2.643   4.920   5.911
 3541SOL     OW11521   1.506   2.674   1.686
 3541SOL    HW111522   1.513   2.772   1.706
 3541SOL    HW211523   1.597   2.637   1.668
 3542SOL     OW11524   6.309   1.617   6.805
 3542SOL    HW111525   6.335   1.654   6.894
 3542SOL    HW211526   6.254   1.685   6.756
 3543SOL     OW11527   0.517   1.982   3.701
 3543SOL    HW111528   0.537   1.981   3.799
 3543SOL    HW211529   0.583   1.924   3.653
 3544SOL     OW11530   3.056   4.054   6.976
 3544SOL    HW111531   3.154   4.045   6.961
 3544SOL    HW211532   3.007   4.025   6.893
 3545SOL     OW11533   4.116   0.021   0.392
 3545SOL    HW111534   4.049   6.975   0.357
 3545SOL    HW211535   4.079   0.066   0.473
 3546SOL     OW11536   6.566   4.275   1.832
 3546SOL    HW111537   6.643   4.253   1.892
 3546SOL    HW211538   6.593   4.260   1.737
 3547SOL     OW11539   1.105   4.139   4.849
 3547SOL    HW111540   1.155   4.053   4.851
 3547SOL    HW211541   1.140   4.197   4.776
 3548SOL     OW11542   5.853   6.969   6.153
 3548SOL    HW111543   5.862   6.870   6.139
 3548SOL    HW211544   5.756   6.995   6.146
 3549SOL     OW11545   2.348   6.206   6.881
 3549SOL    HW111546   2.338   6.257   6.967
 3549SOL    HW211547   2.346   6.270   6.804
 3550SOL     OW11548   5.462   1.213   5.502
 3550SOL    HW111549   5.476   1.141   5.570
 3550SOL    HW211550   5.525   1.288   5.520
 3551SOL     OW11551   5.152   1.930   4.784
 3551SOL    HW111552   5.089   1.908   4.709
 3551SOL    HW211553   5.203   2.012   4.761
 3552SOL     OW11554   6.490   0.215   3.798
 3552SOL    HW111555   6.427   0.137   3.799
 3552SOL    HW211556   6.446   0.294   3.841
 3553SOL     OW11557   5.909   6.052   6.878
 3553SOL    HW111558   5.971   6.039   6.955
 3553SOL    HW211559   5.953   6.111   6.810
 3554SOL     OW11560   4.983   4.573   0.116
 3554SOL    HW111561   4.885   4.575   0.135
 3554SOL    HW211562   5.005   4.491   0.063
 3555SOL     OW11563   3.054   1.667   5.137
 3555SOL    HW111564   3.154   1.663   5.139
 3555SOL    HW211565   3.017   1.581   5.172
 3556SOL     OW11566   5.654   1.069   0.878
 3556SOL    HW111567   5.732   1.132   0.880
 3556SOL    HW211568   5.574   1.116   0.843
 3557SOL     OW11569   5.348   6.874   1.582
 3557SOL    HW111570   5.335   6.866   1.680
 3557SOL    HW211571   5.422   6.939   1.563
 3558SOL     OW11572   3.505   5.652   2.450
 3558SOL    HW111573   3.602   5.629   2.448
 3558SOL    HW211574   3.453   5.581   2.401
 3559SOL     OW11575   4.438   6.495   6.616
 3559SOL    HW111576   4.418   6.538   6.528
 3559SOL    HW211577   4.491   6.558   6.673
 3560SOL     OW11578   1.130   5.673   4.244
 3560SOL    HW111579   1.107   5.743   4.312
 3560SOL    HW211580   1.146   5.585   4.291
 3561SOL     OW11581   4.522   3.394   5.360
 3561SOL    HW111582   4.573   3.406   5.445
 3561SOL    HW211583   4.562   3.453   5.289
 3562SOL     OW11584   3.114   1.513   0.410
 3562SOL    HW111585   3.179   1.544   0.480
 3562SOL    HW211586   3.032   1.571   0.413
 3563SOL     OW11587   6.478   2.396   6.183
 3563SOL    HW111588   6.577   2.404   6.172
 3563SOL    HW211589   6.433   2.477   6.145
 3564SOL     OW11590   6.301   3.802   2.620
 3564SOL    HW111591   6.292   3.714   2.574
 3564SOL    HW211592   6.218   3.856   2.607
 3565SOL     OW11593   4.802   5.835   5.986
 3565SOL    HW111594   4.775   5.916   6.038
 3565SOL    HW211595   4.740   5.825   5.907
 3566SOL     OW11596   1.325   1.017   5.099
 3566SOL    HW111597   1.361   1.091   5.042
 3566SOL    HW211598   1.307   1.051   5.191
 3567SOL     OW11599   0.093   3.730   6.851
 3567SOL    HW111600   0.139   3.782   6.922
 3567SOL    HW211601   0.023   3.671   6.892
 3568SOL     OW11602   5.641   3.754   6.462
 3568SOL    HW111603   5.724   3.753   6.518
 3568SOL    HW211604   5.573   3.813   6.505
 3569SOL     OW11605   1.217   0.381   3.773
 3569SOL    HW111606   1.281   0.382   3.696
 3569SOL    HW211607   1.244   0.451   3.839
 3570SOL     OW11608   5.748   1.597   4.595
 3570SOL    HW111609   5.846   1.614   4.587
 3570SOL    HW211610   5.731   1.533   4.670
 3571SOL     OW11611   6.507   6.449   5.212
 3571SOL    HW111612   6.452   6.416   5.135
 3571SOL    HW211613   6.490   6.391   5.292
 3572SOL     OW11614   6.254   6.352   5.843
 3572SOL    HW111615   6.252   6.448   5.872
 3572SOL    HW211616   6.208   6.296   5.912
 3573SOL     OW11617   0.498   2.172   2.164
 3573SOL    HW111618   0.478   2.122   2.248
 3573SOL    HW211619   0.556   2.251   2.184
 3574SOL     OW11620   6.136   3.553   0.356
 3574SOL    HW111621   6.086   3.507   0.429
 3574SOL    HW211622   6.198   3.621   0.394
 3575SOL     OW11623   6.484   5.705   1.820
 3575SOL    HW111624   6.495   5.800   1.792
 3575SOL    HW211625   6.451   5.652   1.742
 3576SOL     OW11626   0.346   0.935   6.723
 3576SOL    HW111627   0.270   0.880   6.756
 3576SOL    HW211628   0.369   1.005   6.790
 3577SOL     OW11629   2.546   3.527   6.462
 3577SOL    HW111630   2.624   3.528   6.400
 3577SOL    HW211631   2.467   3.487   6.416
 3578SOL     OW11632   3.616   4.319   1.731
 3578SOL    HW111633   3.606   4.417   1.750
 3578SOL    HW211634   3.552   4.267   1.788
 3579SOL     OW11635   1.886   4.488   5.052
 3579SOL    HW111636   1.804   4.536   5.084
 3579SOL    HW211637   1.868   4.390   5.046
 3580SOL     OW11638   6.961   3.244   1.595
 3580SOL    HW111639   6.864   3.243   1.619
 3580SOL    HW211640   7.006   3.322   1.640
 3581SOL     OW11641   5.733   1.265   3.172
 3581SOL    HW111642   5.646   1.249   3.218
 3581SOL    HW211643   5.732   1.355   3.129
 3582SOL     OW11644   0.160   0.440   5.350
 3582SOL    HW111645   0.177   0.444   5.449
 3582SOL    HW211646   0.205   0.360   5.311
 3583SOL     OW11647   1.855   5.357   1.493
 3583SOL    HW111648   1.777   5.418   1.482
 3583SOL    HW211649   1.851   5.314   1.583
 3584SOL     OW11650   5.936   0.188   5.766
 3584SOL    HW111651   5.863   0.131   5.803
 3584SOL    HW211652   5.973   0.245   5.838
 3585SOL     OW11653   2.328   4.707   3.815
 3585SOL    HW111654   2.410   4.661   3.848
 3585SOL    HW211655   2.247   4.663   3.854
 3586SOL     OW11656   0.990   1.361   6.168
 3586SOL    HW111657   0.894   1.383   6.153
 3586SOL    HW211658   1.046   1.443   6.154
 3587SOL     OW11659   3.726   0.000   6.765
 3587SOL    HW111660   3.774   0.052   6.694
 3587SOL    HW211661   3.643   0.050   6.792
 3588SOL     OW11662   2.146   1.284   5.376
 3588SOL    HW111663   2.157   1.216   5.304
 3588SOL    HW211664   2.118   1.371   5.335
 3589SOL     OW11665   3.600   0.229   4.682
 3589SOL    HW111666   3.528   0.285   4.723
 3589SOL    HW211667   3.668   0.289   4.640
 3590SOL     OW11668   1.187   5.047   6.953
 3590SOL    HW111669   1.262   4.994   6.994
 3590SOL    HW211670   1.101   5.023   6.998
 3591SOL     OW11671   5.518   2.602   6.052
 3591SOL    HW111672   5.466   2.635   5.973
 3591SOL    HW211673   5.490   2.509   6.074
 3592SOL     OW11674   5.204   2.286   2.083
 3592SOL    HW111675   5.147   2.219   2.035
 3592SOL    HW211676   5.149   2.331   2.153
 3593SOL     OW11677   0.596   4.895   4.134
 3593SOL    HW111678   0.592   4.988   4.098
 3593SOL    HW211679   0.692   4.865   4.137
 3594SOL     OW11680   4.311   1.393   4.512
 3594SOL    HW111681   4.235   1.354   4.563
 3594SOL    HW211682   4.387   1.413   4.574
 3595SOL     OW11683   1.862   5.878   6.282
 3595SOL    HW111684   1.776   5.911   6.243
 3595SOL    HW211685   1.903   5.810   6.221
 3596SOL     OW11686   0.335   3.670   3.460
 3596SOL    HW111687   0.357   3.762   3.492
 3596SOL    HW211688   0.379   3.602   3.519
 3597SOL     OW11689   3.582   6.499   3.710
 3597SOL    HW111690   3.656   6.566   3.718
 3597SOL    HW211691   3.619   6.407   3.725
 3598SOL     OW11692   1.322   0.201   0.834
 3598SOL    HW111693   1.295   0.295   0.810
 3598SOL    HW211694   1.253   0.137   0.801
 3599SOL     OW11695   6.634   1.495   4.184
 3599SOL    HW111696   6.631   1.414   4.242
 3599SOL    HW211697   6.710   1.487   4.119
 3600SOL     OW11698   6.557   0.852   1.465
 3600SOL    HW111699   6.529   0.799   1.385
 3600SOL    HW211700   6.605   0.793   1.529
 3601SOL     OW11701   6.247   3.346   5.291
 3601SOL    HW111702   6.313   3.274   5.267
 3601SOL    HW211703   6.159   3.325   5.249
 3602SOL     OW11704   2.661   2.204   0.503
 3602SOL    HW111705   2.584   2.162   0.455
 3602SOL    HW211706   2.746   2.167   0.467
 3603SOL     OW11707   4.335   5.212   4.588
 3603SOL    HW111708   4.335   5.287   4.522
 3603SOL    HW211709   4.403   5.144   4.561
 3604SOL     OW11710   0.085   3.700   3.553
 3604SOL    HW111711   0.076   3.787   3.603
 3604SOL    HW211712   0.175   3.696   3.510
 3605SOL     OW11713   6.160   2.971   6.664
 3605SOL    HW111714   6.155   3.068   6.689
 3605SOL    HW211715   6.071   2.940   6.632
 3606SOL     OW11716   1.968   4.206   4.045
 3606SOL    HW111717   1.991   4.237   3.952
 3606SOL    HW211718   2.029   4.132   4.071
 3607SOL     OW11719   4.425   6.839   0.004
 3607SOL    HW111720   4.347   6.796   0.050
 3607SOL    HW211721   4.415   6.829   6.925
 3608SOL     OW11722   0.493   2.995   2.641
 3608SOL    HW111723   0.398   3.022   2.626
 3608SOL    HW211724   0.530   2.956   2.557
 3609SOL     OW11725   6.808   6.908   5.328
 3609SOL    HW111726   6.722   6.885   5.282
 3609SOL    HW211727   6.805   6.874   5.422
 3610SOL     OW11728   1.600   5.836   5.190
 3610SOL    HW111729   1.558   5.802   5.274
 3610SOL    HW211730   1.530   5.874   5.130
 3611SOL     OW11731   4.108   5.205   5.368
 3611SOL    HW111732   4.134   5.166   5.280
 3611SOL    HW211733   4.015   5.239   5.364
 3612SOL     OW11734   1.512   6.525   0.944
 3612SOL    HW111735   1.426   6.516   0.893
 3612SOL    HW211736   1.532   6.622   0.957
 3613SOL     OW11737   5.262   4.809   6.221
 3613SOL    HW111738   5.288   4.759   6.138
 3613SOL    HW211739   5.221   4.746   6.287
 3614SOL     OW11740   4.066   3.640   4.133
 3614SOL    HW111741   3.967   3.632   4.121
 3614SOL    HW211742   4.112   3.572   4.076
 3615SOL     OW11743   6.338   6.060   6.480
 3615SOL    HW111744   6.431   6.035   6.452
 3615SOL    HW211745   6.306   5.996   6.550
 3616SOL     OW11746   6.422   0.611   5.343
 3616SOL    HW111747   6.394   0.671   5.268
 3616SOL    HW211748   6.509   0.568   5.321
 3617SOL     OW11749   6.888   0.730   0.063
 3617SOL    HW111750   6.957   0.746   7.012
 3617SOL    HW211751   6.803   0.701   0.020
 3618SOL     OW11752   2.978   0.232   5.841
 3618SOL    HW111753   2.927   0.305   5.887
 3618SOL    HW211754   2.973   0.149   5.896
 3619SOL     OW11755   5.282   3.764   3.895
 3619SOL    HW111756   5.225   3.698   3.848
 3619SOL    HW211757   5.351   3.716   3.950
 3620SOL     OW11758   6.321   1.129   5.060
 3620SOL    HW111759   6.322   1.052   4.996
 3620SOL    HW211760   6.401   1.187   5.044
 3621SOL     OW11761   1.309   2.859   5.670
 3621SOL    HW111762   1.214   2.833   5.687
 3621SOL    HW211763   1.368   2.779   5.678
 3622SOL     OW11764   0.578   3.245   0.599
 3622SOL    HW111765   0.496   3.223   0.546
 3622SOL    HW211766   0.586   3.182   0.676
 3623SOL     OW11767   7.020   5.544   4.084
 3623SOL    HW111768   7.017   5.483   4.163
 3623SOL    HW211769   0.030   5.635   4.113
 3624SOL     OW11770   2.017   1.139   1.867
 3624SOL    HW111771   2.018   1.091   1.955
 3624SOL    HW211772   1.941   1.204   1.865
 3625SOL     OW11773   0.573   3.448   4.617
 3625SOL    HW111774   0.481   3.477   4.589
 3625SOL    HW211775   0.620   3.409   4.538
 3626SOL     OW11776   2.609   3.823   5.306
 3626SOL    HW111777   2.541   3.841   5.235
 3626SOL    HW211778   2.564   3.786   5.387
 3627SOL     OW11779   2.941   3.342   3.610
 3627SOL    HW111780   3.020   3.298   3.568
 3627SOL    HW211781   2.867   3.350   3.543
 3628SOL     OW11782   3.159   5.266   3.027
 3628SOL    HW111783   3.078   5.288   3.081
 3628SOL    HW211784   3.212   5.196   3.074
 3629SOL     OW11785   6.018   2.272   5.246
 3629SOL    HW111786   6.042   2.175   5.244
 3629SOL    HW211787   5.921   2.284   5.229
 3630SOL     OW11788   5.693   1.976   4.639
 3630SOL    HW111789   5.696   1.938   4.547
 3630SOL    HW211790   5.733   1.911   4.704
 3631SOL     OW11791   1.751   0.516   4.195
 3631SOL    HW111792   1.789   0.501   4.286
 3631SOL    HW211793   1.782   0.444   4.133
 3632SOL     OW11794   3.924   0.153   6.589
 3632SOL    HW111795   3.901   0.239   6.635
 3632SOL    HW211796   4.023   0.146   6.580
 3633SOL     OW11797   2.334   2.877   5.714
 3633SOL    HW111798   2.302   2.919   5.629
 3633SOL    HW211799   2.305   2.781   5.717
 3634SOL     OW11800   2.811   5.811   5.456
 3634SOL    HW111801   2.723   5.768   5.436
 3634SOL    HW211802   2.811   5.905   5.424
 3635SOL     OW11803   2.066   0.891   4.889
 3635SOL    HW111804   2.130   0.823   4.853
 3635SOL    HW211805   2.015   0.852   4.965
 3636SOL     OW11806   1.267   5.650   6.295
 3636SOL    HW111807   1.222   5.568   6.330
 3636SOL    HW211808   1.321   5.692   6.368
 3637SOL     OW11809   5.107   1.330   2.111
 3637SOL    HW111810   5.127   1.352   2.015
 3637SOL    HW211811   5.150   1.243   2.134
 3638SOL     OW11812   6.349   4.455   3.526
 3638SOL    HW111813   6.252   4.478   3.539
 3638SOL    HW211814   6.404   4.538   3.535
 3639SOL     OW11815   2.394   5.205   0.111
 3639SOL    HW111816   2.296   5.220   0.099
 3639SOL    HW211817   2.411   5.160   0.198
 3640SOL     OW11818   3.181   5.925   1.279
 3640SOL    HW111819   3.085   5.898   1.269
 3640SOL    HW211820   3.224   5.929   1.190
 3641SOL     OW11821   2.293   0.212   4.665
 3641SOL    HW111822   2.230   0.136   4.676
 3641SOL    HW211823   2.374   0.182   4.614
 3642SOL     OW11824   6.162   6.918   3.370
 3642SOL    HW111825   6.095   6.968   3.424
 3642SOL    HW211826   6.245   6.972   3.360
 3643SOL     OW11827   2.962   4.420   5.804
 3643SOL    HW111828   3.032   4.356   5.835
 3643SOL    HW211829   3.001   4.481   5.735
 3644SOL     OW11830   0.193   0.882   0.264
 3644SOL    HW111831   0.200   0.783   0.276
 3644SOL    HW211832   0.101   0.912   0.288
 3645SOL     OW11833   3.254   6.766   3.026
 3645SOL    HW111834   3.229   6.853   2.983
 3645SOL    HW211835   3.332   6.726   2.978
 3646SOL     OW11836   6.533   5.413   4.559
 3646SOL    HW111837   6.558   5.510   4.555
 3646SOL    HW211838   6.611   5.361   4.595
 3647SOL     OW11839   2.469   2.605   1.526
 3647SOL    HW111840   2.494   2.518   1.484
 3647SOL    HW211841   2.371   2.604   1.547
 3648SOL     OW11842   2.881   5.692   3.248
 3648SOL    HW111843   2.908   5.695   3.152
 3648SOL    HW211844   2.790   5.650   3.256
 3649SOL     OW11845   3.305   3.623   2.095
 3649SOL    HW111846   3.211   3.657   2.091
 3649SOL    HW211847   3.327   3.595   2.188
 3650SOL     OW11848   6.619   6.885   1.555
 3650SOL    HW111849   6.571   6.798   1.561
 3650SOL    HW211850   6.716   6.872   1.575
 3651SOL     OW11851   1.693   5.814   2.679
 3651SOL    HW111852   1.779   5.845   2.639
 3651SOL    HW211853   1.657   5.738   2.626
 3652SOL     OW11854   4.071   5.131   2.977
 3652SOL    HW111855   4.156   5.099   3.020
 3652SOL    HW211856   4.077   5.117   2.878
 3653SOL     OW11857   0.254   2.794   4.335
 3653SOL    HW111858   0.208   2.722   4.284
 3653SOL    HW211859   0.273   2.762   4.428
 3654SOL     OW11860   1.578   6.499   1.211
 3654SOL    HW111861   1.644   6.429   1.239
 3654SOL    HW211862   1.543   6.477   1.120
 3655SOL     OW11863   1.134   0.767   4.124
 3655SOL    HW111864   1.193   0.848   4.125
 3655SOL    HW211865   1.048   0.790   4.077
 3656SOL     OW11866   2.427   2.196   2.347
 3656SOL    HW111867   2.407   2.240   2.260
 3656SOL    HW211868   2.475   2.110   2.331
 3657SOL     OW11869   3.920   5.561   1.122
 3657SOL    HW111870   3.888   5.471   1.151
 3657SOL    HW211871   3.986   5.596   1.189
 3658SOL     OW11872   1.331   5.521   6.012
 3658SOL    HW111873   1.288   5.432   6.029
 3658SOL    HW211874   1.358   5.562   6.099
 3659SOL     OW11875   1.444   4.473   7.013
 3659SOL    HW111876   1.410   4.393   0.042
 3659SOL    HW211877   1.530   4.451   6.968
 3660SOL     OW11878   4.837   6.007   0.706
 3660SOL    HW111879   4.825   6.092   0.655
 3660SOL    HW211880   4.784   6.011   0.791
 3661SOL     OW11881   5.321   1.340   1.046
 3661SOL    HW111882   5.299   1.436   1.062
 3661SOL    HW211883   5.239   1.293   1.012
 3662SOL     OW11884   3.232   6.574   5.342
 3662SOL    HW111885   3.175   6.643   5.387
 3662SOL    HW211886   3.182   6.488   5.336
 3663SOL     OW11887   1.049   3.510   6.142
 3663SOL    HW111888   1.022   3.492   6.047
 3663SOL    HW211889   1.009   3.596   6.172
 3664SOL     OW11890   3.964   1.385   1.012
 3664SOL    HW111891   4.061   1.358   1.009
 3664SOL    HW211892   3.957   1.480   1.044
 3665SOL     OW11893   1.065   6.717   5.641
 3665SOL    HW111894   1.049   6.812   5.666
 3665SOL    HW211895   1.012   6.657   5.702
 3666SOL     OW11896   0.790   5.568   3.826
 3666SOL    HW111897   0.889   5.584   3.824
 3666SOL    HW211898   0.750   5.594   3.738
 3667SOL     OW11899   6.539   1.823   6.580
 3667SOL    HW111900   6.609   1.863   6.639
 3667SOL    HW211901   6.492   1.895   6.530
 3668SOL     OW11902   1.401   6.083   2.097
 3668SOL    HW111903   1.433   5.988   2.101
 3668SOL    HW211904   1.475   6.142   2.064
 3669SOL     OW11905   6.557   2.130   3.159
 3669SOL    HW111906   6.492   2.181   3.215
 3669SOL    HW211907   6.550   2.161   3.064
 3670SOL     OW11908   1.783   5.233   5.779
 3670SOL    HW111909   1.686   5.228   5.759
 3670SOL    HW211910   1.806   5.170   5.853
 3671SOL     OW11911   0.915   0.916   3.550
 3671SOL    HW111912   0.884   0.994   3.495
 3671SOL    HW211913   1.014   0.917   3.556
 3672SOL     OW11914   0.163   0.045   1.052
 3672SOL    HW111915   0.066   0.032   1.074
 3672SOL    HW211916   0.193   6.992   0.991
 3673SOL     OW11917   4.668   0.364   6.990
 3673SOL    HW111918   4.656   0.448   0.023
 3673SOL    HW211919   4.607   0.366   6.911
 3674SOL     OW11920   0.953   6.838   0.972
 3674SOL    HW111921   0.954   6.935   0.995
 3674SOL    HW211922   1.036   6.794   1.007
 3675SOL     OW11923   1.926   1.973   4.867
 3675SOL    HW111924   1.896   2.057   4.912
 3675SOL    HW211925   1.857   1.943   4.802
 3676SOL     OW11926   2.209   5.462   2.666
 3676SOL    HW111927   2.122   5.502   2.640
 3676SOL    HW211928   2.242   5.505   2.750
 3677SOL     OW11929   6.157   6.769   4.178
 3677SOL    HW111930   6.251   6.800   4.194
 3677SOL    HW211931   6.158   6.684   4.126
 3678SOL     OW11932   1.164   1.745   3.848
 3678SOL    HW111933   1.145   1.834   3.808
 3678SOL    HW211934   1.247   1.750   3.903
 3679SOL     OW11935   0.331   1.485   1.662
 3679SOL    HW111936   0.318   1.526   1.571
 3679SOL    HW211937   0.385   1.401   1.653
 3680SOL     OW11938   6.775   3.599   4.637
 3680SOL    HW111939   6.806   3.523   4.694
 3680SOL    HW211940   6.758   3.566   4.544
 3681SOL     OW11941   5.934   6.010   4.978
 3681SOL    HW111942   5.931   6.109   4.968
 3681SOL    HW211943   5.844   5.976   5.005
 3682SOL     OW11944   0.716   2.115   6.378
 3682SOL    HW111945   0.770   2.055   6.436
 3682SOL    HW211946   0.694   2.067   6.292
 3683SOL     OW11947   5.614   6.460   3.882
 3683SOL    HW111948   5.666   6.502   3.808
 3683SOL    HW211949   5.543   6.401   3.843
 3684SOL     OW11950   1.582   3.089   0.484
 3684SOL    HW111951   1.564   3.179   0.445
 3684SOL    HW211952   1.496   3.050   0.518
 3685SOL     OW11953   6.450   6.692   6.831
 3685SOL    HW111954   6.380   6.634   6.789
 3685SOL    HW211955   6.505   6.736   6.760
 3686SOL     OW11956   6.135   4.329   1.129
 3686SOL    HW111957   6.221   4.380   1.140
 3686SOL    HW211958   6.131   4.257   1.197
 3687SOL     OW11959   3.469   1.291   0.111
 3687SOL    HW111960   3.382   1.305   0.159
 3687SOL    HW211961   3.540   1.348   0.152
 3688SOL     OW11962   0.632   3.136   0.112
 3688SOL    HW111963   0.675   3.116   0.024
 3688SOL    HW211964   0.643   3.057   0.173
 3689SOL     OW11965   2.663   0.886   3.890
 3689SOL    HW111966   2.574   0.916   3.857
 3689SOL    HW211967   2.728   0.962   3.888
 3690SOL     OW11968   5.661   5.961   5.256
 3690SOL    HW111969   5.660   5.874   5.306
 3690SOL    HW211970   5.754   5.994   5.247
 3691SOL     OW11971   3.565   2.701   0.031
 3691SOL    HW111972   3.494   2.741   0.088
 3691SOL    HW211973   3.607   2.624   0.079
 3692SOL     OW11974   2.144   0.436   6.061
 3692SOL    HW111975   2.240   0.441   6.033
 3692SOL    HW211976   2.118   0.523   6.103
 3693SOL     OW11977   2.602   2.383   3.224
 3693SOL    HW111978   2.690   2.346   3.195
 3693SOL    HW211979   2.552   2.314   3.276
 3694SOL     OW11980   2.311   5.999   2.751
 3694SOL    HW111981   2.329   5.995   2.653
 3694SOL    HW211982   2.237   6.064   2.769
 3695SOL     OW11983   1.666   2.010   2.081
 3695SOL    HW111984   1.765   2.026   2.085
 3695SOL    HW211985   1.637   1.961   2.163
 3696SOL     OW11986   3.039   6.690   5.857
 3696SOL    HW111987   3.008   6.782   5.837
 3696SOL    HW211988   3.121   6.693   5.914
 3697SOL     OW11989   5.883   0.003   4.307
 3697SOL    HW111990   5.887   0.084   4.367
 3697SOL    HW211991   5.970   7.014   4.258
 3698SOL     OW11992   3.025   6.756   5.493
 3698SOL    HW111993   2.947   6.708   5.533
 3698SOL    HW211994   3.003   6.782   5.399
 3699SOL     OW11995   1.029   3.782   2.229
 3699SOL    HW111996   1.084   3.796   2.147
 3699SOL    HW211997   0.952   3.846   2.230
 3700SOL     OW11998   0.423   6.832   4.200
 3700SOL    HW111999   0.514   6.838   4.239
 3700SOL    HW212000   0.417   6.751   4.142
 3701SOL     OW12001   5.920   0.580   3.781
 3701SOL    HW112002   5.849   0.651   3.775
 3701SOL    HW212003   5.904   0.524   3.862
 3702SOL     OW12004   3.751   0.803   0.031
 3702SOL    HW112005   3.717   0.714   0.000
 3702SOL    HW212006   3.806   0.791   0.113
 3703SOL     OW12007   4.301   4.622   6.484
 3703SOL    HW112008   4.282   4.644   6.580
 3703SOL    HW212009   4.217   4.589   6.441
 3704SOL     OW12010   2.357   0.806   2.062
 3704SOL    HW112011   2.361   0.895   2.017
 3704SOL    HW212012   2.386   0.735   1.998
 3705SOL     OW12013   5.468   0.898   4.044
 3705SOL    HW112014   5.413   0.948   3.977
 3705SOL    HW212015   5.565   0.914   4.025
 3706SOL     OW12016   1.855   1.862   4.120
 3706SOL    HW112017   1.757   1.881   4.128
 3706SOL    HW212018   1.902   1.897   4.201
 3707SOL     OW12019   4.247   2.749   5.349
 3707SOL    HW112020   4.201   2.663   5.326
 3707SOL    HW212021   4.179   2.822   5.353
 3708SOL     OW12022   6.199   6.872   6.091
 3708SOL    HW112023   6.164   6.892   6.000
 3708SOL    HW212024   6.173   6.946   6.154
 3709SOL     OW12025   4.511   0.479   0.617
 3709SOL    HW112026   4.454   0.518   0.545
 3709SOL    HW212027   4.596   0.530   0.623
 3710SOL     OW12028   0.211   5.114   1.053
 3710SOL    HW112029   0.207   5.054   1.133
 3710SOL    HW212030   0.301   5.107   1.010
 3711SOL     OW12031   6.290   4.941   3.259
 3711SOL    HW112032   6.353   5.004   3.304
 3711SOL    HW212033   6.205   4.936   3.311
 3712SOL     OW12034   2.183   6.939   0.877
 3712SOL    HW112035   2.130   6.977   0.801
 3712SOL    HW212036   2.196   7.009   0.947
 3713SOL     OW12037   3.770   5.831   6.021
 3713SOL    HW112038   3.813   5.850   5.933
 3713SOL    HW212039   3.786   5.908   6.082
 3714SOL     OW12040   3.748   0.942   4.785
 3714SOL    HW112041   3.707   0.879   4.851
 3714SOL    HW212042   3.840   0.910   4.762
 3715SOL     OW12043   5.499   3.780   4.343
 3715SOL    HW112044   5.408   3.815   4.367
 3715SOL    HW212045   5.567   3.852   4.357
 3716SOL     OW12046   0.514   1.515   4.204
 3716SOL    HW112047   0.475   1.428   4.232
 3716SOL    HW212048   0.442   1.583   4.194
 3717SOL     OW12049   5.307   0.010   0.110
 3717SOL    HW112050   5.214   7.010   0.141
 3717SOL    HW212051   5.308   0.096   0.059
 3718SOL     OW12052   0.464   5.566   0.435
 3718SOL    HW112053   0.488   5.660   0.461
 3718SOL    HW212054   0.458   5.509   0.517
 3719SOL     OW12055   3.805   4.995   5.484
 3719SOL    HW112056   3.764   4.908   5.509
 3719SOL    HW212057   3.759   5.032   5.403
 3720SOL     OW12058   0.479   1.844   5.618
 3720SOL    HW112059   0.449   1.932   5.656
 3720SOL    HW212060   0.493   1.779   5.692
 3721SOL     OW12061   4.756   3.465   0.912
 3721SOL    HW112062   4.691   3.397   0.945
 3721SOL    HW212063   4.827   3.480   0.982
 3722SOL     OW12064   6.134   5.730   2.002
 3722SOL    HW112065   6.130   5.775   1.913
 3722SOL    HW212066   6.120   5.631   1.989
 3723SOL     OW12067   4.521   1.274   0.710
 3723SOL    HW112068   4.517   1.348   0.777
 3723SOL    HW212069   4.616   1.244   0.700
 3724SOL     OW12070   0.328   5.821   5.448
 3724SOL    HW112071   0.373   5.748   5.500
 3724SOL    HW212072   0.397   5.879   5.405
 3725SOL     OW12073   6.572   6.973   0.943
 3725SOL    HW112074   6.641   6.942   1.009
 3725SOL    HW212075   6.611   6.973   0.851
 3726SOL     OW12076   5.505   3.058   1.677
 3726SOL    HW112077   5.580   3.124   1.684
 3726SOL    HW212078   5.518   3.001   1.596
 3727SOL     OW12079   2.313   3.264   5.300
 3727SOL    HW112080   2.387   3.326   5.326
 3727SOL    HW212081   2.352   3.175   5.274
 3728SOL     OW12082   0.913   3.183   6.739
 3728SOL    HW112083   0.975   3.232   6.800
 3728SOL    HW212084   0.946   3.089   6.726
 3729SOL     OW12085   0.297   2.771   3.272
 3729SOL    HW112086   0.253   2.702   3.330
 3729SOL    HW212087   0.335   2.843   3.330
 3730SOL     OW12088   2.632   0.781   0.316
 3730SOL    HW112089   2.628   0.774   0.216
 3730SOL    HW212090   2.684   0.703   0.352
 3731SOL     OW12091   4.030   6.635   6.509
 3731SOL    HW112092   3.940   6.631   6.466
 3731SOL    HW212093   4.040   6.557   6.571
 3732SOL     OW12094   2.212   3.739   5.130
 3732SOL    HW112095   2.228   3.640   5.132
 3732SOL    HW212096   2.290   3.786   5.170
 3733SOL     OW12097   2.303   3.504   1.153
 3733SOL    HW112098   2.373   3.432   1.154
 3733SOL    HW212099   2.234   3.483   1.084
 3734SOL     OW12100   5.165   6.991   2.645
 3734SOL    HW112101   5.112   0.021   2.576
 3734SOL    HW212102   5.262   6.996   2.623
 3735SOL     OW12103   3.496   1.464   1.829
 3735SOL    HW112104   3.502   1.382   1.772
 3735SOL    HW212105   3.579   1.518   1.817
 3736SOL     OW12106   5.359   1.102   6.857
 3736SOL    HW112107   5.411   1.097   6.771
 3736SOL    HW212108   5.263   1.084   6.838
 3737SOL     OW12109   4.385   0.057   3.229
 3737SOL    HW112110   4.332   0.131   3.187
 3737SOL    HW212111   4.362   6.991   3.184
 3738SOL     OW12112   0.042   0.135   3.915
 3738SOL    HW112113   0.073   0.053   3.867
 3738SOL    HW212114   0.100   0.213   3.890
 3739SOL     OW12115   0.454   4.109   2.238
 3739SOL    HW112116   0.532   4.070   2.189
 3739SOL    HW212117   0.394   4.035   2.269
 3740SOL     OW12118   5.367   1.244   0.086
 3740SOL    HW112119   5.279   1.203   0.110
 3740SOL    HW212120   5.396   1.212   7.016
 3741SOL     OW12121   3.963   2.368   6.303
 3741SOL    HW112122   3.946   2.289   6.244
 3741SOL    HW212123   3.903   2.363   6.383
 3742SOL     OW12124   3.126   3.401   5.529
 3742SOL    HW112125   3.121   3.499   5.551
 3742SOL    HW212126   3.053   3.377   5.466
 3743SOL     OW12127   0.536   5.626   6.287
 3743SOL    HW112128   0.480   5.544   6.281
 3743SOL    HW212129   0.575   5.646   6.198
 3744SOL     OW12130   6.971   5.927   3.064
 3744SOL    HW112131   6.914   5.988   3.119
 3744SOL    HW212132   6.978   5.962   2.971
 3745SOL     OW12133   4.726   6.114   1.790
 3745SOL    HW112134   4.701   6.210   1.788
 3745SOL    HW212135   4.792   6.097   1.863
 3746SOL     OW12136   3.845   1.974   2.495
 3746SOL    HW112137   3.866   2.028   2.413
 3746SOL    HW212138   3.790   1.895   2.470
 3747SOL     OW12139   2.821   7.014   0.426
 3747SOL    HW112140   2.837   0.029   0.334
 3747SOL    HW212141   2.826   6.914   0.425
 3748SOL     OW12142   5.792   0.906   2.463
 3748SOL    HW112143   5.733   0.980   2.431
 3748SOL    HW212144   5.884   0.942   2.481
 3749SOL     OW12145   1.562   0.246   5.155
 3749SOL    HW112146   1.571   0.345   5.151
 3749SOL    HW212147   1.475   0.221   5.197
 3750SOL     OW12148   0.628   4.235   6.488
 3750SOL    HW112149   0.622   4.138   6.509
 3750SOL    HW212150   0.619   4.249   6.389
 3751SOL     OW12151   1.406   3.873   2.102
 3751SOL    HW112152   1.433   3.796   2.045
 3751SOL    HW212153   1.429   3.854   2.197
 3752SOL     OW12154   5.427   6.815   6.697
 3752SOL    HW112155   5.442   6.858   6.608
 3752SOL    HW212156   5.336   6.840   6.730
 3753SOL     OW12157   6.733   0.492   4.144
 3753SOL    HW112158   6.720   0.474   4.047
 3753SOL    HW212159   6.750   0.589   4.159
 3754SOL     OW12160   2.737   1.843   0.805
 3754SOL    HW112161   2.662   1.782   0.780
 3754SOL    HW212162   2.747   1.844   0.905
 3755SOL     OW12163   3.037   4.872   3.964
 3755SOL    HW112164   3.113   4.876   4.030
 3755SOL    HW212165   3.073   4.884   3.871
 3756SOL     OW12166   1.912   6.161   0.222
 3756SOL    HW112167   1.865   6.143   0.136
 3756SOL    HW212168   1.874   6.244   0.265
 3757SOL     OW12169   6.777   4.560   1.734
 3757SOL    HW112170   6.840   4.613   1.790
 3757SOL    HW212171   6.694   4.540   1.787
 3758SOL     OW12172   1.987   6.881   3.876
 3758SOL    HW112173   1.918   6.817   3.912
 3758SOL    HW212174   1.990   6.962   3.933
 3759SOL     OW12175   5.363   0.284   4.129
 3759SOL    HW112176   5.406   0.251   4.214
 3759SOL    HW212177   5.338   0.380   4.140
 3760SOL     OW12178   1.218   1.153   3.500
 3760SOL    HW112179   1.200   1.222   3.430
 3760SOL    HW212180   1.243   1.066   3.456
 3761SOL     OW12181   5.364   0.699   4.622
 3761SOL    HW112182   5.368   0.711   4.721
 3761SOL    HW212183   5.287   0.639   4.599
 3762SOL     OW12184   6.899   2.772   3.457
 3762SOL    HW112185   6.985   2.776   3.506
 3762SOL    HW212186   6.846   2.855   3.474
 3763SOL     OW12187   0.591   4.317   0.147
 3763SOL    HW112188   0.509   4.309   0.204
 3763SOL    HW212189   0.672   4.324   0.205
 3764SOL     OW12190   2.704   0.698   3.035
 3764SOL    HW112191   2.706   0.732   2.941
 3764SOL    HW212192   2.775   0.629   3.047
 3765SOL     OW12193   5.423   3.070   2.982
 3765SOL    HW112194   5.404   2.994   2.920
 3765SOL    HW212195   5.393   3.156   2.938
 3766SOL     OW12196   1.144   3.658   2.478
 3766SOL    HW112197   1.152   3.741   2.534
 3766SOL    HW212198   1.088   3.678   2.397
 3767SOL     OW12199   1.088   5.348   5.959
 3767SOL    HW112200   1.095   5.371   5.862
 3767SOL    HW212201   1.079   5.249   5.969
 3768SOL     OW12202   1.165   6.740   2.945
 3768SOL    HW112203   1.226   6.736   3.024
 3768SOL    HW212204   1.075   6.705   2.970
 3769SOL     OW12205   5.545   5.496   4.168
 3769SOL    HW112206   5.594   5.554   4.103
 3769SOL    HW212207   5.569   5.522   4.261
 3770SOL     OW12208   1.997   1.074   1.507
 3770SOL    HW112209   1.990   1.172   1.492
 3770SOL    HW212210   1.906   1.033   1.506
 3771SOL     OW12211   6.518   5.512   5.319
 3771SOL    HW112212   6.466   5.516   5.234
 3771SOL    HW212213   6.468   5.455   5.385
 3772SOL     OW12214   1.340   6.035   1.247
 3772SOL    HW112215   1.318   6.009   1.152
 3772SOL    HW212216   1.435   6.065   1.252
 3773SOL     OW12217   5.378   5.070   6.553
 3773SOL    HW112218   5.447   5.012   6.510
 3773SOL    HW212219   5.419   5.120   6.629
 3774SOL     OW12220   6.578   5.132   1.697
 3774SOL    HW112221   6.627   5.220   1.695
 3774SOL    HW212222   6.589   5.090   1.786
 3775SOL     OW12223   4.635   5.117   5.071
 3775SOL    HW112224   4.698   5.052   5.112
 3775SOL    HW212225   4.569   5.148   5.140
 3776SOL     OW12226   3.709   2.605   5.692
 3776SOL    HW112227   3.796   2.592   5.739
 3776SOL    HW212228   3.634   2.584   5.753
 3777SOL     OW12229   2.799   5.114   4.615
 3777SOL    HW112230   2.820   5.146   4.522
 3777SOL    HW212231   2.882   5.117   4.671
 3778SOL     OW12232   3.226   5.795   6.631
 3778SOL    HW112233   3.174   5.739   6.696
 3778SOL    HW212234   3.249   5.740   6.551
 3779SOL     OW12235   6.973   4.674   0.357
 3779SOL    HW112236   6.918   4.594   0.381
 3779SOL    HW212237   0.044   4.665   0.397
 3780SOL     OW12238   5.101   4.439   1.675
 3780SOL    HW112239   5.018   4.400   1.635
 3780SOL    HW212240   5.102   4.538   1.659
 3781SOL     OW12241   2.583   6.112   4.636
 3781SOL    HW112242   2.552   6.128   4.543
 3781SOL    HW212243   2.682   6.122   4.641
 3782SOL     OW12244   4.519   4.683   0.918
 3782SOL    HW112245   4.508   4.603   0.859
 3782SOL    HW212246   4.485   4.764   0.870
 3783SOL     OW12247   4.806   5.368   4.598
 3783SOL    HW112248   4.737   5.332   4.536
 3783SOL    HW212249   4.895   5.329   4.576
 3784SOL     OW12250   5.742   2.412   4.555
 3784SOL    HW112251   5.750   2.449   4.648
 3784SOL    HW212252   5.737   2.488   4.490
 3785SOL     OW12253   1.714   2.922   3.510
 3785SOL    HW112254   1.675   3.005   3.472
 3785SOL    HW212255   1.666   2.842   3.473
 3786SOL     OW12256   2.170   3.139   4.676
 3786SOL    HW112257   2.207   3.054   4.638
 3786SOL    HW212258   2.169   3.133   4.776
 3787SOL     OW12259   5.035   0.254   4.144
 3787SOL    HW112260   5.040   0.154   4.133
 3787SOL    HW212261   5.123   0.295   4.118
 3788SOL     OW12262   5.370   2.556   5.321
 3788SOL    HW112263   5.374   2.620   5.244
 3788SOL    HW212264   5.291   2.578   5.379
 3789SOL     OW12265   2.151   3.041   2.289
 3789SOL    HW112266   2.100   3.087   2.216
 3789SOL    HW212267   2.210   2.971   2.250
 3790SOL     OW12268   0.083   6.429   1.922
 3790SOL    HW112269   0.179   6.400   1.920
 3790SOL    HW212270   0.068   6.487   2.002
 3791SOL     OW12271   5.474   1.433   5.936
 3791SOL    HW112272   5.453   1.344   5.895
 3791SOL    HW212273   5.415   1.502   5.894
 3792SOL     OW12274   6.620   0.329   4.788
 3792SOL    HW112275   6.654   0.240   4.755
 3792SOL    HW212276   6.610   0.326   4.887
 3793SOL     OW12277   4.091   4.860   0.062
 3793SOL    HW112278   4.151   4.903   0.129
 3793SOL    HW212279   4.116   4.764   0.052
 3794SOL     OW12280   0.299   4.300   6.319
 3794SOL    HW112281   0.273   4.252   6.403
 3794SOL    HW212282   0.398   4.294   6.306
 3795SOL     OW12283   2.911   5.755   1.262
 3795SOL    HW112284   2.940   5.766   1.357
 3795SOL    HW212285   2.836   5.689   1.258
 3796SOL     OW12286   4.442   1.527   0.146
 3796SOL    HW112287   4.354   1.513   0.100
 3796SOL    HW212288   4.503   1.579   0.086
 3797SOL     OW12289   0.738   4.448   2.039
 3797SOL    HW112290   0.670   4.442   2.111
 3797SOL    HW212291   0.784   4.360   2.028
 3798SOL     OW12292   1.501   5.804   3.742
 3798SOL    HW112293   1.583   5.855   3.767
 3798SOL    HW212294   1.487   5.729   3.806
 3799SOL     OW12295   6.783   0.884   3.317
 3799SOL    HW112296   6.802   0.942   3.238
 3799SOL    HW212297   6.792   0.788   3.291
 3800SOL     OW12298   5.229   2.716   2.996
 3800SOL    HW112299   5.320   2.690   2.964
 3800SOL    HW212300   5.236   2.800   3.051
 3801SOL     OW12301   5.829   1.695   1.352
 3801SOL    HW112302   5.766   1.690   1.274
 3801SOL    HW212303   5.864   1.788   1.361
 3802SOL     OW12304   6.378   3.079   1.964
 3802SOL    HW112305   6.459   3.076   1.905
 3802SOL    HW212306   6.308   3.017   1.928
 3803SOL     OW12307   3.302   3.349   4.465
 3803SOL    HW112308   3.338   3.329   4.373
 3803SOL    HW212309   3.223   3.290   4.483
 3804SOL     OW12310   4.316   6.081   3.516
 3804SOL    HW112311   4.255   6.024   3.461
 3804SOL    HW212312   4.348   6.158   3.461
 3805SOL     OW12313   2.608   2.687   6.908
 3805SOL    HW112314   2.635   2.672   6.813
 3805SOL    HW212315   2.618   2.784   6.930
 3806SOL     OW12316   2.574   4.747   1.241
 3806SOL    HW112317   2.634   4.669   1.259
 3806SOL    HW212318   2.479   4.717   1.239
 3807SOL     OW12319   1.906   4.186   4.568
 3807SOL    HW112320   1.852   4.104   4.586
 3807SOL    HW212321   1.876   4.259   4.630
 3808SOL     OW12322   2.528   6.729   6.450
 3808SOL    HW112323   2.501   6.640   6.415
 3808SOL    HW212324   2.583   6.716   6.533
 3809SOL     OW12325   5.019   2.069   1.233
 3809SOL    HW112326   5.061   2.024   1.311
 3809SOL    HW212327   4.920   2.057   1.237
 3810SOL     OW12328   5.390   2.138   2.234
 3810SOL    HW112329   5.361   2.044   2.253
 3810SOL    HW212330   5.327   2.180   2.169
 3811SOL     OW12331   0.467   5.615   5.591
 3811SOL    HW112332   0.472   5.534   5.532
 3811SOL    HW212333   0.554   5.663   5.590
 3812SOL     OW12334   4.774   6.267   0.619
 3812SOL    HW112335   4.731   6.334   0.679
 3812SOL    HW212336   4.776   6.301   0.526
 3813SOL     OW12337   6.351   4.199   6.855
 3813SOL    HW112338   6.370   4.116   6.803
 3813SOL    HW212339   6.322   4.272   6.793
 3814SOL     OW12340   6.959   0.589   5.299
 3814SOL    HW112341   6.982   0.686   5.295
 3814SOL    HW212342   0.023   0.536   5.312
 3815SOL     OW12343   6.577   3.678   5.319
 3815SOL    HW112344   6.477   3.686   5.318
 3815SOL    HW212345   6.615   3.747   5.381
 3816SOL     OW12346   6.926   5.702   1.162
 3816SOL    HW112347   6.862   5.625   1.163
 3816SOL    HW212348   7.010   5.675   1.116
 3817SOL     OW12349   4.709   3.746   1.774
 3817SOL    HW112350   4.683   3.837   1.740
 3817SOL    HW212351   4.781   3.755   1.843
 3818SOL     OW12352   5.646   6.173   2.682
 3818SOL    HW112353   5.742   6.165   2.710
 3818SOL    HW212354   5.609   6.260   2.715
 3819SOL     OW12355   6.316   4.224   3.697
 3819SOL    HW112356   6.317   4.288   3.620
 3819SOL    HW212357   6.398   4.167   3.693
 3820SOL     OW12358   2.439   6.141   4.180
 3820SOL    HW112359   2.432   6.054   4.132
 3820SOL    HW212360   2.525   6.186   4.157
 3821SOL     OW12361   1.783   0.293   0.043
 3821SOL    HW112362   1.696   0.262   0.081
 3821SOL    HW212363   1.809   0.379   0.087
 3822SOL     OW12364   4.677   0.137   2.294
 3822SOL    HW112365   4.755   0.199   2.296
 3822SOL    HW212366   4.598   0.180   2.337
 3823SOL     OW12367   5.618   6.069   6.489
 3823SOL    HW112368   5.680   6.144   6.466
 3823SOL    HW212369   5.603   6.067   6.588
 3824SOL     OW12370   2.569   3.199   0.194
 3824SOL    HW112371   2.598   3.227   0.103
 3824SOL    HW212372   2.551   3.101   0.196
 3825SOL     OW12373   0.966   4.382   5.215
 3825SOL    HW112374   0.987   4.329   5.297
 3825SOL    HW212375   0.877   4.353   5.178
 3826SOL     OW12376   5.284   4.382   3.868
 3826SOL    HW112377   5.328   4.393   3.957
 3826SOL    HW212378   5.351   4.354   3.800
 3827SOL     OW12379   0.644   1.925   0.983
 3827SOL    HW112380   0.672   2.014   0.946
 3827SOL    HW212381   0.715   1.857   0.962
 3828SOL     OW12382   3.659   3.552   3.850
 3828SOL    HW112383   3.690   3.483   3.916
 3828SOL    HW212384   3.733   3.617   3.833
 3829SOL     OW12385   0.881   3.556   2.301
 3829SOL    HW112386   0.786   3.588   2.304
 3829SOL    HW212387   0.941   3.633   2.283
 3830SOL     OW12388   5.676   0.731   3.760
 3830SOL    HW112389   5.629   0.716   3.847
 3830SOL    HW212390   5.617   0.702   3.685
 3831SOL     OW12391   5.351   2.149   3.947
 3831SOL    HW112392   5.264   2.106   3.971
 3831SOL    HW212393   5.345   2.186   3.854
 3832SOL     OW12394   6.429   0.851   3.630
 3832SOL    HW112395   6.450   0.806   3.544
 3832SOL    HW212396   6.345   0.904   3.620
 3833SOL     OW12397   2.124   1.488   5.594
 3833SOL    HW112398   2.132   1.448   5.503
 3833SOL    HW212399   2.145   1.419   5.663
 3834SOL     OW12400   4.869   4.009   0.799
 3834SOL    HW112401   4.925   3.953   0.860
 3834SOL    HW212402   4.773   3.986   0.811
 3835SOL     OW12403   3.511   5.256   5.109
 3835SOL    HW112404   3.522   5.165   5.069
 3835SOL    HW212405   3.430   5.300   5.071
 3836SOL     OW12406   0.175   6.376   5.651
 3836SOL    HW112407   0.186   6.288   5.697
 3836SOL    HW212408   0.081   6.386   5.620
 3837SOL     OW12409   4.421   4.706   5.562
 3837SOL    HW112410   4.387   4.718   5.655
 3837SOL    HW212411   4.407   4.611   5.534
 3838SOL     OW12412   0.939   1.495   3.904
 3838SOL    HW112413   0.996   1.442   3.967
 3838SOL    HW212414   0.911   1.581   3.949
 3839SOL     OW12415   4.465   1.032   4.123
 3839SOL    HW112416   4.553   0.986   4.129
 3839SOL    HW212417   4.466   1.096   4.046
 3840SOL     OW12418   2.693   1.231   6.868
 3840SOL    HW112419   2.656   1.160   6.808
 3840SOL    HW212420   2.755   1.289   6.816
 3841SOL     OW12421   5.890   4.367   4.514
 3841SOL    HW112422   5.814   4.380   4.450
 3841SOL    HW212423   5.974   4.403   4.473
 3842SOL     OW12424   1.550   3.430   5.157
 3842SOL    HW112425   1.584   3.505   5.215
 3842SOL    HW212426   1.451   3.421   5.169
 3843SOL     OW12427   5.191   2.620   0.381
 3843SOL    HW112428   5.092   2.625   0.396
 3843SOL    HW212429   5.218   2.525   0.365
 3844SOL     OW12430   0.623   0.021   1.573
 3844SOL    HW112431   0.603   0.027   1.475
 3844SOL    HW212432   0.542   7.010   1.622
 3845SOL     OW12433   2.142   5.484   0.673
 3845SOL    HW112434   2.134   5.463   0.770
 3845SOL    HW212435   2.200   5.565   0.660
 3846SOL     OW12436   0.828   2.729   2.867
 3846SOL    HW112437   0.785   2.760   2.952
 3846SOL    HW212438   0.758   2.703   2.802
 3847SOL     OW12439   6.759   1.696   6.818
 3847SOL    HW112440   6.841   1.752   6.832
 3847SOL    HW212441   6.695   1.712   6.893
 3848SOL     OW12442   5.630   4.034   2.699
 3848SOL    HW112443   5.599   3.940   2.685
 3848SOL    HW212444   5.564   4.084   2.755
 3849SOL     OW12445   6.793   4.859   6.783
 3849SOL    HW112446   6.797   4.783   6.848
 3849SOL    HW212447   6.698   4.892   6.777
 3850SOL     OW12448   2.518   2.408   1.337
 3850SOL    HW112449   2.440   2.351   1.311
 3850SOL    HW212450   2.595   2.390   1.276
 3851SOL     OW12451   0.427   5.765   2.079
 3851SOL    HW112452   0.500   5.711   2.121
 3851SOL    HW212453   0.389   5.828   2.147
 3852SOL     OW12454   2.472   6.566   5.489
 3852SOL    HW112455   2.438   6.641   5.545
 3852SOL    HW212456   2.447   6.479   5.532
 3853SOL     OW12457   2.472   0.351   3.422
 3853SOL    HW112458   2.447   0.256   3.409
 3853SOL    HW212459   2.569   0.364   3.400
 3854SOL     OW12460   1.671   2.237   2.366
 3854SOL    HW112461   1.610   2.269   2.439
 3854SOL    HW212462   1.706   2.146   2.390
 3855SOL     OW12463   3.716   6.775   0.198
 3855SOL    HW112464   3.692   6.682   0.225
 3855SOL    HW212465   3.689   6.838   0.271
 3856SOL     OW12466   0.433   2.176   0.024
 3856SOL    HW112467   0.370   2.111   7.002
 3856SOL    HW212468   0.470   2.138   0.108
 3857SOL     OW12469   2.621   0.200   6.050
 3857SOL    HW112470   2.643   0.181   6.146
 3857SOL    HW212471   2.698   0.249   6.008
 3858SOL     OW12472   4.273   0.512   4.514
 3858SOL    HW112473   4.224   0.546   4.434
 3858SOL    HW212474   4.361   0.475   4.485
 3859SOL     OW12475   6.383   0.009   2.142
 3859SOL    HW112476   6.412   7.016   2.237
 3859SOL    HW212477   6.394   6.944   2.091
 3860SOL     OW12478   0.995   6.715   4.192
 3860SOL    HW112479   1.024   6.661   4.114
 3860SOL    HW212480   0.933   6.662   4.249
 3861SOL     OW12481   3.316   5.880   1.528
 3861SOL    HW112482   3.280   5.901   1.437
 3861SOL    HW212483   3.411   5.849   1.520
 3862SOL     OW12484   1.639   0.217   3.709
 3862SOL    HW112485   1.583   0.270   3.644
 3862SOL    HW212486   1.585   0.199   3.791
 3863SOL     OW12487   3.790   0.438   0.623
 3863SOL    HW112488   3.862   0.504   0.645
 3863SOL    HW212489   3.745   0.465   0.537
 3864SOL     OW12490   2.597   6.885   4.705
 3864SOL    HW112491   2.606   6.807   4.643
 3864SOL    HW212492   2.581   6.968   4.651
 3865SOL     OW12493   3.887   0.762   0.567
 3865SOL    HW112494   3.968   0.786   0.515
 3865SOL    HW212495   3.805   0.787   0.516
 3866SOL     OW12496   2.587   2.591   6.642
 3866SOL    HW112497   2.563   2.495   6.660
 3866SOL    HW212498   2.663   2.594   6.577
 3867SOL     OW12499   0.287   3.711   1.990
 3867SOL    HW112500   0.370   3.657   2.003
 3867SOL    HW212501   0.286   3.787   2.055
 3868SOL     OW12502   4.639   0.648   0.337
 3868SOL    HW112503   4.542   0.669   0.328
 3868SOL    HW212504   4.676   0.691   0.419
 3869SOL     OW12505   6.020   2.536   3.310
 3869SOL    HW112506   6.078   2.466   3.353
 3869SOL    HW212507   5.998   2.606   3.378
 3870SOL     OW12508   0.328   0.629   4.232
 3870SOL    HW112509   0.404   0.638   4.296
 3870SOL    HW212510   0.257   0.572   4.273
 3871SOL     OW12511   2.980   4.866   4.269
 3871SOL    HW112512   2.934   4.846   4.183
 3871SOL    HW212513   2.958   4.959   4.298
 3872SOL     OW12514   3.135   3.663   5.579
 3872SOL    HW112515   3.062   3.714   5.623
 3872SOL    HW212516   3.209   3.725   5.555
 3873SOL     OW12517   4.540   1.862   0.330
 3873SOL    HW112518   4.633   1.891   0.308
 3873SOL    HW212519   4.531   1.850   0.429
 3874SOL     OW12520   3.039   0.665   0.097
 3874SOL    HW112521   3.009   0.751   0.138
 3874SOL    HW212522   2.979   0.641   0.021
 3875SOL     OW12523   1.328   2.275   6.000
 3875SOL    HW112524   1.282   2.253   5.914
 3875SOL    HW212525   1.360   2.191   6.044
 3876SOL     OW12526   4.190   5.067   1.131
 3876SOL    HW112527   4.187   4.969   1.114
 3876SOL    HW212528   4.129   5.090   1.208
 3877SOL     OW12529   6.782   2.004   0.196
 3877SOL    HW112530   6.810   1.975   0.287
 3877SOL    HW212531   6.689   2.041   0.200
 3878SOL     OW12532   4.443   0.680   4.286
 3878SOL    HW112533   4.356   0.633   4.270
 3878SOL    HW212534   4.436   0.732   4.371
 3879SOL     OW12535   5.298   5.259   0.374
 3879SOL    HW112536   5.237   5.327   0.334
 3879SOL    HW212537   5.359   5.223   0.304
 3880SOL     OW12538   4.789   4.178   4.183
 3880SOL    HW112539   4.866   4.237   4.160
 3880SOL    HW212540   4.770   4.184   4.281
 3881SOL     OW12541   0.948   4.026   0.587
 3881SOL    HW112542   0.932   4.045   0.490
 3881SOL    HW212543   0.860   4.012   0.632
 3882SOL     OW12544   0.967   1.774   0.660
 3882SOL    HW112545   0.946   1.864   0.622
 3882SOL    HW212546   1.043   1.783   0.725
 3883SOL     OW12547   5.049   6.246   3.371
 3883SOL    HW112548   5.132   6.270   3.320
 3883SOL    HW212549   4.990   6.190   3.313
 3884SOL     OW12550   0.869   4.825   2.263
 3884SOL    HW112551   0.857   4.837   2.164
 3884SOL    HW212552   0.787   4.784   2.302
 3885SOL     OW12553   5.363   6.168   3.445
 3885SOL    HW112554   5.395   6.123   3.529
 3885SOL    HW212555   5.267   6.147   3.430
 3886SOL     OW12556   3.843   6.344   6.031
 3886SOL    HW112557   3.800   6.341   6.122
 3886SOL    HW212558   3.909   6.419   6.029
 3887SOL     OW12559   0.220   6.216   2.206
 3887SOL    HW112560   0.312   6.195   2.173
 3887SOL    HW212561   0.153   6.180   2.142
 3888SOL     OW12562   5.998   5.905   4.015
 3888SOL    HW112563   5.987   5.821   4.068
 3888SOL    HW212564   6.000   5.983   4.077
 3889SOL     OW12565   5.485   3.355   6.563
 3889SOL    HW112566   5.420   3.429   6.544
 3889SOL    HW212567   5.471   3.322   6.656
 3890SOL     OW12568   5.503   3.224   4.241
 3890SOL    HW112569   5.568   3.189   4.308
 3890SOL    HW212570   5.525   3.186   4.151
 3891SOL     OW12571   6.074   4.869   3.390
 3891SOL    HW112572   6.013   4.948   3.391
 3891SOL    HW212573   6.022   4.787   3.416
 3892SOL     OW12574   0.289   2.488   1.471
 3892SOL    HW112575   0.323   2.582   1.477
 3892SOL    HW212576   0.316   2.448   1.384
 3893SOL     OW12577   3.959   3.715   1.564
 3893SOL    HW112578   3.957   3.708   1.664
 3893SOL    HW212579   4.026   3.651   1.527
 3894SOL     OW12580   4.636   0.443   6.477
 3894SOL    HW112581   4.707   0.513   6.467
 3894SOL    HW212582   4.594   0.426   6.388
 3895SOL     OW12583   1.636   6.837   4.384
 3895SOL    HW112584   1.632   6.883   4.295
 3895SOL    HW212585   1.731   6.816   4.406
 3896SOL     OW12586   1.538   1.188   6.904
 3896SOL    HW112587   1.446   1.150   6.912
 3896SOL    HW212588   1.533   1.286   6.890
 3897SOL     OW12589   4.276   5.840   1.834
 3897SOL    HW112590   4.358   5.786   1.815
 3897SOL    HW212591   4.288   5.934   1.803
 3898SOL     OW12592   4.214   2.998   6.318
 3898SOL    HW112593   4.276   3.015   6.242
 3898SOL    HW212594   4.165   3.083   6.340
 3899SOL     OW12595   4.058   6.139   6.261
 3899SOL    HW112596   4.036   6.046   6.230
 3899SOL    HW212597   4.112   6.186   6.192
 3900SOL     OW12598   5.230   3.865   3.096
 3900SOL    HW112599   5.192   3.917   3.173
 3900SOL    HW212600   5.210   3.768   3.108
 3901SOL     OW12601   2.825   0.164   0.163
 3901SOL    HW112602   2.767   0.101   0.111
 3901SOL    HW212603   2.879   0.219   0.101
 3902SOL     OW12604   6.243   3.152   2.687
 3902SOL    HW112605   6.281   3.138   2.596
 3902SOL    HW212606   6.150   3.114   2.690
 3903SOL     OW12607   3.456   5.586   6.706
 3903SOL    HW112608   3.380   5.589   6.640
 3903SOL    HW212609   3.419   5.580   6.799
 3904SOL     OW12610   1.485   0.313   0.406
 3904SOL    HW112611   1.390   0.335   0.387
 3904SOL    HW212612   1.491   0.263   0.493
 3905SOL     OW12613   6.808   5.891   5.564
 3905SOL    HW112614   6.891   5.845   5.597
 3905SOL    HW212615   6.818   5.912   5.467
 3906SOL     OW12616   5.948   6.792   5.669
 3906SOL    HW112617   5.936   6.874   5.724
 3906SOL    HW212618   6.013   6.730   5.714
 3907SOL     OW12619   5.774   1.843   4.419
 3907SOL    HW112620   5.709   1.784   4.468
 3907SOL    HW212621   5.834   1.787   4.363
 3908SOL     OW12622   1.616   2.096   5.840
 3908SOL    HW112623   1.611   2.193   5.866
 3908SOL    HW212624   1.651   2.089   5.747
 3909SOL     OW12625   5.777   5.325   3.905
 3909SOL    HW112626   5.687   5.283   3.896
 3909SOL    HW212627   5.806   5.320   4.001
 3910SOL     OW12628   3.614   3.782   3.028
 3910SOL    HW112629   3.688   3.728   3.069
 3910SOL    HW212630   3.551   3.811   3.100
 3911SOL     OW12631   5.926   1.637   5.529
 3911SOL    HW112632   5.988   1.637   5.608
 3911SOL    HW212633   5.862   1.714   5.537
 3912SOL     OW12634   5.724   2.422   5.905
 3912SOL    HW112635   5.642   2.479   5.896
 3912SOL    HW212636   5.758   2.399   5.813
 3913SOL     OW12637   1.028   6.725   0.490
 3913SOL    HW112638   1.063   6.796   0.551
 3913SOL    HW212639   1.050   6.635   0.527
 3914SOL     OW12640   3.158   6.416   6.536
 3914SOL    HW112641   3.168   6.434   6.634
 3914SOL    HW212642   3.241   6.372   6.501
 3915SOL     OW12643   5.609   5.066   1.708
 3915SOL    HW112644   5.584   5.162   1.703
 3915SOL    HW212645   5.590   5.022   1.620
 3916SOL     OW12646   1.261   0.121   3.033
 3916SOL    HW112647   1.208   0.106   3.117
 3916SOL    HW212648   1.206   0.098   2.953
 3917SOL     OW12649   2.063   6.890   6.924
 3917SOL    HW112650   2.036   6.985   6.908
 3917SOL    HW212651   2.023   6.832   6.853
 3918SOL     OW12652   5.344   4.597   1.898
 3918SOL    HW112653   5.409   4.557   1.833
 3918SOL    HW212654   5.382   4.682   1.935
 3919SOL     OW12655   3.371   0.128   0.366
 3919SOL    HW112656   3.297   0.062   0.351
 3919SOL    HW212657   3.427   0.134   0.284
 3920SOL     OW12658   2.177   2.220   6.812
 3920SOL    HW112659   2.096   2.276   6.827
 3920SOL    HW212660   2.256   2.265   6.853
 3921SOL     OW12661   1.071   3.963   1.699
 3921SOL    HW112662   1.146   4.005   1.649
 3921SOL    HW212663   1.056   3.870   1.665
 3922SOL     OW12664   1.092   4.488   1.184
 3922SOL    HW112665   1.019   4.441   1.134
 3922SOL    HW212666   1.098   4.583   1.153
 3923SOL     OW12667   0.647   0.525   0.317
 3923SOL    HW112668   0.668   0.461   0.243
 3923SOL    HW212669   0.663   0.481   0.405
 3924SOL     OW12670   6.555   4.358   4.425
 3924SOL    HW112671   6.537   4.267   4.462
 3924SOL    HW212672   6.574   4.422   4.500
 3925SOL     OW12673   1.822   5.573   2.303
 3925SOL    HW112674   1.797   5.481   2.271
 3925SOL    HW212675   1.884   5.615   2.237
 3926SOL     OW12676   4.374   4.555   2.058
 3926SOL    HW112677   4.275   4.559   2.041
 3926SOL    HW212678   4.411   4.470   2.020
 3927SOL     OW12679   0.334   3.149   6.215
 3927SOL    HW112680   0.430   3.172   6.200
 3927SOL    HW212681   0.307   3.074   6.154
 3928SOL     OW12682   5.377   5.721   6.848
 3928SOL    HW112683   5.339   5.780   6.920
 3928SOL    HW212684   5.465   5.758   6.818
 3929SOL     OW12685   1.058   1.292   5.180
 3929SOL    HW112686   1.011   1.206   5.158
 3929SOL    HW212687   0.995   1.353   5.227
 3930SOL     OW12688   2.146   1.456   3.384
 3930SOL    HW112689   2.156   1.532   3.448
 3930SOL    HW212690   2.187   1.481   3.296
 3931SOL     OW12691   5.916   1.927   1.452
 3931SOL    HW112692   6.008   1.909   1.487
 3931SOL    HW212693   5.918   2.008   1.394
 3932SOL     OW12694   0.861   2.418   4.240
 3932SOL    HW112695   0.869   2.515   4.260
 3932SOL    HW212696   0.823   2.370   4.319
 3933SOL     OW12697   1.213   0.141   6.269
 3933SOL    HW112698   1.299   0.091   6.258
 3933SOL    HW212699   1.228   0.222   6.326
 3934SOL     OW12700   5.916   0.471   5.931
 3934SOL    HW112701   6.011   0.496   5.949
 3934SOL    HW212702   5.857   0.507   6.004
 3935SOL     OW12703   4.698   0.496   0.874
 3935SOL    HW112704   4.658   0.587   0.886
 3935SOL    HW212705   4.624   0.429   0.862
 3936SOL     OW12706   6.430   5.584   3.826
 3936SOL    HW112707   6.335   5.553   3.813
 3936SOL    HW212708   6.433   5.683   3.820
 3937SOL     OW12709   0.682   1.190   2.837
 3937SOL    HW112710   0.667   1.283   2.804
 3937SOL    HW212711   0.622   1.172   2.915
 3938SOL     OW12712   6.977   1.307   3.060
 3938SOL    HW112713   6.977   1.387   3.001
 3938SOL    HW212714   0.016   1.236   3.019
 3939SOL     OW12715   3.045   1.798   1.985
 3939SOL    HW112716   3.084   1.852   2.059
 3939SOL    HW212717   2.948   1.780   2.003
 3940SOL     OW12718   3.478   3.669   1.052
 3940SOL    HW112719   3.523   3.724   1.123
 3940SOL    HW212720   3.515   3.576   1.054
 3941SOL     OW12721   4.086   4.221   6.088
 3941SOL    HW112722   4.037   4.147   6.134
 3941SOL    HW212723   4.026   4.261   6.019
 3942SOL     OW12724   6.567   6.746   6.603
 3942SOL    HW112725   6.640   6.698   6.651
 3942SOL    HW212726   6.601   6.836   6.574
 3943SOL     OW12727   0.763   3.658   4.723
 3943SOL    HW112728   0.804   3.705   4.645
 3943SOL    HW212729   0.701   3.587   4.690
 3944SOL     OW12730   4.984   2.630   4.766
 3944SOL    HW112731   5.025   2.552   4.720
 3944SOL    HW212732   4.897   2.603   4.808
 3945SOL     OW12733   6.894   1.401   1.185
 3945SOL    HW112734   6.881   1.310   1.223
 3945SOL    HW212735   6.978   1.403   1.130
 3946SOL     OW12736   4.429   4.722   3.369
 3946SOL    HW112737   4.419   4.821   3.363
 3946SOL    HW212738   4.344   4.682   3.403
 3947SOL     OW12739   5.394   5.709   0.348
 3947SOL    HW112740   5.383   5.762   0.432
 3947SOL    HW212741   5.431   5.768   0.276
 3948SOL     OW12742   5.809   4.696   1.358
 3948SOL    HW112743   5.818   4.596   1.362
 3948SOL    HW212744   5.806   4.733   1.451
 3949SOL     OW12745   4.403   6.142   3.241
 3949SOL    HW112746   4.312   6.109   3.214
 3949SOL    HW212747   4.472   6.099   3.183
 3950SOL     OW12748   1.994   5.674   0.877
 3950SOL    HW112749   2.044   5.588   0.886
 3950SOL    HW212750   1.954   5.681   0.786
 3951SOL     OW12751   5.393   0.321   1.947
 3951SOL    HW112752   5.465   0.388   1.932
 3951SOL    HW212753   5.325   0.327   1.874
 3952SOL     OW12754   6.898   2.880   0.806
 3952SOL    HW112755   6.909   2.947   0.879
 3952SOL    HW212756   6.963   2.900   0.733
 3953SOL     OW12757   3.982   3.880   2.079
 3953SOL    HW112758   3.935   3.792   2.073
 3953SOL    HW212759   3.985   3.910   2.174
 3954SOL     OW12760   4.046   4.525   5.596
 3954SOL    HW112761   4.020   4.584   5.672
 3954SOL    HW212762   3.986   4.444   5.594
 3955SOL     OW12763   3.716   0.603   5.612
 3955SOL    HW112764   3.764   0.606   5.525
 3955SOL    HW212765   3.638   0.541   5.605
 3956SOL     OW12766   1.195   0.982   1.899
 3956SOL    HW112767   1.278   0.951   1.946
 3956SOL    HW212768   1.127   0.909   1.900
 3957SOL     OW12769   3.560   0.306   4.326
 3957SOL    HW112770   3.546   0.362   4.407
 3957SOL    HW212771   3.486   0.238   4.320
 3958SOL     OW12772   6.252   1.859   5.020
 3958SOL    HW112773   6.320   1.897   4.958
 3958SOL    HW212774   6.210   1.779   4.979
 3959SOL     OW12775   4.848   5.143   0.543
 3959SOL    HW112776   4.800   5.061   0.510
 3959SOL    HW212777   4.837   5.149   0.642
 3960SOL     OW12778   5.494   2.286   5.149
 3960SOL    HW112779   5.429   2.262   5.077
 3960SOL    HW212780   5.457   2.362   5.202
 3961SOL     OW12781   5.838   6.627   3.349
 3961SOL    HW112782   5.904   6.570   3.300
 3961SOL    HW212783   5.880   6.663   3.433
 3962SOL     OW12784   0.177   5.338   5.585
 3962SOL    HW112785   0.092   5.390   5.577
 3962SOL    HW212786   0.228   5.344   5.499
 3963SOL     OW12787   4.603   6.624   1.706
 3963SOL    HW112788   4.540   6.695   1.675
 3963SOL    HW212789   4.635   6.646   1.798
 3964SOL     OW12790   4.826   3.966   3.109
 3964SOL    HW112791   4.833   3.873   3.145
 3964SOL    HW212792   4.781   4.025   3.177
 3965SOL     OW12793   5.492   3.641   4.063
 3965SOL    HW112794   5.497   3.719   4.124
 3965SOL    HW212795   5.577   3.635   4.010
 3966SOL     OW12796   3.021   5.679   6.818
 3966SOL    HW112797   3.017   5.710   6.913
 3966SOL    HW212798   2.936   5.705   6.771
 3967SOL     OW12799   1.814   4.987   2.405
 3967SOL    HW112800   1.772   4.898   2.420
 3967SOL    HW212801   1.871   4.984   2.323
 3968SOL     OW12802   4.370   0.909   1.009
 3968SOL    HW112803   4.321   0.952   0.934
 3968SOL    HW212804   4.305   0.865   1.072
 3969SOL     OW12805   1.996   6.212   2.007
 3969SOL    HW112806   1.985   6.311   1.993
 3969SOL    HW212807   1.914   6.176   2.051
 3970SOL     OW12808   5.632   6.414   2.338
 3970SOL    HW112809   5.653   6.476   2.262
 3970SOL    HW212810   5.584   6.333   2.303
 3971SOL     OW12811   3.013   5.550   3.902
 3971SOL    HW112812   3.095   5.604   3.885
 3971SOL    HW212813   3.020   5.506   3.992
 3972SOL     OW12814   2.025   4.207   6.925
 3972SOL    HW112815   2.086   4.180   7.000
 3972SOL    HW212816   2.079   4.242   6.849
 3973SOL     OW12817   1.234   6.041   0.329
 3973SOL    HW112818   1.250   6.061   0.232
 3973SOL    HW212819   1.219   5.943   0.340
 3974SOL     OW12820   2.442   0.420   5.993
 3974SOL    HW112821   2.403   0.454   6.079
 3974SOL    HW212822   2.511   0.351   6.013
 3975SOL     OW12823   5.352   2.102   6.509
 3975SOL    HW112824   5.345   2.195   6.472
 3975SOL    HW212825   5.260   2.066   6.527
 3976SOL     OW12826   1.706   5.851   2.117
 3976SOL    HW112827   1.726   5.949   2.120
 3976SOL    HW212828   1.663   5.823   2.202
 3977SOL     OW12829   0.699   3.608   6.680
 3977SOL    HW112830   0.737   3.521   6.649
 3977SOL    HW212831   0.731   3.681   6.620
 3978SOL     OW12832   6.780   4.741   3.907
 3978SOL    HW112833   6.726   4.809   3.857
 3978SOL    HW212834   6.877   4.767   3.905
 3979SOL     OW12835   3.403   0.589   6.381
 3979SOL    HW112836   3.436   0.637   6.300
 3979SOL    HW212837   3.401   0.490   6.363
 3980SOL     OW12838   6.079   6.515   6.479
 3980SOL    HW112839   6.038   6.482   6.564
 3980SOL    HW212840   6.139   6.445   6.441
 3981SOL     OW12841   4.847   6.675   0.549
 3981SOL    HW112842   4.916   6.678   0.621
 3981SOL    HW212843   4.758   6.655   0.589
 3982SOL     OW12844   2.628   6.939   2.701
 3982SOL    HW112845   2.586   6.907   2.616
 3982SOL    HW212846   2.558   6.946   2.772
 3983SOL     OW12847   4.345   5.875   3.772
 3983SOL    HW112848   4.336   5.956   3.715
 3983SOL    HW212849   4.271   5.872   3.839
 3984SOL     OW12850   6.135   2.093   2.823
 3984SOL    HW112851   6.150   1.994   2.829
 3984SOL    HW212852   6.214   2.137   2.781
 3985SOL     OW12853   3.092   5.680   6.227
 3985SOL    HW112854   3.100   5.581   6.239
 3985SOL    HW212855   2.999   5.703   6.199
 3986SOL     OW12856   4.889   1.467   2.224
 3986SOL    HW112857   4.926   1.473   2.316
 3986SOL    HW212858   4.951   1.415   2.165
 3987SOL     OW12859   3.174   4.934   5.130
 3987SOL    HW112860   3.170   4.889   5.219
 3987SOL    HW212861   3.147   5.030   5.140
 3988SOL     OW12862   4.740   5.309   0.247
 3988SOL    HW112863   4.685   5.226   0.248
 3988SOL    HW212864   4.748   5.345   0.340
 3989SOL     OW12865   6.699   2.002   6.730
 3989SOL    HW112866   6.611   2.027   6.769
 3989SOL    HW212867   6.772   2.039   6.788
 3990SOL     OW12868   5.231   2.655   1.840
 3990SOL    HW112869   5.131   2.651   1.844
 3990SOL    HW212870   5.259   2.742   1.798
 3991SOL     OW12871   0.438   0.548   3.146
 3991SOL    HW112872   0.533   0.519   3.132
 3991SOL    HW212873   0.418   0.548   3.244
 3992SOL     OW12874   2.832   2.651   1.149
 3992SOL    HW112875   2.798   2.712   1.077
 3992SOL    HW212876   2.866   2.705   1.226
 3993SOL     OW12877   1.212   3.417   2.522
 3993SOL    HW112878   1.196   3.365   2.438
 3993SOL    HW212879   1.187   3.513   2.508
 3994SOL     OW12880   2.652   6.796   5.080
 3994SOL    HW112881   2.658   6.869   5.012
 3994SOL    HW212882   2.623   6.711   5.035
 3995SOL     OW12883   1.298   2.633   4.884
 3995SOL    HW112884   1.389   2.606   4.852
 3995SOL    HW212885   1.307   2.713   4.943
 3996SOL     OW12886   0.193   6.601   4.943
 3996SOL    HW112887   0.100   6.638   4.949
 3996SOL    HW212888   0.249   6.641   5.017
 3997SOL     OW12889   5.586   0.834   4.545
 3997SOL    HW112890   5.623   0.902   4.609
 3997SOL    HW212891   5.511   0.784   4.589
 3998SOL     OW12892   4.061   2.169   3.752
 3998SOL    HW112893   4.092   2.240   3.816
 3998SOL    HW212894   4.100   2.081   3.779
 3999SOL     OW12895   6.112   2.019   5.196
 3999SOL    HW112896   6.178   1.973   5.136
 3999SOL    HW212897   6.128   1.991   5.290
 4000SOL     OW12898   4.054   0.277   3.392
 4000SOL    HW112899   4.130   0.314   3.338
 4000SOL    HW212900   4.010   0.352   3.441
 4001SOL     OW12901   1.225   2.357   3.212
 4001SOL    HW112902   1.186   2.449   3.225
 4001SOL    HW212903   1.323   2.360   3.231
 4002SOL     OW12904   1.943   3.456   1.977
 4002SOL    HW112905   1.886   3.478   2.056
 4002SOL    HW212906   2.039   3.477   1.998
 4003SOL     OW12907   3.757   0.756   4.515
 4003SOL    HW112908   3.821   0.826   4.546
 4003SOL    HW212909   3.686   0.799   4.459
 4004SOL     OW12910   6.805   1.684   5.186
 4004SOL    HW112911   6.753   1.607   5.149
 4004SOL    HW212912   6.807   1.758   5.118
 4005SOL     OW12913   5.409   5.334   5.959
 4005SOL    HW112914   5.365   5.331   6.049
 4005SOL    HW212915   5.439   5.243   5.933
 4006SOL     OW12916   3.748   5.506   2.031
 4006SOL    HW112917   3.676   5.458   2.082
 4006SOL    HW212918   3.712   5.593   1.997
 4007SOL     OW12919   6.853   2.122   6.461
 4007SOL    HW112920   6.826   2.029   6.488
 4007SOL    HW212921   6.815   2.187   6.527
 4008SOL     OW12922   2.434   2.537   5.212
 4008SOL    HW112923   2.499   2.610   5.231
 4008SOL    HW212924   2.363   2.536   5.283
 4009SOL     OW12925   4.119   3.580   2.800
 4009SOL    HW112926   4.134   3.507   2.866
 4009SOL    HW212927   4.075   3.658   2.845
 4010SOL     OW12928   2.039   3.009   0.012
 4010SOL    HW112929   2.081   3.090   0.050
 4010SOL    HW212930   1.946   2.999   0.048
 4011SOL     OW12931   1.031   2.568   1.498
 4011SOL    HW112932   1.046   2.469   1.488
 4011SOL    HW212933   0.936   2.584   1.524
 4012SOL     OW12934   6.372   3.486   3.397
 4012SOL    HW112935   6.372   3.457   3.493
 4012SOL    HW212936   6.446   3.439   3.348
 4013SOL     OW12937   4.677   2.619   3.479
 4013SOL    HW112938   4.608   2.590   3.545
 4013SOL    HW212939   4.725   2.700   3.513
 4014SOL     OW12940   5.425   5.998   2.680
 4014SOL    HW112941   5.424   5.968   2.775
 4014SOL    HW212942   5.491   6.073   2.669
 4015SOL     OW12943   5.260   3.941   6.253
 4015SOL    HW112944   5.165   3.970   6.248
 4015SOL    HW212945   5.303   3.952   6.163
 4016SOL     OW12946   2.845   6.305   5.249
 4016SOL    HW112947   2.782   6.343   5.317
 4016SOL    HW212948   2.797   6.293   5.162
 4017SOL     OW12949   6.394   5.698   6.979
 4017SOL    HW112950   6.454   5.661   6.908
 4017SOL    HW212951   6.363   5.789   6.953
 4018SOL     OW12952   2.819   5.833   0.602
 4018SOL    HW112953   2.720   5.817   0.595
 4018SOL    HW212954   2.837   5.931   0.606
 4019SOL     OW12955   5.315   5.166   3.478
 4019SOL    HW112956   5.239   5.171   3.543
 4019SOL    HW212957   5.364   5.253   3.476
 4020SOL     OW12958   5.158   2.008   5.616
 4020SOL    HW112959   5.248   2.049   5.600
 4020SOL    HW212960   5.092   2.079   5.639
 4021SOL     OW12961   3.558   4.660   5.952
 4021SOL    HW112962   3.608   4.606   5.884
 4021SOL    HW212963   3.610   4.662   6.037
 4022SOL     OW12964   5.432   0.107   1.554
 4022SOL    HW112965   5.352   0.119   1.496
 4022SOL    HW212966   5.515   0.114   1.498
 4023SOL     OW12967   6.467   0.388   6.135
 4023SOL    HW112968   6.538   0.374   6.065
 4023SOL    HW212969   6.508   0.381   6.226
 4024SOL     OW12970   3.802   4.932   4.277
 4024SOL    HW112971   3.894   4.892   4.275
 4024SOL    HW212972   3.747   4.893   4.203
 4025SOL     OW12973   1.519   4.411   2.834
 4025SOL    HW112974   1.473   4.322   2.824
 4025SOL    HW212975   1.481   4.475   2.768
 4026SOL     OW12976   5.561   6.669   4.424
 4026SOL    HW112977   5.586   6.574   4.445
 4026SOL    HW212978   5.630   6.708   4.363
 4027SOL     OW12979   4.350   5.468   1.326
 4027SOL    HW112980   4.311   5.514   1.406
 4027SOL    HW212981   4.411   5.394   1.356
 4028SOL     OW12982   2.460   0.123   3.888
 4028SOL    HW112983   2.412   0.047   3.845
 4028SOL    HW212984   2.541   0.148   3.834
 4029SOL     OW12985   2.245   4.425   4.586
 4029SOL    HW112986   2.229   4.340   4.536
 4029SOL    HW212987   2.174   4.438   4.655
 4030SOL     OW12988   1.020   1.932   6.223
 4030SOL    HW112989   1.097   1.917   6.161
 4030SOL    HW212990   0.935   1.925   6.171
 4031SOL     OW12991   4.543   5.654   4.618
 4031SOL    HW112992   4.539   5.592   4.697
 4031SOL    HW212993   4.524   5.747   4.648
 4032SOL     OW12994   5.059   0.105   4.875
 4032SOL    HW112995   5.157   0.083   4.875
 4032SOL    HW212996   5.047   0.202   4.898
 4033SOL     OW12997   3.067   3.892   5.416
 4033SOL    HW112998   3.133   3.832   5.371
 4033SOL    HW212999   2.976   3.876   5.378
 4034SOL     OW13000   6.534   2.106   3.759
 4034SOL    HW113001   6.599   2.126   3.686
 4034SOL    HW213002   6.552   2.014   3.795
 4035SOL     OW13003   0.254   5.288   0.627
 4035SOL    HW113004   0.163   5.292   0.587
 4035SOL    HW213005   0.278   5.378   0.665
 4036SOL     OW13006   6.749   6.693   3.489
 4036SOL    HW113007   6.745   6.791   3.470
 4036SOL    HW213008   6.798   6.677   3.575
 4037SOL     OW13009   6.554   4.024   6.062
 4037SOL    HW113010   6.460   4.043   6.091
 4037SOL    HW213011   6.582   3.934   6.096
 4038SOL     OW13012   6.432   5.006   3.960
 4038SOL    HW113013   6.456   5.076   3.893
 4038SOL    HW213014   6.469   5.032   4.049
 4039SOL     OW13015   4.218   6.136   0.955
 4039SOL    HW113016   4.310   6.174   0.944
 4039SOL    HW213017   4.204   6.109   1.050
 4040SOL     OW13018   3.718   6.378   1.177
 4040SOL    HW113019   3.623   6.358   1.200
 4040SOL    HW213020   3.723   6.419   1.086
 4041SOL     OW13021   1.206   0.100   3.868
 4041SOL    HW113022   1.109   0.089   3.887
 4041SOL    HW213023   1.224   0.194   3.840
 4042SOL     OW13024   6.426   5.462   2.181
 4042SOL    HW113025   6.385   5.443   2.270
 4042SOL    HW213026   6.409   5.558   2.157
 4043SOL     OW13027   6.463   3.529   1.723
 4043SOL    HW113028   6.463   3.453   1.659
 4043SOL    HW213029   6.369   3.561   1.737
 4044SOL     OW13030   6.541   6.206   3.306
 4044SOL    HW113031   6.604   6.159   3.244
 4044SOL    HW213032   6.561   6.304   3.306
 4045SOL     OW13033   2.028   5.364   5.730
 4045SOL    HW113034   1.952   5.314   5.772
 4045SOL    HW213035   2.046   5.448   5.781
 4046SOL     OW13036   1.013   2.829   0.875
 4046SOL    HW113037   0.949   2.899   0.844
 4046SOL    HW213038   1.009   2.822   0.975
 4047SOL     OW13039   3.250   4.057   1.394
 4047SOL    HW113040   3.191   4.103   1.461
 4047SOL    HW213041   3.222   3.961   1.387
 4048SOL     OW13042   4.951   1.797   0.863
 4048SOL    HW113043   4.946   1.876   0.803
 4048SOL    HW213044   4.878   1.803   0.932
 4049SOL     OW13045   6.944   0.794   6.040
 4049SOL    HW113046   0.010   0.762   6.000
 4049SOL    HW213047   6.872   0.787   5.971
 4050SOL     OW13048   2.225   0.287   1.634
 4050SOL    HW113049   2.231   0.381   1.602
 4050SOL    HW213050   2.207   0.286   1.733
 4051SOL     OW13051   1.653   4.211   1.027
 4051SOL    HW113052   1.571   4.212   1.083
 4051SOL    HW213053   1.663   4.122   0.983
 4052SOL     OW13054   1.528   6.263   1.640
 4052SOL    HW113055   1.522   6.163   1.648
 4052SOL    HW213056   1.585   6.286   1.561
 4053SOL     OW13057   2.953   4.960   3.178
 4053SOL    HW113058   2.934   5.035   3.241
 4053SOL    HW213059   3.024   4.901   3.217
 4054SOL     OW13060   5.226   1.747   6.941
 4054SOL    HW113061   5.282   1.675   6.981
 4054SOL    HW213062   5.244   1.833   6.987
 4055SOL     OW13063   4.129   2.445   0.348
 4055SOL    HW113064   4.145   2.347   0.342
 4055SOL    HW213065   4.197   2.494   0.293
 4056SOL     OW13066   4.043   3.071   0.972
 4056SOL    HW113067   4.036   2.976   1.003
 4056SOL    HW213068   4.017   3.132   1.047
 4057SOL     OW13069   6.523   2.226   6.848
 4057SOL    HW113070   6.452   2.295   6.851
 4057SOL    HW213071   6.499   2.150   6.908
 4058SOL     OW13072   1.508   0.944   4.811
 4058SOL    HW113073   1.458   1.031   4.816
 4058SOL    HW213074   1.447   0.873   4.776
 4059SOL     OW13075   6.194   1.581   4.927
 4059SOL    HW113076   6.253   1.569   5.007
 4059SOL    HW213077   6.162   1.492   4.895
 4060SOL     OW13078   3.990   6.373   4.548
 4060SOL    HW113079   4.089   6.371   4.532
 4060SOL    HW213080   3.968   6.325   4.633
 4061SOL     OW13081   2.523   2.941   1.712
 4061SOL    HW113082   2.606   2.919   1.764
 4061SOL    HW213083   2.499   2.864   1.653
 4062SOL     OW13084   3.398   6.399   3.005
 4062SOL    HW113085   3.405   6.324   3.070
 4062SOL    HW213086   3.307   6.401   2.965
 4063SOL     OW13087   2.859   5.637   5.951
 4063SOL    HW113088   2.784   5.656   5.887
 4063SOL    HW213089   2.920   5.716   5.955
 4064SOL     OW13090   5.936   0.223   4.451
 4064SOL    HW113091   6.027   0.260   4.431
 4064SOL    HW213092   5.897   0.270   4.530
 4065SOL     OW13093   6.002   5.139   0.135
 4065SOL    HW113094   6.033   5.232   0.155
 4065SOL    HW213095   6.080   5.077   0.137
 4066SOL     OW13096   6.319   5.283   1.986
 4066SOL    HW113097   6.311   5.195   2.032
 4066SOL    HW213098   6.358   5.350   2.050
 4067SOL     OW13099   6.222   0.913   1.799
 4067SOL    HW113100   6.134   0.879   1.831
 4067SOL    HW213101   6.288   0.913   1.874
 4068SOL     OW13102   5.738   1.170   4.249
 4068SOL    HW113103   5.747   1.267   4.226
 4068SOL    HW213104   5.655   1.157   4.304
 4069SOL     OW13105   0.093   5.704   1.368
 4069SOL    HW113106   0.182   5.705   1.323
 4069SOL    HW213107   0.025   5.744   1.306
 4070SOL     OW13108   0.524   3.469   2.674
 4070SOL    HW113109   0.469   3.408   2.616
 4070SOL    HW213110   0.464   3.536   2.718
 4071SOL     OW13111   2.587   0.680   3.716
 4071SOL    HW113112   2.504   0.696   3.770
 4071SOL    HW213113   2.664   0.727   3.760
 4072SOL     OW13114   0.726   0.441   4.585
 4072SOL    HW113115   0.741   0.346   4.557
 4072SOL    HW213116   0.630   0.464   4.573
 4073SOL     OW13117   3.371   5.132   1.228
 4073SOL    HW113118   3.447   5.145   1.164
 4073SOL    HW213119   3.403   5.078   1.306
 4074SOL     OW13120   0.863   2.763   0.589
 4074SOL    HW113121   0.891   2.738   0.496
 4074SOL    HW213122   0.915   2.708   0.655
 4075SOL     OW13123   5.240   0.725   3.922
 4075SOL    HW113124   5.248   0.725   3.822
 4075SOL    HW213125   5.158   0.774   3.950
 4076SOL     OW13126   1.417   2.269   3.554
 4076SOL    HW113127   1.383   2.333   3.623
 4076SOL    HW213128   1.388   2.300   3.463
 4077SOL     OW13129   3.016   1.559   0.932
 4077SOL    HW113130   2.925   1.527   0.958
 4077SOL    HW213131   3.051   1.619   1.004
 4078SOL     OW13132   5.089   4.010   2.393
 4078SOL    HW113133   5.145   3.986   2.473
 4078SOL    HW213134   5.067   4.107   2.396
 4079SOL     OW13135   6.636   0.863   4.427
 4079SOL    HW113136   6.559   0.839   4.368
 4079SOL    HW213137   6.709   0.795   4.415
 4080SOL     OW13138   3.937   3.034   2.323
 4080SOL    HW113139   3.843   3.010   2.302
 4080SOL    HW213140   3.987   3.053   2.238
 4081SOL     OW13141   2.327   2.307   6.038
 4081SOL    HW113142   2.342   2.224   6.091
 4081SOL    HW213143   2.234   2.306   6.001
 4082SOL     OW13144   1.409   2.241   5.572
 4082SOL    HW113145   1.357   2.250   5.657
 4082SOL    HW213146   1.442   2.147   5.563
 4083SOL     OW13147   5.988   5.455   2.810
 4083SOL    HW113148   6.074   5.459   2.760
 4083SOL    HW213149   5.980   5.366   2.856
 4084SOL     OW13150   4.440   0.478   2.686
 4084SOL    HW113151   4.484   0.475   2.776
 4084SOL    HW213152   4.511   0.481   2.615
 4085SOL     OW13153   3.120   4.817   2.256
 4085SOL    HW113154   3.048   4.760   2.217
 4085SOL    HW213155   3.089   4.855   2.343
 4086SOL     OW13156   6.095   4.637   4.917
 4086SOL    HW113157   6.185   4.645   4.874
 4086SOL    HW213158   6.104   4.656   5.015
 4087SOL     OW13159   1.900   0.427   2.002
 4087SOL    HW113160   1.830   0.462   1.939
 4087SOL    HW213161   1.927   0.500   2.064
 4088SOL     OW13162   0.143   1.903   5.506
 4088SOL    HW113163   0.118   1.829   5.443
 4088SOL    HW213164   0.225   1.949   5.473
 4089SOL     OW13165   1.205   0.758   2.997
 4089SOL    HW113166   1.226   0.855   3.007
 4089SOL    HW213167   1.235   0.708   3.079
 4090SOL     OW13168   2.731   2.166   5.752
 4090SOL    HW113169   2.680   2.227   5.691
 4090SOL    HW213170   2.772   2.092   5.698
 4091SOL     OW13171   3.659   5.602   1.717
 4091SOL    HW113172   3.590   5.546   1.762
 4091SOL    HW213173   3.715   5.543   1.658
 4092SOL     OW13174   4.751   2.317   5.653
 4092SOL    HW113175   4.712   2.405   5.627
 4092SOL    HW213176   4.682   2.245   5.640
 4093SOL     OW13177   5.237   4.396   3.546
 4093SOL    HW113178   5.162   4.338   3.514
 4093SOL    HW213179   5.287   4.348   3.618
 4094SOL     OW13180   0.222   6.196   0.129
 4094SOL    HW113181   0.299   6.252   0.159
 4094SOL    HW213182   0.138   6.250   0.131
 4095SOL     OW13183   1.058   5.324   0.918
 4095SOL    HW113184   1.114   5.242   0.923
 4095SOL    HW213185   1.110   5.403   0.950
 4096SOL     OW13186   0.909   0.418   6.801
 4096SOL    HW113187   0.837   0.488   6.812
 4096SOL    HW213188   0.945   0.422   6.708
 4097SOL     OW13189   6.541   3.942   5.052
 4097SOL    HW113190   6.523   3.901   4.962
 4097SOL    HW213191   6.466   3.921   5.114
 4098SOL     OW13192   1.221   5.099   2.281
 4098SOL    HW113193   1.173   5.038   2.343
 4098SOL    HW213194   1.247   5.049   2.198
 4099SOL     OW13195   5.662   4.493   5.732
 4099SOL    HW113196   5.756   4.483   5.764
 4099SOL    HW213197   5.616   4.404   5.733
 4100SOL     OW13198   2.024   1.686   2.813
 4100SOL    HW113199   2.077   1.727   2.888
 4100SOL    HW213200   1.927   1.702   2.829
 4101SOL     OW13201   6.404   5.413   0.014
 4101SOL    HW113202   6.461   5.384   6.958
 4101SOL    HW213203   6.315   5.444   6.999
 4102SOL     OW13204   1.585   6.055   0.525
 4102SOL    HW113205   1.591   6.041   0.426
 4102SOL    HW213206   1.499   6.102   0.547
 4103SOL     OW13207   2.003   0.014   3.374
 4103SOL    HW113208   2.063   7.010   3.297
 4103SOL    HW213209   1.919   0.055   3.340
 4104SOL     OW13210   2.021   5.793   5.467
 4104SOL    HW113211   1.993   5.738   5.546
 4104SOL    HW213212   1.988   5.749   5.383
 4105SOL     OW13213   3.889   0.275   2.398
 4105SOL    HW113214   3.891   0.355   2.339
 4105SOL    HW213215   3.852   0.301   2.488
 4106SOL     OW13216   1.601   1.097   2.866
 4106SOL    HW113217   1.592   1.050   2.778
 4106SOL    HW213218   1.606   1.031   2.940
 4107SOL     OW13219   1.685   0.647   1.348
 4107SOL    HW113220   1.710   0.564   1.298
 4107SOL    HW213221   1.590   0.671   1.329
 4108SOL     OW13222   6.072   6.263   6.023
 4108SOL    HW113223   6.016   6.260   6.106
 4108SOL    HW213224   6.021   6.221   5.948
 4109SOL     OW13225   5.355   6.065   3.698
 4109SOL    HW113226   5.439   6.085   3.748
 4109SOL    HW213227   5.330   5.969   3.712
 4110SOL     OW13228   5.310   2.784   0.807
 4110SOL    HW113229   5.371   2.768   0.729
 4110SOL    HW213230   5.342   2.862   0.860
 4111SOL     OW13231   6.023   4.483   4.098
 4111SOL    HW113232   6.110   4.513   4.059
 4111SOL    HW213233   6.024   4.384   4.110
 4112SOL     OW13234   4.129   6.116   4.400
 4112SOL    HW113235   4.080   6.111   4.313
 4112SOL    HW213236   4.121   6.209   4.437
 4113SOL     OW13237   4.410   5.234   4.846
 4113SOL    HW113238   4.496   5.184   4.851
 4113SOL    HW213239   4.377   5.238   4.752
 4114SOL     OW13240   0.020   1.156   1.806
 4114SOL    HW113241   6.982   1.167   1.725
 4114SOL    HW213242   0.063   1.066   1.804
 4115SOL     OW13243   4.606   5.986   3.486
 4115SOL    HW113244   4.611   6.005   3.388
 4115SOL    HW213245   4.517   6.016   3.521
 4116SOL     OW13246   4.878   3.757   2.666
 4116SOL    HW113247   4.899   3.674   2.717
 4116SOL    HW213248   4.914   3.750   2.573
 4117SOL     OW13249   1.260   1.434   3.820
 4117SOL    HW113250   1.265   1.530   3.849
 4117SOL    HW213251   1.296   1.426   3.727
 4118SOL     OW13252   0.695   6.807   0.421
 4118SOL    HW113253   0.782   6.777   0.462
 4118SOL    HW213254   0.674   6.899   0.452
 4119SOL     OW13255   0.510   0.778   4.476
 4119SOL    HW113256   0.503   0.686   4.515
 4119SOL    HW213257   0.554   0.839   4.542
 4120SOL     OW13258   2.669   1.032   6.649
 4120SOL    HW113259   2.671   1.114   6.592
 4120SOL    HW213260   2.639   0.954   6.594
 4121SOL     OW13261   6.674   0.164   2.116
 4121SOL    HW113262   6.649   0.209   2.030
 4121SOL    HW213263   6.591   0.132   2.161
 4122SOL     OW13264   0.831   4.299   3.012
 4122SOL    HW113265   0.852   4.222   2.952
 4122SOL    HW213266   0.745   4.342   2.983
 4123SOL     OW13267   5.245   4.696   1.185
 4123SOL    HW113268   5.226   4.657   1.276
 4123SOL    HW213269   5.319   4.763   1.192
 4124SOL     OW13270   6.646   5.955   0.091
 4124SOL    HW113271   6.732   5.940   0.043
 4124SOL    HW213272   6.593   6.025   0.044
 4125SOL     OW13273   6.253   2.752   0.308
 4125SOL    HW113274   6.226   2.815   0.235
 4125SOL    HW213275   6.351   2.734   0.302
 4126SOL     OW13276   0.828   3.438   3.617
 4126SOL    HW113277   0.780   3.356   3.584
 4126SOL    HW213278   0.802   3.517   3.561
 4127SOL     OW13279   4.607   2.707   3.997
 4127SOL    HW113280   4.563   2.789   3.960
 4127SOL    HW213281   4.649   2.728   4.085
 4128SOL     OW13282   6.712   2.845   6.681
 4128SOL    HW113283   6.791   2.891   6.722
 4128SOL    HW213284   6.649   2.913   6.642
 4129SOL     OW13285   3.040   1.738   1.159
 4129SOL    HW113286   3.131   1.779   1.162
 4129SOL    HW213287   3.027   1.679   1.238
 4130SOL     OW13288   6.174   3.019   0.791
 4130SOL    HW113289   6.085   2.999   0.831
 4130SOL    HW213290   6.216   2.934   0.760
 4131SOL     OW13291   5.432   6.577   3.187
 4131SOL    HW113292   5.532   6.573   3.191
 4131SOL    HW213293   5.404   6.646   3.120
 4132SOL     OW13294   6.474   5.158   3.359
 4132SOL    HW113295   6.535   5.198   3.290
 4132SOL    HW213296   6.526   5.144   3.443
 4133SOL     OW13297   5.841   6.813   2.847
 4133SOL    HW113298   5.855   6.720   2.879
 4133SOL    HW213299   5.750   6.846   2.876
 4134SOL     OW13300   1.529   3.708   1.161
 4134SOL    HW113301   1.549   3.619   1.203
 4134SOL    HW213302   1.527   3.697   1.061
 4135SOL     OW13303   6.508   1.120   1.473
 4135SOL    HW113304   6.449   1.119   1.554
 4135SOL    HW213305   6.549   1.029   1.461
 4136SOL     OW13306   0.819   4.906   1.102
 4136SOL    HW113307   0.723   4.922   1.078
 4136SOL    HW213308   0.852   4.825   1.054
 4137SOL     OW13309   0.699   2.464   6.661
 4137SOL    HW113310   0.775   2.476   6.597
 4137SOL    HW213311   0.622   2.423   6.614
 4138SOL     OW13312   4.534   0.382   6.728
 4138SOL    HW113313   4.440   0.415   6.737
 4138SOL    HW213314   4.574   0.418   6.644
 4139SOL     OW13315   2.214   4.078   2.905
 4139SOL    HW113316   2.193   3.981   2.917
 4139SOL    HW213317   2.251   4.094   2.814
 4140SOL     OW13318   2.313   0.369   6.605
 4140SOL    HW113319   2.318   0.354   6.704
 4140SOL    HW213320   2.218   0.362   6.575
 4141SOL     OW13321   5.537   1.026   6.081
 4141SOL    HW113322   5.635   1.031   6.062
 4141SOL    HW213323   5.498   0.947   6.034
 4142SOL     OW13324   6.494   5.236   2.653
 4142SOL    HW113325   6.472   5.187   2.737
 4142SOL    HW213326   6.474   5.178   2.574
 4143SOL     OW13327   6.333   3.342   6.502
 4143SOL    HW113328   6.399   3.388   6.443
 4143SOL    HW213329   6.260   3.303   6.446
 4144SOL     OW13330   5.330   1.837   1.428
 4144SOL    HW113331   5.320   1.737   1.427
 4144SOL    HW213332   5.247   1.878   1.467
 4145SOL     OW13333   0.041   0.574   1.804
 4145SOL    HW113334   6.967   0.540   1.814
 4145SOL    HW213335   0.102   0.517   1.859
 4146SOL     OW13336   4.974   6.443   1.796
 4146SOL    HW113337   5.024   6.511   1.742
 4146SOL    HW213338   4.945   6.485   1.882
 4147SOL     OW13339   4.704   4.995   6.607
 4147SOL    HW113340   4.675   5.026   6.516
 4147SOL    HW213341   4.781   5.050   6.638
 4148SOL     OW13342   3.151   1.252   4.874
 4148SOL    HW113343   3.113   1.194   4.946
 4148SOL    HW213344   3.147   1.204   4.786
 4149SOL     OW13345   1.268   3.904   6.328
 4149SOL    HW113346   1.291   3.935   6.235
 4149SOL    HW213347   1.208   3.825   6.322
 4150SOL     OW13348   5.375   1.523   7.001
 4150SOL    HW113349   5.452   1.544   6.941
 4150SOL    HW213350   5.387   1.431   0.020
 4151SOL     OW13351   2.581   5.840   4.631
 4151SOL    HW113352   2.607   5.816   4.724
 4151SOL    HW213353   2.570   5.939   4.624
 4152SOL     OW13354   2.266   4.159   1.295
 4152SOL    HW113355   2.245   4.120   1.385
 4152SOL    HW213356   2.184   4.155   1.237
 4153SOL     OW13357   6.541   5.950   1.727
 4153SOL    HW113358   6.596   5.929   1.645
 4153SOL    HW213359   6.597   6.000   1.792
 4154SOL     OW13360   0.800   6.450   4.158
 4154SOL    HW113361   0.717   6.433   4.211
 4154SOL    HW213362   0.776   6.496   4.073
 4155SOL     OW13363   0.267   0.440   1.908
 4155SOL    HW113364   0.279   0.475   2.001
 4155SOL    HW213365   0.341   0.376   1.887
 4156SOL     OW13366   0.560   4.855   5.983
 4156SOL    HW113367   0.492   4.782   5.997
 4156SOL    HW213368   0.517   4.944   6.000
 4157SOL     OW13369   5.606   5.662   1.259
 4157SOL    HW113370   5.646   5.596   1.195
 4157SOL    HW213371   5.577   5.615   1.342
 4158SOL     OW13372   0.868   3.250   1.349
 4158SOL    HW113373   0.923   3.276   1.429
 4158SOL    HW213374   0.916   3.179   1.297
 4159SOL     OW13375   2.763   0.489   4.566
 4159SOL    HW113376   2.678   0.488   4.514
 4159SOL    HW213377   2.790   0.583   4.586
 4160SOL     OW13378   0.719   6.912   6.517
 4160SOL    HW113379   0.729   7.007   6.546
 4160SOL    HW213380   0.788   6.856   6.562
 4161SOL     OW13381   3.557   3.495   2.774
 4161SOL    HW113382   3.649   3.512   2.809
 4161SOL    HW213383   3.502   3.449   2.844
 4162SOL     OW13384   5.268   5.458   1.406
 4162SOL    HW113385   5.302   5.476   1.498
 4162SOL    HW213386   5.258   5.360   1.393
 4163SOL     OW13387   3.571   5.721   1.999
 4163SOL    HW113388   3.570   5.750   1.903
 4163SOL    HW213389   3.477   5.716   2.033
 4164SOL     OW13390   6.990   1.018   6.178
 4164SOL    HW113391   0.059   1.026   6.223
 4164SOL    HW213392   6.982   0.927   6.136
 4165SOL     OW13393   4.221   1.048   4.577
 4165SOL    HW113394   4.279   1.065   4.497
 4165SOL    HW213395   4.157   1.124   4.588
 4166SOL     OW13396   5.687   2.354   1.240
 4166SOL    HW113397   5.736   2.418   1.300
 4166SOL    HW213398   5.610   2.314   1.290
 4167SOL     OW13399   3.718   5.246   4.583
 4167SOL    HW113400   3.674   5.267   4.670
 4167SOL    HW213401   3.740   5.149   4.580
 4168SOL     OW13402   5.095   3.883   0.236
 4168SOL    HW113403   5.139   3.885   0.326
 4168SOL    HW213404   4.996   3.871   0.248
 4169SOL     OW13405   5.415   2.880   6.067
 4169SOL    HW113406   5.510   2.851   6.062
 4169SOL    HW213407   5.358   2.816   6.016
 4170SOL     OW13408   0.567   2.114   4.466
 4170SOL    HW113409   0.546   2.130   4.562
 4170SOL    HW213410   0.614   2.026   4.457
 4171SOL     OW13411   0.911   1.659   0.063
 4171SOL    HW113412   0.851   1.719   0.009
 4171SOL    HW213413   0.914   1.691   0.157
 4172SOL     OW13414   2.871   3.218   0.765
 4172SOL    HW113415   2.861   3.313   0.794
 4172SOL    HW213416   2.781   3.176   0.756
 4173SOL     OW13417   5.076   2.036   6.488
 4173SOL    HW113418   5.009   2.110   6.480
 4173SOL    HW213419   5.028   1.949   6.492
 4174SOL     OW13420   4.239   0.035   4.602
 4174SOL    HW113421   4.332   0.055   4.634
 4174SOL    HW213422   4.219   0.091   4.522
 4175SOL     OW13423   0.905   4.313   6.590
 4175SOL    HW113424   0.916   4.412   6.599
 4175SOL    HW213425   0.808   4.291   6.577
 4176SOL     OW13426   5.885   6.698   6.415
 4176SOL    HW113427   5.965   6.652   6.451
 4176SOL    HW213428   5.902   6.797   6.412
 4177SOL     OW13429   4.200   4.678   2.741
 4177SOL    HW113430   4.292   4.642   2.726
 4177SOL    HW213431   4.142   4.656   2.663
 4178SOL     OW13432   4.117   6.305   1.456
 4178SOL    HW113433   4.079   6.228   1.508
 4178SOL    HW213434   4.062   6.319   1.373
 4179SOL     OW13435   4.747   2.977   6.676
 4179SOL    HW113436   4.771   2.944   6.585
 4179SOL    HW213437   4.831   2.998   6.727
 4180SOL     OW13438   4.158   3.505   0.751
 4180SOL    HW113439   4.115   3.592   0.727
 4180SOL    HW213440   4.258   3.513   0.743
 4181SOL     OW13441   5.183   6.939   5.787
 4181SOL    HW113442   5.128   6.856   5.795
 4181SOL    HW213443   5.144   7.011   5.844
 4182SOL     OW13444   0.731   6.456   4.806
 4182SOL    HW113445   0.815   6.497   4.843
 4182SOL    HW213446   0.673   6.426   4.882
 4183SOL     OW13447   4.421   2.173   0.861
 4183SOL    HW113448   4.376   2.231   0.928
 4183SOL    HW213449   4.366   2.091   0.845
 4184SOL     OW13450   3.658   5.576   3.992
 4184SOL    HW113451   3.639   5.670   4.021
 4184SOL    HW213452   3.610   5.513   4.052
 4185SOL     OW13453   4.857   3.390   3.529
 4185SOL    HW113454   4.852   3.314   3.464
 4185SOL    HW213455   4.825   3.359   3.619
 4186SOL     OW13456   1.600   5.999   0.233
 4186SOL    HW113457   1.627   6.072   0.169
 4186SOL    HW213458   1.526   5.946   0.193
 4187SOL     OW13459   1.565   3.275   6.824
 4187SOL    HW113460   1.615   3.360   6.814
 4187SOL    HW213461   1.556   3.230   6.735
 4188SOL     OW13462   4.534   0.122   0.012
 4188SOL    HW113463   4.455   0.155   0.063
 4188SOL    HW213464   4.604   0.194   0.007
 4189SOL     OW13465   4.381   5.128   3.518
 4189SOL    HW113466   4.334   5.052   3.564
 4189SOL    HW213467   4.465   5.149   3.567
 4190SOL     OW13468   6.636   5.970   1.132
 4190SOL    HW113469   6.727   5.965   1.171
 4190SOL    HW213470   6.568   5.951   1.202
 4191SOL     OW13471   4.327   3.763   6.467
 4191SOL    HW113472   4.345   3.754   6.369
 4191SOL    HW213473   4.386   3.699   6.517
 4192SOL     OW13474   1.465   3.407   0.016
 4192SOL    HW113475   1.519   3.364   6.963
 4192SOL    HW213476   1.427   3.336   0.074
 4193SOL     OW13477   0.387   0.259   0.382
 4193SOL    HW113478   0.417   0.230   0.473
 4193SOL    HW213479   0.374   0.358   0.382
 4194SOL     OW13480   5.197   1.855   5.842
 4194SOL    HW113481   5.179   1.905   5.758
 4194SOL    HW213482   5.131   1.884   5.912
 4195SOL     OW13483   4.078   0.147   0.626
 4195SOL    HW113484   4.168   0.179   0.654
 4195SOL    HW213485   4.016   0.147   0.705
 4196SOL     OW13486   6.024   2.856   2.661
 4196SOL    HW113487   5.985   2.944   2.688
 4196SOL    HW213488   6.120   2.852   2.690
 4197SOL     OW13489   4.028   1.011   6.712
 4197SOL    HW113490   3.994   1.053   6.628
 4197SOL    HW213491   4.082   0.930   6.690
 4198SOL     OW13492   6.184   2.066   2.322
 4198SOL    HW113493   6.213   2.042   2.229
 4198SOL    HW213494   6.091   2.104   2.319
 4199SOL     OW13495   0.213   4.115   6.501
 4199SOL    HW113496   0.218   4.024   6.459
 4199SOL    HW213497   0.197   4.106   6.599
 4200SOL     OW13498   4.290   1.487   3.815
 4200SOL    HW113499   4.367   1.504   3.754
 4200SOL    HW213500   4.207   1.529   3.777
 4201SOL     OW13501   6.072   6.777   3.845
 4201SOL    HW113502   6.118   6.863   3.867
 4201SOL    HW213503   6.032   6.783   3.753
 4202SOL     OW13504   4.918   3.991   1.249
 4202SOL    HW113505   4.822   3.971   1.268
 4202SOL    HW213506   4.968   3.996   1.335
 4203SOL     OW13507   6.361   4.255   5.131
 4203SOL    HW113508   6.296   4.241   5.206
 4203SOL    HW213509   6.326   4.211   5.048
 4204SOL     OW13510   1.663   3.591   6.414
 4204SOL    HW113511   1.695   3.551   6.328
 4204SOL    HW213512   1.701   3.683   6.424
 4205SOL     OW13513   4.400   6.848   6.376
 4205SOL    HW113514   4.430   6.889   6.290
 4205SOL    HW213515   4.464   6.873   6.449
 4206SOL     OW13516   2.234   2.043   4.731
 4206SOL    HW113517   2.144   2.074   4.763
 4206SOL    HW213518   2.223   1.986   4.650
 4207SOL     OW13519   0.396   1.638   2.268
 4207SOL    HW113520   0.388   1.712   2.201
 4207SOL    HW213521   0.305   1.602   2.288
 4208SOL     OW13522   2.080   2.567   3.711
 4208SOL    HW113523   2.097   2.628   3.788
 4208SOL    HW213524   1.990   2.524   3.722
 4209SOL     OW13525   6.188   6.355   1.964
 4209SOL    HW113526   6.146   6.290   1.901
 4209SOL    HW213527   6.286   6.360   1.945
 4210SOL     OW13528   3.507   4.086   4.633
 4210SOL    HW113529   3.450   4.109   4.554
 4210SOL    HW213530   3.603   4.102   4.611
 4211SOL     OW13531   3.930   2.619   5.359
 4211SOL    HW113532   3.998   2.608   5.286
 4211SOL    HW213533   3.858   2.681   5.328
 4212SOL     OW13534   6.736   1.995   3.325
 4212SOL    HW113535   6.697   1.904   3.338
 4212SOL    HW213536   6.677   2.048   3.264
 4213SOL     OW13537   3.158   0.735   4.401
 4213SOL    HW113538   3.146   0.650   4.452
 4213SOL    HW213539   3.068   0.767   4.369
 4214SOL     OW13540   6.763   6.444   3.125
 4214SOL    HW113541   6.702   6.470   3.200
 4214SOL    HW213542   6.853   6.421   3.161
 4215SOL     OW13543   5.351   6.995   5.585
 4215SOL    HW113544   5.277   6.975   5.649
 4215SOL    HW213545   5.422   0.027   5.632
 4216SOL     OW13546   2.230   5.669   1.992
 4216SOL    HW113547   2.221   5.585   2.045
 4216SOL    HW213548   2.284   5.651   1.910
 4217SOL     OW13549   1.278   0.898   3.363
 4217SOL    HW113550   1.302   0.822   3.425
 4217SOL    HW213551   1.313   0.879   3.272
 4218SOL     OW13552   3.543   1.388   0.507
 4218SOL    HW113553   3.502   1.309   0.463
 4218SOL    HW213554   3.605   1.434   0.443
 4219SOL     OW13555   4.268   5.627   2.530
 4219SOL    HW113556   4.203   5.555   2.510
 4219SOL    HW213557   4.358   5.587   2.549
 4220SOL     OW13558   5.493   1.452   1.717
 4220SOL    HW113559   5.552   1.513   1.664
 4220SOL    HW213560   5.476   1.368   1.665
 4221SOL     OW13561   1.620   6.370   0.750
 4221SOL    HW113562   1.604   6.356   0.848
 4221SOL    HW213563   1.698   6.431   0.738
 4222SOL     OW13564   5.256   2.841   4.143
 4222SOL    HW113565   5.239   2.928   4.190
 4222SOL    HW213566   5.180   2.820   4.082
 4223SOL     OW13567   4.122   3.665   2.312
 4223SOL    HW113568   4.138   3.608   2.393
 4223SOL    HW213569   4.205   3.717   2.292
 4224SOL     OW13570   4.777   5.070   4.527
 4224SOL    HW113571   4.852   5.100   4.587
 4224SOL    HW213572   4.757   5.142   4.461
 4225SOL     OW13573   0.800   1.861   6.062
 4225SOL    HW113574   0.754   1.775   6.040
 4225SOL    HW213575   0.829   1.907   5.978
 4226SOL     OW13576   0.732   6.076   4.679
 4226SOL    HW113577   0.732   5.976   4.669
 4226SOL    HW213578   0.658   6.104   4.739
 4227SOL     OW13579   4.360   5.440   2.175
 4227SOL    HW113580   4.289   5.509   2.190
 4227SOL    HW213581   4.333   5.383   2.097
 4228SOL     OW13582   1.049   5.626   3.803
 4228SOL    HW113583   1.047   5.667   3.712
 4228SOL    HW213584   1.128   5.662   3.854
 4229SOL     OW13585   6.708   5.166   5.852
 4229SOL    HW113586   6.761   5.169   5.937
 4229SOL    HW213587   6.617   5.130   5.872
 4230SOL     OW13588   6.685   0.865   2.053
 4230SOL    HW113589   6.706   0.957   2.086
 4230SOL    HW213590   6.695   0.800   2.128
 4231SOL     OW13591   6.746   1.498   6.375
 4231SOL    HW113592   6.769   1.417   6.428
 4231SOL    HW213593   6.778   1.487   6.281
 4232SOL     OW13594   1.565   5.389   3.828
 4232SOL    HW113595   1.578   5.487   3.845
 4232SOL    HW213596   1.580   5.370   3.731
 4233SOL     OW13597   3.999   5.216   2.408
 4233SOL    HW113598   4.016   5.283   2.336
 4233SOL    HW213599   3.956   5.134   2.369
 4234SOL     OW13600   3.105   5.195   6.018
 4234SOL    HW113601   3.043   5.259   5.972
 4234SOL    HW213602   3.144   5.132   5.950
 4235SOL     OW13603   6.933   6.068   5.799
 4235SOL    HW113604   6.885   6.064   5.712
 4235SOL    HW213605   6.970   6.160   5.813
 4236SOL     OW13606   0.678   5.107   2.584
 4236SOL    HW113607   0.618   5.093   2.663
 4236SOL    HW213608   0.750   5.173   2.608
 4237SOL     OW13609   0.187   4.699   4.020
 4237SOL    HW113610   0.277   4.714   4.060
 4237SOL    HW213611   0.179   4.603   3.993
 4238SOL     OW13612   3.254   6.485   2.661
 4238SOL    HW113613   3.202   6.403   2.686
 4238SOL    HW213614   3.190   6.558   2.636
 4239SOL     OW13615   3.931   0.969   3.729
 4239SOL    HW113616   4.022   0.996   3.760
 4239SOL    HW213617   3.909   1.017   3.644
 4240SOL     OW13618   6.553   6.609   2.190
 4240SOL    HW113619   6.499   6.691   2.169
 4240SOL    HW213620   6.492   6.539   2.228
 4241SOL     OW13621   6.329   3.671   0.506
 4241SOL    HW113622   6.305   3.767   0.488
 4241SOL    HW213623   6.386   3.665   0.588
 4242SOL     OW13624   2.907   1.715   3.542
 4242SOL    HW113625   2.841   1.777   3.583
 4242SOL    HW213626   2.947   1.757   3.460
 4243SOL     OW13627   4.797   0.792   3.094
 4243SOL    HW113628   4.837   0.874   3.054
 4243SOL    HW213629   4.702   0.782   3.062
 4244SOL     OW13630   3.442   3.077   3.658
 4244SOL    HW113631   3.357   3.027   3.642
 4244SOL    HW213632   3.480   3.108   3.571
 4245SOL     OW13633   6.169   1.494   6.552
 4245SOL    HW113634   6.253   1.468   6.601
 4245SOL    HW213635   6.139   1.417   6.496
 4246SOL     OW13636   0.320   3.197   0.525
 4246SOL    HW113637   0.265   3.209   0.442
 4246SOL    HW213638   0.280   3.251   0.599
 4247SOL     OW13639   0.023   5.769   5.651
 4247SOL    HW113640   0.048   5.789   5.746
 4247SOL    HW213641   0.104   5.771   5.593
 4248SOL     OW13642   1.484   3.066   4.869
 4248SOL    HW113643   1.536   3.017   4.799
 4248SOL    HW213644   1.411   3.007   4.904
 4249SOL     OW13645   5.632   4.099   5.990
 4249SOL    HW113646   5.656   4.145   6.075
 4249SOL    HW213647   5.641   4.163   5.914
 4250SOL     OW13648   0.412   4.329   2.773
 4250SOL    HW113649   0.352   4.400   2.737
 4250SOL    HW213650   0.451   4.358   2.860
 4251SOL     OW13651   5.628   3.824   0.554
 4251SOL    HW113652   5.612   3.910   0.505
 4251SOL    HW213653   5.723   3.796   0.541
 4252SOL     OW13654   0.506   6.019   5.681
 4252SOL    HW113655   0.565   5.946   5.646
 4252SOL    HW213656   0.503   6.094   5.615
 4253SOL     OW13657   4.165   6.093   2.618
 4253SOL    HW113658   4.065   6.094   2.622
 4253SOL    HW213659   4.200   6.016   2.671
 4254SOL     OW13660   2.517   4.292   0.827
 4254SOL    HW113661   2.568   4.239   0.896
 4254SOL    HW213662   2.582   4.329   0.760
 4255SOL     OW13663   0.034   2.035   4.355
 4255SOL    HW113664   0.003   2.125   4.322
 4255SOL    HW213665   6.975   1.975   4.365
 4256SOL     OW13666   1.984   1.073   2.127
 4256SOL    HW113667   2.013   1.153   2.179
 4256SOL    HW213668   2.027   0.990   2.166
 4257SOL     OW13669   4.145   2.073   4.564
 4257SOL    HW113670   4.147   2.035   4.657
 4257SOL    HW213671   4.103   2.163   4.566
 4258SOL     OW13672   5.591   6.551   2.580
 4258SOL    HW113673   5.621   6.498   2.500
 4258SOL    HW213674   5.492   6.566   2.574
 4259SOL     OW13675   1.947   3.036   0.328
 4259SOL    HW113676   1.882   3.056   0.254
 4259SOL    HW213677   1.928   2.946   0.366
 4260SOL     OW13678   4.893   5.681   3.329
 4260SOL    HW113679   4.984   5.642   3.339
 4260SOL    HW213680   4.899   5.781   3.333
 4261SOL     OW13681   2.273   1.024   2.819
 4261SOL    HW113682   2.280   1.119   2.847
 4261SOL    HW213683   2.194   1.012   2.758
 4262SOL     OW13684   0.412   5.822   6.461
 4262SOL    HW113685   0.472   5.833   6.541
 4262SOL    HW213686   0.429   5.733   6.420
 4263SOL     OW13687   3.361   5.500   5.999
 4263SOL    HW113688   3.273   5.546   5.989
 4263SOL    HW213689   3.402   5.483   5.909
 4264SOL     OW13690   0.010   0.430   1.028
 4264SOL    HW113691   6.947   0.424   0.974
 4264SOL    HW213692   0.090   0.424   0.968
 4265SOL     OW13693   6.885   2.428   0.678
 4265SOL    HW113694   6.865   2.488   0.756
 4265SOL    HW213695   6.817   2.444   0.606
 4266SOL     OW13696   3.113   4.570   0.603
 4266SOL    HW113697   3.053   4.589   0.681
 4266SOL    HW213698   3.208   4.584   0.631
 4267SOL     OW13699   1.969   4.058   5.751
 4267SOL    HW113700   2.019   3.971   5.752
 4267SOL    HW213701   2.006   4.117   5.680
 4268SOL     OW13702   1.626   1.295   0.803
 4268SOL    HW113703   1.551   1.270   0.742
 4268SOL    HW213704   1.596   1.288   0.898
 4269SOL     OW13705   3.422   3.570   0.387
 4269SOL    HW113706   3.433   3.649   0.326
 4269SOL    HW213707   3.348   3.587   0.451
 4270SOL     OW13708   3.431   2.739   5.405
 4270SOL    HW113709   3.452   2.803   5.478
 4270SOL    HW213710   3.461   2.647   5.432
 4271SOL     OW13711   1.096   0.001   0.373
 4271SOL    HW113712   1.011   0.052   0.357
 4271SOL    HW213713   1.111   7.011   0.472
 4272SOL     OW13714   6.968   4.680   4.167
 4272SOL    HW113715   0.042   4.691   4.135
 4272SOL    HW213716   6.910   4.651   4.091
 4273SOL     OW13717   6.134   6.284   5.253
 4273SOL    HW113718   6.128   6.204   5.193
 4273SOL    HW213719   6.229   6.316   5.257
 4274SOL     OW13720   2.121   0.307   4.154
 4274SOL    HW113721   2.116   0.331   4.251
 4274SOL    HW213722   2.147   0.388   4.101
 4275SOL     OW13723   0.932   6.774   6.618
 4275SOL    HW113724   0.962   6.773   6.522
 4275SOL    HW213725   0.991   6.835   6.670
 4276SOL     OW13726   2.042   4.261   2.167
 4276SOL    HW113727   1.985   4.343   2.179
 4276SOL    HW213728   1.986   4.179   2.182
 4277SOL     OW13729   0.538   5.336   3.685
 4277SOL    HW113730   0.623   5.317   3.635
 4277SOL    HW213731   0.558   5.343   3.783
 4278SOL     OW13732   0.456   6.461   5.461
 4278SOL    HW113733   0.484   6.437   5.368
 4278SOL    HW213734   0.453   6.561   5.470
 4279SOL     OW13735   3.516   5.661   4.253
 4279SOL    HW113736   3.487   5.670   4.348
 4279SOL    HW213737   3.513   5.565   4.226
 4280SOL     OW13738   4.964   3.369   3.953
 4280SOL    HW113739   5.059   3.340   3.960
 4280SOL    HW213740   4.929   3.391   4.044
 4281SOL     OW13741   2.113   4.076   5.200
 4281SOL    HW113742   2.201   4.069   5.153
 4281SOL    HW213743   2.069   3.986   5.203
 4282SOL     OW13744   1.536   2.624   1.155
 4282SOL    HW113745   1.541   2.551   1.087
 4282SOL    HW213746   1.462   2.605   1.219
 4283SOL     OW13747   1.664   0.283   4.546
 4283SOL    HW113748   1.638   0.284   4.642
 4283SOL    HW213749   1.586   0.311   4.490
 4284SOL     OW13750   6.088   1.799   2.706
 4284SOL    HW113751   6.141   1.869   2.659
 4284SOL    HW213752   6.037   1.745   2.640
 4285SOL     OW13753   1.057   5.995   6.237
 4285SOL    HW113754   1.120   5.948   6.175
 4285SOL    HW213755   0.991   5.930   6.273
 4286SOL     OW13756   5.732   5.284   0.043
 4286SOL    HW113757   5.746   5.315   0.137
 4286SOL    HW213758   5.714   5.363   7.004
 4287SOL     OW13759   4.932   6.673   4.852
 4287SOL    HW113760   5.020   6.719   4.838
 4287SOL    HW213761   4.899   6.637   4.764
 4288SOL     OW13762   1.568   7.015   2.824
 4288SOL    HW113763   1.667   7.004   2.823
 4288SOL    HW213764   1.543   0.066   2.889
 4289SOL     OW13765   5.762   3.695   1.184
 4289SOL    HW113766   5.683   3.668   1.128
 4289SOL    HW213767   5.799   3.781   1.149
 4290SOL     OW13768   2.371   1.021   1.909
 4290SOL    HW113769   2.461   1.057   1.881
 4290SOL    HW213770   2.340   0.954   1.841
 4291SOL     OW13771   6.382   4.395   1.207
 4291SOL    HW113772   6.433   4.474   1.241
 4291SOL    HW213773   6.433   4.351   1.134
 4292SOL     OW13774   6.224   5.357   6.664
 4292SOL    HW113775   6.205   5.388   6.757
 4292SOL    HW213776   6.281   5.424   6.617
 4293SOL     OW13777   6.821   2.578   0.116
 4293SOL    HW113778   6.818   2.520   0.035
 4293SOL    HW213779   6.914   2.579   0.153
 4294SOL     OW13780   5.014   2.230   5.743
 4294SOL    HW113781   5.065   2.302   5.791
 4294SOL    HW213782   4.921   2.262   5.725
 4295SOL     OW13783   4.039   6.617   4.697
 4295SOL    HW113784   4.025   6.554   4.620
 4295SOL    HW213785   4.111   6.682   4.673
 4296SOL     OW13786   2.210   1.708   0.665
 4296SOL    HW113787   2.261   1.678   0.745
 4296SOL    HW213788   2.116   1.675   0.671
 4297SOL     OW13789   5.825   0.567   5.688
 4297SOL    HW113790   5.732   0.530   5.687
 4297SOL    HW213791   5.870   0.544   5.774
 4298SOL     OW13792   3.215   5.537   0.849
 4298SOL    HW113793   3.297   5.587   0.821
 4298SOL    HW213794   3.182   5.574   0.936
 4299SOL     OW13795   0.582   3.961   6.503
 4299SOL    HW113796   0.501   3.933   6.554
 4299SOL    HW213797   0.582   3.917   6.414
 4300SOL     OW13798   5.656   0.606   0.085
 4300SOL    HW113799   5.573   0.613   0.031
 4300SOL    HW213800   5.685   0.510   0.091
 4301SOL     OW13801   3.203   1.366   0.190
 4301SOL    HW113802   3.169   1.426   0.262
 4301SOL    HW213803   3.181   1.405   0.101
 4302SOL     OW13804   0.765   6.251   6.793
 4302SOL    HW113805   0.819   6.268   6.876
 4302SOL    HW213806   0.824   6.213   6.722
 4303SOL     OW13807   6.655   3.088   1.897
 4303SOL    HW113808   6.656   3.130   1.988
 4303SOL    HW213809   6.734   3.027   1.887
 4304SOL     OW13810   3.261   2.948   3.937
 4304SOL    HW113811   3.268   2.941   4.036
 4304SOL    HW213812   3.325   2.884   3.894
 4305SOL     OW13813   6.190   1.859   3.700
 4305SOL    HW113814   6.168   1.764   3.722
 4305SOL    HW213815   6.167   1.917   3.778
 4306SOL     OW13816   6.402   5.530   5.670
 4306SOL    HW113817   6.412   5.452   5.609
 4306SOL    HW213818   6.305   5.555   5.675
 4307SOL     OW13819   5.120   3.484   6.125
 4307SOL    HW113820   5.135   3.576   6.161
 4307SOL    HW213821   5.206   3.433   6.127
 4308SOL     OW13822   5.184   6.316   4.742
 4308SOL    HW113823   5.184   6.371   4.659
 4308SOL    HW213824   5.141   6.368   4.816
 4309SOL     OW13825   1.790   1.436   0.633
 4309SOL    HW113826   1.753   1.378   0.706
 4309SOL    HW213827   1.736   1.424   0.550
 4310SOL     OW13828   1.172   0.712   2.534
 4310SOL    HW113829   1.239   0.638   2.535
 4310SOL    HW213830   1.106   0.696   2.460
 4311SOL     OW13831   1.708   6.549   3.700
 4311SOL    HW113832   1.718   6.648   3.690
 4311SOL    HW213833   1.662   6.528   3.786
 4312SOL     OW13834   2.554   5.104   1.846
 4312SOL    HW113835   2.580   5.095   1.942
 4312SOL    HW213836   2.610   5.042   1.791
 4313SOL     OW13837   4.649   0.509   2.517
 4313SOL    HW113838   4.708   0.464   2.585
 4313SOL    HW213839   4.667   0.607   2.517
 4314SOL     OW13840   4.800   2.978   2.934
 4314SOL    HW113841   4.794   3.073   2.905
 4314SOL    HW213842   4.864   2.929   2.876
 4315SOL     OW13843   2.562   1.638   2.085
 4315SOL    HW113844   2.535   1.733   2.071
 4315SOL    HW213845   2.508   1.599   2.159
 4316SOL     OW13846   6.803   6.936   2.506
 4316SOL    HW113847   6.764   0.007   2.519
 4316SOL    HW213848   6.790   6.907   2.411
 4317SOL     OW13849   4.166   1.347   3.015
 4317SOL    HW113850   4.231   1.274   3.037
 4317SOL    HW213851   4.117   1.373   3.098
 4318SOL     OW13852   0.089   2.336   4.062
 4318SOL    HW113853   0.183   2.303   4.070
 4318SOL    HW213854   0.037   2.274   4.003
 4319SOL     OW13855   2.394   3.553   5.742
 4319SOL    HW113856   2.301   3.548   5.704
 4319SOL    HW213857   2.412   3.471   5.796
 4320SOL     OW13858   6.928   5.634   2.915
 4320SOL    HW113859   7.008   5.655   2.971
 4320SOL    HW213860   6.939   5.543   2.874
 4321SOL     OW13861   0.803   0.131   5.539
 4321SOL    HW113862   0.733   0.200   5.555
 4321SOL    HW213863   0.800   0.101   5.444
 4322SOL     OW13864   6.052   0.788   0.561
 4322SOL    HW113865   5.953   0.796   0.573
 4322SOL    HW213866   6.098   0.837   0.635
 4323SOL     OW13867   6.750   2.556   3.549
 4323SOL    HW113868   6.720   2.595   3.636
 4323SOL    HW213869   6.818   2.617   3.507
 4324SOL     OW13870   6.079   4.221   5.698
 4324SOL    HW113871   6.057   4.235   5.601
 4324SOL    HW213872   6.061   4.125   5.722
 4325SOL     OW13873   2.113   1.754   6.428
 4325SOL    HW113874   2.083   1.803   6.510
 4325SOL    HW213875   2.096   1.656   6.440
 4326SOL     OW13876   6.282   2.271   5.612
 4326SOL    HW113877   6.312   2.268   5.516
 4326SOL    HW213878   6.196   2.221   5.622
 4327SOL     OW13879   5.950   6.678   2.485
 4327SOL    HW113880   6.017   6.678   2.410
 4327SOL    HW213881   5.876   6.742   2.463
 4328SOL     OW13882   5.274   5.045   0.521
 4328SOL    HW113883   5.283   5.135   0.479
 4328SOL    HW213884   5.212   5.050   0.600
 4329SOL     OW13885   3.328   1.648   5.880
 4329SOL    HW113886   3.327   1.679   5.975
 4329SOL    HW213887   3.416   1.606   5.860
 4330SOL     OW13888   1.565   0.660   6.369
 4330SOL    HW113889   1.554   0.661   6.468
 4330SOL    HW213890   1.630   0.731   6.342
 4331SOL     OW13891   6.171   2.653   6.990
 4331SOL    HW113892   6.201   2.729   0.028
 4331SOL    HW213893   6.231   2.645   6.911
 4332SOL     OW13894   5.202   3.322   1.219
 4332SOL    HW113895   5.225   3.383   1.143
 4332SOL    HW213896   5.260   3.343   1.298
 4333SOL     OW13897   5.583   0.995   5.229
 4333SOL    HW113898   5.619   1.084   5.201
 4333SOL    HW213899   5.484   1.001   5.241
 4334SOL     OW13900   4.516   0.947   2.130
 4334SOL    HW113901   4.612   0.976   2.131
 4334SOL    HW213902   4.461   1.013   2.181
 4335SOL     OW13903   3.287   4.112   5.148
 4335SOL    HW113904   3.294   4.207   5.180
 4335SOL    HW213905   3.336   4.052   5.212
 4336SOL     OW13906   1.337   6.061   4.067
 4336SOL    HW113907   1.252   6.037   4.021
 4336SOL    HW213908   1.407   6.081   3.999
 4337SOL     OW13909   6.851   5.079   1.044
 4337SOL    HW113910   6.866   4.998   1.101
 4337SOL    HW213911   6.914   5.078   0.966
 4338SOL     OW13912   6.388   6.569   4.005
 4338SOL    HW113913   6.474   6.535   4.042
 4338SOL    HW213914   6.402   6.661   3.968
 4339SOL     OW13915   6.494   1.513   6.306
 4339SOL    HW113916   6.444   1.596   6.328
 4339SOL    HW213917   6.588   1.520   6.339
 4340SOL     OW13918   4.672   3.395   1.493
 4340SOL    HW113919   4.726   3.311   1.490
 4340SOL    HW213920   4.690   3.450   1.412
 4341SOL     OW13921   0.482   4.447   0.901
 4341SOL    HW113922   0.501   4.390   0.821
 4341SOL    HW213923   0.460   4.540   0.872
 4342SOL     OW13924   0.019   3.029   2.749
 4342SOL    HW113925   0.024   3.074   2.838
 4342SOL    HW213926   0.028   2.930   2.761
 4343SOL     OW13927   2.463   1.693   1.188
 4343SOL    HW113928   2.460   1.704   1.287
 4343SOL    HW213929   2.430   1.601   1.163
 4344SOL     OW13930   2.034   4.806   3.120
 4344SOL    HW113931   1.978   4.886   3.143
 4344SOL    HW213932   2.130   4.826   3.142
 4345SOL     OW13933   1.953   1.758   5.817
 4345SOL    HW113934   1.993   1.668   5.836
 4345SOL    HW213935   1.998   1.798   5.737
 4346SOL     OW13936   1.571   3.137   1.666
 4346SOL    HW113937   1.588   3.236   1.664
 4346SOL    HW213938   1.658   3.089   1.676
 4347SOL     OW13939   6.176   6.477   2.659
 4347SOL    HW113940   6.157   6.517   2.569
 4347SOL    HW213941   6.149   6.542   2.731
 4348SOL     OW13942   0.844   3.627   6.933
 4348SOL    HW113943   0.789   3.564   6.987
 4348SOL    HW213944   0.801   3.640   6.844
 4349SOL     OW13945   6.695   0.431   3.889
 4349SOL    HW113946   6.646   0.473   3.813
 4349SOL    HW213947   6.758   0.362   3.854
 4350SOL     OW13948   5.030   1.944   3.619
 4350SOL    HW113949   5.094   1.916   3.548
 4350SOL    HW213950   4.937   1.926   3.589
 4351SOL     OW13951   2.896   6.249   0.825
 4351SOL    HW113952   2.817   6.293   0.868
 4351SOL    HW213953   2.979   6.294   0.857
 4352SOL     OW13954   6.451   1.589   1.802
 4352SOL    HW113955   6.452   1.529   1.722
 4352SOL    HW213956   6.525   1.655   1.796
 4353SOL     OW13957   4.010   5.808   0.270
 4353SOL    HW113958   3.995   5.751   0.189
 4353SOL    HW213959   4.101   5.849   0.266
 4354SOL     OW13960   1.481   0.449   1.070
 4354SOL    HW113961   1.493   0.532   1.015
 4354SOL    HW213962   1.516   0.370   1.020
 4355SOL     OW13963   5.676   0.961   1.144
 4355SOL    HW113964   5.674   0.994   1.050
 4355SOL    HW213965   5.623   0.876   1.151
 4356SOL     OW13966   3.702   4.491   0.462
 4356SOL    HW113967   3.727   4.409   0.514
 4356SOL    HW213968   3.720   4.572   0.517
 4357SOL     OW13969   6.450   0.831   6.785
 4357SOL    HW113970   6.413   0.822   6.693
 4357SOL    HW213971   6.401   0.903   6.834
 4358SOL     OW13972   0.762   0.537   1.916
 4358SOL    HW113973   0.683   0.579   1.961
 4358SOL    HW213974   0.746   0.533   1.817
 4359SOL     OW13975   6.258   2.233   3.692
 4359SOL    HW113976   6.197   2.158   3.719
 4359SOL    HW213977   6.352   2.210   3.719
 4360SOL     OW13978   1.685   3.234   1.246
 4360SOL    HW113979   1.699   3.228   1.147
 4360SOL    HW213980   1.618   3.164   1.273
 4361SOL     OW13981   4.680   1.809   1.940
 4361SOL    HW113982   4.580   1.802   1.936
 4361SOL    HW213983   4.719   1.719   1.957
 4362SOL     OW13984   5.816   4.676   3.986
 4362SOL    HW113985   5.857   4.766   3.968
 4362SOL    HW213986   5.879   4.621   4.040
 4363SOL     OW13987   4.975   1.704   5.984
 4363SOL    HW113988   4.985   1.682   5.887
 4363SOL    HW213989   4.882   1.682   6.014
 4364SOL     OW13990   3.751   4.055   5.021
 4364SOL    HW113991   3.652   4.063   5.012
 4364SOL    HW213992   3.791   4.034   4.932
 4365SOL     OW13993   3.502   0.954   1.409
 4365SOL    HW113994   3.487   0.868   1.360
 4365SOL    HW213995   3.427   0.968   1.474
 4366SOL     OW13996   5.453   4.899   1.222
 4366SOL    HW113997   5.549   4.899   1.194
 4366SOL    HW213998   5.429   4.987   1.263
 4367SOL     OW13999   1.009   6.383   6.618
 4367SOL    HW114000   1.028   6.292   6.580
 4367SOL    HW214001   0.985   6.445   6.544
 4368SOL     OW14002   5.310   3.533   1.898
 4368SOL    HW114003   5.365   3.587   1.834
 4368SOL    HW214004   5.308   3.577   1.987
 4369SOL     OW14005   3.555   5.753   1.488
 4369SOL    HW114006   3.582   5.702   1.569
 4369SOL    HW214007   3.596   5.711   1.407
 4370SOL     OW14008   5.439   5.013   2.887
 4370SOL    HW114009   5.387   5.011   2.802
 4370SOL    HW214010   5.489   4.927   2.898
 4371SOL     OW14011   6.321   1.456   2.806
 4371SOL    HW114012   6.306   1.527   2.875
 4371SOL    HW214013   6.412   1.465   2.767
 4372SOL     OW14014   4.632   6.690   3.405
 4372SOL    HW114015   4.539   6.727   3.406
 4372SOL    HW214016   4.651   6.644   3.491
 4373SOL     OW14017   0.204   1.856   6.373
 4373SOL    HW114018   0.156   1.776   6.408
 4373SOL    HW214019   0.160   1.939   6.407
 4374SOL     OW14020   2.669   2.441   1.109
 4374SOL    HW114021   2.741   2.508   1.125
 4374SOL    HW214022   2.700   2.373   1.042
 4375SOL     OW14023   2.896   6.803   4.097
 4375SOL    HW114024   2.977   6.790   4.041
 4375SOL    HW214025   2.873   6.901   4.100
 4376SOL     OW14026   5.846   1.517   3.529
 4376SOL    HW114027   5.824   1.615   3.529
 4376SOL    HW214028   5.890   1.493   3.442
 4377SOL     OW14029   5.499   4.883   6.387
 4377SOL    HW114030   5.511   4.803   6.446
 4377SOL    HW214031   5.446   4.856   6.306
 4378SOL     OW14032   2.146   1.162   3.778
 4378SOL    HW114033   2.209   1.184   3.703
 4378SOL    HW214034   2.169   1.072   3.814
 4379SOL     OW14035   2.758   1.862   5.115
 4379SOL    HW114036   2.759   1.871   5.214
 4379SOL    HW214037   2.831   1.799   5.086
 4380SOL     OW14038   0.142   1.049   2.279
 4380SOL    HW114039   0.130   1.096   2.192
 4380SOL    HW214040   0.135   1.116   2.354
 4381SOL     OW14041   1.413   5.740   6.504
 4381SOL    HW114042   1.511   5.745   6.484
 4381SOL    HW214043   1.400   5.721   6.602
 4382SOL     OW14044   7.010   3.546   4.860
 4382SOL    HW114045   0.013   3.485   4.784
 4382SOL    HW214046   6.941   3.504   4.918
 4383SOL     OW14047   6.190   3.222   0.100
 4383SOL    HW114048   6.183   3.310   0.053
 4383SOL    HW214049   6.274   3.221   0.155
 4384SOL     OW14050   5.805   6.717   3.987
 4384SOL    HW114051   5.795   6.638   3.926
 4384SOL    HW214052   5.896   6.758   3.973
 4385SOL     OW14053   4.536   1.361   5.214
 4385SOL    HW114054   4.594   1.355   5.133
 4385SOL    HW214055   4.591   1.387   5.293
 4386SOL     OW14056   1.254   3.386   4.609
 4386SOL    HW114057   1.272   3.385   4.708
 4386SOL    HW214058   1.234   3.293   4.579
 4387SOL     OW14059   6.752   1.959   0.732
 4387SOL    HW114060   6.837   1.981   0.780
 4387SOL    HW214061   6.709   2.043   0.700
 4388SOL     OW14062   5.237   2.881   6.915
 4388SOL    HW114063   5.274   2.852   6.827
 4388SOL    HW214064   5.252   2.809   6.982
 4389SOL     OW14065   0.664   3.481   1.330
 4389SOL    HW114066   0.742   3.423   1.353
 4389SOL    HW214067   0.580   3.437   1.363
 4390SOL     OW14068   6.618   1.487   1.054
 4390SOL    HW114069   6.703   1.519   1.096
 4390SOL    HW214070   6.549   1.559   1.059
 4391SOL     OW14071   2.002   6.003   0.830
 4391SOL    HW114072   2.074   6.073   0.837
 4391SOL    HW214073   2.016   5.933   0.900
 4392SOL     OW14074   1.540   2.608   5.325
 4392SOL    HW114075   1.535   2.688   5.267
 4392SOL    HW214076   1.555   2.526   5.269
 4393SOL     OW14077   4.735   0.543   2.091
 4393SOL    HW114078   4.657   0.480   2.094
 4393SOL    HW214079   4.763   0.557   1.996
 4394SOL     OW14080   1.270   0.488   2.372
 4394SOL    HW114081   1.345   0.489   2.307
 4394SOL    HW214082   1.185   0.461   2.326
 4395SOL     OW14083   3.009   5.011   1.697
 4395SOL    HW114084   2.970   4.933   1.747
 4395SOL    HW214085   3.004   4.993   1.599
 4396SOL     OW14086   2.973   0.707   3.357
 4396SOL    HW114087   3.007   0.653   3.281
 4396SOL    HW214088   2.912   0.779   3.322
 4397SOL     OW14089   3.568   1.436   4.381
 4397SOL    HW114090   3.578   1.497   4.303
 4397SOL    HW214091   3.643   1.370   4.381
 4398SOL     OW14092   1.843   2.549   4.670
 4398SOL    HW114093   1.764   2.526   4.612
 4398SOL    HW214094   1.927   2.518   4.625
 4399SOL     OW14095   3.123   6.837   1.946
 4399SOL    HW114096   3.062   6.866   2.020
 4399SOL    HW214097   3.198   6.782   1.984
 4400SOL     OW14098   1.881   5.737   4.685
 4400SOL    HW114099   1.786   5.770   4.689
 4400SOL    HW214100   1.921   5.739   4.776
 4401SOL     OW14101   3.413   6.668   6.616
 4401SOL    HW114102   3.369   6.589   6.660
 4401SOL    HW214103   3.512   6.663   6.630
 4402SOL     OW14104   1.413   1.028   3.778
 4402SOL    HW114105   1.323   1.071   3.775
 4402SOL    HW214106   1.481   1.089   3.736
 4403SOL     OW14107   1.278   4.947   2.067
 4403SOL    HW114108   1.197   4.917   2.017
 4403SOL    HW214109   1.324   4.868   2.108
 4404SOL     OW14110   0.601   0.018   6.117
 4404SOL    HW114111   0.530   0.034   6.049
 4404SOL    HW214112   0.566   6.977   6.188
 4405SOL     OW14113   1.745   5.885   2.937
 4405SOL    HW114114   1.734   5.863   2.840
 4405SOL    HW214115   1.772   5.802   2.987
 4406SOL     OW14116   6.174   3.727   2.026
 4406SOL    HW114117   6.104   3.719   2.097
 4406SOL    HW214118   6.238   3.799   2.050
 4407SOL     OW14119   5.461   6.238   1.834
 4407SOL    HW114120   5.558   6.219   1.853
 4407SOL    HW214121   5.421   6.284   1.913
 4408SOL     OW14122   4.347   0.845   0.299
 4408SOL    HW114123   4.330   0.934   0.256
 4408SOL    HW214124   4.369   0.778   0.229
 4409SOL     OW14125   2.713   0.386   3.264
 4409SOL    HW114126   2.710   0.288   3.282
 4409SOL    HW214127   2.773   0.404   3.185
 4410SOL     OW14128   0.758   6.706   0.830
 4410SOL    HW114129   0.830   6.760   0.873
 4410SOL    HW214130   0.699   6.667   0.901
 4411SOL     OW14131   3.467   4.315   5.223
 4411SOL    HW114132   3.556   4.298   5.179
 4411SOL    HW214133   3.465   4.408   5.259
 4412SOL     OW14134   4.437   6.259   2.882
 4412SOL    HW114135   4.422   6.250   2.784
 4412SOL    HW214136   4.484   6.178   2.917
 4413SOL     OW14137   4.675   6.883   3.940
 4413SOL    HW114138   4.699   6.800   3.990
 4413SOL    HW214139   4.751   6.911   3.882
 4414SOL     OW14140   4.795   4.073   1.549
 4414SOL    HW114141   4.837   4.054   1.637
 4414SOL    HW214142   4.830   4.159   1.513
 4415SOL     OW14143   2.265   2.793   1.629
 4415SOL    HW114144   2.222   2.804   1.719
 4415SOL    HW214145   2.254   2.877   1.576
 4416SOL     OW14146   4.535   2.530   3.705
 4416SOL    HW114147   4.573   2.506   3.795
 4416SOL    HW214148   4.463   2.464   3.682
 4417SOL     OW14149   0.137   3.712   2.690
 4417SOL    HW114150   0.186   3.783   2.639
 4417SOL    HW214151   0.125   3.743   2.785
 4418SOL     OW14152   6.475   6.576   5.926
 4418SOL    HW114153   6.505   6.511   5.857
 4418SOL    HW214154   6.455   6.664   5.883
 4419SOL     OW14155   5.831   5.226   6.595
 4419SOL    HW114156   5.805   5.138   6.555
 4419SOL    HW214157   5.885   5.211   6.678
 4420SOL     OW14158   2.778   2.155   1.057
 4420SOL    HW114159   2.830   2.182   0.976
 4420SOL    HW214160   2.838   2.153   1.136
 4421SOL     OW14161   1.871   2.377   6.367
 4421SOL    HW114162   1.805   2.302   6.371
 4421SOL    HW214163   1.823   2.464   6.357
 4422SOL     OW14164   6.231   3.562   6.256
 4422SOL    HW114165   6.209   3.476   6.211
 4422SOL    HW214166   6.162   3.631   6.231
 4423SOL     OW14167   5.524   4.162   4.934
 4423SOL    HW114168   5.535   4.211   4.847
 4423SOL    HW214169   5.517   4.064   4.915
 4424SOL     OW14170   4.568   6.043   3.035
 4424SOL    HW114171   4.618   6.027   2.950
 4424SOL    HW214172   4.560   5.956   3.085
 4425SOL     OW14173   1.685   5.594   1.501
 4425SOL    HW114174   1.601   5.542   1.481
 4425SOL    HW214175   1.662   5.673   1.558
 4426SOL     OW14176   0.491   0.564   5.045
 4426SOL    HW114177   0.553   0.485   5.044
 4426SOL    HW214178   0.531   0.637   5.099
 4427SOL     OW14179   2.538   6.211   2.879
 4427SOL    HW114180   2.469   6.222   2.808
 4427SOL    HW214181   2.592   6.129   2.861
 4428SOL     OW14182   5.280   6.351   3.703
 4428SOL    HW114183   5.315   6.268   3.659
 4428SOL    HW214184   5.217   6.398   3.641
 4429SOL     OW14185   2.974   5.907   2.755
 4429SOL    HW114186   2.925   5.994   2.766
 4429SOL    HW214187   2.909   5.836   2.728
 4430SOL     OW14188   4.849   3.897   5.671
 4430SOL    HW114189   4.860   3.939   5.581
 4430SOL    HW214190   4.803   3.962   5.732
 4431SOL     OW14191   3.137   6.409   3.737
 4431SOL    HW114192   3.198   6.393   3.659
 4431SOL    HW214193   3.125   6.508   3.749
 4432SOL     OW14194   0.825   3.739   5.875
 4432SOL    HW114195   0.736   3.712   5.912
 4432SOL    HW214196   0.824   3.726   5.776
 4433SOL     OW14197   0.832   0.889   5.485
 4433SOL    HW114198   0.831   0.795   5.453
 4433SOL    HW214199   0.902   0.900   5.556
 4434SOL     OW14200   0.699   0.715   3.145
 4434SOL    HW114201   0.772   0.784   3.147
 4434SOL    HW214202   0.644   0.728   3.062
 4435SOL     OW14203   2.324   4.387   0.113
 4435SOL    HW114204   2.421   4.367   0.112
 4435SOL    HW214205   2.271   4.302   0.105
 4436SOL     OW14206   4.113   1.619   1.745
 4436SOL    HW114207   4.092   1.637   1.841
 4436SOL    HW214208   4.121   1.520   1.731
 4437SOL     OW14209   6.603   4.003   0.391
 4437SOL    HW114210   6.638   3.910   0.406
 4437SOL    HW214211   6.628   4.061   0.468
 4438SOL     OW14212   4.147   0.141   5.466
 4438SOL    HW114213   4.247   0.146   5.469
 4438SOL    HW214214   4.110   0.147   5.559
 4439SOL     OW14215   2.418   6.674   3.027
 4439SOL    HW114216   2.465   6.726   3.098
 4439SOL    HW214217   2.482   6.612   2.982
 4440SOL     OW14218   1.468   5.042   6.804
 4440SOL    HW114219   1.409   4.993   6.868
 4440SOL    HW214220   1.412   5.087   6.735
 4441SOL     OW14221   0.067   1.900   0.534
 4441SOL    HW114222   0.077   1.835   0.609
 4441SOL    HW214223   0.118   1.984   0.556
 4442SOL     OW14224   1.916   4.903   6.526
 4442SOL    HW114225   1.983   4.976   6.541
 4442SOL    HW214226   1.899   4.855   6.611
 4443SOL     OW14227   0.872   5.456   6.137
 4443SOL    HW114228   0.847   5.360   6.124
 4443SOL    HW214229   0.970   5.467   6.123
 4444SOL     OW14230   5.515   4.844   6.753
 4444SOL    HW114231   5.494   4.938   6.779
 4444SOL    HW214232   5.600   4.815   6.797
 4445SOL     OW14233   0.301   4.978   0.417
 4445SOL    HW114234   0.295   5.038   0.497
 4445SOL    HW214235   0.395   4.979   0.382
 4446SOL     OW14236   4.977   1.559   1.131
 4446SOL    HW114237   4.937   1.486   1.076
 4446SOL    HW214238   4.913   1.635   1.138
 4447SOL     OW14239   5.144   5.665   5.818
 4447SOL    HW114240   5.165   5.571   5.791
 4447SOL    HW214241   5.155   5.726   5.740
 4448SOL     OW14242   3.874   6.115   1.236
 4448SOL    HW114243   3.801   6.181   1.253
 4448SOL    HW214244   3.849   6.027   1.277
 4449SOL     OW14245   3.252   1.307   5.249
 4449SOL    HW114246   3.347   1.295   5.220
 4449SOL    HW214247   3.197   1.231   5.215
 4450SOL     OW14248   3.330   6.904   6.761
 4450SOL    HW114249   3.230   6.907   6.765
 4450SOL    HW214250   3.360   6.819   6.718
 4451SOL     OW14251   4.532   4.900   3.111
 4451SOL    HW114252   4.617   4.949   3.093
 4451SOL    HW214253   4.553   4.805   3.133
 4452SOL     OW14254   4.575   6.555   4.432
 4452SOL    HW114255   4.540   6.472   4.474
 4452SOL    HW214256   4.653   6.589   4.485
 4453SOL     OW14257   6.349   4.314   0.388
 4453SOL    HW114258   6.265   4.368   0.396
 4453SOL    HW214259   6.372   4.276   0.477
 4454SOL     OW14260   1.389   3.185   0.178
 4454SOL    HW114261   1.352   3.092   0.174
 4454SOL    HW214262   1.370   3.224   0.268
 4455SOL     OW14263   0.856   6.529   5.673
 4455SOL    HW114264   0.934   6.545   5.613
 4455SOL    HW214265   0.800   6.454   5.637
 4456SOL     OW14266   2.554   0.095   4.558
 4456SOL    HW114267   2.618   0.151   4.610
 4456SOL    HW214268   2.578   0.100   4.461
 4457SOL     OW14269   1.736   2.086   4.539
 4457SOL    HW114270   1.753   1.988   4.553
 4457SOL    HW214271   1.696   2.125   4.622
 4458SOL     OW14272   1.616   3.502   6.670
 4458SOL    HW114273   1.528   3.547   6.687
 4458SOL    HW214274   1.647   3.524   6.577
 4459SOL     OW14275   0.643   2.778   3.069
 4459SOL    HW114276   0.661   2.876   3.063
 4459SOL    HW214277   0.579   2.751   2.997
 4460SOL     OW14278   6.686   2.387   4.319
 4460SOL    HW114279   6.607   2.397   4.379
 4460SOL    HW214280   6.695   2.468   4.262
 4461SOL     OW14281   2.117   1.253   0.859
 4461SOL    HW114282   2.174   1.171   0.870
 4461SOL    HW214283   2.053   1.239   0.783
 4462SOL     OW14284   6.698   4.123   3.200
 4462SOL    HW114285   6.710   4.208   3.251
 4462SOL    HW214286   6.611   4.124   3.151
 4463SOL     OW14287   5.686   1.927   0.629
 4463SOL    HW114288   5.779   1.913   0.664
 4463SOL    HW214289   5.651   1.840   0.593
 4464SOL     OW14290   0.225   4.967   1.294
 4464SOL    HW114291   0.130   4.988   1.314
 4464SOL    HW214292   0.244   4.871   1.317
 4465SOL     OW14293   3.643   5.574   1.300
 4465SOL    HW114294   3.578   5.594   1.227
 4465SOL    HW214295   3.736   5.595   1.269
 4466SOL     OW14296   1.895   2.335   2.505
 4466SOL    HW114297   1.815   2.303   2.454
 4466SOL    HW214298   1.870   2.416   2.558
 4467SOL     OW14299   5.114   5.994   2.979
 4467SOL    HW114300   5.054   6.064   3.015
 4467SOL    HW214301   5.185   6.036   2.922
 4468SOL     OW14302   1.793   2.983   1.752
 4468SOL    HW114303   1.872   2.944   1.704
 4468SOL    HW214304   1.750   2.913   1.808
 4469SOL     OW14305   2.828   5.968   1.102
 4469SOL    HW114306   2.855   5.896   1.166
 4469SOL    HW214307   2.909   5.999   1.051
 4470SOL     OW14308   2.142   7.004   2.870
 4470SOL    HW114309   2.145   7.010   2.771
 4470SOL    HW214310   2.185   0.065   2.910
 4471SOL     OW14311   1.167   0.546   6.651
 4471SOL    HW114312   1.181   0.557   6.749
 4471SOL    HW214313   1.103   0.617   6.619
 4472SOL     OW14314   1.970   2.660   1.186
 4472SOL    HW114315   1.914   2.693   1.263
 4472SOL    HW214316   1.924   2.682   1.100
 4473SOL     OW14317   0.195   2.425   4.347
 4473SOL    HW114318   0.131   2.395   4.417
 4473SOL    HW214319   0.258   2.351   4.324
 4474SOL     OW14320   3.104   5.876   0.996
 4474SOL    HW114321   3.184   5.833   0.955
 4474SOL    HW214322   3.021   5.833   0.963
 4475SOL     OW14323   1.039   4.079   1.166
 4475SOL    HW114324   0.973   4.134   1.115
 4475SOL    HW214325   1.022   3.982   1.148
 4476SOL     OW14326   5.286   1.031   3.863
 4476SOL    HW114327   5.279   1.006   3.767
 4476SOL    HW214328   5.315   1.127   3.870
 4477SOL     OW14329   1.391   1.176   4.885
 4477SOL    HW114330   1.464   1.224   4.836
 4477SOL    HW214331   1.322   1.242   4.915
 4478SOL     OW14332   2.210   0.448   0.985
 4478SOL    HW114333   2.119   0.415   0.962
 4478SOL    HW214334   2.216   0.546   0.963
 4479SOL     OW14335   1.459   2.318   6.867
 4479SOL    HW114336   1.531   2.340   6.802
 4479SOL    HW214337   1.499   2.284   6.952
 4480SOL     OW14338   1.127   6.512   4.007
 4480SOL    HW114339   1.137   6.508   3.907
 4480SOL    HW214340   1.113   6.420   4.043
 4481SOL     OW14341   2.236   3.966   5.718
 4481SOL    HW114342   2.228   4.041   5.652
 4481SOL    HW214343   2.327   3.966   5.758
 4482SOL     OW14344   2.561   6.363   1.302
 4482SOL    HW114345   2.479   6.330   1.349
 4482SOL    HW214346   2.613   6.286   1.265
 4483SOL     OW14347   1.230   3.568   0.544
 4483SOL    HW114348   1.274   3.647   0.586
 4483SOL    HW214349   1.215   3.498   0.614
 4484SOL     OW14350   2.342   0.990   6.977
 4484SOL    HW114351   2.360   1.028   0.047
 4484SOL    HW214352   2.363   0.892   6.977
 4485SOL     OW14353   6.869   2.670   5.188
 4485SOL    HW114354   6.794   2.617   5.226
 4485SOL    HW214355   6.867   2.763   5.225
 4486SOL     OW14356   4.672   5.157   4.792
 4486SOL    HW114357   4.723   5.080   4.754
 4486SOL    HW214358   4.682   5.158   4.891
 4487SOL     OW14359   0.502   2.857   6.671
 4487SOL    HW114360   0.549   2.805   6.743
 4487SOL    HW214361   0.556   2.855   6.587
 4488SOL     OW14362   0.324   4.132   3.772
 4488SOL    HW114363   0.395   4.193   3.738
 4488SOL    HW214364   0.251   4.124   3.705
 4489SOL     OW14365   4.076   5.911   6.118
 4489SOL    HW114366   4.145   5.907   6.047
 4489SOL    HW214367   4.046   5.818   6.141
 4490SOL     OW14368   5.148   1.652   1.628
 4490SOL    HW114369   5.194   1.619   1.545
 4490SOL    HW214370   5.054   1.618   1.629
 4491SOL     OW14371   1.248   3.143   3.256
 4491SOL    HW114372   1.298   3.230   3.262
 4491SOL    HW214373   1.187   3.145   3.177
 4492SOL     OW14374   6.645   0.549   2.381
 4492SOL    HW114375   6.682   0.553   2.288
 4492SOL    HW214376   6.694   0.480   2.433
 4493SOL     OW14377   5.551   1.479   5.265
 4493SOL    HW114378   5.549   1.579   5.254
 4493SOL    HW214379   5.632   1.454   5.319
 4494SOL     OW14380   1.403   0.800   1.618
 4494SOL    HW114381   1.314   0.761   1.639
 4494SOL    HW214382   1.448   0.830   1.702
 4495SOL     OW14383   4.331   6.556   0.863
 4495SOL    HW114384   4.326   6.544   0.763
 4495SOL    HW214385   4.250   6.516   0.905
 4496SOL     OW14386   3.421   6.337   6.438
 4496SOL    HW114387   3.397   6.290   6.353
 4496SOL    HW214388   3.505   6.297   6.475
 4497SOL     OW14389   4.025   0.772   5.932
 4497SOL    HW114390   3.969   0.769   6.014
 4497SOL    HW214391   4.120   0.790   5.957
 4498SOL     OW14392   0.201   5.267   4.992
 4498SOL    HW114393   0.149   5.343   5.031
 4498SOL    HW214394   0.137   5.197   4.958
 4499SOL     OW14395   5.644   1.767   2.100
 4499SOL    HW114396   5.678   1.857   2.074
 4499SOL    HW214397   5.546   1.762   2.084
 4500SOL     OW14398   3.875   5.445   6.889
 4500SOL    HW114399   3.853   5.350   6.868
 4500SOL    HW214400   3.902   5.493   6.805
 4501SOL     OW14401   5.877   0.134   2.888
 4501SOL    HW114402   5.877   0.233   2.872
 4501SOL    HW214403   5.960   0.109   2.939
 4502SOL     OW14404   0.082   3.417   6.639
 4502SOL    HW114405   0.054   3.458   6.726
 4502SOL    HW214406   0.113   3.323   6.654
 4503SOL     OW14407   3.090   1.137   2.947
 4503SOL    HW114408   3.165   1.167   3.006
 4503SOL    HW214409   3.128   1.087   2.869
 4504SOL     OW14410   0.170   1.685   2.865
 4504SOL    HW114411   0.114   1.614   2.823
 4504SOL    HW214412   0.116   1.737   2.931
 4505SOL     OW14413   5.749   4.621   3.713
 4505SOL    HW114414   5.781   4.604   3.807
 4505SOL    HW214415   5.650   4.637   3.714
 4506SOL     OW14416   5.443   2.913   5.673
 4506SOL    HW114417   5.404   2.973   5.743
 4506SOL    HW214418   5.400   2.932   5.585
 4507SOL     OW14419   6.159   2.154   3.083
 4507SOL    HW114420   6.227   2.226   3.091
 4507SOL    HW214421   6.142   2.133   2.987
 4508SOL     OW14422   7.013   5.023   0.810
 4508SOL    HW114423   0.072   5.082   0.797
 4508SOL    HW214424   0.022   4.935   0.847
 4509SOL     OW14425   4.918   2.668   1.823
 4509SOL    HW114426   4.819   2.653   1.821
 4509SOL    HW214427   4.938   2.763   1.802
 4510SOL     OW14428   3.890   1.383   3.993
 4510SOL    HW114429   3.814   1.354   3.935
 4510SOL    HW214430   3.922   1.473   3.963
 4511SOL     OW14431   0.329   4.393   6.975
 4511SOL    HW114432   0.425   4.387   6.946
 4511SOL    HW214433   0.316   4.339   0.038
 4512SOL     OW14434   3.234   3.717   5.197
 4512SOL    HW114435   3.141   3.683   5.182
 4512SOL    HW214436   3.296   3.674   5.131
 4513SOL     OW14437   0.766   6.979   1.152
 4513SOL    HW114438   0.765   6.926   1.237
 4513SOL    HW214439   0.683   6.961   1.100
 4514SOL     OW14440   3.747   4.885   6.422
 4514SOL    HW114441   3.846   4.873   6.417
 4514SOL    HW214442   3.702   4.819   6.361
 4515SOL     OW14443   4.391   0.824   5.922
 4515SOL    HW114444   4.452   0.848   5.997
 4515SOL    HW214445   4.423   0.739   5.879
 4516SOL     OW14446   2.747   2.208   5.467
 4516SOL    HW114447   2.808   2.204   5.388
 4516SOL    HW214448   2.681   2.134   5.462
 4517SOL     OW14449   4.171   0.816   5.243
 4517SOL    HW114450   4.218   0.832   5.156
 4517SOL    HW214451   4.098   0.883   5.255
 4518SOL     OW14452   0.753   6.313   0.924
 4518SOL    HW114453   0.817   6.375   0.878
 4518SOL    HW214454   0.763   6.322   1.023
 4519SOL     OW14455   4.706   6.958   0.280
 4519SOL    HW114456   4.659   6.940   0.367
 4519SOL    HW214457   4.763   0.020   0.288
 4520SOL     OW14458   4.405   5.433   5.840
 4520SOL    HW114459   4.491   5.430   5.890
 4520SOL    HW214460   4.331   5.397   5.897
 4521SOL     OW14461   4.403   2.487   4.045
 4521SOL    HW114462   4.449   2.418   3.989
 4521SOL    HW214463   4.464   2.565   4.059
 4522SOL     OW14464   5.598   4.088   3.567
 4522SOL    HW114465   5.635   3.995   3.565
 4522SOL    HW214466   5.670   4.152   3.592
 4523SOL     OW14467   0.701   3.283   5.847
 4523SOL    HW114468   0.702   3.343   5.767
 4523SOL    HW214469   0.649   3.200   5.826
 4524SOL     OW14470   1.737   3.354   2.184
 4524SOL    HW114471   1.688   3.308   2.110
 4524SOL    HW214472   1.694   3.442   2.203
 4525SOL     OW14473   3.517   2.503   5.476
 4525SOL    HW114474   3.447   2.444   5.436
 4525SOL    HW214475   3.553   2.460   5.559
 4526SOL     OW14476   1.061   6.853   5.939
 4526SOL    HW114477   1.146   6.820   5.981
 4526SOL    HW214478   1.012   6.909   6.005
 4527SOL     OW14479   0.217   1.260   2.646
 4527SOL    HW114480   0.257   1.171   2.665
 4527SOL    HW214481   0.289   1.324   2.620
 4528SOL     OW14482   5.434   0.589   5.158
 4528SOL    HW114483   5.441   0.489   5.164
 4528SOL    HW214484   5.353   0.613   5.104
 4529SOL     OW14485   2.347   1.030   4.083
 4529SOL    HW114486   2.370   0.969   4.007
 4529SOL    HW214487   2.368   1.124   4.058
 4530SOL     OW14488   4.376   5.844   6.627
 4530SOL    HW114489   4.344   5.794   6.547
 4530SOL    HW214490   4.298   5.888   6.672
 4531SOL     OW14491   1.201   5.951   5.584
 4531SOL    HW114492   1.135   5.876   5.575
 4531SOL    HW214493   1.293   5.913   5.596
 4532SOL     OW14494   5.449   1.019   2.988
 4532SOL    HW114495   5.362   1.068   2.993
 4532SOL    HW214496   5.496   1.025   3.076
 4533SOL     OW14497   2.528   0.568   0.991
 4533SOL    HW114498   2.438   0.601   1.019
 4533SOL    HW214499   2.547   0.481   1.036
 4534SOL     OW14500   4.581   1.605   3.821
 4534SOL    HW114501   4.614   1.588   3.728
 4534SOL    HW214502   4.547   1.699   3.827
 4535SOL     OW14503   1.830   0.723   1.011
 4535SOL    HW114504   1.744   0.673   1.029
 4535SOL    HW214505   1.899   0.695   1.077
 4536SOL     OW14506   3.056   0.167   5.587
 4536SOL    HW114507   3.098   0.241   5.535
 4536SOL    HW214508   3.055   0.190   5.684
 4537SOL     OW14509   2.931   3.772   3.676
 4537SOL    HW114510   2.958   3.838   3.747
 4537SOL    HW214511   2.889   3.692   3.719
 4538SOL     OW14512   0.352   2.004   0.907
 4538SOL    HW114513   0.439   1.959   0.927
 4538SOL    HW214514   0.308   1.959   0.830
 4539SOL     OW14515   1.559   6.085   5.721
 4539SOL    HW114516   1.629   6.099   5.651
 4539SOL    HW214517   1.535   5.987   5.724
 4540SOL     OW14518   0.896   2.262   0.450
 4540SOL    HW114519   0.916   2.351   0.490
 4540SOL    HW214520   0.954   2.248   0.370
 4541SOL     OW14521   3.918   3.000   5.977
 4541SOL    HW114522   3.852   2.928   5.997
 4541SOL    HW214523   3.976   3.015   6.056
 4542SOL     OW14524   0.502   1.763   6.929
 4542SOL    HW114525   0.602   1.762   6.929
 4542SOL    HW214526   0.469   1.717   7.012
 4543SOL     OW14527   3.838   1.992   0.690
 4543SOL    HW114528   3.812   2.042   0.772
 4543SOL    HW214529   3.937   1.976   0.691
 4544SOL     OW14530   5.459   6.449   0.696
 4544SOL    HW114531   5.391   6.517   0.723
 4544SOL    HW214532   5.458   6.373   0.761
 4545SOL     OW14533   2.029   2.988   5.122
 4545SOL    HW114534   2.051   3.056   5.051
 4545SOL    HW214535   2.114   2.950   5.159
 4546SOL     OW14536   3.418   0.600   5.044
 4546SOL    HW114537   3.345   0.669   5.044
 4546SOL    HW214538   3.392   0.525   4.983
 4547SOL     OW14539   6.982   0.236   0.169
 4547SOL    HW114540   6.904   0.299   0.165
 4547SOL    HW214541   0.003   0.241   0.260
 4548SOL     OW14542   2.777   1.721   2.738
 4548SOL    HW114543   2.859   1.780   2.737
 4548SOL    HW214544   2.805   1.625   2.730
 4549SOL     OW14545   0.400   3.347   4.289
 4549SOL    HW114546   0.475   3.323   4.351
 4549SOL    HW214547   0.437   3.392   4.208
 4550SOL     OW14548   2.194   5.563   4.151
 4550SOL    HW114549   2.117   5.501   4.135
 4550SOL    HW214550   2.245   5.534   4.231
 4551SOL     OW14551   2.255   2.164   5.153
 4551SOL    HW114552   2.240   2.189   5.057
 4551SOL    HW214553   2.350   2.183   5.178
 4552SOL     OW14554   5.255   1.031   1.160
 4552SOL    HW114555   5.332   1.030   1.223
 4552SOL    HW214556   5.171   1.049   1.211
 4553SOL     OW14557   0.244   5.690   0.107
 4553SOL    HW114558   0.198   5.664   0.022
 4553SOL    HW214559   0.266   5.787   0.105
 4554SOL     OW14560   6.297   6.537   3.000
 4554SOL    HW114561   6.234   6.585   2.939
 4554SOL    HW214562   6.369   6.494   2.946
 4555SOL     OW14563   1.147   1.074   0.872
 4555SOL    HW114564   1.119   0.983   0.903
 4555SOL    HW214565   1.085   1.143   0.909
 4556SOL     OW14566   5.838   4.927   4.260
 4556SOL    HW114567   5.828   4.828   4.273
 4556SOL    HW214568   5.760   4.973   4.302
 4557SOL     OW14569   0.077   4.955   4.082
 4557SOL    HW114570   6.997   4.959   4.080
 4557SOL    HW214571   0.108   4.873   4.034
 4558SOL     OW14572   1.682   3.561   4.747
 4558SOL    HW114573   1.644   3.479   4.789
 4558SOL    HW214574   1.750   3.535   4.678
 4559SOL     OW14575   0.032   2.854   4.109
 4559SOL    HW114576   0.082   2.929   4.064
 4559SOL    HW214577   0.096   2.781   4.131
 4560SOL     OW14578   5.490   4.067   3.038
 4560SOL    HW114579   5.574   4.018   3.059
 4560SOL    HW214580   5.414   4.003   3.028
 4561SOL     OW14581   4.397   2.306   3.767
 4561SOL    HW114582   4.375   2.235   3.699
 4561SOL    HW214583   4.459   2.268   3.835
 4562SOL     OW14584   3.845   0.879   0.844
 4562SOL    HW114585   3.808   0.970   0.861
 4562SOL    HW214586   3.832   0.854   0.748
 4563SOL     OW14587   0.565   4.497   2.263
 4563SOL    HW114588   0.537   4.455   2.349
 4563SOL    HW214589   0.487   4.500   2.200
 4564SOL     OW14590   2.151   3.651   2.228
 4564SOL    HW114591   2.176   3.743   2.258
 4564SOL    HW214592   2.225   3.612   2.174
 4565SOL     OW14593   1.991   6.196   6.486
 4565SOL    HW114594   1.972   6.102   6.513
 4565SOL    HW214595   1.974   6.257   6.564
 4566SOL     OW14596   0.088   4.418   3.692
 4566SOL    HW114597   0.063   4.511   3.666
 4566SOL    HW214598   0.140   4.375   3.618
 4567SOL     OW14599   0.344   6.920   6.688
 4567SOL    HW114600   0.424   6.978   6.708
 4567SOL    HW214601   0.269   6.944   6.750
 4568SOL     OW14602   1.500   5.151   2.978
 4568SOL    HW114603   1.456   5.083   3.036
 4568SOL    HW214604   1.484   5.129   2.881
 4569SOL     OW14605   1.931   1.164   3.575
 4569SOL    HW114606   1.985   1.156   3.658
 4569SOL    HW214607   1.979   1.120   3.499
 4570SOL     OW14608   4.981   5.743   1.551
 4570SOL    HW114609   4.998   5.647   1.526
 4570SOL    HW214610   4.978   5.799   1.469
 4571SOL     OW14611   2.617   2.839   6.416
 4571SOL    HW114612   2.631   2.938   6.411
 4571SOL    HW214613   2.522   2.820   6.440
 4572SOL     OW14614   3.184   3.030   2.263
 4572SOL    HW114615   3.113   3.041   2.194
 4572SOL    HW214616   3.219   3.120   2.291
 4573SOL     OW14617   3.473   5.364   0.882
 4573SOL    HW114618   3.374   5.365   0.895
 4573SOL    HW214619   3.497   5.417   0.801
 4574SOL     OW14620   4.808   0.570   1.811
 4574SOL    HW114621   4.860   0.485   1.799
 4574SOL    HW214622   4.740   0.578   1.738
 4575SOL     OW14623   0.680   0.189   5.918
 4575SOL    HW114624   0.650   0.145   6.003
 4575SOL    HW214625   0.750   0.133   5.874
 4576SOL     OW14626   2.867   4.374   6.048
 4576SOL    HW114627   2.835   4.458   6.092
 4576SOL    HW214628   2.890   4.393   5.953
 4577SOL     OW14629   0.699   1.811   2.612
 4577SOL    HW114630   0.782   1.846   2.569
 4577SOL    HW214631   0.623   1.873   2.593
 4578SOL     OW14632   1.231   1.807   2.149
 4578SOL    HW114633   1.159   1.852   2.097
 4578SOL    HW214634   1.253   1.718   2.109
 4579SOL     OW14635   4.603   0.444   3.361
 4579SOL    HW114636   4.649   0.359   3.389
 4579SOL    HW214637   4.618   0.514   3.430
 4580SOL     OW14638   0.077   1.567   1.118
 4580SOL    HW114639   0.116   1.656   1.093
 4580SOL    HW214640   0.132   1.527   1.192
 4581SOL     OW14641   3.420   0.985   0.899
 4581SOL    HW114642   3.447   1.013   0.807
 4581SOL    HW214643   3.461   1.047   0.966
 4582SOL     OW14644   6.293   1.232   3.919
 4582SOL    HW114645   6.299   1.329   3.944
 4582SOL    HW214646   6.262   1.223   3.825
 4583SOL     OW14647   1.966   0.362   0.879
 4583SOL    HW114648   1.926   0.385   0.790
 4583SOL    HW214649   1.915   0.287   0.920
 4584SOL     OW14650   0.736   1.547   4.363
 4584SOL    HW114651   0.822   1.496   4.372
 4584SOL    HW214652   0.678   1.502   4.295
 4585SOL     OW14653   1.637   2.948   3.109
 4585SOL    HW114654   1.560   2.947   3.172
 4585SOL    HW214655   1.707   3.011   3.142
 4586SOL     OW14656   6.005   5.433   6.524
 4586SOL    HW114657   5.942   5.362   6.553
 4586SOL    HW214658   6.093   5.421   6.570
 4587SOL     OW14659   3.562   3.135   5.200
 4587SOL    HW114660   3.621   3.174   5.129
 4587SOL    HW214661   3.545   3.039   5.180
 4588SOL     OW14662   3.315   4.030   6.409
 4588SOL    HW114663   3.275   4.018   6.318
 4588SOL    HW214664   3.308   3.943   6.459
 4589SOL     OW14665   5.707   6.570   2.128
 4589SOL    HW114666   5.776   6.550   2.059
 4589SOL    HW214667   5.645   6.641   2.095
 4590SOL     OW14668   3.566   5.167   1.048
 4590SOL    HW114669   3.608   5.089   1.003
 4590SOL    HW214670   3.543   5.236   0.980
 4591SOL     OW14671   2.210   0.101   5.139
 4591SOL    HW114672   2.299   0.062   5.161
 4591SOL    HW214673   2.149   0.029   5.106
 4592SOL     OW14674   1.664   1.620   3.887
 4592SOL    HW114675   1.656   1.535   3.834
 4592SOL    HW214676   1.707   1.600   3.975
 4593SOL     OW14677   1.436   5.516   4.239
 4593SOL    HW114678   1.517   5.490   4.292
 4593SOL    HW214679   1.357   5.462   4.269
 4594SOL     OW14680   1.886   0.116   3.017
 4594SOL    HW114681   1.950   0.187   3.046
 4594SOL    HW214682   1.819   0.100   3.090
 4595SOL     OW14683   5.462   1.849   6.420
 4595SOL    HW114684   5.428   1.942   6.437
 4595SOL    HW214685   5.418   1.812   6.338
 4596SOL     OW14686   6.773   0.579   2.129
 4596SOL    HW114687   6.865   0.617   2.139
 4596SOL    HW214688   6.776   0.503   2.064
 4597SOL     OW14689   2.462   5.998   0.507
 4597SOL    HW114690   2.510   5.935   0.446
 4597SOL    HW214691   2.374   6.024   0.466
 4598SOL     OW14692   0.580   4.288   0.689
 4598SOL    HW114693   0.585   4.326   0.597
 4598SOL    HW214694   0.633   4.203   0.693
 4599SOL     OW14695   3.321   6.100   1.861
 4599SOL    HW114696   3.360   6.009   1.846
 4599SOL    HW214697   3.345   6.132   1.953
 4600SOL     OW14698   0.378   6.230   6.494
 4600SOL    HW114699   0.356   6.323   6.465
 4600SOL    HW214700   0.476   6.223   6.512
 4601SOL     OW14701   1.683   0.746   5.440
 4601SOL    HW114702   1.642   0.765   5.350
 4601SOL    HW214703   1.776   0.783   5.443
 4602SOL     OW14704   3.309   2.033   5.731
 4602SOL    HW114705   3.284   2.110   5.673
 4602SOL    HW214706   3.405   2.008   5.714
 4603SOL     OW14707   4.577   0.230   1.353
 4603SOL    HW114708   4.584   0.132   1.371
 4603SOL    HW214709   4.544   0.245   1.260
 4604SOL     OW14710   6.409   0.036   4.847
 4604SOL    HW114711   6.495   0.038   4.795
 4604SOL    HW214712   6.375   6.962   4.852
 4605SOL     OW14713   4.030   0.512   1.630
 4605SOL    HW114714   4.054   0.467   1.543
 4605SOL    HW214715   3.934   0.540   1.627
 4606SOL     OW14716   0.153   6.492   5.398
 4606SOL    HW114717   0.103   6.537   5.472
 4606SOL    HW214718   0.240   6.456   5.433
 4607SOL     OW14719   2.313   1.952   0.631
 4607SOL    HW114720   2.410   1.960   0.655
 4607SOL    HW214721   2.290   1.856   0.618
 4608SOL     OW14722   6.917   2.283   4.659
 4608SOL    HW114723   6.818   2.265   4.658
 4608SOL    HW214724   6.967   2.196   4.653
 4609SOL     OW14725   5.222   5.426   6.611
 4609SOL    HW114726   5.220   5.523   6.583
 4609SOL    HW214727   5.294   5.379   6.561
 4610SOL     OW14728   5.410   4.581   0.244
 4610SOL    HW114729   5.321   4.615   0.273
 4610SOL    HW214730   5.432   4.617   0.153
 4611SOL     OW14731   1.013   0.737   6.495
 4611SOL    HW114732   0.942   0.802   6.521
 4611SOL    HW214733   1.015   0.729   6.395
 4612SOL     OW14734   2.059   1.854   1.557
 4612SOL    HW114735   2.120   1.831   1.633
 4612SOL    HW214736   2.054   1.776   1.494
 4613SOL     OW14737   1.091   4.503   1.812
 4613SOL    HW114738   1.031   4.425   1.795
 4613SOL    HW214739   1.185   4.479   1.790
 4614SOL     OW14740   6.714   4.373   4.207
 4614SOL    HW114741   6.669   4.444   4.154
 4614SOL    HW214742   6.664   4.358   4.293
 4615SOL     OW14743   1.313   3.427   5.964
 4615SOL    HW114744   1.246   3.494   5.931
 4615SOL    HW214745   1.328   3.441   6.062
 4616SOL     OW14746   0.471   2.792   5.185
 4616SOL    HW114747   0.465   2.869   5.248
 4616SOL    HW214748   0.423   2.815   5.100
 4617SOL     OW14749   0.258   2.614   3.488
 4617SOL    HW114750   0.290   2.521   3.471
 4617SOL    HW214751   0.178   2.611   3.549
 4618SOL     OW14752   2.299   4.086   6.168
 4618SOL    HW114753   2.310   4.178   6.204
 4618SOL    HW214754   2.223   4.085   6.102
 4619SOL     OW14755   4.774   6.377   6.304
 4619SOL    HW114756   4.741   6.304   6.363
 4619SOL    HW214757   4.874   6.380   6.308
 4620SOL     OW14758   0.874   4.925   2.732
 4620SOL    HW114759   0.815   4.968   2.664
 4620SOL    HW214760   0.871   4.977   2.817
 4621SOL     OW14761   3.368   6.899   2.797
 4621SOL    HW114762   3.455   6.926   2.757
 4621SOL    HW214763   3.293   6.936   2.742
 4622SOL     OW14764   5.284   6.482   0.963
 4622SOL    HW114765   5.206   6.423   0.942
 4622SOL    HW214766   5.369   6.429   0.961
 4623SOL     OW14767   2.833   4.576   1.378
 4623SOL    HW114768   2.806   4.560   1.473
 4623SOL    HW214769   2.932   4.565   1.369
 4624SOL     OW14770   4.307   1.200   1.907
 4624SOL    HW114771   4.298   1.118   1.963
 4624SOL    HW214772   4.364   1.267   1.954
 4625SOL     OW14773   1.981   6.501   1.570
 4625SOL    HW114774   1.948   6.409   1.549
 4625SOL    HW214775   2.056   6.525   1.508
 4626SOL     OW14776   4.166   3.602   1.701
 4626SOL    HW114777   4.252   3.645   1.728
 4626SOL    HW214778   4.181   3.504   1.689
 4627SOL     OW14779   5.416   0.309   5.129
 4627SOL    HW114780   5.515   0.309   5.117
 4627SOL    HW214781   5.393   0.260   5.213
 4628SOL     OW14782   5.708   4.912   3.737
 4628SOL    HW114783   5.737   4.816   3.745
 4628SOL    HW214784   5.649   4.922   3.657
 4629SOL     OW14785   2.194   5.487   0.198
 4629SOL    HW114786   2.187   5.403   0.143
 4629SOL    HW214787   2.122   5.551   0.171
 4630SOL     OW14788   1.859   3.259   1.665
 4630SOL    HW114789   1.949   3.285   1.699
 4630SOL    HW214790   1.840   3.163   1.690
 4631SOL     OW14791   0.178   0.500   3.003
 4631SOL    HW114792   0.133   0.562   3.068
 4631SOL    HW214793   0.272   0.485   3.032
 4632SOL     OW14794   3.465   5.002   2.897
 4632SOL    HW114795   3.447   4.931   2.829
 4632SOL    HW214796   3.563   5.004   2.917
 4633SOL     OW14797   4.939   1.162   4.710
 4633SOL    HW114798   4.948   1.260   4.695
 4633SOL    HW214799   5.016   1.129   4.765
 4634SOL     OW14800   3.461   3.983   5.344
 4634SOL    HW114801   3.400   4.024   5.412
 4634SOL    HW214802   3.467   3.884   5.359
 4635SOL     OW14803   4.114   6.383   1.766
 4635SOL    HW114804   4.056   6.389   1.685
 4635SOL    HW214805   4.173   6.464   1.772
 4636SOL     OW14806   1.572   5.308   6.913
 4636SOL    HW114807   1.668   5.278   6.911
 4636SOL    HW214808   1.512   5.229   6.895
 4637SOL     OW14809   3.205   1.415   3.520
 4637SOL    HW114810   3.295   1.396   3.480
 4637SOL    HW214811   3.153   1.474   3.459
 4638SOL     OW14812   3.820   4.826   6.672
 4638SOL    HW114813   3.800   4.864   6.581
 4638SOL    HW214814   3.746   4.849   6.735
 4639SOL     OW14815   3.693   2.343   1.582
 4639SOL    HW114816   3.696   2.377   1.676
 4639SOL    HW214817   3.725   2.249   1.579
 4640SOL     OW14818   6.083   3.438   6.991
 4640SOL    HW114819   6.090   3.473   6.897
 4640SOL    HW214820   6.069   3.513   0.034
 4641SOL     OW14821   1.353   5.924   4.302
 4641SOL    HW114822   1.354   5.985   4.222
 4641SOL    HW214823   1.259   5.897   4.323
 4642SOL     OW14824   6.548   1.044   4.633
 4642SOL    HW114825   6.494   0.964   4.662
 4642SOL    HW214826   6.579   1.030   4.539
 4643SOL     OW14827   0.512   2.060   0.276
 4643SOL    HW114828   0.581   1.997   0.240
 4643SOL    HW214829   0.556   2.123   0.341
 4644SOL     OW14830   1.350   0.904   0.771
 4644SOL    HW114831   1.287   0.965   0.818
 4644SOL    HW214832   1.300   0.823   0.740
 4645SOL     OW14833   6.688   1.774   4.550
 4645SOL    HW114834   6.763   1.732   4.498
 4645SOL    HW214835   6.601   1.754   4.504
 4646SOL     OW14836   2.575   4.537   4.157
 4646SOL    HW114837   2.622   4.518   4.243
 4646SOL    HW214838   2.477   4.517   4.167
 4647SOL     OW14839   1.445   6.617   1.416
 4647SOL    HW114840   1.471   6.548   1.349
 4647SOL    HW214841   1.485   6.705   1.390
 4648SOL     OW14842   2.746   1.435   4.256
 4648SOL    HW114843   2.844   1.415   4.263
 4648SOL    HW214844   2.695   1.366   4.308
 4649SOL     OW14845   6.435   1.886   0.227
 4649SOL    HW114846   6.465   1.795   0.257
 4649SOL    HW214847   6.410   1.941   0.307
 4650SOL     OW14848   5.087   6.365   0.823
 4650SOL    HW114849   5.001   6.317   0.841
 4650SOL    HW214850   5.118   6.344   0.730
 4651SOL     OW14851   6.724   3.273   5.950
 4651SOL    HW114852   6.701   3.185   5.990
 4651SOL    HW214853   6.691   3.346   6.009
 4652SOL     OW14854   0.431   6.178   5.477
 4652SOL    HW114855   0.464   6.180   5.383
 4652SOL    HW214856   0.420   6.272   5.510
 4653SOL     OW14857   6.386   5.281   0.262
 4653SOL    HW114858   6.288   5.279   0.281
 4653SOL    HW214859   6.404   5.339   0.183
 4654SOL     OW14860   1.751   0.438   5.973
 4654SOL    HW114861   1.729   0.408   6.066
 4654SOL    HW214862   1.721   0.368   5.908
 4655SOL     OW14863   4.888   2.817   1.542
 4655SOL    HW114864   4.940   2.740   1.507
 4655SOL    HW214865   4.932   2.852   1.625
 4656SOL     OW14866   0.047   1.253   1.497
 4656SOL    HW114867   7.017   1.181   1.448
 4656SOL    HW214868   7.003   1.311   1.546
 4657SOL     OW14869   3.883   1.083   2.602
 4657SOL    HW114870   3.867   1.107   2.698
 4657SOL    HW214871   3.976   1.049   2.591
 4658SOL     OW14872   1.248   2.558   5.938
 4658SOL    HW114873   1.195   2.510   6.007
 4658SOL    HW214874   1.225   2.523   5.847
 4659SOL     OW14875   1.533   4.182   6.902
 4659SOL    HW114876   1.620   4.141   6.927
 4659SOL    HW214877   1.521   4.178   6.803
 4660SOL     OW14878   1.042   6.387   3.321
 4660SOL    HW114879   1.081   6.373   3.230
 4660SOL    HW214880   1.074   6.314   3.382
 4661SOL     OW14881   0.672   1.664   5.922
 4661SOL    HW114882   0.575   1.641   5.915
 4661SOL    HW214883   0.723   1.616   5.852
 4662SOL     OW14884   2.059   0.279   5.316
 4662SOL    HW114885   2.004   0.208   5.360
 4662SOL    HW214886   2.117   0.237   5.246
 4663SOL     OW14887   1.100   6.929   0.651
 4663SOL    HW114888   1.191   6.895   0.675
 4663SOL    HW214889   1.078   7.008   0.709
 4664SOL     OW14890   6.482   0.150   6.722
 4664SOL    HW114891   6.408   0.215   6.741
 4664SOL    HW214892   6.565   0.179   6.768
 4665SOL     OW14893   0.780   0.443   4.021
 4665SOL    HW114894   0.822   0.404   3.940
 4665SOL    HW214895   0.801   0.541   4.026
 4666SOL     OW14896   2.297   1.733   4.668
 4666SOL    HW114897   2.310   1.634   4.659
 4666SOL    HW214898   2.290   1.756   4.765
 4667SOL     OW14899   6.377   3.988   1.265
 4667SOL    HW114900   6.305   4.041   1.310
 4667SOL    HW214901   6.463   4.038   1.272
 4668SOL     OW14902   5.035   1.815   4.277
 4668SOL    HW114903   4.957   1.753   4.280
 4668SOL    HW214904   5.114   1.769   4.237
 4669SOL     OW14905   5.332   0.106   6.175
 4669SOL    HW114906   5.245   0.142   6.208
 4669SOL    HW214907   5.316   0.021   6.124
 4670SOL     OW14908   0.368   2.950   0.214
 4670SOL    HW114909   0.290   2.888   0.206
 4670SOL    HW214910   0.336   3.045   0.214
 4671SOL     OW14911   0.366   3.363   1.087
 4671SOL    HW114912   0.436   3.416   1.134
 4671SOL    HW214913   0.324   3.420   1.015
 4672SOL     OW14914   2.705   4.432   6.503
 4672SOL    HW114915   2.784   4.373   6.484
 4672SOL    HW214916   2.645   4.387   6.569
 4673SOL     OW14917   6.114   1.342   0.551
 4673SOL    HW114918   6.105   1.382   0.642
 4673SOL    HW214919   6.051   1.266   0.541
 4674SOL     OW14920   1.059   2.550   0.903
 4674SOL    HW114921   1.026   2.542   0.997
 4674SOL    HW214922   1.054   2.646   0.874
 4675SOL     OW14923   1.769   5.579   6.655
 4675SOL    HW114924   1.693   5.513   6.659
 4675SOL    HW214925   1.783   5.608   6.561
 4676SOL     OW14926   0.434   6.269   4.144
 4676SOL    HW114927   0.450   6.278   4.046
 4676SOL    HW214928   0.514   6.302   4.194
 4677SOL     OW14929   4.203   0.153   6.926
 4677SOL    HW114930   4.105   0.135   6.933
 4677SOL    HW214931   4.253   0.066   6.922
 4678SOL     OW14932   2.038   4.702   6.372
 4678SOL    HW114933   1.999   4.777   6.425
 4678SOL    HW214934   2.022   4.616   6.418
 4679SOL     OW14935   2.799   6.576   6.047
 4679SOL    HW114936   2.791   6.528   5.960
 4679SOL    HW214937   2.894   6.574   6.078
 4680SOL     OW14938   1.660   4.480   6.851
 4680SOL    HW114939   1.647   4.478   6.752
 4680SOL    HW214940   1.647   4.573   6.885
 4681SOL     OW14941   6.362   6.005   5.282
 4681SOL    HW114942   6.385   6.035   5.190
 4681SOL    HW214943   6.263   6.010   5.295
 4682SOL     OW14944   4.004   6.600   0.509
 4682SOL    HW114945   3.932   6.562   0.567
 4682SOL    HW214946   4.023   6.537   0.434
 4683SOL     OW14947   6.896   4.264   3.500
 4683SOL    HW114948   6.796   4.264   3.499
 4683SOL    HW214949   6.929   4.339   3.557
 4684SOL     OW14950   1.580   1.204   5.157
 4684SOL    HW114951   1.482   1.218   5.170
 4684SOL    HW214952   1.626   1.204   5.246
 4685SOL     OW14953   5.018   4.754   4.976
 4685SOL    HW114954   4.979   4.845   4.965
 4685SOL    HW214955   4.949   4.685   4.953
 4686SOL     OW14956   5.066   6.048   0.591
 4686SOL    HW114957   5.061   6.019   0.496
 4686SOL    HW214958   4.993   6.005   0.643
 4687SOL     OW14959   5.341   6.753   4.573
 4687SOL    HW114960   5.427   6.728   4.527
 4687SOL    HW214961   5.275   6.680   4.561
 4688SOL     OW14962   1.015   2.347   0.224
 4688SOL    HW114963   1.088   2.409   0.198
 4688SOL    HW214964   0.927   2.383   0.192
 4689SOL     OW14965   1.523   5.246   4.760
 4689SOL    HW114966   1.441   5.252   4.703
 4689SOL    HW214967   1.574   5.331   4.753
 4690SOL     OW14968   1.581   2.639   0.471
 4690SOL    HW114969   1.638   2.561   0.499
 4690SOL    HW214970   1.519   2.663   0.546
 4691SOL     OW14971   3.801   4.389   0.215
 4691SOL    HW114972   3.769   4.445   0.139
 4691SOL    HW214973   3.789   4.439   0.301
 4692SOL     OW14974   0.066   5.322   3.220
 4692SOL    HW114975   0.014   5.305   3.137
 4692SOL    HW214976   0.139   5.254   3.229
 4693SOL     OW14977   0.316   0.762   3.893
 4693SOL    HW114978   0.389   0.704   3.926
 4693SOL    HW214979   0.228   0.730   3.929
 4694SOL     OW14980   2.425   0.978   6.310
 4694SOL    HW114981   2.427   1.069   6.351
 4694SOL    HW214982   2.347   0.927   6.346
 4695SOL     OW14983   3.410   2.885   1.730
 4695SOL    HW114984   3.504   2.916   1.746
 4695SOL    HW214985   3.383   2.906   1.637
 4696SOL     OW14986   6.147   3.177   0.565
 4696SOL    HW114987   6.164   3.269   0.600
 4696SOL    HW214988   6.150   3.112   0.641
 4697SOL     OW14989   0.581   4.964   0.361
 4697SOL    HW114990   0.637   4.981   0.442
 4697SOL    HW214991   0.634   4.914   0.293
 4698SOL     OW14992   5.690   3.266   1.716
 4698SOL    HW114993   5.719   3.337   1.780
 4698SOL    HW214994   5.765   3.201   1.703
 4699SOL     OW14995   6.281   0.525   3.571
 4699SOL    HW114996   6.334   0.467   3.509
 4699SOL    HW214997   6.308   0.506   3.666
 4700SOL     OW14998   5.964   0.042   0.624
 4700SOL    HW114999   5.956   0.029   0.525
 4700SOL    HW215000   6.030   6.996   0.661
 4701SOL     OW15001   0.577   1.167   0.278
 4701SOL    HW115002   0.536   1.183   0.188
 4701SOL    HW215003   0.507   1.137   0.342
 4702SOL     OW15004   2.865   3.553   6.707
 4702SOL    HW115005   2.881   3.570   6.804
 4702SOL    HW215006   2.799   3.619   6.673
 4703SOL     OW15007   1.564   1.526   1.737
 4703SOL    HW115008   1.585   1.458   1.667
 4703SOL    HW215009   1.538   1.480   1.822
 4704SOL     OW15010   4.311   6.736   0.471
 4704SOL    HW115011   4.384   6.793   0.507
 4704SOL    HW215012   4.222   6.781   0.486
 4705SOL     OW15013   3.481   4.165   4.092
 4705SOL    HW115014   3.415   4.091   4.106
 4705SOL    HW215015   3.546   4.167   4.168
 4706SOL     OW15016   4.759   5.518   0.799
 4706SOL    HW115017   4.674   5.556   0.761
 4706SOL    HW215018   4.777   5.560   0.888
 4707SOL     OW15019   3.201   6.257   0.853
 4707SOL    HW115020   3.173   6.202   0.932
 4707SOL    HW215021   3.288   6.302   0.872
 4708SOL     OW15022   2.212   2.346   2.142
 4708SOL    HW115023   2.165   2.325   2.057
 4708SOL    HW215024   2.157   2.315   2.219
 4709SOL     OW15025   4.069   3.714   6.540
 4709SOL    HW115026   4.025   3.786   6.595
 4709SOL    HW215027   4.165   3.737   6.527
 4710SOL     OW15028   5.337   2.136   0.801
 4710SOL    HW115029   5.353   2.194   0.880
 4710SOL    HW215030   5.369   2.043   0.820
 4711SOL     OW15031   2.970   6.798   3.145
 4711SOL    HW115032   3.033   6.754   3.080
 4711SOL    HW215033   2.889   6.741   3.158
 4712SOL     OW15034   1.364   4.674   0.168
 4712SOL    HW115035   1.387   4.594   0.112
 4712SOL    HW215036   1.399   4.661   0.261
 4713SOL     OW15037   2.889   5.751   0.883
 4713SOL    HW115038   2.803   5.765   0.932
 4713SOL    HW215039   2.876   5.772   0.786
 4714SOL     OW15040   3.209   2.662   0.775
 4714SOL    HW115041   3.246   2.740   0.826
 4714SOL    HW215042   3.110   2.658   0.788
 4715SOL     OW15043   5.464   4.093   4.517
 4715SOL    HW115044   5.394   4.070   4.450
 4715SOL    HW215045   5.548   4.042   4.496
 4716SOL     OW15046   3.226   5.502   0.280
 4716SOL    HW115047   3.204   5.406   0.293
 4716SOL    HW215048   3.145   5.550   0.245
 4717SOL     OW15049   1.040   5.659   3.528
 4717SOL    HW115050   1.069   5.754   3.520
 4717SOL    HW215051   1.082   5.605   3.456
 4718SOL     OW15052   6.185   1.079   6.306
 4718SOL    HW115053   6.154   1.173   6.295
 4718SOL    HW215054   6.231   1.069   6.395
 4719SOL     OW15055   4.212   3.071   1.451
 4719SOL    HW115056   4.222   3.072   1.551
 4719SOL    HW215057   4.257   3.152   1.412
 4720SOL     OW15058   3.213   0.611   4.041
 4720SOL    HW115059   3.153   0.690   4.033
 4720SOL    HW215060   3.290   0.621   3.977
 4721SOL     OW15061   1.246   2.114   1.310
 4721SOL    HW115062   1.240   2.140   1.406
 4721SOL    HW215063   1.279   2.192   1.256
 4722SOL     OW15064   2.860   0.226   1.691
 4722SOL    HW115065   2.870   0.320   1.659
 4722SOL    HW215066   2.785   0.182   1.640
 4723SOL     OW15067   3.064   0.095   6.710
 4723SOL    HW115068   3.094   0.073   6.618
 4723SOL    HW215069   2.986   0.157   6.706
 4724SOL     OW15070   3.614   5.194   1.935
 4724SOL    HW115071   3.664   5.182   1.850
 4724SOL    HW215072   3.586   5.105   1.970
 4725SOL     OW15073   5.786   5.184   3.604
 4725SOL    HW115074   5.730   5.119   3.655
 4725SOL    HW215075   5.821   5.254   3.666
 4726SOL     OW15076   0.897   6.188   6.009
 4726SOL    HW115077   0.852   6.118   6.066
 4726SOL    HW215078   0.980   6.149   5.969
 4727SOL     OW15079   0.115   6.648   0.651
 4727SOL    HW115080   0.060   6.681   0.728
 4727SOL    HW215081   0.208   6.683   0.660
 4728SOL     OW15082   0.235   1.491   6.934
 4728SOL    HW115083   0.135   1.486   6.934
 4728SOL    HW215084   0.274   1.399   6.937
 4729SOL     OW15085   3.025   0.529   0.713
 4729SOL    HW115086   3.107   0.574   0.748
 4729SOL    HW215087   3.045   0.488   0.624
 4730SOL     OW15088   1.684   0.008   5.269
 4730SOL    HW115089   1.636   6.944   5.246
 4730SOL    HW215090   1.645   0.084   5.217
 4731SOL     OW15091   5.717   2.004   5.815
 4731SOL    HW115092   5.810   2.030   5.841
 4731SOL    HW215093   5.703   1.907   5.834
 4732SOL     OW15094   0.346   1.658   0.767
 4732SOL    HW115095   0.426   1.621   0.718
 4732SOL    HW215096   0.344   1.757   0.756
 4733SOL     OW15097   6.660   2.955   4.236
 4733SOL    HW115098   6.631   3.031   4.295
 4733SOL    HW215099   6.752   2.925   4.262
 4734SOL     OW15100   4.531   4.625   6.008
 4734SOL    HW115101   4.613   4.648   5.955
 4734SOL    HW215102   4.556   4.614   6.104
 4735SOL     OW15103   0.285   4.853   3.733
 4735SOL    HW115104   0.335   4.768   3.748
 4735SOL    HW215105   0.321   4.924   3.794
 4736SOL     OW15106   1.331   1.068   1.547
 4736SOL    HW115107   1.362   0.977   1.577
 4736SOL    HW215108   1.328   1.129   1.626
 4737SOL     OW15109   3.094   5.426   1.531
 4737SOL    HW115110   3.152   5.346   1.515
 4737SOL    HW215111   3.146   5.510   1.513
 4738SOL     OW15112   7.019   6.370   2.769
 4738SOL    HW115113   0.028   6.464   2.750
 4738SOL    HW215114   0.074   6.308   2.750
 4739SOL     OW15115   4.605   0.656   1.403
 4739SOL    HW115116   4.676   0.676   1.470
 4739SOL    HW215117   4.585   0.739   1.350
 4740SOL     OW15118   1.076   2.410   3.770
 4740SOL    HW115119   0.990   2.380   3.812
 4740SOL    HW215120   1.127   2.466   3.835
 4741SOL     OW15121   3.888   4.287   1.100
 4741SOL    HW115122   3.790   4.268   1.096
 4741SOL    HW215123   3.906   4.349   1.177
 4742SOL     OW15124   3.782   0.971   0.433
 4742SOL    HW115125   3.684   0.965   0.417
 4742SOL    HW215126   3.828   0.994   0.347
 4743SOL     OW15127   1.731   4.657   0.979
 4743SOL    HW115128   1.633   4.656   0.962
 4743SOL    HW215129   1.749   4.629   1.074
 4744SOL     OW15130   2.502   5.887   1.328
 4744SOL    HW115131   2.436   5.930   1.390
 4744SOL    HW215132   2.525   5.796   1.362
 4745SOL     OW15133   0.539   3.944   0.215
 4745SOL    HW115134   0.499   3.961   0.125
 4745SOL    HW215135   0.556   3.846   0.226
 4746SOL     OW15136   4.371   5.666   4.319
 4746SOL    HW115137   4.369   5.763   4.345
 4746SOL    HW215138   4.452   5.622   4.358
 4747SOL     OW15139   1.943   1.281   6.975
 4747SOL    HW115140   1.874   1.347   7.006
 4747SOL    HW215141   1.979   1.231   0.033
 4748SOL     OW15142   1.663   6.558   1.980
 4748SOL    HW115143   1.586   6.511   1.937
 4748SOL    HW215144   1.630   6.614   2.056
 4749SOL     OW15145   3.144   2.230   0.302
 4749SOL    HW115146   3.169   2.185   0.388
 4749SOL    HW215147   3.063   2.186   0.264
 4750SOL     OW15148   5.116   2.833   5.652
 4750SOL    HW115149   5.027   2.877   5.664
 4750SOL    HW215150   5.167   2.880   5.580
 4751SOL     OW15151   4.484   0.493   3.120
 4751SOL    HW115152   4.542   0.461   3.195
 4751SOL    HW215153   4.428   0.570   3.152
 4752SOL     OW15154   4.891   2.219   6.494
 4752SOL    HW115155   4.799   2.186   6.516
 4752SOL    HW215156   4.912   2.299   6.552
 4753SOL     OW15157   2.867   6.182   4.639
 4753SOL    HW115158   2.853   6.169   4.541
 4753SOL    HW215159   2.930   6.258   4.654
 4754SOL     OW15160   4.730   4.303   6.475
 4754SOL    HW115161   4.662   4.371   6.503
 4754SOL    HW215162   4.683   4.217   6.453
 4755SOL     OW15163   0.727   1.032   1.547
 4755SOL    HW115164   0.789   1.104   1.577
 4755SOL    HW215165   0.748   1.006   1.453
 4756SOL     OW15166   6.415   3.882   5.612
 4756SOL    HW115167   6.493   3.835   5.654
 4756SOL    HW215168   6.448   3.956   5.555
 4757SOL     OW15169   1.685   3.652   0.698
 4757SOL    HW115170   1.756   3.672   0.765
 4757SOL    HW215171   1.687   3.721   0.625
 4758SOL     OW15172   2.130   6.204   3.218
 4758SOL    HW115173   2.156   6.134   3.151
 4758SOL    HW215174   2.116   6.160   3.307
 4759SOL     OW15175   6.945   6.038   1.597
 4759SOL    HW115176   6.971   6.133   1.582
 4759SOL    HW215177   6.846   6.032   1.611
 4760SOL     OW15178   1.283   5.799   0.651
 4760SOL    HW115179   1.289   5.891   0.689
 4760SOL    HW215180   1.314   5.800   0.556
 4761SOL     OW15181   5.798   6.494   1.784
 4761SOL    HW115182   5.729   6.563   1.762
 4761SOL    HW215183   5.757   6.423   1.841
 4762SOL     OW15184   1.853   0.787   2.473
 4762SOL    HW115185   1.940   0.739   2.482
 4762SOL    HW215186   1.790   0.754   2.544
 4763SOL     OW15187   5.778   5.179   2.443
 4763SOL    HW115188   5.788   5.271   2.407
 4763SOL    HW215189   5.754   5.116   2.369
 4764SOL     OW15190   4.891   2.583   0.445
 4764SOL    HW115191   4.892   2.521   0.366
 4764SOL    HW215192   4.906   2.530   0.528
 4765SOL     OW15193   4.061   1.491   5.345
 4765SOL    HW115194   4.057   1.482   5.245
 4765SOL    HW215195   4.152   1.461   5.377
 4766SOL     OW15196   0.811   0.514   4.832
 4766SOL    HW115197   0.746   0.478   4.765
 4766SOL    HW215198   0.900   0.526   4.789
 4767SOL     OW15199   2.311   4.122   3.170
 4767SOL    HW115200   2.309   4.220   3.189
 4767SOL    HW215201   2.310   4.107   3.072
 4768SOL     OW15202   4.532   2.910   6.302
 4768SOL    HW115203   4.620   2.863   6.300
 4768SOL    HW215204   4.529   2.971   6.382
 4769SOL     OW15205   1.988   3.446   0.599
 4769SOL    HW115206   2.017   3.540   0.580
 4769SOL    HW215207   1.965   3.401   0.513
 4770SOL     OW15208   0.200   1.545   4.021
 4770SOL    HW115209   0.156   1.475   3.965
 4770SOL    HW215210   0.146   1.628   4.019
 4771SOL     OW15211   1.703   7.000   3.907
 4771SOL    HW115212   1.740   6.968   3.820
 4771SOL    HW215213   1.608   0.008   3.895
 4772SOL     OW15214   3.356   5.470   2.303
 4772SOL    HW115215   3.282   5.535   2.282
 4772SOL    HW215216   3.327   5.410   2.377
 4773SOL     OW15217   2.658   5.295   4.787
 4773SOL    HW115218   2.674   5.298   4.689
 4773SOL    HW215219   2.686   5.206   4.823
 4774SOL     OW15220   1.046   4.309   0.508
 4774SOL    HW115221   1.015   4.261   0.590
 4774SOL    HW215222   1.110   4.250   0.457
 4775SOL     OW15223   5.923   6.279   5.522
 4775SOL    HW115224   5.824   6.289   5.510
 4775SOL    HW215225   5.964   6.253   5.435
 4776SOL     OW15226   0.287   1.182   6.056
 4776SOL    HW115227   0.321   1.135   5.975
 4776SOL    HW215228   0.235   1.263   6.028
 4777SOL     OW15229   2.197   0.219   2.555
 4777SOL    HW115230   2.098   0.212   2.567
 4777SOL    HW215231   2.241   0.222   2.645
 4778SOL     OW15232   2.074   0.945   0.223
 4778SOL    HW115233   2.111   1.033   0.192
 4778SOL    HW215234   2.091   0.935   0.321
 4779SOL     OW15235   5.149   0.378   4.705
 4779SOL    HW115236   5.159   0.299   4.644
 4779SOL    HW215237   5.225   0.380   4.770
 4780SOL     OW15238   5.130   2.605   5.474
 4780SOL    HW115239   5.045   2.559   5.500
 4780SOL    HW215240   5.150   2.677   5.540
 4781SOL     OW15241   2.303   6.384   1.733
 4781SOL    HW115242   2.321   6.365   1.636
 4781SOL    HW215243   2.307   6.298   1.784
 4782SOL     OW15244   6.575   6.811   4.516
 4782SOL    HW115245   6.664   6.822   4.561
 4782SOL    HW215246   6.524   6.896   4.522
 4783SOL     OW15247   0.013   3.534   6.159
 4783SOL    HW115248   6.999   3.473   6.230
 4783SOL    HW215249   0.050   3.617   6.201
 4784SOL     OW15250   5.255   3.181   6.955
 4784SOL    HW115251   5.340   3.211   6.913
 4784SOL    HW215252   5.238   3.085   6.932
 4785SOL     OW15253   0.154   6.956   4.884
 4785SOL    HW115254   0.209   6.900   4.822
 4785SOL    HW215255   0.151   6.913   4.974
 4786SOL     OW15256   1.089   6.260   0.446
 4786SOL    HW115257   1.116   6.251   0.542
 4786SOL    HW215258   1.132   6.187   0.393
 4787SOL     OW15259   4.085   1.618   4.074
 4787SOL    HW115260   4.111   1.537   4.125
 4787SOL    HW215261   4.162   1.682   4.070
 4788SOL     OW15262   0.030   6.370   0.294
 4788SOL    HW115263   6.984   6.296   0.312
 4788SOL    HW215264   0.024   6.397   0.198
 4789SOL     OW15265   5.722   0.792   2.719
 4789SOL    HW115266   5.624   0.772   2.713
 4789SOL    HW215267   5.754   0.830   2.633
 4790SOL     OW15268   6.993   1.902   4.952
 4790SOL    HW115269   0.069   1.876   4.963
 4790SOL    HW215270   6.947   1.835   4.894
 4791SOL     OW15271   0.977   0.356   0.704
 4791SOL    HW115272   0.888   0.388   0.737
 4791SOL    HW215273   0.986   0.258   0.721
 4792SOL     OW15274   2.053   3.569   2.485
 4792SOL    HW115275   2.096   3.479   2.487
 4792SOL    HW215276   2.053   3.603   2.391
 4793SOL     OW15277   1.031   3.454   5.579
 4793SOL    HW115278   1.101   3.456   5.507
 4793SOL    HW215279   1.064   3.505   5.658
 4794SOL     OW15280   4.344   1.780   4.548
 4794SOL    HW115281   4.300   1.746   4.631
 4794SOL    HW215282   4.302   1.737   4.468
 4795SOL     OW15283   6.994   0.881   6.500
 4795SOL    HW115284   6.943   0.829   6.569
 4795SOL    HW215285   0.066   0.843   6.491
 4796SOL     OW15286   4.677   1.415   5.446
 4796SOL    HW115287   4.764   1.433   5.492
 4796SOL    HW215288   4.605   1.408   5.515
 4797SOL     OW15289   1.530   5.184   5.603
 4797SOL    HW115290   1.602   5.128   5.561
 4797SOL    HW215291   1.497   5.141   5.686
 4798SOL     OW15292   3.909   5.631   0.053
 4798SOL    HW115293   3.839   5.628   0.125
 4798SOL    HW215294   3.901   5.549   7.016
 4799SOL     OW15295   4.455   2.561   6.710
 4799SOL    HW115296   4.372   2.527   6.667
 4799SOL    HW215297   4.466   2.518   6.800
 4800SOL     OW15298   0.278   4.240   0.165
 4800SOL    HW115299   0.212   4.172   0.134
 4800SOL    HW215300   0.254   4.270   0.257
 4801SOL     OW15301   4.849   2.413   1.657
 4801SOL    HW115302   4.812   2.476   1.588
 4801SOL    HW215303   4.896   2.466   1.728
 4802SOL     OW15304   6.482   0.079   4.484
 4802SOL    HW115305   6.404   0.043   4.434
 4802SOL    HW215306   6.457   0.165   4.528
 4803SOL     OW15307   4.976   4.014   6.029
 4803SOL    HW115308   4.992   4.011   6.128
 4803SOL    HW215309   4.893   3.962   6.007
 4804SOL     OW15310   5.223   1.906   0.443
 4804SOL    HW115311   5.129   1.927   0.471
 4804SOL    HW215312   5.222   1.865   0.352
 4805SOL     OW15313   6.223   1.553   0.170
 4805SOL    HW115314   6.267   1.464   0.153
 4805SOL    HW215315   6.228   1.573   0.268
 4806SOL     OW15316   1.150   1.451   3.411
 4806SOL    HW115317   1.124   1.391   3.335
 4806SOL    HW215318   1.083   1.525   3.419
 4807SOL     OW15319   0.178   4.101   5.726
 4807SOL    HW115320   0.276   4.081   5.738
 4807SOL    HW215321   0.164   4.200   5.729
 4808SOL     OW15322   3.985   5.866   1.483
 4808SOL    HW115323   3.912   5.866   1.414
 4808SOL    HW215324   3.981   5.952   1.535
 4809SOL     OW15325   3.070   3.750   1.705
 4809SOL    HW115326   3.005   3.694   1.755
 4809SOL    HW215327   3.038   3.845   1.702
 4810SOL     OW15328   1.251   5.288   4.078
 4810SOL    HW115329   1.344   5.318   4.100
 4810SOL    HW215330   1.206   5.254   4.161
 4811SOL     OW15331   3.194   3.638   4.229
 4811SOL    HW115332   3.128   3.713   4.233
 4811SOL    HW215333   3.145   3.551   4.221
 4812SOL     OW15334   1.447   0.467   3.019
 4812SOL    HW115335   1.375   0.484   3.087
 4812SOL    HW215336   1.449   0.543   2.954
 4813SOL     OW15337   0.230   1.590   5.659
 4813SOL    HW115338   0.154   1.537   5.622
 4813SOL    HW215339   0.316   1.545   5.637
 4814SOL     OW15340   6.226   3.679   1.468
 4814SOL    HW115341   6.178   3.749   1.415
 4814SOL    HW215342   6.198   3.685   1.564
 4815SOL     OW15343   6.144   4.672   2.242
 4815SOL    HW115344   6.057   4.641   2.282
 4815SOL    HW215345   6.196   4.723   2.310
 4816SOL     OW15346   3.218   0.807   2.587
 4816SOL    HW115347   3.265   0.873   2.646
 4816SOL    HW215348   3.158   0.856   2.524
 4817SOL     OW15349   4.146   1.708   1.099
 4817SOL    HW115350   4.073   1.676   1.159
 4817SOL    HW215351   4.209   1.633   1.080
 4818SOL     OW15352   4.405   6.940   5.084
 4818SOL    HW115353   4.391   6.924   5.182
 4818SOL    HW215354   4.318   6.928   5.036
 4819SOL     OW15355   2.909   1.064   0.584
 4819SOL    HW115356   2.908   1.132   0.511
 4819SOL    HW215357   2.952   0.980   0.551
 4820SOL     OW15358   5.658   4.074   1.819
 4820SOL    HW115359   5.572   4.028   1.842
 4820SOL    HW215360   5.669   4.076   1.720
 4821SOL     OW15361   0.144   5.468   1.580
 4821SOL    HW115362   0.138   5.499   1.675
 4821SOL    HW215363   0.085   5.524   1.522
 4822SOL     OW15364   0.652   3.955   2.087
 4822SOL    HW115365   0.698   3.936   2.000
 4822SOL    HW215366   0.594   3.877   2.112
 4823SOL     OW15367   1.737   1.292   3.842
 4823SOL    HW115368   1.700   1.270   3.752
 4823SOL    HW215369   1.667   1.340   3.896
 4824SOL     OW15370   5.495   2.718   1.649
 4824SOL    HW115371   5.402   2.753   1.661
 4824SOL    HW215372   5.535   2.758   1.567
 4825SOL     OW15373   0.046   3.013   3.279
 4825SOL    HW115374   0.123   2.951   3.261
 4825SOL    HW215375   0.040   3.031   3.377
 4826SOL     OW15376   6.704   6.093   6.763
 4826SOL    HW115377   6.691   6.162   6.835
 4826SOL    HW215378   6.722   6.140   6.677
 4827SOL     OW15379   5.699   1.212   1.355
 4827SOL    HW115380   5.745   1.151   1.291
 4827SOL    HW215381   5.765   1.277   1.394
 4828SOL     OW15382   4.805   3.304   6.764
 4828SOL    HW115383   4.874   3.234   6.748
 4828SOL    HW215384   4.719   3.261   6.792
 4829SOL     OW15385   3.656   0.300   5.078
 4829SOL    HW115386   3.677   0.256   4.991
 4829SOL    HW215387   3.563   0.276   5.107
 4830SOL     OW15388   4.147   5.929   5.144
 4830SOL    HW115389   4.117   5.847   5.094
 4830SOL    HW215390   4.228   5.967   5.100
 4831SOL     OW15391   6.453   3.510   5.703
 4831SOL    HW115392   6.517   3.587   5.712
 4831SOL    HW215393   6.369   3.540   5.660
 4832SOL     OW15394   2.094   2.602   6.016
 4832SOL    HW115395   2.076   2.507   5.991
 4832SOL    HW215396   2.192   2.615   6.027
 4833SOL     OW15397   5.682   1.519   3.092
 4833SOL    HW115398   5.640   1.539   3.003
 4833SOL    HW215399   5.752   1.588   3.111
 4834SOL     OW15400   5.533   1.030   3.267
 4834SOL    HW115401   5.480   1.110   3.295
 4834SOL    HW215402   5.491   0.947   3.306
 4835SOL     OW15403   2.195   0.735   5.512
 4835SOL    HW115404   2.227   0.652   5.465
 4835SOL    HW215405   2.171   0.713   5.606
 4836SOL     OW15406   5.283   2.773   2.096
 4836SOL    HW115407   5.184   2.783   2.101
 4836SOL    HW215408   5.314   2.801   2.005
 4837SOL     OW15409   0.490   3.756   0.863
 4837SOL    HW115410   0.549   3.767   0.943
 4837SOL    HW215411   0.513   3.670   0.816
 4838SOL     OW15412   2.801   5.625   2.593
 4838SOL    HW115413   2.743   5.543   2.591
 4838SOL    HW215414   2.753   5.701   2.550
 4839SOL     OW15415   0.750   6.928   6.961
 4839SOL    HW115416   0.720   6.908   6.867
 4839SOL    HW215417   0.778   6.843   7.005
 4840SOL     OW15418   6.447   6.585   0.082
 4840SOL    HW115419   6.474   6.617   7.011
 4840SOL    HW215420   6.351   6.555   0.079
 4841SOL     OW15421   2.704   6.160   2.588
 4841SOL    HW115422   2.700   6.061   2.594
 4841SOL    HW215423   2.615   6.199   2.612
 4842SOL     OW15424   3.432   6.328   1.209
 4842SOL    HW115425   3.381   6.365   1.287
 4842SOL    HW215426   3.392   6.362   1.124
 4843SOL     OW15427   0.912   2.889   6.754
 4843SOL    HW115428   0.913   2.888   6.654
 4843SOL    HW215429   0.869   2.805   6.788
 4844SOL     OW15430   0.402   1.341   5.749
 4844SOL    HW115431   0.317   1.291   5.760
 4844SOL    HW215432   0.415   1.402   5.827
 4845SOL     OW15433   5.638   5.054   3.996
 4845SOL    HW115434   5.545   5.017   4.003
 4845SOL    HW215435   5.696   4.991   3.945
 4846SOL     OW15436   0.728   5.378   0.344
 4846SOL    HW115437   0.736   5.473   0.374
 4846SOL    HW215438   0.633   5.358   0.321
 4847SOL     OW15439   4.946   2.381   4.421
 4847SOL    HW115440   4.954   2.373   4.520
 4847SOL    HW215441   4.971   2.294   4.378
 4848SOL     OW15442   2.787   2.085   1.910
 4848SOL    HW115443   2.806   2.001   1.961
 4848SOL    HW215444   2.833   2.162   1.954
 4849SOL     OW15445   0.902   6.572   6.799
 4849SOL    HW115446   0.896   6.649   6.736
 4849SOL    HW215447   0.929   6.490   6.749
 4850SOL     OW15448   3.616   0.658   2.507
 4850SOL    HW115449   3.699   0.602   2.502
 4850SOL    HW215450   3.575   0.650   2.598
 4851SOL     OW15451   5.566   0.765   5.528
 4851SOL    HW115452   5.663   0.788   5.515
 4851SOL    HW215453   5.516   0.784   5.444
 4852SOL     OW15454   1.850   2.108   1.100
 4852SOL    HW115455   1.819   2.106   1.196
 4852SOL    HW215456   1.871   2.202   1.074
 4853SOL     OW15457   3.366   1.652   1.657
 4853SOL    HW115458   3.416   1.735   1.632
 4853SOL    HW215459   3.419   1.600   1.725
 4854SOL     OW15460   4.059   0.344   0.146
 4854SOL    HW115461   4.068   0.245   0.138
 4854SOL    HW215462   3.968   0.373   0.118
 4855SOL     OW15463   7.007   2.484   2.546
 4855SOL    HW115464   6.969   2.498   2.637
 4855SOL    HW215465   0.043   2.563   2.521
 4856SOL     OW15466   2.348   4.370   3.220
 4856SOL    HW115467   2.432   4.397   3.172
 4856SOL    HW215468   2.279   4.442   3.210
 4857SOL     OW15469   0.498   1.195   6.223
 4857SOL    HW115470   0.412   1.190   6.171
 4857SOL    HW215471   0.495   1.274   6.284
 4858SOL     OW15472   1.281   0.960   4.020
 4858SOL    HW115473   1.207   0.964   3.953
 4858SOL    HW215474   1.368   0.983   3.975
 4859SOL     OW15475   3.128   5.427   5.567
 4859SOL    HW115476   3.113   5.524   5.585
 4859SOL    HW215477   3.124   5.376   5.653
 4860SOL     OW15478   4.523   4.552   0.629
 4860SOL    HW115479   4.437   4.511   0.598
 4860SOL    HW215480   4.587   4.479   0.656
 4861SOL     OW15481   5.046   3.646   5.686
 4861SOL    HW115482   4.967   3.700   5.714
 4861SOL    HW215483   5.072   3.583   5.760
 4862SOL     OW15484   1.337   6.628   1.700
 4862SOL    HW115485   1.374   6.600   1.611
 4862SOL    HW215486   1.397   6.595   1.773
 4863SOL     OW15487   5.544   4.415   6.654
 4863SOL    HW115488   5.623   4.418   6.715
 4863SOL    HW215489   5.479   4.346   6.687
 4864SOL     OW15490   3.176   0.605   3.690
 4864SOL    HW115491   3.171   0.702   3.714
 4864SOL    HW215492   3.091   0.560   3.717
 4865SOL     OW15493   2.183   6.393   5.085
 4865SOL    HW115494   2.282   6.400   5.094
 4865SOL    HW215495   2.144   6.484   5.072
 4866SOL     OW15496   6.242   3.836   6.455
 4866SOL    HW115497   6.239   3.932   6.483
 4866SOL    HW215498   6.331   3.816   6.413
 4867SOL     OW15499   4.561   0.019   2.960
 4867SOL    HW115500   4.481   6.979   2.953
 4867SOL    HW215501   4.637   6.999   2.908
 4868SOL     OW15502   6.795   4.568   1.429
 4868SOL    HW115503   6.794   4.534   1.523
 4868SOL    HW215504   6.767   4.663   1.427
 4869SOL     OW15505   0.813   0.764   0.540
 4869SOL    HW115506   0.779   0.828   0.472
 4869SOL    HW215507   0.894   0.717   0.505
 4870SOL     OW15508   0.492   6.196   2.176
 4870SOL    HW115509   0.545   6.114   2.197
 4870SOL    HW215510   0.552   6.268   2.142
 4871SOL     OW15511   1.835   1.603   4.109
 4871SOL    HW115512   1.852   1.700   4.130
 4871SOL    HW215513   1.922   1.553   4.110
 4872SOL     OW15514   5.645   6.273   3.053
 4872SOL    HW115515   5.645   6.311   2.961
 4872SOL    HW215516   5.639   6.347   3.120
 4873SOL     OW15517   6.242   5.671   5.401
 4873SOL    HW115518   6.207   5.711   5.316
 4873SOL    HW215519   6.315   5.606   5.379
 4874SOL     OW15520   4.793   2.905   3.204
 4874SOL    HW115521   4.784   2.943   3.112
 4874SOL    HW215522   4.872   2.843   3.207
 4875SOL     OW15523   5.456   6.142   5.288
 4875SOL    HW115524   5.437   6.076   5.361
 4875SOL    HW215525   5.543   6.118   5.244
 4876SOL     OW15526   1.329   1.116   2.403
 4876SOL    HW115527   1.279   1.203   2.397
 4876SOL    HW215528   1.299   1.056   2.328
 4877SOL     OW15529   6.837   1.558   5.453
 4877SOL    HW115530   6.776   1.479   5.464
 4877SOL    HW215531   6.812   1.609   5.371
 4878SOL     OW15532   6.775   2.579   2.288
 4878SOL    HW115533   6.764   2.481   2.298
 4878SOL    HW215534   6.851   2.599   2.226
 4879SOL     OW15535   5.450   0.969   2.617
 4879SOL    HW115536   5.514   1.038   2.582
 4879SOL    HW215537   5.433   0.985   2.714
 4880SOL     OW15538   6.389   2.979   6.439
 4880SOL    HW115539   6.324   2.911   6.473
 4880SOL    HW215540   6.442   3.016   6.516
 4881SOL     OW15541   2.002   2.297   1.532
 4881SOL    HW115542   2.070   2.370   1.540
 4881SOL    HW215543   2.046   2.215   1.495
 4882SOL     OW15544   4.347   2.048   4.237
 4882SOL    HW115545   4.374   2.029   4.331
 4882SOL    HW215546   4.406   2.120   4.199
 4883SOL     OW15547   6.013   4.420   0.767
 4883SOL    HW115548   6.084   4.355   0.791
 4883SOL    HW215549   5.995   4.416   0.669
 4884SOL     OW15550   1.961   0.287   1.280
 4884SOL    HW115551   2.011   0.352   1.338
 4884SOL    HW215552   2.024   0.218   1.245
 4885SOL     OW15553   1.428   4.253   0.148
 4885SOL    HW115554   1.500   4.247   0.217
 4885SOL    HW215555   1.461   4.216   0.061
 4886SOL     OW15556   2.629   1.250   2.008
 4886SOL    HW115557   2.559   1.261   2.080
 4886SOL    HW215558   2.593   1.282   1.921
 4887SOL     OW15559   6.209   6.589   1.211
 4887SOL    HW115560   6.267   6.596   1.292
 4887SOL    HW215561   6.267   6.589   1.129
 4888SOL     OW15562   3.825   6.905   2.863
 4888SOL    HW115563   3.835   6.955   2.950
 4888SOL    HW215564   3.903   6.927   2.804
 4889SOL     OW15565   6.849   3.036   3.766
 4889SOL    HW115566   6.786   3.020   3.690
 4889SOL    HW215567   6.797   3.069   3.845
 4890SOL     OW15568   6.399   1.657   4.659
 4890SOL    HW115569   6.464   1.582   4.648
 4890SOL    HW215570   6.327   1.630   4.722
 4891SOL     OW15571   2.744   5.210   6.068
 4891SOL    HW115572   2.787   5.203   5.977
 4891SOL    HW215573   2.781   5.139   6.127
 4892SOL     OW15574   5.122   5.723   2.908
 4892SOL    HW115575   5.109   5.821   2.928
 4892SOL    HW215576   5.076   5.701   2.822
 4893SOL     OW15577   0.947   3.497   1.130
 4893SOL    HW115578   1.041   3.529   1.117
 4893SOL    HW215579   0.929   3.486   1.228
 4894SOL     OW15580   5.293   6.883   1.848
 4894SOL    HW115581   5.206   6.919   1.884
 4894SOL    HW215582   5.281   6.788   1.820
 4895SOL     OW15583   6.992   4.284   4.971
 4895SOL    HW115584   0.030   4.215   4.927
 4895SOL    HW215585   6.912   4.302   4.913
 4896SOL     OW15586   1.987   4.686   4.625
 4896SOL    HW115587   2.019   4.687   4.720
 4896SOL    HW215588   1.949   4.776   4.602
 4897SOL     OW15589   1.739   6.673   5.340
 4897SOL    HW115590   1.685   6.695   5.259
 4897SOL    HW215591   1.682   6.685   5.422
 4898SOL     OW15592   5.097   1.578   3.523
 4898SOL    HW115593   5.109   1.661   3.469
 4898SOL    HW215594   5.175   1.566   3.584
 4899SOL     OW15595   6.753   6.716   1.915
 4899SOL    HW115596   6.695   6.650   1.866
 4899SOL    HW215597   6.781   6.677   2.003
 4900SOL     OW15598   3.797   6.038   5.626
 4900SOL    HW115599   3.814   6.098   5.548
 4900SOL    HW215600   3.839   6.077   5.708
 4901SOL     OW15601   1.441   1.009   6.356
 4901SOL    HW115602   1.374   1.083   6.365
 4901SOL    HW215603   1.394   0.921   6.357
 4902SOL     OW15604   2.048   6.640   5.384
 4902SOL    HW115605   2.088   6.548   5.390
 4902SOL    HW215606   1.952   6.632   5.356
 4903SOL     OW15607   4.768   4.023   2.519
 4903SOL    HW115608   4.775   4.006   2.618
 4903SOL    HW215609   4.751   3.936   2.472
 4904SOL     OW15610   1.336   6.827   0.705
 4904SOL    HW115611   1.394   6.875   0.771
 4904SOL    HW215612   1.393   6.785   0.634
 4905SOL     OW15613   3.085   6.275   3.132
 4905SOL    HW115614   3.076   6.183   3.171
 4905SOL    HW215615   3.075   6.343   3.205
 4906SOL     OW15616   4.965   3.445   4.867
 4906SOL    HW115617   4.948   3.480   4.775
 4906SOL    HW215618   4.917   3.502   4.934
 4907SOL     OW15619   4.330   1.879   0.149
 4907SOL    HW115620   4.336   1.974   0.118
 4907SOL    HW215621   4.409   1.857   0.206
 4908SOL     OW15622   3.941   0.102   6.952
 4908SOL    HW115623   3.890   0.079   6.869
 4908SOL    HW215624   3.893   0.175   7.001
 4909SOL     OW15625   5.311   4.954   4.830
 4909SOL    HW115626   5.361   4.872   4.858
 4909SOL    HW215627   5.235   4.969   4.894
 4910SOL     OW15628   4.718   2.359   5.936
 4910SOL    HW115629   4.716   2.454   5.968
 4910SOL    HW215630   4.759   2.355   5.845
 4911SOL     OW15631   6.409   2.244   2.291
 4911SOL    HW115632   6.390   2.312   2.362
 4911SOL    HW215633   6.350   2.164   2.305
 4912SOL     OW15634   5.682   2.727   3.817
 4912SOL    HW115635   5.614   2.791   3.854
 4912SOL    HW215636   5.684   2.644   3.873
 4913SOL     OW15637   0.825   3.728   5.605
 4913SOL    HW115638   0.878   3.753   5.524
 4913SOL    HW215639   0.730   3.755   5.592
 4914SOL     OW15640   4.265   0.641   3.306
 4914SOL    HW115641   4.287   0.648   3.403
 4914SOL    HW215642   4.258   0.545   3.280
 4915SOL     OW15643   3.214   5.115   5.630
 4915SOL    HW115644   3.304   5.080   5.603
 4915SOL    HW215645   3.166   5.045   5.682
 4916SOL     OW15646   5.634   2.565   4.240
 4916SOL    HW115647   5.538   2.582   4.216
 4916SOL    HW215648   5.658   2.618   4.321
 4917SOL     OW15649   4.153   6.769   0.173
 4917SOL    HW115650   4.068   6.823   0.176
 4917SOL    HW215651   4.211   6.795   0.250
 4918SOL     OW15652   5.908   4.951   3.117
 4918SOL    HW115653   5.891   4.986   3.025
 4918SOL    HW215654   5.974   5.009   3.164
 4919SOL     OW15655   3.142   3.976   2.075
 4919SOL    HW115656   3.207   4.025   2.133
 4919SOL    HW215657   3.169   3.985   1.979
 4920SOL     OW15658   6.570   1.621   6.040
 4920SOL    HW115659   6.569   1.545   6.104
 4920SOL    HW215660   6.506   1.692   6.070
 4921SOL     OW15661   0.165   0.105   2.611
 4921SOL    HW115662   0.236   0.083   2.678
 4921SOL    HW215663   0.145   0.203   2.615
 4922SOL     OW15664   3.573   1.921   6.080
 4922SOL    HW115665   3.495   1.861   6.095
 4922SOL    HW215666   3.541   2.013   6.058
 4923SOL     OW15667   3.769   1.603   2.041
 4923SOL    HW115668   3.697   1.546   2.082
 4923SOL    HW215669   3.782   1.685   2.096
 4924SOL     OW15670   2.690   0.569   5.281
 4924SOL    HW115671   2.775   0.562   5.229
 4924SOL    HW215672   2.660   0.665   5.284
 4925SOL     OW15673   5.954   6.578   3.610
 4925SOL    HW115674   5.870   6.626   3.635
 4925SOL    HW215675   5.932   6.485   3.580
 4926SOL     OW15676   5.282   2.875   1.130
 4926SOL    HW115677   5.209   2.939   1.107
 4926SOL    HW215678   5.368   2.908   1.091
 4927SOL     OW15679   3.805   1.366   6.561
 4927SOL    HW115680   3.751   1.342   6.480
 4927SOL    HW215681   3.853   1.284   6.594
 4928SOL     OW15682   6.942   2.639   0.884
 4928SOL    HW115683   6.914   2.718   0.831
 4928SOL    HW215684   0.017   2.616   0.863
 4929SOL     OW15685   0.823   6.111   5.259
 4929SOL    HW115686   0.871   6.140   5.176
 4929SOL    HW215687   0.726   6.131   5.250
 4930SOL     OW15688   5.132   5.977   2.029
 4930SOL    HW115689   5.043   5.948   1.994
 4930SOL    HW215690   5.142   6.076   2.018
 4931SOL     OW15691   6.793   5.405   0.196
 4931SOL    HW115692   6.877   5.446   0.230
 4931SOL    HW215693   6.714   5.457   0.229
 4932SOL     OW15694   3.786   3.383   2.101
 4932SOL    HW115695   3.724   3.319   2.147
 4932SOL    HW215696   3.813   3.346   2.012
 4933SOL     OW15697   2.105   6.346   5.351
 4933SOL    HW115698   2.124   6.356   5.254
 4933SOL    HW215699   2.009   6.324   5.365
 4934SOL     OW15700   4.018   5.496   2.529
 4934SOL    HW115701   4.019   5.548   2.615
 4934SOL    HW215702   4.077   5.416   2.538
 4935SOL     OW15703   0.275   0.945   6.244
 4935SOL    HW115704   0.279   1.017   6.175
 4935SOL    HW215705   0.322   0.864   6.210
 4936SOL     OW15706   4.146   2.413   0.671
 4936SOL    HW115707   4.052   2.381   0.658
 4936SOL    HW215708   4.160   2.495   0.615
 4937SOL     OW15709   4.557   2.772   5.096
 4937SOL    HW115710   4.478   2.745   5.040
 4937SOL    HW215711   4.617   2.832   5.043
 4938SOL     OW15712   4.141   5.196   5.807
 4938SOL    HW115713   4.220   5.135   5.800
 4938SOL    HW215714   4.058   5.148   5.780
 4939SOL     OW15715   4.663   3.327   5.980
 4939SOL    HW115716   4.716   3.289   6.055
 4939SOL    HW215717   4.627   3.252   5.924
 4940SOL     OW15718   1.771   5.820   4.251
 4940SOL    HW115719   1.777   5.731   4.206
 4940SOL    HW215720   1.813   5.814   4.342
 4941SOL     OW15721   5.549   0.391   1.140
 4941SOL    HW115722   5.624   0.363   1.200
 4941SOL    HW215723   5.586   0.444   1.064
 4942SOL     OW15724   5.069   3.289   5.622
 4942SOL    HW115725   5.081   3.319   5.716
 4942SOL    HW215726   5.049   3.191   5.620
 4943SOL     OW15727   5.167   2.469   1.646
 4943SOL    HW115728   5.079   2.496   1.608
 4943SOL    HW215729   5.197   2.538   1.713
 4944SOL     OW15730   2.354   4.551   2.176
 4944SOL    HW115731   2.283   4.561   2.246
 4944SOL    HW215732   2.435   4.603   2.203
 4945SOL     OW15733   0.372   6.315   4.994
 4945SOL    HW115734   0.292   6.301   5.052
 4945SOL    HW215735   0.367   6.406   4.952
 4946SOL     OW15736   0.120   4.329   2.277
 4946SOL    HW115737   0.177   4.412   2.274
 4946SOL    HW215738   0.030   4.349   2.238
 4947SOL     OW15739   6.598   0.146   1.639
 4947SOL    HW115740   6.573   0.049   1.637
 4947SOL    HW215741   6.517   0.202   1.619
 4948SOL     OW15742   2.105   0.829   2.174
 4948SOL    HW115743   2.054   0.745   2.155
 4948SOL    HW215744   2.188   0.830   2.120
 4949SOL     OW15745   4.991   1.833   4.577
 4949SOL    HW115746   4.995   1.778   4.494
 4949SOL    HW215747   4.900   1.824   4.618
 4950SOL     OW15748   2.876   5.334   5.127
 4950SOL    HW115749   2.911   5.340   5.221
 4950SOL    HW215750   2.776   5.332   5.129
 4951SOL     OW15751   4.861   2.063   4.007
 4951SOL    HW115752   4.821   2.032   3.921
 4951SOL    HW215753   4.821   2.012   4.083
 4952SOL     OW15754   0.036   4.567   5.057
 4952SOL    HW115755   0.098   4.489   5.048
 4952SOL    HW215756   0.011   4.600   4.966
 4953SOL     OW15757   2.029   5.834   1.794
 4953SOL    HW115758   2.111   5.784   1.766
 4953SOL    HW215759   1.977   5.778   1.859
 4954SOL     OW15760   6.464   6.135   0.342
 4954SOL    HW115761   6.494   6.230   0.333
 4954SOL    HW215762   6.447   6.097   0.251
 4955SOL     OW15763   1.134   0.344   1.737
 4955SOL    HW115764   1.082   0.258   1.742
 4955SOL    HW215765   1.162   0.371   1.829
 4956SOL     OW15766   5.922   6.571   4.713
 4956SOL    HW115767   5.975   6.621   4.782
 4956SOL    HW215768   5.932   6.473   4.727
 4957SOL     OW15769   1.562   6.446   3.472
 4957SOL    HW115770   1.632   6.455   3.543
 4957SOL    HW215771   1.600   6.396   3.394
 4958SOL     OW15772   0.247   6.317   6.708
 4958SOL    HW115773   0.286   6.278   6.625
 4958SOL    HW215774   0.321   6.340   6.772
 4959SOL     OW15775   0.695   1.130   0.635
 4959SOL    HW115776   0.627   1.061   0.661
 4959SOL    HW215777   0.748   1.097   0.557
 4960SOL     OW15778   3.784   6.298   4.998
 4960SOL    HW115779   3.836   6.372   5.042
 4960SOL    HW215780   3.696   6.288   5.043
 4961SOL     OW15781   4.645   0.847   5.680
 4961SOL    HW115782   4.586   0.767   5.689
 4961SOL    HW215783   4.637   0.885   5.588
 4962SOL     OW15784   6.142   2.406   2.198
 4962SOL    HW115785   6.165   2.487   2.251
 4962SOL    HW215786   6.210   2.335   2.215
 4963SOL     OW15787   6.744   4.245   1.612
 4963SOL    HW115788   6.730   4.152   1.577
 4963SOL    HW215789   6.837   4.275   1.588
 4964SOL     OW15790   3.517   6.491   2.734
 4964SOL    HW115791   3.475   6.483   2.824
 4964SOL    HW215792   3.446   6.494   2.664
 4965SOL     OW15793   0.276   6.803   4.431
 4965SOL    HW115794   0.232   6.714   4.417
 4965SOL    HW215795   0.334   6.824   4.353
 4966SOL     OW15796   3.518   5.396   4.159
 4966SOL    HW115797   3.442   5.364   4.102
 4966SOL    HW215798   3.560   5.317   4.204
 4967SOL     OW15799   4.922   2.153   6.083
 4967SOL    HW115800   4.965   2.219   6.145
 4967SOL    HW215801   4.917   2.192   5.991
 4968SOL     OW15802   5.672   3.892   5.770
 4968SOL    HW115803   5.685   3.916   5.866
 4968SOL    HW215804   5.587   3.934   5.737
 4969SOL     OW15805   0.212   2.076   1.327
 4969SOL    HW115806   0.266   2.159   1.340
 4969SOL    HW215807   0.262   2.012   1.268
 4970SOL     OW15808   1.020   2.885   5.983
 4970SOL    HW115809   0.946   2.952   5.976
 4970SOL    HW215810   0.982   2.792   5.980
 4971SOL     OW15811   6.780   5.719   3.576
 4971SOL    HW115812   6.823   5.630   3.595
 4971SOL    HW215813   6.712   5.708   3.503
 4972SOL     OW15814   1.678   2.091   5.586
 4972SOL    HW115815   1.685   2.187   5.611
 4972SOL    HW215816   1.709   2.078   5.492
 4973SOL     OW15817   5.902   5.845   3.136
 4973SOL    HW115818   5.829   5.781   3.114
 4973SOL    HW215819   5.886   5.932   3.089
 4974SOL     OW15820   4.297   6.622   1.779
 4974SOL    HW115821   4.264   6.663   1.694
 4974SOL    HW215822   4.321   6.695   1.843
 4975SOL     OW15823   5.396   5.975   6.998
 4975SOL    HW115824   5.307   5.970   0.021
 4975SOL    HW215825   5.466   5.937   0.040
 4976SOL     OW15826   3.496   0.909   4.628
 4976SOL    HW115827   3.563   0.899   4.701
 4976SOL    HW215828   3.541   0.938   4.544
 4977SOL     OW15829   3.379   3.531   0.051
 4977SOL    HW115830   3.402   3.455   0.111
 4977SOL    HW215831   3.419   3.615   0.087
 4978SOL     OW15832   6.213   3.346   6.109
 4978SOL    HW115833   6.277   3.401   6.055
 4978SOL    HW215834   6.120   3.368   6.083
 4979SOL     OW15835   0.903   2.707   4.315
 4979SOL    HW115836   0.946   2.796   4.301
 4979SOL    HW215837   0.940   2.665   4.398
 4980SOL     OW15838   2.925   5.387   3.141
 4980SOL    HW115839   2.847   5.328   3.162
 4980SOL    HW215840   2.959   5.429   3.226
 4981SOL     OW15841   5.220   6.279   5.672
 4981SOL    HW115842   5.131   6.238   5.653
 4981SOL    HW215843   5.219   6.319   5.764
 4982SOL     OW15844   2.572   2.165   0.092
 4982SOL    HW115845   2.590   2.090   0.028
 4982SOL    HW215846   2.651   2.226   0.095
 4983SOL     OW15847   5.421   2.989   4.768
 4983SOL    HW115848   5.517   2.963   4.759
 4983SOL    HW215849   5.365   2.907   4.776
 4984SOL     OW15850   4.765   4.306   2.481
 4984SOL    HW115851   4.736   4.213   2.503
 4984SOL    HW215852   4.697   4.371   2.515
 4985SOL     OW15853   5.361   4.178   2.739
 4985SOL    HW115854   5.337   4.183   2.837
 4985SOL    HW215855   5.375   4.271   2.704
 4986SOL     OW15856   4.678   4.561   2.684
 4986SOL    HW115857   4.670   4.630   2.756
 4986SOL    HW215858   4.601   4.497   2.691
 4987SOL     OW15859   0.175   3.939   1.353
 4987SOL    HW115860   0.193   4.019   1.294
 4987SOL    HW215861   0.117   3.874   1.304
 4988SOL     OW15862   0.992   1.978   5.564
 4988SOL    HW115863   0.909   1.926   5.582
 4988SOL    HW215864   1.072   1.920   5.583
 4989SOL     OW15865   0.357   1.026   0.436
 4989SOL    HW115866   0.324   1.090   0.506
 4989SOL    HW215867   0.279   0.987   0.387
 4990SOL     OW15868   0.571   1.948   6.197
 4990SOL    HW115869   0.486   1.900   6.175
 4990SOL    HW215870   0.644   1.914   6.138
 4991SOL     OW15871   2.125   2.298   4.920
 4991SOL    HW115872   2.198   2.301   4.852
 4991SOL    HW215873   2.103   2.391   4.950
 4992SOL     OW15874   4.015   0.588   4.609
 4992SOL    HW115875   4.090   0.526   4.586
 4992SOL    HW215876   3.928   0.544   4.585
 4993SOL     OW15877   2.278   5.989   3.979
 4993SOL    HW115878   2.327   6.029   3.901
 4993SOL    HW215879   2.189   5.955   3.948
 4994SOL     OW15880   0.359   6.789   2.257
 4994SOL    HW115881   0.424   6.793   2.333
 4994SOL    HW215882   0.266   6.785   2.293
 4995SOL     OW15883   6.340   2.853   5.653
 4995SOL    HW115884   6.331   2.897   5.563
 4995SOL    HW215885   6.252   2.816   5.681
 4996SOL     OW15886   0.246   1.019   3.798
 4996SOL    HW115887   0.263   0.941   3.858
 4996SOL    HW215888   0.324   1.033   3.738
 4997SOL     OW15889   0.301   2.466   3.845
 4997SOL    HW115890   0.379   2.523   3.871
 4997SOL    HW215891   0.323   2.417   3.760
 4998SOL     OW15892   0.980   5.557   4.934
 4998SOL    HW115893   0.974   5.654   4.913
 4998SOL    HW215894   1.071   5.537   4.971
 4999SOL     OW15895   5.741   4.473   0.926
 4999SOL    HW115896   5.803   4.427   0.990
 4999SOL    HW215897   5.762   4.444   0.833
 5000SOL     OW15898   6.832   5.869   4.176
 5000SOL    HW115899   6.775   5.788   4.194
 5000SOL    HW215900   6.926   5.841   4.160
 5001SOL     OW15901   4.533   4.499   5.182
 5001SOL    HW115902   4.518   4.460   5.273
 5001SOL    HW215903   4.446   4.508   5.134
 5002SOL     OW15904   2.084   2.072   1.403
 5002SOL    HW115905   1.998   2.086   1.355
 5002SOL    HW215906   2.079   1.990   1.459
 5003SOL     OW15907   6.699   5.196   3.541
 5003SOL    HW115908   6.762   5.262   3.500
 5003SOL    HW215909   6.641   5.242   3.608
 5004SOL     OW15910   2.757   4.922   6.736
 5004SOL    HW115911   2.782   4.829   6.708
 5004SOL    HW215912   2.708   4.968   6.661
 5005SOL     OW15913   4.169   2.392   0.015
 5005SOL    HW115914   4.231   2.366   0.089
 5005SOL    HW215915   4.194   2.482   7.000
 5006SOL     OW15916   5.808   4.262   3.157
 5006SOL    HW115917   5.782   4.166   3.161
 5006SOL    HW215918   5.867   4.284   3.234
 5007SOL     OW15919   4.410   1.194   4.989
 5007SOL    HW115920   4.425   1.207   5.087
 5007SOL    HW215921   4.495   1.164   4.946
 5008SOL     OW15922   6.718   1.031   4.250
 5008SOL    HW115923   6.817   1.036   4.245
 5008SOL    HW215924   6.691   0.964   4.321
 5009SOL     OW15925   1.636   6.329   3.163
 5009SOL    HW115926   1.566   6.259   3.153
 5009SOL    HW215927   1.720   6.288   3.200
 5010SOL     OW15928   3.220   3.023   4.530
 5010SOL    HW115929   3.304   3.024   4.474
 5010SOL    HW215930   3.232   2.961   4.607
 5011SOL     OW15931   0.686   3.001   3.345
 5011SOL    HW115932   0.729   2.911   3.343
 5011SOL    HW215933   0.706   3.050   3.261
 5012SOL     OW15934   5.457   3.513   0.085
 5012SOL    HW115935   5.415   3.428   0.118
 5012SOL    HW215936   5.555   3.500   0.073
 5013SOL     OW15937   4.733   1.699   5.620
 5013SOL    HW115938   4.779   1.752   5.691
 5013SOL    HW215939   4.764   1.730   5.530
 5014SOL     OW15940   5.950   6.649   6.928
 5014SOL    HW115941   5.867   6.654   6.983
 5014SOL    HW215942   5.942   6.711   6.850
 5015SOL     OW15943   5.447   2.236   3.405
 5015SOL    HW115944   5.448   2.320   3.352
 5015SOL    HW215945   5.407   2.162   3.351
 5016SOL     OW15946   2.207   6.977   1.969
 5016SOL    HW115947   2.245   6.954   1.879
 5016SOL    HW215948   2.107   6.974   1.964
 5017SOL     OW15949   2.349   2.301   1.653
 5017SOL    HW115950   2.446   2.281   1.668
 5017SOL    HW215951   2.331   2.397   1.675
 5018SOL     OW15952   6.547   5.471   4.068
 5018SOL    HW115953   6.471   5.486   4.006
 5018SOL    HW215954   6.540   5.379   4.108
 5019SOL     OW15955   3.176   5.369   6.214
 5019SOL    HW115956   3.272   5.363   6.240
 5019SOL    HW215957   3.156   5.302   6.143
 5020SOL     OW15958   4.920   5.140   6.391
 5020SOL    HW115959   4.927   5.240   6.392
 5020SOL    HW215960   4.914   5.106   6.485
 5021SOL     OW15961   2.477   4.838   5.528
 5021SOL    HW115962   2.417   4.758   5.515
 5021SOL    HW215963   2.476   4.893   5.445
 5022SOL     OW15964   1.723   4.518   0.314
 5022SOL    HW115965   1.744   4.542   0.408
 5022SOL    HW215966   1.692   4.599   0.264
 5023SOL     OW15967   6.778   2.574   3.243
 5023SOL    HW115968   6.681   2.596   3.234
 5023SOL    HW215969   6.821   2.642   3.303
 5024SOL     OW15970   5.871   3.527   5.536
 5024SOL    HW115971   5.935   3.527   5.613
 5024SOL    HW215972   5.809   3.449   5.545
 5025SOL     OW15973   6.307   1.186   3.225
 5025SOL    HW115974   6.217   1.143   3.215
 5025SOL    HW215975   6.346   1.161   3.314
 5026SOL     OW15976   0.548   5.916   2.942
 5026SOL    HW115977   0.612   5.911   2.866
 5026SOL    HW215978   0.598   5.934   3.027
 5027SOL     OW15979   0.582   6.476   3.629
 5027SOL    HW115980   0.492   6.517   3.610
 5027SOL    HW215981   0.590   6.389   3.581
 5028SOL     OW15982   1.362   0.620   2.803
 5028SOL    HW115983   1.305   0.550   2.760
 5028SOL    HW215984   1.304   0.682   2.856
 5029SOL     OW15985   0.386   0.917   3.084
 5029SOL    HW115986   0.464   0.860   3.058
 5029SOL    HW215987   0.367   0.903   3.182
 5030SOL     OW15988   1.921   5.536   6.908
 5030SOL    HW115989   1.895   5.543   6.812
 5030SOL    HW215990   2.017   5.563   6.918
 5031SOL     OW15991   5.829   0.819   5.575
 5031SOL    HW115992   5.836   0.733   5.625
 5031SOL    HW215993   5.839   0.895   5.639
 5032SOL     OW15994   0.825   6.263   1.176
 5032SOL    HW115995   0.914   6.308   1.184
 5032SOL    HW215996   0.800   6.225   1.265
 5033SOL     OW15997   0.194   4.383   5.702
 5033SOL    HW115998   0.285   4.372   5.741
 5033SOL    HW215999   0.199   4.444   5.623
 5034SOL     OW16000   6.873   3.873   6.820
 5034SOL    HW116001   6.945   3.831   6.765
 5034SOL    HW216002   6.869   3.828   6.909
 5035SOL     OW16003   5.719   4.427   1.370
 5035SOL    HW116004   5.620   4.432   1.353
 5035SOL    HW216005   5.734   4.413   1.468
 5036SOL     OW16006   1.610   0.992   2.628
 5036SOL    HW116007   1.557   0.926   2.575
 5036SOL    HW216008   1.696   0.951   2.656
 5037SOL     OW16009   4.611   2.669   2.668
 5037SOL    HW116010   4.610   2.695   2.765
 5037SOL    HW216011   4.576   2.576   2.658
 5038SOL     OW16012   2.755   6.043   5.324
 5038SOL    HW116013   2.660   6.015   5.316
 5038SOL    HW216014   2.762   6.122   5.385
 5039SOL     OW16015   1.247   1.925   3.438
 5039SOL    HW116016   1.304   1.959   3.364
 5039SOL    HW216017   1.304   1.876   3.504
 5040SOL     OW16018   2.732   3.721   6.084
 5040SOL    HW116019   2.823   3.747   6.050
 5040SOL    HW216020   2.666   3.727   6.009
 5041SOL     OW16021   0.814   5.633   0.498
 5041SOL    HW116022   0.823   5.722   0.453
 5041SOL    HW216023   0.905   5.598   0.520
 5042SOL     OW16024   6.346   1.876   5.904
 5042SOL    HW116025   6.310   1.967   5.889
 5042SOL    HW216026   6.354   1.858   6.002
 5043SOL     OW16027   5.056   0.471   3.266
 5043SOL    HW116028   5.075   0.373   3.266
 5043SOL    HW216029   5.020   0.497   3.176
 5044SOL     OW16030   5.370   4.442   2.679
 5044SOL    HW116031   5.353   4.510   2.608
 5044SOL    HW216032   5.331   4.475   2.766
 5045SOL     OW16033   5.948   3.375   6.073
 5045SOL    HW116034   5.924   3.462   6.030
 5045SOL    HW216035   5.905   3.300   6.022
 5046SOL     OW16036   3.270   2.890   4.779
 5046SOL    HW116037   3.230   2.800   4.796
 5046SOL    HW216038   3.270   2.944   4.863
 5047SOL     OW16039   1.217   1.364   2.416
 5047SOL    HW116040   1.208   1.437   2.484
 5047SOL    HW216041   1.130   1.354   2.367
 5048SOL     OW16042   5.808   3.662   1.659
 5048SOL    HW116043   5.788   3.669   1.757
 5048SOL    HW216044   5.832   3.568   1.636
 5049SOL     OW16045   1.292   1.976   1.665
 5049SOL    HW116046   1.227   1.901   1.656
 5049SOL    HW216047   1.282   2.019   1.755
 5050SOL     OW16048   0.974   3.635   0.689
 5050SOL    HW116049   1.057   3.640   0.633
 5050SOL    HW216050   0.949   3.539   0.703
 5051SOL     OW16051   2.078   3.689   0.438
 5051SOL    HW116052   2.156   3.726   0.489
 5051SOL    HW216053   2.017   3.764   0.413
 5052SOL     OW16054   5.538   3.614   0.782
 5052SOL    HW116055   5.571   3.693   0.730
 5052SOL    HW216056   5.569   3.530   0.737
 5053SOL     OW16057   2.211   4.297   0.597
 5053SOL    HW116058   2.152   4.296   0.678
 5053SOL    HW216059   2.273   4.375   0.602
 5054SOL     OW16060   3.802   5.953   4.686
 5054SOL    HW116061   3.768   5.929   4.777
 5054SOL    HW216062   3.735   6.009   4.639
 5055SOL     OW16063   1.731   1.840   3.716
 5055SOL    HW116064   1.722   1.932   3.755
 5055SOL    HW216065   1.694   1.773   3.780
 5056SOL     OW16066   2.768   2.354   5.082
 5056SOL    HW116067   2.814   2.295   5.015
 5056SOL    HW216068   2.699   2.409   5.036
 5057SOL     OW16069   0.556   4.390   3.043
 5057SOL    HW116070   0.462   4.390   3.078
 5057SOL    HW216071   0.620   4.395   3.119
 5058SOL     OW16072   3.322   3.230   0.527
 5058SOL    HW116073   3.266   3.307   0.496
 5058SOL    HW216074   3.391   3.209   0.458
 5059SOL     OW16075   4.517   1.677   3.045
 5059SOL    HW116076   4.585   1.626   3.098
 5059SOL    HW216077   4.466   1.614   2.986
 5060SOL     OW16078   0.227   3.348   5.357
 5060SOL    HW116079   0.245   3.360   5.455
 5060SOL    HW216080   0.128   3.348   5.342
 5061SOL     OW16081   3.735   1.946   5.523
 5061SOL    HW116082   3.646   1.948   5.478
 5061SOL    HW216083   3.755   1.853   5.553
 5062SOL     OW16084   5.225   1.014   3.605
 5062SOL    HW116085   5.221   1.101   3.557
 5062SOL    HW216086   5.304   0.961   3.573
 5063SOL     OW16087   1.046   1.419   1.477
 5063SOL    HW116088   1.029   1.365   1.395
 5063SOL    HW216089   1.004   1.509   1.467
 5064SOL     OW16090   4.753   5.256   0.880
 5064SOL    HW116091   4.773   5.346   0.841
 5064SOL    HW216092   4.835   5.221   0.926
 5065SOL     OW16093   2.248   1.237   2.000
 5065SOL    HW116094   2.289   1.150   1.975
 5065SOL    HW216095   2.159   1.246   1.955
 5066SOL     OW16096   1.816   4.735   2.481
 5066SOL    HW116097   1.869   4.666   2.431
 5066SOL    HW216098   1.868   4.765   2.561
 5067SOL     OW16099   5.965   2.527   1.043
 5067SOL    HW116100   5.881   2.481   1.015
 5067SOL    HW216101   5.988   2.597   0.975
 5068SOL     OW16102   2.323   5.757   0.878
 5068SOL    HW116103   2.244   5.754   0.817
 5068SOL    HW216104   2.357   5.665   0.894
 5069SOL     OW16105   3.993   4.887   5.291
 5069SOL    HW116106   4.074   4.863   5.344
 5069SOL    HW216107   3.924   4.926   5.352
 5070SOL     OW16108   5.977   3.870   4.931
 5070SOL    HW116109   5.904   3.864   4.863
 5070SOL    HW216110   5.958   3.946   4.993
 5071SOL     OW16111   2.869   6.673   3.537
 5071SOL    HW116112   2.803   6.680   3.612
 5071SOL    HW216113   2.843   6.599   3.475
 5072SOL     OW16114   0.776   1.388   1.226
 5072SOL    HW116115   0.723   1.343   1.298
 5072SOL    HW216116   0.870   1.352   1.227
 5073SOL     OW16117   2.646   1.204   3.187
 5073SOL    HW116118   2.745   1.201   3.170
 5073SOL    HW216119   2.621   1.295   3.221
 5074SOL     OW16120   3.512   2.159   1.734
 5074SOL    HW116121   3.578   2.207   1.792
 5074SOL    HW216122   3.433   2.217   1.718
 5075SOL     OW16123   0.058   3.464   0.227
 5075SOL    HW116124   0.006   3.501   0.150
 5075SOL    HW216125   0.097   3.539   0.280
 5076SOL     OW16126   0.151   0.075   6.237
 5076SOL    HW116127   0.053   0.081   6.219
 5076SOL    HW216128   0.200   0.070   6.150
 5077SOL     OW16129   0.795   4.434   4.056
 5077SOL    HW116130   0.725   4.379   4.101
 5077SOL    HW216131   0.885   4.394   4.072
 5078SOL     OW16132   0.098   1.646   3.714
 5078SOL    HW116133   0.092   1.708   3.793
 5078SOL    HW216134   0.192   1.647   3.679
 5079SOL     OW16135   1.796   3.097   5.575
 5079SOL    HW116136   1.784   3.148   5.490
 5079SOL    HW216137   1.759   3.150   5.651
 5080SOL     OW16138   5.804   5.695   0.500
 5080SOL    HW116139   5.829   5.785   0.536
 5080SOL    HW216140   5.708   5.676   0.521
 5081SOL     OW16141   2.458   5.249   5.354
 5081SOL    HW116142   2.527   5.272   5.423
 5081SOL    HW216143   2.461   5.151   5.335
 5082SOL     OW16144   5.200   5.596   1.165
 5082SOL    HW116145   5.252   5.554   1.240
 5082SOL    HW216146   5.208   5.540   1.083
 5083SOL     OW16147   2.038   0.170   3.770
 5083SOL    HW116148   1.967   0.115   3.726
 5083SOL    HW216149   2.058   0.133   3.861
 5084SOL     OW16150   2.618   4.171   5.583
 5084SOL    HW116151   2.578   4.118   5.508
 5084SOL    HW216152   2.714   4.144   5.595
 5085SOL     OW16153   0.329   4.436   4.934
 5085SOL    HW116154   0.308   4.367   5.003
 5085SOL    HW216155   0.365   4.392   4.852
 5086SOL     OW16156   2.086   5.532   1.478
 5086SOL    HW116157   2.014   5.464   1.484
 5086SOL    HW216158   2.115   5.543   1.382
 5087SOL     OW16159   6.719   4.542   2.530
 5087SOL    HW116160   6.798   4.518   2.474
 5087SOL    HW216161   6.635   4.521   2.480
 5088SOL     OW16162   5.145   5.758   2.180
 5088SOL    HW116163   5.174   5.774   2.275
 5088SOL    HW216164   5.147   5.845   2.130
 5089SOL     OW16165   5.395   5.724   5.738
 5089SOL    HW116166   5.363   5.678   5.656
 5089SOL    HW216167   5.341   5.694   5.817
 5090SOL     OW16168   2.614   6.460   4.700
 5090SOL    HW116169   2.692   6.420   4.749
 5090SOL    HW216170   2.541   6.481   4.765
 5091SOL     OW16171   6.984   6.495   6.201
 5091SOL    HW116172   0.036   6.484   6.133
 5091SOL    HW216173   6.962   6.592   6.211
 5092SOL     OW16174   3.443   3.266   4.216
 5092SOL    HW116175   3.404   3.264   4.124
 5092SOL    HW216176   3.523   3.327   4.216
 5093SOL     OW16177   2.963   2.151   2.641
 5093SOL    HW116178   2.979   2.059   2.607
 5093SOL    HW216179   2.879   2.188   2.602
 5094SOL     OW16180   1.244   6.258   4.744
 5094SOL    HW116181   1.213   6.272   4.650
 5094SOL    HW216182   1.221   6.338   4.799
 5095SOL     OW16183   6.687   0.994   2.904
 5095SOL    HW116184   6.682   1.003   2.804
 5095SOL    HW216185   6.627   1.062   2.946
 5096SOL     OW16186   6.018   3.267   5.058
 5096SOL    HW116187   5.947   3.277   5.128
 5096SOL    HW216188   6.064   3.179   5.069
 5097SOL     OW16189   1.415   0.686   5.939
 5097SOL    HW116190   1.413   0.626   6.019
 5097SOL    HW216191   1.510   0.699   5.911
 5098SOL     OW16192   3.568   3.434   0.585
 5098SOL    HW116193   3.521   3.481   0.511
 5098SOL    HW216194   3.602   3.501   0.651
 5099SOL     OW16195   1.646   6.941   2.093
 5099SOL    HW116196   1.636   6.849   2.131
 5099SOL    HW216197   1.610   6.943   2.000
 5100SOL     OW16198   4.959   3.574   2.178
 5100SOL    HW116199   4.909   3.495   2.214
 5100SOL    HW216200   5.056   3.551   2.172
 5101SOL     OW16201   3.408   0.347   5.915
 5101SOL    HW116202   3.489   0.295   5.942
 5101SOL    HW216203   3.415   0.440   5.951
 5102SOL     OW16204   5.474   5.260   4.327
 5102SOL    HW116205   5.494   5.335   4.265
 5102SOL    HW216206   5.378   5.263   4.354
 5103SOL     OW16207   1.435   0.969   6.683
 5103SOL    HW116208   1.354   1.025   6.670
 5103SOL    HW216209   1.510   1.005   6.628
 5104SOL     OW16210   3.923   3.622   2.135
 5104SOL    HW116211   3.877   3.534   2.142
 5104SOL    HW216212   3.994   3.629   2.205
 5105SOL     OW16213   4.488   3.065   6.556
 5105SOL    HW116214   4.440   3.137   6.607
 5105SOL    HW216215   4.539   3.008   6.620
 5106SOL     OW16216   4.149   2.520   1.197
 5106SOL    HW116217   4.162   2.463   1.116
 5106SOL    HW216218   4.227   2.582   1.207
 5107SOL     OW16219   5.338   4.357   0.467
 5107SOL    HW116220   5.341   4.441   0.521
 5107SOL    HW216221   5.429   4.338   0.429
 5108SOL     OW16222   3.800   4.733   0.587
 5108SOL    HW116223   3.746   4.817   0.583
 5108SOL    HW216224   3.888   4.746   0.542
 5109SOL     OW16225   1.108   2.949   1.779
 5109SOL    HW116226   1.195   2.998   1.779
 5109SOL    HW216227   1.108   2.880   1.708
 5110SOL     OW16228   4.926   0.166   5.666
 5110SOL    HW116229   4.834   0.148   5.700
 5110SOL    HW216230   4.962   0.249   5.708
 5111SOL     OW16231   0.751   5.435   5.015
 5111SOL    HW116232   0.747   5.358   4.951
 5111SOL    HW216233   0.827   5.495   4.989
 5112SOL     OW16234   0.316   6.648   2.654
 5112SOL    HW116235   0.221   6.661   2.625
 5112SOL    HW216236   0.327   6.680   2.748
 5113SOL     OW16237   1.796   3.944   0.145
 5113SOL    HW116238   1.769   4.031   0.186
 5113SOL    HW216239   1.810   3.957   0.047
 5114SOL     OW16240   4.309   4.757   1.617
 5114SOL    HW116241   4.312   4.657   1.623
 5114SOL    HW216242   4.274   4.784   1.527
 5115SOL     OW16243   2.117   3.557   0.933
 5115SOL    HW116244   2.052   3.483   0.917
 5115SOL    HW216245   2.155   3.588   0.846
 5116SOL     OW16246   1.206   0.041   5.755
 5116SOL    HW116247   1.283   0.021   5.816
 5116SOL    HW216248   1.129   0.075   5.809
 5117SOL     OW16249   0.202   2.319   3.432
 5117SOL    HW116250   0.109   2.321   3.469
 5117SOL    HW216251   0.264   2.277   3.498
 5118SOL     OW16252   4.276   5.016   6.853
 5118SOL    HW116253   4.333   5.056   6.924
 5118SOL    HW216254   4.181   5.045   6.867
 5119SOL     OW16255   5.783   0.933   0.477
 5119SOL    HW116256   5.774   0.873   0.398
 5119SOL    HW216257   5.725   0.898   0.551
 5120SOL     OW16258   4.910   6.680   6.514
 5120SOL    HW116259   4.894   6.583   6.496
 5120SOL    HW216260   4.964   6.720   6.440
 5121SOL     OW16261   1.259   3.074   5.975
 5121SOL    HW116262   1.296   3.100   5.886
 5121SOL    HW216263   1.174   3.023   5.962
 5122SOL     OW16264   4.825   4.724   4.086
 5122SOL    HW116265   4.787   4.676   4.008
 5122SOL    HW216266   4.831   4.822   4.065
 5123SOL     OW16267   4.917   2.950   1.833
 5123SOL    HW116268   4.846   2.989   1.892
 5123SOL    HW216269   4.999   3.006   1.838
 5124SOL     OW16270   1.842   6.295   5.380
 5124SOL    HW116271   1.759   6.351   5.377
 5124SOL    HW216272   1.829   6.212   5.326
 5125SOL     OW16273   6.119   1.676   3.456
 5125SOL    HW116274   6.206   1.707   3.416
 5125SOL    HW216275   6.067   1.627   3.387
 5126SOL     OW16276   1.842   0.712   1.554
 5126SOL    HW116277   1.820   0.656   1.634
 5126SOL    HW216278   1.803   0.669   1.472
 5127SOL     OW16279   2.397   5.656   0.250
 5127SOL    HW116280   2.304   5.623   0.231
 5127SOL    HW216281   2.459   5.623   0.179
 5128SOL     OW16282   6.000   0.291   2.286
 5128SOL    HW116283   6.004   0.344   2.201
 5128SOL    HW216284   6.055   0.208   2.276
 5129SOL     OW16285   6.614   6.943   0.342
 5129SOL    HW116286   6.565   6.856   0.334
 5129SOL    HW216287   6.712   6.927   0.323
 5130SOL     OW16288   6.445   4.446   3.018
 5130SOL    HW116289   6.461   4.463   3.116
 5130SOL    HW216290   6.525   4.399   2.980
 5131SOL     OW16291   2.458   2.579   2.748
 5131SOL    HW116292   2.390   2.638   2.704
 5131SOL    HW216293   2.458   2.596   2.846
 5132SOL     OW16294   2.940   6.131   4.988
 5132SOL    HW116295   2.912   6.178   4.905
 5132SOL    HW216296   2.998   6.053   4.965
 5133SOL     OW16297   3.644   6.299   5.424
 5133SOL    HW116298   3.625   6.360   5.347
 5133SOL    HW216299   3.660   6.206   5.389
 5134SOL     OW16300   6.213   4.669   6.535
 5134SOL    HW116301   6.224   4.651   6.632
 5134SOL    HW216302   6.230   4.766   6.517
 5135SOL     OW16303   5.586   1.810   4.194
 5135SOL    HW116304   5.648   1.817   4.273
 5135SOL    HW216305   5.543   1.898   4.177
 5136SOL     OW16306   3.761   1.200   4.710
 5136SOL    HW116307   3.734   1.201   4.614
 5136SOL    HW216308   3.742   1.110   4.749
 5137SOL     OW16309   3.531   3.898   6.792
 5137SOL    HW116310   3.619   3.883   6.837
 5137SOL    HW216311   3.467   3.827   6.821
 5138SOL     OW16312   2.503   2.904   5.947
 5138SOL    HW116313   2.437   2.891   5.873
 5138SOL    HW216314   2.454   2.914   6.033
 5139SOL     OW16315   0.359   0.336   4.151
 5139SOL    HW116316   0.295   0.302   4.220
 5139SOL    HW216317   0.309   0.357   4.067
 5140SOL     OW16318   3.722   2.953   1.737
 5140SOL    HW116319   3.778   3.023   1.691
 5140SOL    HW216320   3.724   2.969   1.836
 5141SOL     OW16321   6.899   3.666   5.632
 5141SOL    HW116322   6.961   3.741   5.612
 5141SOL    HW216323   6.921   3.628   5.722
 5142SOL     OW16324   5.594   3.356   3.340
 5142SOL    HW116325   5.527   3.395   3.403
 5142SOL    HW216326   5.589   3.256   3.343
 5143SOL     OW16327   0.021   5.295   4.756
 5143SOL    HW116328   6.970   5.322   4.821
 5143SOL    HW216329   7.016   5.210   4.712
 5144SOL     OW16330   2.213   1.029   4.595
 5144SOL    HW116331   2.125   1.057   4.632
 5144SOL    HW216332   2.208   1.025   4.495
 5145SOL     OW16333   3.316   6.141   5.679
 5145SOL    HW116334   3.397   6.091   5.651
 5145SOL    HW216335   3.242   6.122   5.615
 5146SOL     OW16336   2.666   4.538   0.262
 5146SOL    HW116337   2.675   4.592   0.345
 5146SOL    HW216338   2.745   4.478   0.253
 5147SOL     OW16339   6.547   4.972   6.773
 5147SOL    HW116340   6.497   5.048   6.732
 5147SOL    HW216341   6.528   4.969   6.871
 5148SOL     OW16342   0.538   6.769   1.844
 5148SOL    HW116343   0.463   6.716   1.885
 5148SOL    HW216344   0.605   6.791   1.915
 5149SOL     OW16345   6.572   1.085   6.083
 5149SOL    HW116346   6.651   1.134   6.122
 5149SOL    HW216347   6.602   1.031   6.004
 5150SOL     OW16348   1.456   4.843   3.830
 5150SOL    HW116349   1.399   4.923   3.848
 5150SOL    HW216350   1.549   4.862   3.860
 5151SOL     OW16351   5.147   1.157   6.351
 5151SOL    HW116352   5.068   1.146   6.412
 5151SOL    HW216353   5.226   1.188   6.403
 5152SOL     OW16354   0.774   5.246   0.613
 5152SOL    HW116355   0.769   5.288   0.523
 5152SOL    HW216356   0.716   5.165   0.615
 5153SOL     OW16357   1.843   1.945   0.889
 5153SOL    HW116358   1.923   1.979   0.840
 5153SOL    HW216359   1.844   1.980   0.983
 5154SOL     OW16360   1.999   3.369   5.015
 5154SOL    HW116361   1.989   3.452   4.960
 5154SOL    HW216362   1.975   3.290   4.959
 5155SOL     OW16363   3.490   0.837   2.026
 5155SOL    HW116364   3.500   0.761   1.962
 5155SOL    HW216365   3.544   0.819   2.108
 5156SOL     OW16366   6.034   3.115   5.590
 5156SOL    HW116367   6.033   3.084   5.685
 5156SOL    HW216368   6.123   3.152   5.567
 5157SOL     OW16369   5.955   2.596   4.239
 5157SOL    HW116370   5.980   2.499   4.234
 5157SOL    HW216371   5.866   2.609   4.197
 5158SOL     OW16372   4.050   1.168   0.773
 5158SOL    HW116373   4.146   1.153   0.797
 5158SOL    HW216374   3.993   1.104   0.825
 5159SOL     OW16375   1.643   2.878   4.770
 5159SOL    HW116376   1.696   2.829   4.840
 5159SOL    HW216377   1.608   2.812   4.704
 5160SOL     OW16378   1.825   2.862   4.133
 5160SOL    HW116379   1.895   2.913   4.183
 5160SOL    HW216380   1.740   2.861   4.185
 5161SOL     OW16381   1.378   3.526   6.210
 5161SOL    HW116382   1.308   3.485   6.268
 5161SOL    HW216383   1.467   3.519   6.256
 5162SOL     OW16384   6.038   5.855   4.605
 5162SOL    HW116385   6.018   5.815   4.694
 5162SOL    HW216386   6.132   5.889   4.604
 5163SOL     OW16387   5.128   3.681   1.170
 5163SOL    HW116388   5.148   3.726   1.257
 5163SOL    HW216389   5.213   3.665   1.121
 5164SOL     OW16390   6.077   5.351   5.495
 5164SOL    HW116391   5.990   5.346   5.446
 5164SOL    HW216392   6.106   5.447   5.501
 5165SOL     OW16393   6.180   3.877   4.006
 5165SOL    HW116394   6.165   3.814   3.930
 5165SOL    HW216395   6.254   3.941   3.982
 5166SOL     OW16396   1.742   0.551   1.765
 5166SOL    HW116397   1.754   0.616   1.840
 5166SOL    HW216398   1.645   0.541   1.745
 5167SOL     OW16399   1.396   7.010   5.555
 5167SOL    HW116400   1.470   0.040   5.599
 5167SOL    HW216401   1.314   7.014   5.612
 5168SOL     OW16402   3.729   1.931   3.094
 5168SOL    HW116403   3.738   2.028   3.116
 5168SOL    HW216404   3.652   1.893   3.145
 5169SOL     OW16405   3.958   4.105   6.397
 5169SOL    HW116406   3.862   4.094   6.373
 5169SOL    HW216407   3.983   4.037   6.467
 5170SOL     OW16408   4.737   4.811   4.381
 5170SOL    HW116409   4.761   4.777   4.289
 5170SOL    HW216410   4.756   4.909   4.386
 5171SOL     OW16411   2.679   4.754   4.888
 5171SOL    HW116412   2.718   4.779   4.799
 5171SOL    HW216413   2.745   4.697   4.937
 5172SOL     OW16414   2.000   4.675   0.295
 5172SOL    HW116415   2.028   4.582   0.269
 5172SOL    HW216416   2.027   4.693   0.389
 5173SOL     OW16417   6.366   3.766   5.982
 5173SOL    HW116418   6.285   3.753   5.924
 5173SOL    HW216419   6.350   3.843   6.044
 5174SOL     OW16420   1.704   4.335   6.050
 5174SOL    HW116421   1.689   4.304   6.144
 5174SOL    HW216422   1.702   4.256   5.988
 5175SOL     OW16423   0.425   5.196   6.294
 5175SOL    HW116424   0.378   5.284   6.295
 5175SOL    HW216425   0.408   5.147   6.380
 5176SOL     OW16426   5.472   3.865   6.662
 5176SOL    HW116427   5.540   3.908   6.723
 5176SOL    HW216428   5.406   3.934   6.633
 5177SOL     OW16429   5.080   6.362   6.721
 5177SOL    HW116430   4.992   6.322   6.697
 5177SOL    HW216431   5.153   6.304   6.684
 5178SOL     OW16432   2.979   2.276   1.525
 5178SOL    HW116433   2.973   2.179   1.547
 5178SOL    HW216434   3.047   2.290   1.453
 5179SOL     OW16435   3.004   5.976   5.199
 5179SOL    HW116436   2.997   6.053   5.135
 5179SOL    HW216437   2.921   5.971   5.254
 5180SOL     OW16438   3.083   2.608   0.310
 5180SOL    HW116439   3.040   2.564   0.389
 5180SOL    HW216440   3.025   2.596   0.230
 5181SOL     OW16441   2.845   5.417   2.267
 5181SOL    HW116442   2.926   5.390   2.215
 5181SOL    HW216443   2.871   5.486   2.335
 5182SOL     OW16444   4.628   4.330   1.410
 5182SOL    HW116445   4.536   4.300   1.434
 5182SOL    HW216446   4.688   4.322   1.491
 5183SOL     OW16447   3.836   0.647   2.741
 5183SOL    HW116448   3.910   0.662   2.806
 5183SOL    HW216449   3.751   0.684   2.778
 5184SOL     OW16450   1.161   1.879   2.892
 5184SOL    HW116451   1.081   1.931   2.863
 5184SOL    HW216452   1.159   1.788   2.850
 5185SOL     OW16453   3.532   0.551   2.013
 5185SOL    HW116454   3.434   0.532   2.021
 5185SOL    HW216455   3.584   0.470   2.040
 5186SOL     OW16456   5.988   4.572   0.158
 5186SOL    HW116457   5.965   4.664   0.190
 5186SOL    HW216458   5.975   4.567   0.059
 5187SOL     OW16459   5.041   2.180   4.614
 5187SOL    HW116460   5.032   2.101   4.554
 5187SOL    HW216461   4.963   2.184   4.677
 5188SOL     OW16462   0.831   3.026   4.634
 5188SOL    HW116463   0.896   2.965   4.678
 5188SOL    HW216464   0.799   3.095   4.699
 5189SOL     OW16465   4.363   5.125   6.405
 5189SOL    HW116466   4.334   5.177   6.485
 5189SOL    HW216467   4.461   5.137   6.391
 5190SOL     OW16468   1.742   2.366   3.449
 5190SOL    HW116469   1.796   2.416   3.381
 5190SOL    HW216470   1.771   2.270   3.448
 5191SOL     OW16471   4.326   0.595   1.898
 5191SOL    HW116472   4.325   0.501   1.932
 5191SOL    HW216473   4.288   0.657   1.967
 5192SOL     OW16474   5.765   4.354   1.944
 5192SOL    HW116475   5.817   4.310   2.018
 5192SOL    HW216476   5.709   4.286   1.898
 5193SOL     OW16477   4.924   3.394   2.407
 5193SOL    HW116478   4.847   3.438   2.454
 5193SOL    HW216479   4.908   3.295   2.403
 5194SOL     OW16480   5.486   1.867   6.700
 5194SOL    HW116481   5.491   1.856   6.601
 5194SOL    HW216482   5.398   1.833   6.733
 5195SOL     OW16483   6.210   6.409   5.583
 5195SOL    HW116484   6.113   6.404   5.562
 5195SOL    HW216485   6.224   6.402   5.681
 5196SOL     OW16486   0.545   3.410   1.644
 5196SOL    HW116487   0.539   3.321   1.688
 5196SOL    HW216488   0.477   3.416   1.570
 5197SOL     OW16489   3.520   6.083   5.073
 5197SOL    HW116490   3.501   6.173   5.111
 5197SOL    HW216491   3.483   6.077   4.980
 5198SOL     OW16492   4.504   0.628   5.742
 5198SOL    HW116493   4.422   0.578   5.771
 5198SOL    HW216494   4.585   0.587   5.783
 5199SOL     OW16495   0.259   4.986   1.860
 5199SOL    HW116496   0.324   4.936   1.803
 5199SOL    HW216497   0.204   5.047   1.802
 5200SOL     OW16498   0.490   0.039   5.222
 5200SOL    HW116499   0.472   6.990   5.152
 5200SOL    HW216500   0.462   0.004   5.312
 5201SOL     OW16501   5.717   4.449   4.818
 5201SOL    HW116502   5.629   4.421   4.779
 5201SOL    HW216503   5.702   4.489   4.908
 5202SOL     OW16504   3.604   3.229   5.625
 5202SOL    HW116505   3.639   3.250   5.534
 5202SOL    HW216506   3.504   3.237   5.625
 5203SOL     OW16507   1.800   0.092   6.307
 5203SOL    HW116508   1.863   0.109   6.383
 5203SOL    HW216509   1.848   0.106   6.221
 5204SOL     OW16510   2.579   1.166   0.782
 5204SOL    HW116511   2.555   1.184   0.877
 5204SOL    HW216512   2.671   1.129   0.778
 5205SOL     OW16513   7.009   6.641   1.167
 5205SOL    HW116514   0.016   6.664   1.073
 5205SOL    HW216515   6.997   6.726   1.219
 5206SOL     OW16516   1.246   4.859   3.438
 5206SOL    HW116517   1.172   4.881   3.502
 5206SOL    HW216518   1.319   4.811   3.486
 5207SOL     OW16519   6.182   6.483   4.557
 5207SOL    HW116520   6.109   6.510   4.493
 5207SOL    HW216521   6.166   6.527   4.645
 5208SOL     OW16522   6.152   1.736   0.677
 5208SOL    HW116523   6.169   1.794   0.598
 5208SOL    HW216524   6.064   1.759   0.718
 5209SOL     OW16525   5.537   6.370   3.395
 5209SOL    HW116526   5.496   6.459   3.375
 5209SOL    HW216527   5.470   6.312   3.439
 5210SOL     OW16528   5.609   4.721   0.996
 5210SOL    HW116529   5.677   4.648   1.005
 5210SOL    HW216530   5.608   4.776   1.079
 5211SOL     OW16531   5.304   2.392   4.916
 5211SOL    HW116532   5.248   2.412   4.835
 5211SOL    HW216533   5.253   2.332   4.978
 5212SOL     OW16534   0.239   3.855   0.048
 5212SOL    HW116535   0.275   3.778   0.100
 5212SOL    HW216536   0.313   3.900   7.017
 5213SOL     OW16537   3.779   3.286   3.066
 5213SOL    HW116538   3.686   3.302   3.100
 5213SOL    HW216539   3.799   3.350   2.992
 5214SOL     OW16540   5.572   3.575   4.942
 5214SOL    HW116541   5.602   3.513   4.868
 5214SOL    HW216542   5.615   3.548   5.028
 5215SOL     OW16543   0.424   4.721   4.911
 5215SOL    HW116544   0.402   4.626   4.890
 5215SOL    HW216545   0.477   4.726   4.996
 5216SOL     OW16546   5.074   4.870   1.345
 5216SOL    HW116547   5.061   4.857   1.246
 5216SOL    HW216548   4.994   4.916   1.383
 5217SOL     OW16549   5.042   6.403   3.002
 5217SOL    HW116550   4.994   6.318   3.022
 5217SOL    HW216551   4.995   6.451   2.927
 5218SOL     OW16552   6.476   0.350   0.154
 5218SOL    HW116553   6.425   0.401   0.223
 5218SOL    HW216554   6.574   0.363   0.167
 5219SOL     OW16555   3.528   0.841   5.566
 5219SOL    HW116556   3.480   0.759   5.535
 5219SOL    HW216557   3.463   0.903   5.610
 5220SOL     OW16558   2.006   5.223   4.442
 5220SOL    HW116559   2.097   5.202   4.408
 5220SOL    HW216560   2.006   5.221   4.542
 5221SOL     OW16561   5.949   5.348   1.653
 5221SOL    HW116562   5.927   5.347   1.556
 5221SOL    HW216563   5.940   5.255   1.690
 5222SOL     OW16564   6.794   3.576   1.506
 5222SOL    HW116565   6.699   3.575   1.475
 5222SOL    HW216566   6.812   3.495   1.562
 5223SOL     OW16567   6.639   2.870   0.673
 5223SOL    HW116568   6.553   2.839   0.714
 5223SOL    HW216569   6.702   2.899   0.746
 5224SOL     OW16570   0.536   1.368   5.327
 5224SOL    HW116571   0.609   1.336   5.267
 5224SOL    HW216572   0.488   1.290   5.366
 5225SOL     OW16573   6.785   1.435   4.498
 5225SOL    HW116574   6.843   1.515   4.481
 5225SOL    HW216575   6.829   1.376   4.566
 5226SOL     OW16576   0.285   6.502   3.851
 5226SOL    HW116577   0.298   6.541   3.759
 5226SOL    HW216578   0.328   6.412   3.855
 5227SOL     OW16579   0.503   4.020   5.778
 5227SOL    HW116580   0.543   3.966   5.852
 5227SOL    HW216581   0.559   4.102   5.764
 5228SOL     OW16582   0.779   1.825   5.643
 5228SOL    HW116583   0.777   1.725   5.641
 5228SOL    HW216584   0.696   1.860   5.600
 5229SOL     OW16585   3.364   1.733   6.127
 5229SOL    HW116586   3.396   1.664   6.193
 5229SOL    HW216587   3.302   1.796   6.173
 5230SOL     OW16588   6.816   6.933   2.219
 5230SOL    HW116589   6.776   7.007   2.165
 5230SOL    HW216590   6.915   6.945   2.224
 5231SOL     OW16591   6.381   3.232   2.184
 5231SOL    HW116592   6.372   3.173   2.104
 5231SOL    HW216593   6.355   3.326   2.160
 5232SOL     OW16594   1.955   2.507   5.548
 5232SOL    HW116595   1.920   2.582   5.492
 5232SOL    HW216596   2.026   2.459   5.497
 5233SOL     OW16597   3.187   6.516   2.343
 5233SOL    HW116598   3.206   6.605   2.384
 5233SOL    HW216599   3.168   6.527   2.245
 5234SOL     OW16600   3.259   1.953   6.217
 5234SOL    HW116601   3.306   1.996   6.293
 5234SOL    HW216602   3.235   2.022   6.149
 5235SOL     OW16603   2.594   1.907   1.586
 5235SOL    HW116604   2.515   1.947   1.632
 5235SOL    HW216605   2.622   1.967   1.511
 5236SOL     OW16606   3.444   5.149   1.555
 5236SOL    HW116607   3.396   5.077   1.505
 5236SOL    HW216608   3.404   5.159   1.646
 5237SOL     OW16609   1.920   2.028   2.182
 5237SOL    HW116610   1.952   2.042   2.275
 5237SOL    HW216611   1.997   2.002   2.123
 5238SOL     OW16612   0.455   0.124   2.734
 5238SOL    HW116613   0.480   0.061   2.807
 5238SOL    HW216614   0.467   0.218   2.766
 5239SOL     OW16615   2.663   3.916   0.737
 5239SOL    HW116616   2.753   3.921   0.693
 5239SOL    HW216617   2.601   3.980   0.692
 5240SOL     OW16618   2.212   4.165   5.494
 5240SOL    HW116619   2.194   4.224   5.415
 5240SOL    HW216620   2.264   4.085   5.465
 5241SOL     OW16621   1.549   6.525   2.478
 5241SOL    HW116622   1.643   6.551   2.456
 5241SOL    HW216623   1.549   6.448   2.541
 5242SOL     OW16624   4.336   0.518   6.514
 5242SOL    HW116625   4.395   0.577   6.459
 5242SOL    HW216626   4.322   0.559   6.604
 5243SOL     OW16627   2.441   6.271   2.570
 5243SOL    HW116628   2.343   6.259   2.581
 5243SOL    HW216629   2.463   6.280   2.473
 5244SOL     OW16630   4.903   1.295   0.296
 5244SOL    HW116631   4.818   1.266   0.340
 5244SOL    HW216632   4.931   1.383   0.334
 5245SOL     OW16633   3.154   4.042   1.094
 5245SOL    HW116634   3.122   3.947   1.091
 5245SOL    HW216635   3.205   4.057   1.179
 5246SOL     OW16636   6.008   3.755   6.326
 5246SOL    HW116637   5.974   3.710   6.409
 5246SOL    HW216638   6.080   3.820   6.350
 5247SOL     OW16639   4.515   1.889   6.902
 5247SOL    HW116640   4.467   1.805   6.930
 5247SOL    HW216641   4.452   1.966   6.907
 5248SOL     OW16642   5.401   1.286   3.861
 5248SOL    HW116643   5.379   1.363   3.921
 5248SOL    HW216644   5.382   1.311   3.766
 5249SOL     OW16645   0.439   5.090   0.722
 5249SOL    HW116646   0.430   5.091   0.822
 5249SOL    HW216647   0.387   5.166   0.684
 5250SOL     OW16648   2.551   5.554   0.990
 5250SOL    HW116649   2.573   5.651   0.991
 5250SOL    HW216650   2.572   5.514   1.079
 5251SOL     OW16651   0.446   4.671   0.767
 5251SOL    HW116652   0.422   4.655   0.671
 5251SOL    HW216653   0.532   4.722   0.771
 5252SOL     OW16654   3.610   5.836   2.245
 5252SOL    HW116655   3.600   5.793   2.155
 5252SOL    HW216656   3.568   5.778   2.315
 5253SOL     OW16657   6.615   6.186   4.998
 5253SOL    HW116658   6.621   6.260   4.931
 5253SOL    HW216659   6.673   6.110   4.969
 5254SOL     OW16660   4.918   5.944   3.262
 5254SOL    HW116661   5.018   5.946   3.255
 5254SOL    HW216662   4.878   5.995   3.186
 5255SOL     OW16663   6.492   1.730   5.199
 5255SOL    HW116664   6.490   1.794   5.122
 5255SOL    HW216665   6.555   1.763   5.269
 5256SOL     OW16666   6.773   1.809   2.119
 5256SOL    HW116667   6.807   1.745   2.050
 5256SOL    HW216668   6.684   1.777   2.153
 5257SOL     OW16669   4.717   1.591   6.059
 5257SOL    HW116670   4.722   1.526   6.134
 5257SOL    HW216671   4.634   1.647   6.069
 5258SOL     OW16672   5.027   1.413   4.458
 5258SOL    HW116673   5.011   1.335   4.398
 5258SOL    HW216674   5.109   1.396   4.513
 5259SOL     OW16675   6.100   4.952   3.681
 5259SOL    HW116676   6.054   5.029   3.724
 5259SOL    HW216677   6.090   4.958   3.581
 5260SOL     OW16678   1.841   0.103   0.930
 5260SOL    HW116679   1.858   0.056   0.843
 5260SOL    HW216680   1.885   0.052   1.004
 5261SOL     OW16681   5.344   4.275   6.816
 5261SOL    HW116682   5.364   4.330   6.897
 5261SOL    HW216683   5.336   4.179   6.842
 5262SOL     OW16684   1.769   1.263   1.918
 5262SOL    HW116685   1.705   1.200   1.875
 5262SOL    HW216686   1.741   1.279   2.013
 5263SOL     OW16687   1.537   6.116   2.384
 5263SOL    HW116688   1.630   6.125   2.419
 5263SOL    HW216689   1.512   6.020   2.378
 5264SOL     OW16690   6.336   2.129   1.503
 5264SOL    HW116691   6.264   2.060   1.509
 5264SOL    HW216692   6.325   2.196   1.576
 5265SOL     OW16693   6.660   5.206   5.349
 5265SOL    HW116694   6.652   5.275   5.420
 5265SOL    HW216695   6.618   5.121   5.380
 5266SOL     OW16696   1.484   0.282   6.632
 5266SOL    HW116697   1.499   0.314   6.725
 5266SOL    HW216698   1.509   0.353   6.567
 5267SOL     OW16699   5.391   2.600   4.115
 5267SOL    HW116700   5.340   2.572   4.034
 5267SOL    HW216701   5.355   2.687   4.149
 5268SOL     OW16702   5.563   0.355   6.100
 5268SOL    HW116703   5.529   0.444   6.129
 5268SOL    HW216704   5.663   0.356   6.101
 5269SOL     OW16705   0.475   0.037   4.007
 5269SOL    HW116706   0.537   0.093   4.063
 5269SOL    HW216707   0.441   6.980   4.062
 5270SOL     OW16708   0.684   1.634   6.341
 5270SOL    HW116709   0.687   1.538   6.312
 5270SOL    HW216710   0.589   1.663   6.349
 5271SOL     OW16711   1.303   5.006   3.186
 5271SOL    HW116712   1.238   4.974   3.117
 5271SOL    HW216713   1.303   4.943   3.264
 5272SOL     OW16714   4.297   0.452   6.843
 5272SOL    HW116715   4.230   0.516   6.882
 5272SOL    HW216716   4.262   0.359   6.853
 5273SOL     OW16717   2.446   1.557   2.632
 5273SOL    HW116718   2.446   1.650   2.667
 5273SOL    HW216719   2.469   1.558   2.535
 5274SOL     OW16720   5.278   4.977   1.524
 5274SOL    HW116721   5.326   4.902   1.568
 5274SOL    HW216722   5.213   4.941   1.456
 5275SOL     OW16723   4.457   1.522   6.706
 5275SOL    HW116724   4.430   1.426   6.718
 5275SOL    HW216725   4.384   1.572   6.659
 5276SOL     OW16726   3.989   6.756   2.090
 5276SOL    HW116727   3.993   6.832   2.025
 5276SOL    HW216728   4.026   6.785   2.179
 5277SOL     OW16729   1.978   2.846   2.077
 5277SOL    HW116730   1.946   2.938   2.099
 5277SOL    HW216731   2.077   2.845   2.072
 5278SOL     OW16732   3.933   3.665   1.853
 5278SOL    HW116733   4.017   3.626   1.815
 5278SOL    HW216734   3.922   3.635   1.948
 5279SOL     OW16735   1.932   6.501   2.037
 5279SOL    HW116736   1.970   6.565   1.970
 5279SOL    HW216737   1.836   6.524   2.055
 5280SOL     OW16738   4.284   0.341   5.012
 5280SOL    HW116739   4.330   0.255   5.030
 5280SOL    HW216740   4.337   0.417   5.051
 5281SOL     OW16741   0.091   2.473   3.243
 5281SOL    HW116742   0.140   2.429   3.319
 5281SOL    HW216743   0.016   2.414   3.213
 5282SOL     OW16744   4.869   1.249   1.574
 5282SOL    HW116745   4.842   1.329   1.628
 5282SOL    HW216746   4.852   1.166   1.628
 5283SOL     OW16747   5.196   5.390   5.783
 5283SOL    HW116748   5.256   5.364   5.859
 5283SOL    HW216749   5.139   5.312   5.757
 5284SOL     OW16750   4.886   2.583   3.299
 5284SOL    HW116751   4.807   2.568   3.359
 5284SOL    HW216752   4.953   2.510   3.314
 5285SOL     OW16753   4.145   6.131   2.343
 5285SOL    HW116754   4.188   6.140   2.433
 5285SOL    HW216755   4.061   6.078   2.352
 5286SOL     OW16756   2.575   5.388   2.291
 5286SOL    HW116757   2.563   5.332   2.372
 5286SOL    HW216758   2.672   5.398   2.271
 5287SOL     OW16759   0.477   1.527   1.900
 5287SOL    HW116760   0.472   1.600   1.969
 5287SOL    HW216761   0.388   1.517   1.856
 5288SOL     OW16762   4.359   0.866   0.649
 5288SOL    HW116763   4.315   0.800   0.589
 5288SOL    HW216764   4.293   0.901   0.715
 5289SOL     OW16765   2.194   6.185   1.022
 5289SOL    HW116766   2.120   6.179   1.090
 5289SOL    HW216767   2.249   6.102   1.026
 5290SOL     OW16768   5.293   6.054   0.734
 5290SOL    HW116769   5.213   6.040   0.677
 5290SOL    HW216770   5.275   6.126   0.802
 5291SOL     OW16771   0.999   5.124   6.469
 5291SOL    HW116772   0.964   5.042   6.515
 5291SOL    HW216773   0.950   5.137   6.383
 5292SOL     OW16774   5.296   1.863   0.198
 5292SOL    HW116775   5.390   1.867   0.163
 5292SOL    HW216776   5.234   1.905   0.132
 5293SOL     OW16777   1.424   1.797   3.624
 5293SOL    HW116778   1.381   1.811   3.714
 5293SOL    HW216779   1.502   1.859   3.615
 5294SOL     OW16780   4.485   2.645   5.342
 5294SOL    HW116781   4.527   2.689   5.263
 5294SOL    HW216782   4.392   2.681   5.355
 5295SOL     OW16783   5.914   0.909   2.196
 5295SOL    HW116784   5.859   0.865   2.268
 5295SOL    HW216785   5.978   0.973   2.237
 5296SOL     OW16786   0.256   3.267   0.265
 5296SOL    HW116787   0.185   3.335   0.248
 5296SOL    HW216788   0.305   3.247   0.180
 5297SOL     OW16789   1.506   3.114   2.323
 5297SOL    HW116790   1.589   3.093   2.375
 5297SOL    HW216791   1.425   3.091   2.378
 5298SOL     OW16792   1.288   5.280   1.702
 5298SOL    HW116793   1.202   5.319   1.671
 5298SOL    HW216794   1.299   5.297   1.800
 5299SOL     OW16795   3.416   0.342   1.123
 5299SOL    HW116796   3.349   0.403   1.079
 5299SOL    HW216797   3.459   0.390   1.200
 5300SOL     OW16798   6.611   5.424   3.690
 5300SOL    HW116799   6.702   5.466   3.690
 5300SOL    HW216800   6.549   5.479   3.745
 5301SOL     OW16801   4.980   0.504   0.804
 5301SOL    HW116802   4.882   0.499   0.827
 5301SOL    HW216803   5.012   0.598   0.817
 5302SOL     OW16804   6.640   4.264   3.534
 5302SOL    HW116805   6.568   4.332   3.549
 5302SOL    HW216806   6.598   4.176   3.508
 5303SOL     OW16807   0.918   5.559   3.062
 5303SOL    HW116808   0.871   5.544   2.975
 5303SOL    HW216809   0.888   5.490   3.128
 5304SOL     OW16810   4.735   2.049   5.273
 5304SOL    HW116811   4.770   2.140   5.295
 5304SOL    HW216812   4.648   2.035   5.320
 5305SOL     OW16813   2.931   1.143   3.563
 5305SOL    HW116814   2.895   1.054   3.592
 5305SOL    HW216815   2.933   1.205   3.641
 5306SOL     OW16816   2.952   6.569   4.556
 5306SOL    HW116817   2.863   6.598   4.589
 5306SOL    HW216818   2.942   6.523   4.468
 5307SOL     OW16819   4.276   6.881   6.753
 5307SOL    HW116820   4.181   6.913   6.751
 5307SOL    HW216821   4.278   6.787   6.789
 5308SOL     OW16822   6.776   1.093   2.163
 5308SOL    HW116823   6.766   1.149   2.245
 5308SOL    HW216824   6.848   1.130   2.105
 5309SOL     OW16825   3.595   3.813   4.626
 5309SOL    HW116826   3.554   3.900   4.655
 5309SOL    HW216827   3.617   3.759   4.707
 5310SOL     OW16828   5.507   2.885   0.218
 5310SOL    HW116829   5.412   2.854   0.222
 5310SOL    HW216830   5.557   2.832   0.149
 5311SOL     OW16831   0.933   6.252   6.319
 5311SOL    HW116832   0.946   6.159   6.283
 5311SOL    HW216833   1.017   6.304   6.307
 5312SOL     OW16834   0.304   3.341   1.831
 5312SOL    HW116835   0.367   3.266   1.809
 5312SOL    HW216836   0.353   3.413   1.879
 5313SOL     OW16837   1.146   6.405   0.032
 5313SOL    HW116838   1.072   6.415   0.099
 5313SOL    HW216839   1.233   6.430   0.075
 5314SOL     OW16840   3.691   4.929   0.931
 5314SOL    HW116841   3.722   4.894   0.843
 5314SOL    HW216842   3.760   4.993   0.967
 5315SOL     OW16843   5.363   2.490   2.002
 5315SOL    HW116844   5.296   2.420   2.027
 5315SOL    HW216845   5.321   2.554   1.937
 5316SOL     OW16846   5.837   5.219   4.469
 5316SOL    HW116847   5.923   5.256   4.502
 5316SOL    HW216848   5.766   5.233   4.538
 5317SOL     OW16849   6.420   5.384   2.942
 5317SOL    HW116850   6.352   5.389   3.015
 5317SOL    HW216851   6.501   5.437   2.969
 5318SOL     OW16852   0.358   2.256   4.057
 5318SOL    HW116853   0.419   2.268   4.135
 5318SOL    HW216854   0.368   2.333   3.994
 5319SOL     OW16855   3.726   0.031   1.467
 5319SOL    HW116856   3.782   0.113   1.464
 5319SOL    HW216857   3.629   0.057   1.466
 5320SOL     OW16858   6.239   3.661   5.587
 5320SOL    HW116859   6.306   3.735   5.594
 5320SOL    HW216860   6.222   3.640   5.490
 5321SOL     OW16861   2.199   4.926   5.757
 5321SOL    HW116862   2.257   4.934   5.676
 5321SOL    HW216863   2.110   4.889   5.730
 5322SOL     OW16864   2.367   6.332   0.851
 5322SOL    HW116865   2.302   6.274   0.900
 5322SOL    HW216866   2.351   6.325   0.753
 5323SOL     OW16867   5.441   3.400   0.578
 5323SOL    HW116868   5.444   3.489   0.532
 5323SOL    HW216869   5.526   3.351   0.560
 5324SOL     OW16870   3.707   3.412   1.493
 5324SOL    HW116871   3.686   3.447   1.584
 5324SOL    HW216872   3.774   3.337   1.500
 5325SOL     OW16873   4.345   5.901   4.722
 5325SOL    HW116874   4.252   5.938   4.713
 5325SOL    HW216875   4.355   5.857   4.811
 5326SOL     OW16876   0.143   0.380   2.547
 5326SOL    HW116877   0.127   0.407   2.452
 5326SOL    HW216878   0.109   0.452   2.608
 5327SOL     OW16879   7.008   0.330   4.154
 5327SOL    HW116880   6.919   0.369   4.129
 5327SOL    HW216881   0.029   0.289   4.072
 5328SOL     OW16882   3.718   5.056   0.183
 5328SOL    HW116883   3.774   5.138   0.187
 5328SOL    HW216884   3.671   5.043   0.270
 5329SOL     OW16885   6.969   5.570   0.285
 5329SOL    HW116886   0.047   5.557   0.304
 5329SOL    HW216887   6.940   5.660   0.318
 5330SOL     OW16888   3.365   3.988   0.220
 5330SOL    HW116889   3.422   4.070   0.220
 5330SOL    HW216890   3.342   3.963   0.314
 5331SOL     OW16891   5.234   1.728   6.664
 5331SOL    HW116892   5.147   1.727   6.615
 5331SOL    HW216893   5.217   1.740   6.762
 5332SOL     OW16894   5.339   3.273   0.180
 5332SOL    HW116895   5.291   3.251   0.095
 5332SOL    HW216896   5.278   3.255   0.258
 5333SOL     OW16897   1.875   1.313   4.516
 5333SOL    HW116898   1.856   1.411   4.512
 5333SOL    HW216899   1.836   1.275   4.600
 5334SOL     OW16900   3.352   6.351   1.684
 5334SOL    HW116901   3.345   6.267   1.632
 5334SOL    HW216902   3.380   6.331   1.778
 5335SOL     OW16903   0.323   4.634   1.760
 5335SOL    HW116904   0.339   4.565   1.689
 5335SOL    HW216905   0.322   4.725   1.719
 5336SOL     OW16906   1.637   3.230   5.336
 5336SOL    HW116907   1.659   3.311   5.281
 5336SOL    HW216908   1.575   3.256   5.410
 5337SOL     OW16909   7.012   3.784   0.898
 5337SOL    HW116910   0.009   3.843   0.977
 5337SOL    HW216911   6.941   3.717   0.921
 5338SOL     OW16912   6.532   3.663   0.672
 5338SOL    HW116913   6.557   3.567   0.677
 5338SOL    HW216914   6.574   3.704   0.591
 5339SOL     OW16915   5.505   3.016   2.090
 5339SOL    HW116916   5.436   2.952   2.056
 5339SOL    HW216917   5.509   3.096   2.029
 5340SOL     OW16918   4.406   3.449   1.454
 5340SOL    HW116919   4.501   3.418   1.451
 5340SOL    HW216920   4.365   3.422   1.541
 5341SOL     OW16921   4.823   4.575   3.345
 5341SOL    HW116922   4.853   4.635   3.271
 5341SOL    HW216923   4.821   4.480   3.312
 5342SOL     OW16924   6.334   5.819   4.955
 5342SOL    HW116925   6.326   5.902   5.010
 5342SOL    HW216926   6.244   5.794   4.919
 5343SOL     OW16927   3.851   3.342   6.387
 5343SOL    HW116928   3.854   3.442   6.383
 5343SOL    HW216929   3.776   3.314   6.446
 5344SOL     OW16930   6.996   1.463   6.883
 5344SOL    HW116931   6.939   1.528   6.934
 5344SOL    HW216932   6.945   1.429   6.804
 5345SOL     OW16933   5.093   1.318   6.645
 5345SOL    HW116934   5.168   1.261   6.612
 5345SOL    HW216935   5.066   1.288   6.736
 5346SOL     OW16936   3.141   5.843   3.258
 5346SOL    HW116937   3.148   5.770   3.190
 5346SOL    HW216938   3.071   5.909   3.230
 5347SOL     OW16939   5.362   1.590   4.422
 5347SOL    HW116940   5.340   1.517   4.487
 5347SOL    HW216941   5.336   1.678   4.462
 5348SOL     OW16942   4.746   2.925   4.924
 5348SOL    HW116943   4.769   3.022   4.919
 5348SOL    HW216944   4.747   2.886   4.832
 5349SOL     OW16945   0.651   3.758   1.369
 5349SOL    HW116946   0.638   3.662   1.342
 5349SOL    HW216947   0.577   3.813   1.330
 5350SOL     OW16948   0.954   0.086   7.019
 5350SOL    HW116949   0.862   0.064   6.986
 5350SOL    HW216950   1.021   0.030   6.970
 5351SOL     OW16951   0.156   5.581   3.269
 5351SOL    HW116952   0.060   5.601   3.287
 5351SOL    HW216953   0.166   5.486   3.240
 5352SOL     OW16954   1.463   2.643   5.808
 5352SOL    HW116955   1.464   2.588   5.724
 5352SOL    HW216956   1.388   2.613   5.867
 5353SOL     OW16957   3.613   5.293   3.680
 5353SOL    HW116958   3.526   5.326   3.642
 5353SOL    HW216959   3.687   5.353   3.651
 5354SOL     OW16960   3.905   5.853   1.031
 5354SOL    HW116961   3.909   5.761   1.069
 5354SOL    HW216962   3.886   5.848   0.933
 5355SOL     OW16963   4.684   5.853   5.142
 5355SOL    HW116964   4.708   5.798   5.062
 5355SOL    HW216965   4.733   5.940   5.140
 5356SOL     OW16966   1.027   6.260   0.730
 5356SOL    HW116967   0.936   6.237   0.697
 5356SOL    HW216968   1.020   6.321   0.809
 5357SOL     OW16969   6.508   3.459   2.521
 5357SOL    HW116970   6.581   3.414   2.470
 5357SOL    HW216971   6.499   3.416   2.611
 5358SOL     OW16972   5.949   0.544   6.674
 5358SOL    HW116973   6.030   0.603   6.682
 5358SOL    HW216974   5.978   0.448   6.677
 5359SOL     OW16975   2.950   2.633   6.833
 5359SOL    HW116976   2.900   2.670   6.911
 5359SOL    HW216977   3.010   2.703   6.795
 5360SOL     OW16978   5.352   5.364   4.009
 5360SOL    HW116979   5.257   5.374   4.040
 5360SOL    HW216980   5.412   5.418   4.068
 5361SOL     OW16981   1.665   4.571   3.066
 5361SOL    HW116982   1.755   4.588   3.025
 5361SOL    HW216983   1.608   4.520   3.002
 5362SOL     OW16984   6.305   1.118   2.815
 5362SOL    HW116985   6.348   1.028   2.815
 5362SOL    HW216986   6.267   1.137   2.725
 5363SOL     OW16987   5.415   5.430   3.471
 5363SOL    HW116988   5.325   5.466   3.497
 5363SOL    HW216989   5.479   5.441   3.547
 5364SOL     OW16990   4.283   2.316   2.277
 5364SOL    HW116991   4.191   2.349   2.253
 5364SOL    HW216992   4.284   2.289   2.374
 5365SOL     OW16993   2.775   4.050   5.269
 5365SOL    HW116994   2.709   3.975   5.266
 5365SOL    HW216995   2.865   4.015   5.241
 5366SOL     OW16996   6.258   5.668   3.123
 5366SOL    HW116997   6.269   5.672   3.024
 5366SOL    HW216998   6.194   5.739   3.152
 5367SOL     OW16999   6.043   6.042   1.377
 5367SOL    HW117000   6.039   5.998   1.467
 5367SOL    HW217001   5.958   6.026   1.328
 5368SOL     OW17002   0.259   6.175   4.592
 5368SOL    HW117003   0.217   6.102   4.538
 5368SOL    HW217004   0.332   6.137   4.649
 5369SOL     OW17005   4.665   6.237   2.624
 5369SOL    HW117006   4.602   6.186   2.683
 5369SOL    HW217007   4.643   6.219   2.528
 5370SOL     OW17008   1.687   2.746   0.066
 5370SOL    HW117009   1.776   2.701   0.072
 5370SOL    HW217010   1.674   2.804   0.146
 5371SOL     OW17011   6.165   5.578   4.527
 5371SOL    HW117012   6.215   5.645   4.582
 5371SOL    HW217013   6.171   5.602   4.430
 5372SOL     OW17014   2.147   6.963   3.143
 5372SOL    HW117015   2.124   6.868   3.165
 5372SOL    HW217016   2.101   6.990   3.059
 5373SOL     OW17017   3.013   0.872   6.347
 5373SOL    HW117018   2.952   0.874   6.268
 5373SOL    HW217019   3.021   0.964   6.386
 5374SOL     OW17020   1.123   3.806   1.413
 5374SOL    HW117021   1.214   3.767   1.408
 5374SOL    HW217022   1.128   3.905   1.396
 5375SOL     OW17023   2.314   4.518   4.990
 5375SOL    HW117024   2.296   4.447   5.058
 5375SOL    HW217025   2.361   4.595   5.034
 5376SOL     OW17026   1.213   0.440   0.795
 5376SOL    HW117027   1.131   0.414   0.745
 5376SOL    HW217028   1.192   0.513   0.860
 5377SOL     OW17029   1.491   1.997   2.603
 5377SOL    HW117030   1.461   2.011   2.697
 5377SOL    HW217031   1.454   1.910   2.570
 5378SOL     OW17032   4.894   6.700   2.568
 5378SOL    HW117033   4.864   6.795   2.577
 5378SOL    HW217034   4.817   6.643   2.542
 5379SOL     OW17035   2.183   1.837   3.342
 5379SOL    HW117036   2.117   1.888   3.397
 5379SOL    HW217037   2.221   1.762   3.396
 5380SOL     OW17038   4.699   6.000   1.065
 5380SOL    HW117039   4.618   5.951   1.096
 5380SOL    HW217040   4.731   6.061   1.137
 5381SOL     OW17041   3.395   1.400   3.274
 5381SOL    HW117042   3.351   1.341   3.205
 5381SOL    HW217043   3.379   1.496   3.250
 5382SOL     OW17044   4.060   1.386   2.753
 5382SOL    HW117045   4.086   1.332   2.833
 5382SOL    HW217046   4.080   1.482   2.769
 5383SOL     OW17047   1.877   3.254   4.789
 5383SOL    HW117048   1.889   3.160   4.759
 5383SOL    HW217049   1.853   3.311   4.710
 5384SOL     OW17050   5.118   6.049   6.072
 5384SOL    HW117051   5.215   6.023   6.079
 5384SOL    HW217052   5.110   6.134   6.021
 5385SOL     OW17053   4.459   3.646   0.146
 5385SOL    HW117054   4.452   3.588   0.065
 5385SOL    HW217055   4.390   3.618   0.213
 5386SOL     OW17056   4.527   5.055   4.134
 5386SOL    HW117057   4.517   4.993   4.056
 5386SOL    HW217058   4.448   5.117   4.137
 5387SOL     OW17059   0.939   2.304   4.568
 5387SOL    HW117060   0.995   2.227   4.538
 5387SOL    HW217061   0.880   2.274   4.644
 5388SOL     OW17062   6.438   6.742   4.270
 5388SOL    HW117063   6.475   6.709   4.356
 5388SOL    HW217064   6.505   6.727   4.197
 5389SOL     OW17065   5.521   1.134   4.838
 5389SOL    HW117066   5.474   1.125   4.750
 5389SOL    HW217067   5.619   1.148   4.823
 5390SOL     OW17068   6.108   3.811   3.151
 5390SOL    HW117069   6.201   3.797   3.186
 5390SOL    HW217070   6.083   3.735   3.091
 5391SOL     OW17071   3.472   2.444   1.096
 5391SOL    HW117072   3.417   2.480   1.172
 5391SOL    HW217073   3.520   2.362   1.126
 5392SOL     OW17074   5.499   0.424   4.558
 5392SOL    HW117075   5.539   0.481   4.629
 5392SOL    HW217076   5.481   0.480   4.477
 5393SOL     OW17077   4.197   1.067   3.758
 5393SOL    HW117078   4.159   1.097   3.845
 5393SOL    HW217079   4.274   1.126   3.733
 5394SOL     OW17080   6.763   2.828   1.957
 5394SOL    HW117081   6.701   2.838   2.035
 5394SOL    HW217082   6.836   2.763   1.979
 5395SOL     OW17083   0.686   1.565   1.046
 5395SOL    HW117084   0.733   1.499   1.104
 5395SOL    HW217085   0.680   1.529   0.953
 5396SOL     OW17086   3.324   2.885   0.897
 5396SOL    HW117087   3.392   2.856   0.964
 5396SOL    HW217088   3.370   2.916   0.814
 5397SOL     OW17089   6.900   0.285   2.237
 5397SOL    HW117090   6.868   0.312   2.328
 5397SOL    HW217091   6.823   0.256   2.181
 5398SOL     OW17092   6.847   2.411   3.055
 5398SOL    HW117093   6.761   2.368   3.026
 5398SOL    HW217094   6.829   2.474   3.131
 5399SOL     OW17095   2.082   3.229   1.006
 5399SOL    HW117096   2.078   3.133   0.979
 5399SOL    HW217097   2.011   3.281   0.958
 5400SOL     OW17098   4.629   2.841   1.469
 5400SOL    HW117099   4.724   2.826   1.496
 5400SOL    HW217100   4.626   2.904   1.392
 5401SOL     OW17101   5.110   3.078   1.153
 5401SOL    HW117102   5.023   3.052   1.197
 5401SOL    HW217103   5.152   3.152   1.205
 5402SOL     OW17104   1.134   6.554   1.863
 5402SOL    HW117105   1.171   6.518   1.948
 5402SOL    HW217106   1.208   6.571   1.798
 5403SOL     OW17107   4.926   2.387   6.267
 5403SOL    HW117108   4.843   2.440   6.250
 5403SOL    HW217109   4.905   2.312   6.331
 5404SOL     OW17110   5.101   6.813   0.194
 5404SOL    HW117111   5.134   6.723   0.167
 5404SOL    HW217112   5.075   6.811   0.291
 5405SOL     OW17113   0.278   4.950   6.877
 5405SOL    HW117114   0.202   4.934   6.814
 5405SOL    HW217115   0.271   5.043   6.914
 5406SOL     OW17116   3.148   1.186   5.597
 5406SOL    HW117117   3.048   1.182   5.599
 5406SOL    HW217118   3.180   1.261   5.655
 5407SOL     OW17119   1.023   6.584   3.760
 5407SOL    HW117120   0.995   6.679   3.752
 5407SOL    HW217121   1.084   6.561   3.684
 5408SOL     OW17122   2.371   2.060   4.304
 5408SOL    HW117123   2.311   2.041   4.226
 5408SOL    HW217124   2.401   1.974   4.344
 5409SOL     OW17125   0.770   2.665   2.520
 5409SOL    HW117126   0.823   2.600   2.465
 5409SOL    HW217127   0.708   2.614   2.580
 5410SOL     OW17128   6.742   2.647   0.536
 5410SOL    HW117129   6.722   2.729   0.590
 5410SOL    HW217130   6.660   2.622   0.484
 5411SOL     OW17131   3.754   5.414   0.646
 5411SOL    HW117132   3.661   5.446   0.665
 5411SOL    HW217133   3.752   5.354   0.566
 5412SOL     OW17134   1.479   2.483   4.706
 5412SOL    HW117135   1.508   2.567   4.659
 5412SOL    HW217136   1.465   2.410   4.639
 5413SOL     OW17137   0.411   4.914   5.232
 5413SOL    HW117138   0.445   4.975   5.160
 5413SOL    HW217139   0.338   4.960   5.283
 5414SOL     OW17140   5.545   4.560   5.501
 5414SOL    HW117141   5.590   4.518   5.579
 5414SOL    HW217142   5.487   4.493   5.455
 5415SOL     OW17143   2.295   1.653   6.725
 5415SOL    HW117144   2.377   1.708   6.708
 5415SOL    HW217145   2.222   1.683   6.663
 5416SOL     OW17146   3.284   5.854   0.002
 5416SOL    HW117147   3.286   5.901   6.933
 5416SOL    HW217148   3.319   5.761   7.011
 5417SOL     OW17149   5.741   0.335   3.236
 5417SOL    HW117150   5.671   0.367   3.299
 5417SOL    HW217151   5.743   0.393   3.155
 5418SOL     OW17152   6.947   3.610   5.900
 5418SOL    HW117153   6.958   3.578   5.994
 5418SOL    HW217154   7.001   3.693   5.887
 5419SOL     OW17155   4.011   1.712   6.750
 5419SOL    HW117156   3.926   1.668   6.723
 5419SOL    HW217157   4.043   1.772   6.677
 5420SOL     OW17158   1.476   2.257   1.536
 5420SOL    HW117159   1.449   2.164   1.558
 5420SOL    HW217160   1.575   2.266   1.546
 5421SOL     OW17161   4.044   5.621   1.379
 5421SOL    HW117162   4.025   5.714   1.409
 5421SOL    HW217163   4.120   5.583   1.431
 5422SOL     OW17164   2.241   5.410   3.698
 5422SOL    HW117165   2.274   5.365   3.781
 5422SOL    HW217166   2.154   5.454   3.716
 5423SOL     OW17167   4.877   6.664   1.472
 5423SOL    HW117168   4.793   6.632   1.427
 5423SOL    HW217169   4.956   6.641   1.415
 5424SOL     OW17170   4.191   3.559   5.519
 5424SOL    HW117171   4.118   3.498   5.549
 5424SOL    HW217172   4.246   3.513   5.449
 5425SOL     OW17173   1.080   5.056   6.071
 5425SOL    HW117174   1.143   5.026   6.144
 5425SOL    HW217175   1.091   4.996   5.992
 5426SOL     OW17176   6.579   4.593   1.263
 5426SOL    HW117177   6.620   4.568   1.351
 5426SOL    HW217178   6.538   4.684   1.270
 5427SOL     OW17179   4.690   2.746   0.438
 5427SOL    HW117180   4.762   2.680   0.460
 5427SOL    HW217181   4.706   2.830   0.489
 5428SOL     OW17182   4.783   5.310   3.396
 5428SOL    HW117183   4.840   5.341   3.320
 5428SOL    HW217184   4.687   5.328   3.375
 5429SOL     OW17185   2.822   0.053   4.089
 5429SOL    HW117186   2.901   0.063   4.150
 5429SOL    HW217187   2.797   0.142   4.052
 5430SOL     OW17188   2.080   3.823   5.935
 5430SOL    HW117189   2.119   3.874   5.859
 5430SOL    HW217190   2.061   3.885   6.011
 5431SOL     OW17191   4.430   4.623   0.046
 5431SOL    HW117192   4.439   4.598   6.970
 5431SOL    HW217193   4.396   4.544   0.098
 5432SOL     OW17194   0.099   5.071   6.420
 5432SOL    HW117195   0.199   5.071   6.425
 5432SOL    HW217196   0.061   5.053   6.510
 5433SOL     OW17197   3.697   0.021   1.159
 5433SOL    HW117198   3.776   6.980   1.154
 5433SOL    HW217199   3.704   0.079   1.240
 5434SOL     OW17200   4.982   6.883   4.296
 5434SOL    HW117201   4.894   6.884   4.345
 5434SOL    HW217202   4.992   6.797   4.247
 5435SOL     OW17203   0.033   4.960   6.738
 5435SOL    HW117204   0.034   5.055   6.768
 5435SOL    HW217205   6.960   4.925   6.739
 5436SOL     OW17206   2.023   4.763   2.217
 5436SOL    HW117207   1.986   4.680   2.260
 5436SOL    HW217208   2.107   4.790   2.263
 5437SOL     OW17209   3.435   6.407   0.927
 5437SOL    HW117210   3.535   6.418   0.922
 5437SOL    HW217211   3.391   6.495   0.910
 5438SOL     OW17212   3.957   6.478   2.022
 5438SOL    HW117213   3.979   6.566   2.065
 5438SOL    HW217214   4.034   6.449   1.964
 5439SOL     OW17215   1.358   4.133   0.855
 5439SOL    HW117216   1.327   4.212   0.908
 5439SOL    HW217217   1.336   4.049   0.904
 5440SOL     OW17218   5.853   6.863   3.633
 5440SOL    HW117219   5.927   6.914   3.676
 5440SOL    HW217220   5.787   6.928   3.594
 5441SOL     OW17221   5.772   2.481   4.831
 5441SOL    HW117222   5.683   2.523   4.846
 5441SOL    HW217223   5.769   2.386   4.863
 5442SOL     OW17224   2.918   0.564   6.858
 5442SOL    HW117225   2.852   0.629   6.895
 5442SOL    HW217226   2.984   0.612   6.800
 5443SOL     OW17227   5.828   1.218   2.908
 5443SOL    HW117228   5.768   1.196   2.985
 5443SOL    HW217229   5.915   1.253   2.942
 5444SOL     OW17230   0.722   1.443   6.111
 5444SOL    HW117231   0.696   1.521   6.054
 5444SOL    HW217232   0.671   1.362   6.082
 5445SOL     OW17233   5.665   6.290   5.497
 5445SOL    HW117234   5.630   6.350   5.424
 5445SOL    HW217235   5.588   6.257   5.552
 5446SOL     OW17236   0.951   4.276   6.055
 5446SOL    HW117237   0.854   4.275   6.079
 5446SOL    HW217238   1.006   4.289   6.137
 5447SOL     OW17239   6.458   1.970   1.763
 5447SOL    HW117240   6.503   2.056   1.743
 5447SOL    HW217241   6.368   1.987   1.803
 5448SOL     OW17242   6.117   5.202   2.274
 5448SOL    HW117243   6.075   5.138   2.338
 5448SOL    HW217244   6.160   5.277   2.326
 5449SOL     OW17245   2.019   0.871   1.718
 5449SOL    HW117246   1.955   0.847   1.644
 5449SOL    HW217247   1.992   0.958   1.759
 5450SOL     OW17248   4.574   5.750   1.770
 5450SOL    HW117249   4.611   5.802   1.693
 5450SOL    HW217250   4.544   5.660   1.738
 5451SOL     OW17251   6.971   6.657   3.709
 5451SOL    HW117252   6.980   6.724   3.783
 5451SOL    HW217253   6.960   6.566   3.747
 5452SOL     OW17254   2.415   4.378   2.472
 5452SOL    HW117255   2.510   4.388   2.443
 5452SOL    HW217256   2.404   4.411   2.565
 5453SOL     OW17257   6.265   4.189   3.981
 5453SOL    HW117258   6.257   4.190   3.882
 5453SOL    HW217259   6.348   4.239   4.009
 5454SOL     OW17260   5.874   3.909   2.799
 5454SOL    HW117261   5.867   3.958   2.886
 5454SOL    HW217262   5.787   3.915   2.750
 5455SOL     OW17263   2.725   1.905   3.633
 5455SOL    HW117264   2.750   2.002   3.636
 5455SOL    HW217265   2.682   1.879   3.719
 5456SOL     OW17266   6.079   2.236   0.298
 5456SOL    HW117267   6.057   2.157   0.241
 5456SOL    HW217268   5.995   2.271   0.340
 5457SOL     OW17269   6.425   1.122   6.925
 5457SOL    HW117270   6.513   1.167   6.910
 5457SOL    HW217271   6.357   1.190   6.954
 5458SOL     OW17272   4.807   4.582   6.377
 5458SOL    HW117273   4.828   4.493   6.417
 5458SOL    HW217274   4.818   4.653   6.447
 5459SOL     OW17275   2.224   2.875   5.255
 5459SOL    HW117276   2.271   2.813   5.317
 5459SOL    HW217277   2.291   2.934   5.210
 5460SOL     OW17278   0.422   0.575   1.194
 5460SOL    HW117279   0.482   0.559   1.115
 5460SOL    HW217280   0.367   0.494   1.211
 5461SOL     OW17281   5.986   1.723   6.503
 5461SOL    HW117282   6.055   1.657   6.472
 5461SOL    HW217283   5.960   1.703   6.597
 5462SOL     OW17284   5.408   5.079   5.762
 5462SOL    HW117285   5.419   4.985   5.793
 5462SOL    HW217286   5.310   5.098   5.748
 5463SOL     OW17287   1.436   4.137   5.886
 5463SOL    HW117288   1.515   4.120   5.827
 5463SOL    HW217289   1.386   4.217   5.853
 5464SOL     OW17290   1.880   5.361   4.868
 5464SOL    HW117291   1.818   5.429   4.828
 5464SOL    HW217292   1.876   5.367   4.968
 5465SOL     OW17293   0.793   0.049   5.277
 5465SOL    HW117294   0.833   7.019   5.200
 5465SOL    HW217295   0.707   0.091   5.248
 5466SOL     OW17296   5.431   1.694   4.804
 5466SOL    HW117297   5.477   1.765   4.859
 5466SOL    HW217298   5.432   1.721   4.708
 5467SOL     OW17299   4.949   3.245   4.308
 5467SOL    HW117300   5.028   3.226   4.367
 5467SOL    HW217301   4.959   3.337   4.269
 5468SOL     OW17302   6.597   2.345   1.315
 5468SOL    HW117303   6.685   2.299   1.302
 5468SOL    HW217304   6.583   2.364   1.412
 5469SOL     OW17305   3.193   1.182   4.427
 5469SOL    HW117306   3.263   1.112   4.440
 5469SOL    HW217307   3.233   1.273   4.444
 5470SOL     OW17308   4.087   5.245   3.987
 5470SOL    HW117309   3.999   5.256   4.033
 5470SOL    HW217310   4.072   5.202   3.898
 5471SOL     OW17311   4.977   0.035   2.425
 5471SOL    HW117312   5.034   7.012   2.354
 5471SOL    HW217313   4.981   0.134   2.415
 5472SOL     OW17314   2.580   3.629   0.638
 5472SOL    HW117315   2.597   3.727   0.624
 5472SOL    HW217316   2.554   3.614   0.733
 5473SOL     OW17317   2.975   4.803   1.872
 5473SOL    HW117318   3.072   4.801   1.895
 5473SOL    HW217319   2.935   4.713   1.888
 5474SOL     OW17320   1.525   4.851   2.384
 5474SOL    HW117321   1.477   4.783   2.439
 5474SOL    HW217322   1.550   4.811   2.296
 5475SOL     OW17323   1.304   1.255   5.285
 5475SOL    HW117324   1.226   1.273   5.226
 5475SOL    HW217325   1.282   1.183   5.350
 5476SOL     OW17326   1.760   0.013   4.751
 5476SOL    HW117327   1.791   0.103   4.782
 5476SOL    HW217328   1.827   6.995   4.688
 5477SOL     OW17329   2.056   3.342   3.637
 5477SOL    HW117330   2.032   3.270   3.571
 5477SOL    HW217331   2.124   3.403   3.596
 5478SOL     OW17332   5.061   4.711   5.639
 5478SOL    HW117333   5.093   4.804   5.622
 5478SOL    HW217334   5.101   4.677   5.724
 5479SOL     OW17335   5.428   2.639   4.558
 5479SOL    HW117336   5.374   2.718   4.529
 5479SOL    HW217337   5.408   2.561   4.499
 5480SOL     OW17338   1.103   3.287   4.184
 5480SOL    HW117339   1.173   3.321   4.121
 5480SOL    HW217340   1.038   3.230   4.134
 5481SOL     OW17341   4.158   1.431   6.425
 5481SOL    HW117342   4.241   1.455   6.374
 5481SOL    HW217343   4.184   1.397   6.516
 5482SOL     OW17344   5.442   3.268   2.026
 5482SOL    HW117345   5.352   3.306   2.048
 5482SOL    HW217346   5.513   3.329   2.060
 5483SOL     OW17347   6.940   2.882   0.202
 5483SOL    HW117348   6.990   2.900   0.118
 5483SOL    HW217349   6.939   2.783   0.219
 5484SOL     OW17350   6.459   0.100   5.135
 5484SOL    HW117351   6.369   0.080   5.096
 5484SOL    HW217352   6.495   0.185   5.095
 5485SOL     OW17353   3.800   0.115   4.478
 5485SOL    HW117354   3.745   0.041   4.516
 5485SOL    HW217355   3.807   0.105   4.379
 5486SOL     OW17356   0.990   1.125   4.081
 5486SOL    HW117357   1.007   1.064   4.004
 5486SOL    HW217358   1.072   1.181   4.097
 5487SOL     OW17359   4.505   5.163   0.377
 5487SOL    HW117360   4.524   5.083   0.433
 5487SOL    HW217361   4.408   5.165   0.353
 5488SOL     OW17362   5.504   1.285   6.173
 5488SOL    HW117363   5.495   1.191   6.140
 5488SOL    HW217364   5.547   1.341   6.102
 5489SOL     OW17365   6.824   3.896   2.929
 5489SOL    HW117366   6.897   3.862   2.988
 5489SOL    HW217367   6.737   3.855   2.955
 5490SOL     OW17368   2.073   2.187   6.517
 5490SOL    HW117369   2.147   2.170   6.583
 5490SOL    HW217370   2.094   2.270   6.465
 5491SOL     OW17371   0.249   6.062   1.455
 5491SOL    HW117372   0.246   6.059   1.355
 5491SOL    HW217373   0.269   5.970   1.490
 5492SOL     OW17374   1.757   1.124   4.885
 5492SOL    HW117375   1.707   1.037   4.883
 5492SOL    HW217376   1.693   1.199   4.869
 5493SOL     OW17377   3.401   2.806   0.210
 5493SOL    HW117378   3.392   2.719   0.259
 5493SOL    HW217379   3.406   2.881   0.277
 5494SOL     OW17380   6.121   3.051   2.365
 5494SOL    HW117381   6.207   3.028   2.410
 5494SOL    HW217382   6.077   2.968   2.331
 5495SOL     OW17383   3.738   2.892   3.122
 5495SOL    HW117384   3.803   2.963   3.095
 5495SOL    HW217385   3.675   2.875   3.046
 5496SOL     OW17386   3.855   5.247   1.444
 5496SOL    HW117387   3.788   5.189   1.490
 5496SOL    HW217388   3.854   5.338   1.486
 5497SOL     OW17389   6.282   0.091   1.875
 5497SOL    HW117390   6.320   0.077   1.967
 5497SOL    HW217391   6.278   0.188   1.855
 5498SOL     OW17392   4.515   0.182   5.178
 5498SOL    HW117393   4.520   0.095   5.131
 5498SOL    HW217394   4.608   0.217   5.193
 5499SOL     OW17395   0.520   1.564   5.551
 5499SOL    HW117396   0.497   1.498   5.479
 5499SOL    HW217397   0.458   1.642   5.544
 5500SOL     OW17398   2.128   5.374   0.936
 5500SOL    HW117399   2.124   5.368   1.036
 5500SOL    HW217400   2.087   5.292   0.896
 5501SOL     OW17401   2.366   0.258   2.781
 5501SOL    HW117402   2.438   0.325   2.798
 5501SOL    HW217403   2.395   0.168   2.815
 5502SOL     OW17404   4.543   3.556   0.432
 5502SOL    HW117405   4.593   3.643   0.430
 5502SOL    HW217406   4.608   3.480   0.431
 5503SOL     OW17407   0.548   6.463   4.311
 5503SOL    HW117408   0.503   6.501   4.230
 5503SOL    HW217409   0.480   6.448   4.382
 5504SOL     OW17410   3.615   2.053   4.457
 5504SOL    HW117411   3.632   1.954   4.449
 5504SOL    HW217412   3.688   2.103   4.410
 5505SOL     OW17413   3.750   4.657   6.205
 5505SOL    HW117414   3.821   4.588   6.190
 5505SOL    HW217415   3.666   4.612   6.237
 5506SOL     OW17416   0.467   6.720   5.550
 5506SOL    HW117417   0.428   6.702   5.641
 5506SOL    HW217418   0.554   6.768   5.560
 5507SOL     OW17419   4.082   5.962   4.608
 5507SOL    HW117420   4.098   6.018   4.527
 5507SOL    HW217421   3.989   5.977   4.641
 5508SOL     OW17422   2.596   0.665   5.934
 5508SOL    HW117423   2.592   0.679   6.033
 5508SOL    HW217424   2.547   0.582   5.910
 5509SOL     OW17425   6.213   6.285   0.014
 5509SOL    HW117426   6.129   6.248   6.994
 5509SOL    HW217427   6.201   6.383   0.031
 5510SOL     OW17428   5.916   0.223   6.345
 5510SOL    HW117429   6.013   0.230   6.368
 5510SOL    HW217430   5.907   0.193   6.250
 5511SOL     OW17431   7.016   1.944   1.426
 5511SOL    HW117432   0.031   1.863   1.473
 5511SOL    HW217433   0.072   1.989   1.378
 5512SOL     OW17434   0.487   0.474   0.946
 5512SOL    HW117435   0.441   0.388   0.966
 5512SOL    HW217436   0.442   0.520   0.869
 5513SOL     OW17437   3.414   5.314   4.714
 5513SOL    HW117438   3.335   5.287   4.769
 5513SOL    HW217439   3.383   5.348   4.626
 5514SOL     OW17440   6.244   5.268   3.705
 5514SOL    HW117441   6.218   5.357   3.667
 5514SOL    HW217442   6.163   5.224   3.745
 5515SOL     OW17443   6.771   2.710   2.528
 5515SOL    HW117444   6.840   2.769   2.570
 5515SOL    HW217445   6.811   2.664   2.448
 5516SOL     OW17446   1.573   3.304   6.267
 5516SOL    HW117447   1.512   3.250   6.209
 5516SOL    HW217448   1.628   3.242   6.324
 5517SOL     OW17449   2.356   1.539   1.632
 5517SOL    HW117450   2.319   1.481   1.559
 5517SOL    HW217451   2.296   1.535   1.711
 5518SOL     OW17452   5.193   5.521   5.032
 5518SOL    HW117453   5.201   5.453   4.959
 5518SOL    HW217454   5.269   5.586   5.026
 5519SOL     OW17455   5.384   3.690   3.373
 5519SOL    HW117456   5.402   3.632   3.453
 5519SOL    HW217457   5.316   3.759   3.397
 5520SOL     OW17458   1.683   3.242   0.989
 5520SOL    HW117459   1.658   3.145   0.984
 5520SOL    HW217460   1.630   3.294   0.922
 5521SOL     OW17461   4.577   5.644   1.278
 5521SOL    HW117462   4.513   5.569   1.294
 5521SOL    HW217463   4.644   5.647   1.352
 5522SOL     OW17464   2.123   3.288   2.498
 5522SOL    HW117465   2.025   3.275   2.482
 5522SOL    HW217466   2.172   3.209   2.461
 5523SOL     OW17467   3.234   0.860   1.527
 5523SOL    HW117468   3.174   0.787   1.562
 5523SOL    HW217469   3.196   0.895   1.442
 5524SOL     OW17470   6.327   5.712   6.347
 5524SOL    HW117471   6.256   5.726   6.278
 5524SOL    HW217472   6.403   5.775   6.330
 5525SOL     OW17473   6.590   6.258   4.591
 5525SOL    HW117474   6.628   6.337   4.638
 5525SOL    HW217475   6.656   6.223   4.524
 5526SOL     OW17476   5.263   3.223   4.692
 5526SOL    HW117477   5.295   3.136   4.729
 5526SOL    HW217478   5.339   3.289   4.692
 5527SOL     OW17479   2.374   3.267   0.813
 5527SOL    HW117480   2.337   3.277   0.721
 5527SOL    HW217481   2.303   3.232   0.874
 5528SOL     OW17482   0.379   3.242   2.883
 5528SOL    HW117483   0.307   3.308   2.905
 5528SOL    HW217484   0.422   3.268   2.797
 5529SOL     OW17485   1.806   1.434   5.274
 5529SOL    HW117486   1.795   1.335   5.278
 5529SOL    HW217487   1.754   1.476   5.349
 5530SOL     OW17488   0.578   2.994   0.747
 5530SOL    HW117489   0.673   2.977   0.719
 5530SOL    HW217490   0.517   2.975   0.670
 5531SOL     OW17491   1.676   2.770   5.954
 5531SOL    HW117492   1.754   2.786   5.894
 5531SOL    HW217493   1.595   2.749   5.900
 5532SOL     OW17494   2.339   1.957   1.124
 5532SOL    HW117495   2.403   1.994   1.056
 5532SOL    HW217496   2.379   1.877   1.167
 5533SOL     OW17497   4.322   0.187   0.401
 5533SOL    HW117498   4.328   0.202   0.500
 5533SOL    HW217499   4.250   0.120   0.383
 5534SOL     OW17500   6.788   4.830   5.291
 5534SOL    HW117501   6.798   4.805   5.195
 5534SOL    HW217502   6.860   4.786   5.344
 5535SOL     OW17503   5.747   3.850   3.545
 5535SOL    HW117504   5.711   3.813   3.459
 5535SOL    HW217505   5.843   3.876   3.532
 5536SOL     OW17506   2.182   0.554   4.068
 5536SOL    HW117507   2.194   0.575   4.165
 5536SOL    HW217508   2.091   0.585   4.038
 5537SOL     OW17509   4.558   1.403   4.636
 5537SOL    HW117510   4.591   1.463   4.709
 5537SOL    HW217511   4.581   1.308   4.657
 5538SOL     OW17512   5.427   2.533   1.425
 5538SOL    HW117513   5.449   2.438   1.449
 5538SOL    HW217514   5.440   2.592   1.505
 5539SOL     OW17515   2.724   6.578   0.240
 5539SOL    HW117516   2.767   6.640   0.306
 5539SOL    HW217517   2.741   6.611   0.147
 5540SOL     OW17518   5.113   0.770   6.997
 5540SOL    HW117519   5.075   0.725   6.917
 5540SOL    HW217520   5.152   0.702   0.039
 5541SOL     OW17521   4.509   3.421   6.374
 5541SOL    HW117522   4.529   3.487   6.301
 5541SOL    HW217523   4.595   3.396   6.419
 5542SOL     OW17524   4.139   4.402   6.936
 5542SOL    HW117525   4.213   4.463   6.909
 5542SOL    HW217526   4.063   4.411   6.872
 5543SOL     OW17527   1.889   0.252   0.321
 5543SOL    HW117528   1.828   0.259   0.242
 5543SOL    HW217529   1.967   0.314   0.309
 5544SOL     OW17530   3.712   5.514   6.356
 5544SOL    HW117531   3.644   5.558   6.298
 5544SOL    HW217532   3.797   5.501   6.305
 5545SOL     OW17533   4.559   0.788   2.888
 5545SOL    HW117534   4.474   0.759   2.932
 5545SOL    HW217535   4.539   0.836   2.803
 5546SOL     OW17536   0.316   5.337   4.701
 5546SOL    HW117537   0.252   5.322   4.776
 5546SOL    HW217538   0.399   5.284   4.716
 5547SOL     OW17539   5.231   1.492   4.821
 5547SOL    HW117540   5.230   1.429   4.898
 5547SOL    HW217541   5.302   1.562   4.837
 5548SOL     OW17542   0.306   4.775   4.371
 5548SOL    HW117543   0.381   4.770   4.437
 5548SOL    HW217544   0.338   4.743   4.282
 5549SOL     OW17545   4.198   3.036   0.537
 5549SOL    HW117546   4.167   3.109   0.599
 5549SOL    HW217547   4.126   2.967   0.529
 5550SOL     OW17548   1.665   4.009   1.809
 5550SOL    HW117549   1.665   3.957   1.723
 5550SOL    HW217550   1.576   4.055   1.820
 5551SOL     OW17551   1.911   5.498   3.497
 5551SOL    HW117552   1.987   5.528   3.440
 5551SOL    HW217553   1.830   5.484   3.441
 5552SOL     OW17554   0.207   6.560   6.929
 5552SOL    HW117555   0.299   6.539   6.961
 5552SOL    HW217556   0.152   6.476   6.929
 5553SOL     OW17557   4.957   0.682   6.794
 5553SOL    HW117558   4.874   0.731   6.820
 5553SOL    HW217559   4.938   0.583   6.794
 5554SOL     OW17560   5.654   2.017   1.479
 5554SOL    HW117561   5.647   2.090   1.548
 5554SOL    HW217562   5.744   1.974   1.486
 5555SOL     OW17563   2.029   5.017   2.582
 5555SOL    HW117564   1.966   5.035   2.506
 5555SOL    HW217565   1.980   4.970   2.655
 5556SOL     OW17566   0.427   1.113   4.526
 5556SOL    HW117567   0.366   1.041   4.492
 5556SOL    HW217568   0.514   1.072   4.554
 5557SOL     OW17569   3.435   5.749   3.009
 5557SOL    HW117570   3.457   5.842   3.038
 5557SOL    HW217571   3.356   5.715   3.061
 5558SOL     OW17572   4.152   4.075   6.729
 5558SOL    HW117573   4.145   4.147   6.798
 5558SOL    HW217574   4.234   4.020   6.747
 5559SOL     OW17575   2.473   0.978   2.596
 5559SOL    HW117576   2.447   0.986   2.692
 5559SOL    HW217577   2.558   1.026   2.580
 5560SOL     OW17578   0.845   6.260   3.054
 5560SOL    HW117579   0.754   6.275   3.015
 5560SOL    HW217580   0.891   6.348   3.064
 5561SOL     OW17581   3.692   6.705   3.370
 5561SOL    HW117582   3.654   6.796   3.389
 5561SOL    HW217583   3.633   6.658   3.304
 5562SOL     OW17584   3.796   4.309   0.645
 5562SOL    HW117585   3.870   4.264   0.596
 5562SOL    HW217586   3.831   4.347   0.730
 5563SOL     OW17587   2.440   4.407   2.781
 5563SOL    HW117588   2.474   4.493   2.745
 5563SOL    HW217589   2.411   4.419   2.876
 5564SOL     OW17590   5.467   0.791   5.968
 5564SOL    HW117591   5.370   0.780   5.945
 5564SOL    HW217592   5.523   0.757   5.892
 5565SOL     OW17593   3.491   2.162   6.003
 5565SOL    HW117594   3.494   2.262   6.002
 5565SOL    HW217595   3.397   2.131   5.990
 5566SOL     OW17596   1.397   3.716   6.493
 5566SOL    HW117597   1.338   3.779   6.443
 5566SOL    HW217598   1.473   3.687   6.434
 5567SOL     OW17599   6.964   4.194   1.376
 5567SOL    HW117600   6.937   4.103   1.346
 5567SOL    HW217601   6.918   4.263   1.320
 5568SOL     OW17602   4.511   5.272   1.418
 5568SOL    HW117603   4.555   5.285   1.507
 5568SOL    HW217604   4.580   5.268   1.346
 5569SOL     OW17605   2.214   3.031   3.722
 5569SOL    HW117606   2.133   3.087   3.734
 5569SOL    HW217607   2.217   2.997   3.627
 5570SOL     OW17608   0.709   3.670   2.586
 5570SOL    HW117609   0.681   3.603   2.654
 5570SOL    HW217610   0.652   3.661   2.504
 5571SOL     OW17611   6.139   4.799   2.013
 5571SOL    HW117612   6.056   4.803   1.958
 5571SOL    HW217613   6.124   4.738   2.091
 5572SOL     OW17614   1.849   4.234   5.007
 5572SOL    HW117615   1.916   4.178   4.957
 5572SOL    HW217616   1.769   4.178   5.028
 5573SOL     OW17617   2.894   5.129   3.400
 5573SOL    HW117618   2.909   5.031   3.409
 5573SOL    HW217619   2.922   5.176   3.484
 5574SOL     OW17620   0.667   2.824   6.472
 5574SOL    HW117621   0.625   2.759   6.409
 5574SOL    HW217622   0.675   2.913   6.427
 5575SOL     OW17623   0.385   6.597   2.059
 5575SOL    HW117624   0.363   6.657   2.136
 5575SOL    HW217625   0.461   6.537   2.084
 5576SOL     OW17626   1.571   4.940   3.340
 5576SOL    HW117627   1.510   5.019   3.342
 5576SOL    HW217628   1.548   4.878   3.416
 5577SOL     OW17629   1.816   2.679   5.396
 5577SOL    HW117630   1.805   2.744   5.472
 5577SOL    HW217631   1.726   2.640   5.374
 5578SOL     OW17632   3.624   3.741   3.513
 5578SOL    HW117633   3.607   3.836   3.487
 5578SOL    HW217634   3.653   3.736   3.608
 5579SOL     OW17635   0.360   3.663   1.527
 5579SOL    HW117636   0.275   3.708   1.553
 5579SOL    HW217637   0.429   3.733   1.506
 5580SOL     OW17638   5.207   1.733   5.206
 5580SOL    HW117639   5.191   1.749   5.303
 5580SOL    HW217640   5.264   1.652   5.194
 5581SOL     OW17641   1.029   2.246   6.557
 5581SOL    HW117642   1.081   2.184   6.499
 5581SOL    HW217643   0.954   2.197   6.601
 5582SOL     OW17644   2.367   2.596   6.134
 5582SOL    HW117645   2.380   2.498   6.120
 5582SOL    HW217646   2.456   2.642   6.127
 5583SOL     OW17647   5.417   0.750   2.118
 5583SOL    HW117648   5.399   0.793   2.206
 5583SOL    HW217649   5.447   0.656   2.132
 5584SOL     OW17650   1.111   3.760   5.072
 5584SOL    HW117651   1.153   3.818   5.002
 5584SOL    HW217652   1.027   3.720   5.037
 5585SOL     OW17653   4.603   4.781   2.366
 5585SOL    HW117654   4.595   4.694   2.317
 5585SOL    HW217655   4.600   4.857   2.301
 5586SOL     OW17656   6.388   3.400   6.767
 5586SOL    HW117657   6.372   3.361   6.676
 5586SOL    HW217658   6.393   3.499   6.760
 5587SOL     OW17659   5.909   1.003   6.289
 5587SOL    HW117660   5.880   0.998   6.193
 5587SOL    HW217661   6.009   1.003   6.294
 5588SOL     OW17662   3.342   6.681   0.961
 5588SOL    HW117663   3.401   6.756   0.990
 5588SOL    HW217664   3.290   6.647   1.039
 5589SOL     OW17665   5.726   4.813   5.760
 5589SOL    HW117666   5.750   4.845   5.852
 5589SOL    HW217667   5.672   4.729   5.768
 5590SOL     OW17668   5.662   5.703   3.962
 5590SOL    HW117669   5.660   5.756   4.047
 5590SOL    HW217670   5.710   5.755   3.892
 5591SOL     OW17671   5.909   1.135   1.695
 5591SOL    HW117672   5.930   1.232   1.711
 5591SOL    HW217673   5.961   1.102   1.617
 5592SOL     OW17674   0.666   3.673   3.029
 5592SOL    HW117675   0.701   3.597   2.974
 5592SOL    HW217676   0.742   3.721   3.072
 5593SOL     OW17677   0.050   3.091   0.428
 5593SOL    HW117678   0.124   3.116   0.365
 5593SOL    HW217679   6.991   3.058   0.375
 5594SOL     OW17680   5.811   2.377   5.647
 5594SOL    HW117681   5.747   2.350   5.575
 5594SOL    HW217682   5.901   2.394   5.607
 5595SOL     OW17683   0.816   2.233   5.162
 5595SOL    HW117684   0.871   2.235   5.246
 5595SOL    HW217685   0.873   2.203   5.086
 5596SOL     OW17686   3.800   6.498   3.225
 5596SOL    HW117687   3.748   6.507   3.141
 5596SOL    HW217688   3.821   6.588   3.262
 5597SOL     OW17689   5.470   3.413   3.065
 5597SOL    HW117690   5.534   3.358   3.119
 5597SOL    HW217691   5.505   3.422   2.971
 5598SOL     OW17692   5.633   2.124   5.367
 5598SOL    HW117693   5.557   2.118   5.302
 5598SOL    HW217694   5.634   2.215   5.409
 5599SOL     OW17695   0.519   1.104   3.712
 5599SOL    HW117696   0.534   1.157   3.795
 5599SOL    HW217697   0.468   1.159   3.646
 5600SOL     OW17698   1.399   2.428   4.311
 5600SOL    HW117699   1.476   2.484   4.281
 5600SOL    HW217700   1.423   2.381   4.396
 5601SOL     OW17701   2.706   0.961   5.634
 5601SOL    HW117702   2.757   0.896   5.689
 5601SOL    HW217703   2.608   0.946   5.647
 5602SOL     OW17704   1.416   2.023   0.568
 5602SOL    HW117705   1.400   1.925   0.560
 5602SOL    HW217706   1.340   2.066   0.617
 5603SOL     OW17707   5.676   3.045   6.618
 5603SOL    HW117708   5.668   3.083   6.527
 5603SOL    HW217709   5.651   2.948   6.616
 5604SOL     OW17710   6.627   2.036   6.106
 5604SOL    HW117711   6.627   2.027   6.006
 5604SOL    HW217712   6.543   2.081   6.135
 5605SOL     OW17713   0.385   1.963   5.001
 5605SOL    HW117714   0.424   2.040   5.051
 5605SOL    HW217715   0.440   1.945   4.919
 5606SOL     OW17716   4.690   6.879   2.332
 5606SOL    HW117717   4.718   6.867   2.427
 5606SOL    HW217718   4.703   6.975   2.306
 5607SOL     OW17719   5.971   0.903   1.914
 5607SOL    HW117720   5.958   0.991   1.869
 5607SOL    HW217721   5.992   0.918   2.011
 5608SOL     OW17722   3.961   6.405   5.201
 5608SOL    HW117723   4.033   6.429   5.136
 5608SOL    HW217724   3.944   6.306   5.198
 5609SOL     OW17725   2.434   6.356   5.715
 5609SOL    HW117726   2.465   6.330   5.807
 5609SOL    HW217727   2.340   6.325   5.702
 5610SOL     OW17728   4.719   0.826   6.871
 5610SOL    HW117729   4.714   0.845   6.773
 5610SOL    HW217730   4.750   0.908   6.920
 5611SOL     OW17731   1.839   5.295   3.269
 5611SOL    HW117732   1.842   5.201   3.305
 5611SOL    HW217733   1.750   5.311   3.227
 5612SOL     OW17734   2.575   6.996   5.449
 5612SOL    HW117735   2.579   6.897   5.432
 5612SOL    HW217736   2.667   0.009   5.471
 5613SOL     OW17737   4.066   4.716   1.889
 5613SOL    HW117738   4.164   4.729   1.901
 5613SOL    HW217739   4.017   4.794   1.930
 5614SOL     OW17740   4.543   2.139   3.104
 5614SOL    HW117741   4.580   2.058   3.058
 5614SOL    HW217742   4.605   2.169   3.175
 5615SOL     OW17743   1.283   1.338   1.149
 5615SOL    HW117744   1.272   1.425   1.101
 5615SOL    HW217745   1.373   1.300   1.128
 5616SOL     OW17746   2.500   0.593   4.416
 5616SOL    HW117747   2.524   0.553   4.328
 5616SOL    HW217748   2.401   0.602   4.423
 5617SOL     OW17749   1.576   0.905   5.166
 5617SOL    HW117750   1.596   1.003   5.170
 5617SOL    HW217751   1.480   0.892   5.141
 5618SOL     OW17752   6.658   4.296   2.893
 5618SOL    HW117753   6.740   4.325   2.844
 5618SOL    HW217754   6.673   4.206   2.933
 5619SOL     OW17755   2.219   3.461   5.136
 5619SOL    HW117756   2.259   3.380   5.179
 5619SOL    HW217757   2.134   3.436   5.090
 5620SOL     OW17758   3.730   1.756   5.883
 5620SOL    HW117759   3.801   1.820   5.853
 5620SOL    HW217760   3.656   1.806   5.928
 5621SOL     OW17761   2.341   2.684   5.450
 5621SOL    HW117762   2.432   2.657   5.482
 5621SOL    HW217763   2.279   2.690   5.528
 5622SOL     OW17764   6.201   0.467   6.153
 5622SOL    HW117765   6.298   0.443   6.149
 5622SOL    HW217766   6.191   0.566   6.141
 5623SOL     OW17767   0.700   5.837   0.098
 5623SOL    HW117768   0.613   5.788   0.100
 5623SOL    HW217769   0.744   5.823   0.009
 5624SOL     OW17770   1.009   3.983   3.262
 5624SOL    HW117771   1.108   3.987   3.245
 5624SOL    HW217772   0.993   3.943   3.352
 5625SOL     OW17773   6.747   2.270   5.287
 5625SOL    HW117774   6.841   2.247   5.265
 5625SOL    HW217775   6.685   2.224   5.224
 5626SOL     OW17776   4.065   6.894   4.290
 5626SOL    HW117777   4.154   6.912   4.333
 5626SOL    HW217778   4.079   6.841   4.206
 5627SOL     OW17779   1.249   6.098   0.680
 5627SOL    HW117780   1.160   6.135   0.703
 5627SOL    HW217781   1.311   6.172   0.653
 5628SOL     OW17782   1.797   0.996   4.505
 5628SOL    HW117783   1.826   1.011   4.411
 5628SOL    HW217784   1.868   1.026   4.568
 5629SOL     OW17785   3.740   3.727   2.690
 5629SOL    HW117786   3.804   3.794   2.652
 5629SOL    HW217787   3.703   3.670   2.616
 5630SOL     OW17788   0.475   4.544   1.969
 5630SOL    HW117789   0.432   4.581   1.887
 5630SOL    HW217790   0.574   4.542   1.956
 5631SOL     OW17791   5.040   0.828   0.425
 5631SOL    HW117792   5.013   0.739   0.389
 5631SOL    HW217793   4.996   0.842   0.514
 5632SOL     OW17794   4.134   3.792   0.226
 5632SOL    HW117795   4.064   3.804   0.296
 5632SOL    HW217796   4.193   3.715   0.250
 5633SOL     OW17797   6.198   2.435   4.482
 5633SOL    HW117798   6.221   2.375   4.405
 5633SOL    HW217799   6.124   2.393   4.535
 5634SOL     OW17800   4.340   5.921   4.422
 5634SOL    HW117801   4.270   5.991   4.406
 5634SOL    HW217802   4.359   5.916   4.521
 5635SOL     OW17803   3.300   2.054   5.000
 5635SOL    HW117804   3.262   2.017   4.915
 5635SOL    HW217805   3.251   2.138   5.024
 5636SOL     OW17806   3.927   5.501   3.868
 5636SOL    HW117807   3.847   5.490   3.926
 5636SOL    HW217808   3.986   5.573   3.906
 5637SOL     OW17809   5.463   0.067   3.486
 5637SOL    HW117810   5.489   0.012   3.566
 5637SOL    HW217811   5.423   0.008   3.416
 5638SOL     OW17812   5.603   3.222   6.366
 5638SOL    HW117813   5.575   3.291   6.432
 5638SOL    HW217814   5.635   3.268   6.282
 5639SOL     OW17815   3.141   1.076   6.103
 5639SOL    HW117816   3.079   1.143   6.144
 5639SOL    HW217817   3.099   1.037   6.022
 5640SOL     OW17818   2.533   0.066   3.590
 5640SOL    HW117819   2.435   0.070   3.607
 5640SOL    HW217820   2.550   0.029   3.499
 5641SOL     OW17821   5.599   5.513   4.788
 5641SOL    HW117822   5.570   5.544   4.878
 5641SOL    HW217823   5.580   5.584   4.720
 5642SOL     OW17824   1.411   1.981   6.682
 5642SOL    HW117825   1.420   1.983   6.782
 5642SOL    HW217826   1.502   1.973   6.641
 5643SOL     OW17827   5.875   2.722   4.778
 5643SOL    HW117828   5.937   2.703   4.702
 5643SOL    HW217829   5.847   2.636   4.821
 5644SOL     OW17830   3.363   0.209   6.269
 5644SOL    HW117831   3.286   0.269   6.248
 5644SOL    HW217832   3.394   0.164   6.185
 5645SOL     OW17833   4.806   2.829   4.674
 5645SOL    HW117834   4.885   2.769   4.681
 5645SOL    HW217835   4.834   2.916   4.633
 5646SOL     OW17836   1.905   4.516   2.329
 5646SOL    HW117837   1.891   4.428   2.374
 5646SOL    HW217838   1.851   4.519   2.245
 5647SOL     OW17839   6.698   6.024   2.568
 5647SOL    HW117840   6.754   5.965   2.626
 5647SOL    HW217841   6.619   5.973   2.535
 5648SOL     OW17842   4.366   6.704   3.392
 5648SOL    HW117843   4.275   6.735   3.420
 5648SOL    HW217844   4.375   6.713   3.293
 5649SOL     OW17845   1.008   6.287   4.117
 5649SOL    HW117846   0.917   6.327   4.125
 5649SOL    HW217847   1.063   6.313   4.196
 5650SOL     OW17848   6.738   4.452   6.873
 5650SOL    HW117849   6.810   4.432   6.807
 5650SOL    HW217850   6.711   4.368   6.920
 5651SOL     OW17851   2.278   0.793   1.780
 5651SOL    HW117852   2.180   0.810   1.769
 5651SOL    HW217853   2.308   0.726   1.711
 5652SOL     OW17854   1.149   5.568   1.465
 5652SOL    HW117855   1.121   5.507   1.391
 5652SOL    HW217856   1.185   5.653   1.426
 5653SOL     OW17857   0.003   6.871   1.288
 5653SOL    HW117858   6.988   6.941   1.350
 5653SOL    HW217859   0.103   6.870   1.292
 5654SOL     OW17860   3.226   5.236   4.258
 5654SOL    HW117861   3.253   5.154   4.309
 5654SOL    HW217862   3.278   5.241   4.173
 5655SOL     OW17863   6.075   2.788   4.950
 5655SOL    HW117864   6.138   2.745   4.886
 5655SOL    HW217865   5.984   2.795   4.908
 5656SOL     OW17866   6.911   3.576   0.057
 5656SOL    HW117867   6.827   3.523   0.049
 5656SOL    HW217868   6.889   3.673   0.071
 5657SOL     OW17869   4.747   5.676   5.336
 5657SOL    HW117870   4.811   5.605   5.305
 5657SOL    HW217871   4.744   5.749   5.267
 5658SOL     OW17872   2.628   2.712   6.148
 5658SOL    HW117873   2.612   2.746   6.240
 5658SOL    HW217874   2.626   2.789   6.083
 5659SOL     OW17875   3.538   3.532   6.705
 5659SOL    HW117876   3.482   3.575   6.777
 5659SOL    HW217877   3.609   3.477   6.748
 5660SOL     OW17878   4.873   0.776   6.284
 5660SOL    HW117879   4.910   0.799   6.194
 5660SOL    HW217880   4.807   0.845   6.312
 5661SOL     OW17881   1.246   5.187   5.022
 5661SOL    HW117882   1.235   5.186   4.923
 5661SOL    HW217883   1.324   5.129   5.047
 5662SOL     OW17884   2.709   6.695   2.412
 5662SOL    HW117885   2.617   6.655   2.403
 5662SOL    HW217886   2.717   6.775   2.354
 5663SOL     OW17887   1.390   3.048   6.230
 5663SOL    HW117888   1.310   3.055   6.289
 5663SOL    HW217889   1.361   3.040   6.134
 5664SOL     OW17890   4.871   4.912   4.803
 5664SOL    HW117891   4.781   4.887   4.838
 5664SOL    HW217892   4.906   4.838   4.744
 5665SOL     OW17893   2.055   2.051   0.512
 5665SOL    HW117894   2.152   2.033   0.523
 5665SOL    HW217895   2.026   2.120   0.578
 5666SOL     OW17896   5.615   1.261   5.099
 5666SOL    HW117897   5.536   1.258   5.037
 5666SOL    HW217898   5.596   1.323   5.175
 5667SOL     OW17899   2.250   5.142   4.354
 5667SOL    HW117900   2.335   5.096   4.378
 5667SOL    HW217901   2.213   5.103   4.270
 5668SOL     OW17902   5.161   3.661   3.654
 5668SOL    HW117903   5.175   3.568   3.619
 5668SOL    HW217904   5.089   3.661   3.723
 5669SOL     OW17905   6.069   4.589   5.594
 5669SOL    HW117906   6.006   4.556   5.664
 5669SOL    HW217907   6.155   4.539   5.600
 5670SOL     OW17908   0.851   1.936   3.062
 5670SOL    HW117909   0.807   1.976   2.982
 5670SOL    HW217910   0.900   2.006   3.113
 5671SOL     OW17911   0.108   6.442   3.435
 5671SOL    HW117912   0.159   6.505   3.376
 5671SOL    HW217913   0.039   6.493   3.486
 5672SOL     OW17914   4.977   2.947   5.087
 5672SOL    HW117915   5.013   2.869   5.139
 5672SOL    HW217916   4.904   2.915   5.027
 5673SOL     OW17917   0.711   1.299   0.844
 5673SOL    HW117918   0.726   1.242   0.764
 5673SOL    HW217919   0.613   1.308   0.861
 5674SOL     OW17920   2.244   4.852   5.265
 5674SOL    HW117921   2.232   4.761   5.306
 5674SOL    HW217922   2.156   4.900   5.265
 5675SOL     OW17923   2.618   2.372   0.734
 5675SOL    HW117924   2.632   2.328   0.646
 5675SOL    HW217925   2.705   2.381   0.782
 5676SOL     OW17926   2.815   1.745   2.080
 5676SOL    HW117927   2.843   1.754   2.176
 5676SOL    HW217928   2.729   1.695   2.075
 5677SOL     OW17929   6.390   1.335   0.821
 5677SOL    HW117930   6.472   1.281   0.838
 5677SOL    HW217931   6.340   1.297   0.743
 5678SOL     OW17932   3.209   1.991   1.784
 5678SOL    HW117933   3.156   2.075   1.780
 5678SOL    HW217934   3.150   1.916   1.812
 5679SOL     OW17935   6.131   3.573   4.762
 5679SOL    HW117936   6.154   3.608   4.671
 5679SOL    HW217937   6.133   3.648   4.828
 5680SOL     OW17938   1.210   5.960   5.261
 5680SOL    HW117939   1.270   5.931   5.335
 5680SOL    HW217940   1.115   5.953   5.291
 5681SOL     OW17941   1.040   3.519   4.308
 5681SOL    HW117942   1.060   3.584   4.235
 5681SOL    HW217943   1.065   3.427   4.277
 5682SOL     OW17944   1.970   4.431   1.884
 5682SOL    HW117945   2.061   4.450   1.921
 5682SOL    HW217946   1.966   4.337   1.850
 5683SOL     OW17947   6.787   1.215   6.188
 5683SOL    HW117948   6.824   1.306   6.174
 5683SOL    HW217949   6.862   1.149   6.190
 5684SOL     OW17950   2.313   2.399   4.697
 5684SOL    HW117951   2.364   2.321   4.661
 5684SOL    HW217952   2.372   2.480   4.700
 5685SOL     OW17953   2.524   1.928   2.393
 5685SOL    HW117954   2.500   1.985   2.472
 5685SOL    HW217955   2.604   1.872   2.416
 5686SOL     OW17956   4.168   5.387   6.024
 5686SOL    HW117957   4.135   5.475   5.992
 5686SOL    HW217958   4.135   5.315   5.963
 5687SOL     OW17959   2.260   6.473   6.729
 5687SOL    HW117960   2.250   6.541   6.657
 5687SOL    HW217961   2.252   6.517   6.818
 5688SOL     OW17962   1.992   1.907   3.562
 5688SOL    HW117963   2.007   1.875   3.656
 5688SOL    HW217964   1.930   1.844   3.515
 5689SOL     OW17965   0.493   2.893   1.537
 5689SOL    HW117966   0.453   2.984   1.547
 5689SOL    HW217967   0.465   2.836   1.614
 5690SOL     OW17968   1.792   4.821   0.156
 5690SOL    HW117969   1.880   4.797   0.198
 5690SOL    HW217970   1.769   4.916   0.178
 5691SOL     OW17971   3.301   0.999   2.747
 5691SOL    HW117972   3.279   1.078   2.690
 5691SOL    HW217973   3.401   0.992   2.756
 5692SOL     OW17974   4.548   4.999   2.198
 5692SOL    HW117975   4.589   4.960   2.116
 5692SOL    HW217976   4.605   5.073   2.233
 5693SOL     OW17977   4.607   0.886   1.219
 5693SOL    HW117978   4.594   0.973   1.267
 5693SOL    HW217979   4.563   0.890   1.129
 5694SOL     OW17980   0.743   6.297   1.735
 5694SOL    HW117981   0.835   6.332   1.717
 5694SOL    HW217982   0.749   6.201   1.760
 5695SOL     OW17983   2.058   0.680   1.161
 5695SOL    HW117984   2.074   0.739   1.240
 5695SOL    HW217985   2.052   0.585   1.190
 5696SOL     OW17986   1.496   0.421   4.151
 5696SOL    HW117987   1.574   0.475   4.184
 5696SOL    HW217988   1.453   0.468   4.074
 5697SOL     OW17989   6.368   3.401   0.901
 5697SOL    HW117990   6.390   3.324   0.841
 5697SOL    HW217991   6.370   3.371   0.996
 5698SOL     OW17992   2.654   2.355   4.031
 5698SOL    HW117993   2.587   2.419   3.993
 5698SOL    HW217994   2.644   2.353   4.131
 5699SOL     OW17995   1.781   2.937   2.859
 5699SOL    HW117996   1.708   2.947   2.791
 5699SOL    HW217997   1.748   2.970   2.948
 5700SOL     OW17998   6.204   0.374   2.936
 5700SOL    HW117999   6.245   0.283   2.930
 5700SOL    HW218000   6.105   0.366   2.931
 5701SOL     OW18001   0.350   0.757   1.013
 5701SOL    HW118002   0.373   0.692   1.086
 5701SOL    HW218003   0.343   0.849   1.052
 5702SOL     OW18004   2.686   6.670   4.529
 5702SOL    HW118005   2.649   6.601   4.591
 5702SOL    HW218006   2.619   6.689   4.457
 5703SOL     OW18007   6.674   2.927   6.178
 5703SOL    HW118008   6.674   2.831   6.206
 5703SOL    HW218009   6.756   2.972   6.214
 5704SOL     OW18010   4.316   5.228   4.123
 5704SOL    HW118011   4.239   5.242   4.061
 5704SOL    HW218012   4.310   5.293   4.199
 5705SOL     OW18013   6.263   0.005   5.566
 5705SOL    HW118014   6.336   0.061   5.527
 5705SOL    HW218015   6.187   0.064   5.593
 5706SOL     OW18016   5.052   2.115   6.796
 5706SOL    HW118017   4.955   2.133   6.810
 5706SOL    HW218018   5.064   2.048   6.722
 5707SOL     OW18019   5.166   5.731   1.771
 5707SOL    HW118020   5.189   5.828   1.784
 5707SOL    HW218021   5.089   5.724   1.707
 5708SOL     OW18022   4.474   6.036   2.709
 5708SOL    HW118023   4.443   6.001   2.621
 5708SOL    HW218024   4.463   5.966   2.779
 5709SOL     OW18025   0.071   2.014   2.390
 5709SOL    HW118026   0.035   2.065   2.312
 5709SOL    HW218027   0.027   2.046   2.474
 5710SOL     OW18028   3.296   1.823   1.163
 5710SOL    HW118029   3.362   1.894   1.189
 5710SOL    HW218030   3.271   1.769   1.244
 5711SOL     OW18031   5.220   1.664   2.764
 5711SOL    HW118032   5.284   1.593   2.795
 5711SOL    HW218033   5.230   1.676   2.665
 5712SOL     OW18034   6.168   0.269   0.951
 5712SOL    HW118035   6.229   0.346   0.931
 5712SOL    HW218036   6.107   0.255   0.873
 5713SOL     OW18037   2.527   0.788   0.744
 5713SOL    HW118038   2.509   0.807   0.841
 5713SOL    HW218039   2.604   0.726   0.736
 5714SOL     OW18040   6.336   0.067   0.885
 5714SOL    HW118041   6.429   0.067   0.923
 5714SOL    HW218042   6.285   0.144   0.924
 5715SOL     OW18043   0.102   0.214   1.600
 5715SOL    HW118044   0.047   0.296   1.614
 5715SOL    HW218045   0.163   0.200   1.677
 5716SOL     OW18046   6.248   4.742   4.560
 5716SOL    HW118047   6.304   4.708   4.484
 5716SOL    HW218048   6.248   4.674   4.633
 5717SOL     OW18049   1.624   5.370   3.123
 5717SOL    HW118050   1.598   5.293   3.065
 5717SOL    HW218051   1.572   5.451   3.096
 5718SOL     OW18052   0.968   3.243   0.067
 5718SOL    HW118053   1.033   3.280   0.002
 5718SOL    HW218054   0.955   3.308   0.142
 5719SOL     OW18055   2.228   3.304   0.577
 5719SOL    HW118056   2.151   3.357   0.611
 5719SOL    HW218057   2.194   3.220   0.534
 5720SOL     OW18058   2.842   5.067   5.828
 5720SOL    HW118059   2.767   5.066   5.762
 5720SOL    HW218060   2.923   5.025   5.787
 5721SOL     OW18061   1.966   3.321   0.359
 5721SOL    HW118062   1.905   3.249   0.327
 5721SOL    HW218063   2.047   3.324   0.301
 5722SOL     OW18064   1.781   0.877   6.314
 5722SOL    HW118065   1.865   0.823   6.317
 5722SOL    HW218066   1.764   0.916   6.404
 5723SOL     OW18067   4.145   3.209   0.730
 5723SOL    HW118068   4.155   3.308   0.742
 5723SOL    HW218069   4.076   3.174   0.794
 5724SOL     OW18070   5.426   1.980   5.277
 5724SOL    HW118071   5.466   1.891   5.298
 5724SOL    HW218072   5.326   1.973   5.281
 5725SOL     OW18073   6.852   4.125   4.194
 5725SOL    HW118074   6.911   4.109   4.273
 5725SOL    HW218075   6.816   4.218   4.197
 5726SOL     OW18076   5.386   4.145   2.312
 5726SOL    HW118077   5.396   4.244   2.301
 5726SOL    HW218078   5.290   4.123   2.329
 5727SOL     OW18079   0.443   1.858   5.318
 5727SOL    HW118080   0.403   1.946   5.292
 5727SOL    HW218081   0.454   1.854   5.417
 5728SOL     OW18082   4.701   6.660   5.274
 5728SOL    HW118083   4.796   6.648   5.303
 5728SOL    HW218084   4.697   6.730   5.203
 5729SOL     OW18085   2.457   1.999   4.880
 5729SOL    HW118086   2.368   2.018   4.837
 5729SOL    HW218087   2.526   1.983   4.809
 5730SOL     OW18088   6.942   4.045   4.669
 5730SOL    HW118089   6.997   4.084   4.743
 5730SOL    HW218090   6.997   4.039   4.586
 5731SOL     OW18091   0.749   6.926   2.669
 5731SOL    HW118092   0.764   7.007   2.614
 5731SOL    HW218093   0.836   6.894   2.707
 5732SOL     OW18094   0.437   0.147   3.657
 5732SOL    HW118095   0.530   0.170   3.627
 5732SOL    HW218096   0.437   0.055   3.697
 5733SOL     OW18097   3.044   6.950   5.692
 5733SOL    HW118098   3.038   6.871   5.631
 5733SOL    HW218099   3.052   0.013   5.637
 5734SOL     OW18100   1.830   6.217   3.320
 5734SOL    HW118101   1.919   6.171   3.319
 5734SOL    HW218102   1.830   6.289   3.389
 5735SOL     OW18103   3.045   1.193   1.544
 5735SOL    HW118104   2.967   1.255   1.538
 5735SOL    HW218105   3.046   1.132   1.464
 5736SOL     OW18106   1.231   5.159   6.715
 5736SOL    HW118107   1.153   5.131   6.658
 5736SOL    HW218108   1.215   5.128   6.809
 5737SOL     OW18109   5.222   4.242   0.876
 5737SOL    HW118110   5.318   4.268   0.887
 5737SOL    HW218111   5.211   4.144   0.897
 5738SOL     OW18112   1.274   4.013   6.070
 5738SOL    HW118113   1.195   4.026   6.011
 5738SOL    HW218114   1.356   4.050   6.025
 5739SOL     OW18115   1.190   1.503   1.699
 5739SOL    HW118116   1.258   1.569   1.668
 5739SOL    HW218117   1.149   1.457   1.621
 5740SOL     OW18118   4.016   5.679   6.386
 5740SOL    HW118119   3.981   5.636   6.303
 5740SOL    HW218120   3.964   5.762   6.405
 5741SOL     OW18121   6.881   4.406   2.808
 5741SOL    HW118122   6.952   4.404   2.737
 5741SOL    HW218123   6.917   4.449   2.890
 5742SOL     OW18124   6.887   6.346   5.046
 5742SOL    HW118125   6.817   6.409   5.080
 5742SOL    HW218126   6.846   6.255   5.036
 5743SOL     OW18127   1.711   6.718   4.025
 5743SOL    HW118128   1.647   6.646   3.999
 5743SOL    HW218129   1.660   6.800   4.053
 5744SOL     OW18130   5.598   6.659   1.737
 5744SOL    HW118131   5.639   6.750   1.747
 5744SOL    HW218132   5.599   6.633   1.641
 5745SOL     OW18133   1.120   1.982   3.687
 5745SOL    HW118134   1.177   1.980   3.605
 5745SOL    HW218135   1.041   2.040   3.671
 5746SOL     OW18136   6.386   4.543   6.981
 5746SOL    HW118137   6.457   4.546   0.031
 5746SOL    HW218138   6.319   4.473   7.005
 5747SOL     OW18139   0.625   6.295   2.867
 5747SOL    HW118140   0.592   6.263   2.956
 5747SOL    HW218141   0.547   6.314   2.808
 5748SOL     OW18142   2.201   6.572   3.399
 5748SOL    HW118143   2.185   6.494   3.460
 5748SOL    HW218144   2.128   6.577   3.332
 5749SOL     OW18145   2.456   1.578   2.936
 5749SOL    HW118146   2.537   1.518   2.933
 5749SOL    HW218147   2.454   1.633   2.853
 5750SOL     OW18148   6.273   5.561   2.798
 5750SOL    HW118149   6.237   5.559   2.705
 5750SOL    HW218150   6.332   5.482   2.813
 5751SOL     OW18151   1.746   3.027   6.049
 5751SOL    HW118152   1.710   3.050   6.140
 5751SOL    HW218153   1.715   2.935   6.024
 5752SOL     OW18154   0.242   1.393   0.238
 5752SOL    HW118155   0.325   1.358   0.196
 5752SOL    HW218156   0.172   1.321   0.240
 5753SOL     OW18157   4.534   2.301   0.378
 5753SOL    HW118158   4.634   2.298   0.381
 5753SOL    HW218159   4.496   2.240   0.448
 5754SOL     OW18160   6.041   4.812   0.781
 5754SOL    HW118161   6.092   4.893   0.809
 5754SOL    HW218162   6.087   4.769   0.702
 5755SOL     OW18163   3.241   3.581   1.408
 5755SOL    HW118164   3.340   3.580   1.426
 5755SOL    HW218165   3.194   3.534   1.483
 5756SOL     OW18166   6.828   6.849   4.644
 5756SOL    HW118167   6.920   6.888   4.638
 5756SOL    HW218168   6.835   6.749   4.646
 5757SOL     OW18169   0.153   6.038   1.775
 5757SOL    HW118170   0.235   5.983   1.785
 5757SOL    HW218171   0.132   6.049   1.678
 5758SOL     OW18172   1.767   1.343   5.881
 5758SOL    HW118173   1.720   1.359   5.968
 5758SOL    HW218174   1.794   1.246   5.875
 5759SOL     OW18175   6.134   1.715   5.361
 5759SOL    HW118176   6.177   1.796   5.399
 5759SOL    HW218177   6.049   1.695   5.410
 5760SOL     OW18178   1.416   5.486   1.525
 5760SOL    HW118179   1.361   5.569   1.521
 5760SOL    HW218180   1.372   5.420   1.586
 5761SOL     OW18181   5.377   0.992   5.014
 5761SOL    HW118182   5.421   1.038   4.937
 5761SOL    HW218183   5.371   1.055   5.092
 5762SOL     OW18184   5.587   6.136   1.508
 5762SOL    HW118185   5.557   6.145   1.413
 5762SOL    HW218186   5.643   6.215   1.532
 5763SOL     OW18187   1.372   1.540   1.349
 5763SOL    HW118188   1.332   1.462   1.300
 5763SOL    HW218189   1.419   1.599   1.284
 5764SOL     OW18190   4.620   3.093   5.702
 5764SOL    HW118191   4.622   3.193   5.689
 5764SOL    HW218192   4.595   3.050   5.616
 5765SOL     OW18193   6.031   5.143   0.518
 5765SOL    HW118194   5.947   5.169   0.470
 5765SOL    HW218195   6.083   5.226   0.540
 5766SOL     OW18196   2.820   0.878   3.619
 5766SOL    HW118197   2.838   0.882   3.521
 5766SOL    HW218198   2.883   0.813   3.661
 5767SOL     OW18199   6.635   0.199   0.750
 5767SOL    HW118200   6.664   0.104   0.735
 5767SOL    HW218201   6.539   0.200   0.778
 5768SOL     OW18202   6.146   0.356   2.598
 5768SOL    HW118203   6.061   0.346   2.547
 5768SOL    HW218204   6.139   0.433   2.660
 5769SOL     OW18205   2.060   5.810   3.408
 5769SOL    HW118206   2.071   5.737   3.340
 5769SOL    HW218207   2.127   5.799   3.480
 5770SOL     OW18208   6.056   1.463   1.684
 5770SOL    HW118209   6.034   1.555   1.718
 5770SOL    HW218210   6.143   1.465   1.635
 5771SOL     OW18211   0.379   1.339   2.086
 5771SOL    HW118212   0.345   1.286   2.008
 5771SOL    HW218213   0.433   1.416   2.054
 5772SOL     OW18214   6.933   4.389   6.672
 5772SOL    HW118215   6.923   4.327   6.594
 5772SOL    HW218216   6.963   4.479   6.640
 5773SOL     OW18217   5.026   6.137   4.607
 5773SOL    HW118218   4.997   6.187   4.526
 5773SOL    HW218219   5.093   6.190   4.658
 5774SOL     OW18220   3.079   4.968   2.525
 5774SOL    HW118221   3.009   4.997   2.591
 5774SOL    HW218222   3.083   5.035   2.450
 5775SOL     OW18223   0.998   0.611   0.381
 5775SOL    HW118224   1.097   0.627   0.374
 5775SOL    HW218225   0.970   0.545   0.311
 5776SOL     OW18226   4.975   1.415   6.114
 5776SOL    HW118227   4.975   1.506   6.073
 5776SOL    HW218228   5.001   1.422   6.210
 5777SOL     OW18229   5.776   1.029   5.764
 5777SOL    HW118230   5.827   1.099   5.714
 5777SOL    HW218231   5.679   1.036   5.742
 5778SOL     OW18232   2.429   6.674   3.831
 5778SOL    HW118233   2.371   6.755   3.825
 5778SOL    HW218234   2.372   6.592   3.818
 5779SOL     OW18235   4.219   0.705   1.669
 5779SOL    HW118236   4.142   0.660   1.623
 5779SOL    HW218237   4.243   0.653   1.752
 5780SOL     OW18238   5.777   3.492   1.383
 5780SOL    HW118239   5.777   3.565   1.315
 5780SOL    HW218240   5.690   3.491   1.431
 5781SOL     OW18241   2.945   4.789   5.262
 5781SOL    HW118242   2.875   4.791   5.334
 5781SOL    HW218243   2.929   4.710   5.203
 5782SOL     OW18244   4.031   1.573   3.345
 5782SOL    HW118245   4.078   1.659   3.325
 5782SOL    HW218246   4.095   1.510   3.388
 5783SOL     OW18247   2.611   6.528   1.563
 5783SOL    HW118248   2.628   6.625   1.545
 5783SOL    HW218249   2.586   6.482   1.478
 5784SOL     OW18250   1.167   5.416   0.395
 5784SOL    HW118251   1.194   5.424   0.298
 5784SOL    HW218252   1.099   5.344   0.405
 5785SOL     OW18253   2.798   1.207   0.164
 5785SOL    HW118254   2.836   1.298   0.148
 5785SOL    HW218255   2.807   1.152   0.080
 5786SOL     OW18256   0.637   3.093   6.777
 5786SOL    HW118257   0.614   3.004   6.737
 5786SOL    HW218258   0.735   3.111   6.765
 5787SOL     OW18259   0.026   3.072   5.393
 5787SOL    HW118260   7.007   3.155   5.352
 5787SOL    HW218261   0.041   3.087   5.491
 5788SOL     OW18262   1.823   2.355   2.161
 5788SOL    HW118263   1.887   2.279   2.174
 5788SOL    HW218264   1.739   2.336   2.213
 5789SOL     OW18265   2.910   4.977   0.142
 5789SOL    HW118266   2.896   5.075   0.154
 5789SOL    HW218267   3.004   4.953   0.170
 5790SOL     OW18268   6.483   6.427   2.857
 5790SOL    HW118269   6.506   6.401   2.764
 5790SOL    HW218270   6.566   6.426   2.914
 5791SOL     OW18271   4.282   1.315   1.063
 5791SOL    HW118272   4.242   1.258   1.135
 5791SOL    HW218273   4.336   1.389   1.105
 5792SOL     OW18274   4.071   2.224   3.076
 5792SOL    HW118275   4.059   2.178   2.988
 5792SOL    HW218276   4.169   2.242   3.090
 5793SOL     OW18277   3.869   2.577   6.763
 5793SOL    HW118278   3.888   2.528   6.848
 5793SOL    HW218279   3.872   2.512   6.686
 5794SOL     OW18280   3.717   5.944   6.966
 5794SOL    HW118281   3.677   5.905   0.029
 5794SOL    HW218282   3.781   5.878   6.926
 5795SOL     OW18283   1.999   6.938   1.559
 5795SOL    HW118284   1.982   0.015   1.543
 5795SOL    HW218285   1.938   6.904   1.631
 5796SOL     OW18286   5.083   0.987   6.831
 5796SOL    HW118287   5.068   0.919   6.903
 5796SOL    HW218288   5.103   0.941   6.745
 5797SOL     OW18289   0.175   2.682   0.520
 5797SOL    HW118290   0.152   2.763   0.575
 5797SOL    HW218291   0.264   2.646   0.548
 5798SOL     OW18292   1.752   3.328   4.137
 5798SOL    HW118293   1.803   3.344   4.053
 5798SOL    HW218294   1.774   3.399   4.204
 5799SOL     OW18295   2.807   0.158   3.385
 5799SOL    HW118296   2.817   0.060   3.400
 5799SOL    HW218297   2.889   0.206   3.414
 5800SOL     OW18298   1.077   7.019   2.109
 5800SOL    HW118299   1.158   0.002   2.051
 5800SOL    HW218300   1.091   6.952   2.182
 5801SOL     OW18301   1.861   1.252   2.420
 5801SOL    HW118302   1.929   1.181   2.439
 5801SOL    HW218303   1.769   1.211   2.421
 5802SOL     OW18304   0.854   0.231   2.947
 5802SOL    HW118305   0.941   0.196   2.914
 5802SOL    HW218306   0.786   0.158   2.947
 5803SOL     OW18307   0.352   6.410   4.509
 5803SOL    HW118308   0.307   6.322   4.527
 5803SOL    HW218309   0.285   6.477   4.478
 5804SOL     OW18310   6.391   1.883   3.165
 5804SOL    HW118311   6.340   1.900   3.081
 5804SOL    HW218312   6.462   1.953   3.175
 5805SOL     OW18313   1.190   2.789   2.017
 5805SOL    HW118314   1.175   2.841   1.933
 5805SOL    HW218315   1.239   2.704   1.996
 5806SOL     OW18316   6.794   3.633   2.535
 5806SOL    HW118317   6.852   3.710   2.508
 5806SOL    HW218318   6.699   3.663   2.542
 5807SOL     OW18319   1.216   0.931   2.205
 5807SOL    HW118320   1.199   0.833   2.195
 5807SOL    HW218321   1.129   0.978   2.216
 5808SOL     OW18322   0.355   0.577   5.712
 5808SOL    HW118323   0.356   0.480   5.736
 5808SOL    HW218324   0.261   0.605   5.691
 5809SOL     OW18325   0.537   3.675   4.889
 5809SOL    HW118326   0.621   3.683   4.836
 5809SOL    HW218327   0.549   3.718   4.979
 5810SOL     OW18328   2.642   6.009   5.023
 5810SOL    HW118329   2.725   6.031   5.074
 5810SOL    HW218330   2.587   6.092   5.011
 5811SOL     OW18331   4.066   4.315   6.553
 5811SOL    HW118332   4.027   4.236   6.507
 5811SOL    HW218333   4.021   4.328   6.642
 5812SOL     OW18334   5.587   2.771   6.514
 5812SOL    HW118335   5.576   2.845   6.447
 5812SOL    HW218336   5.573   2.683   6.469
 5813SOL     OW18337   4.989   5.101   0.921
 5813SOL    HW118338   4.996   5.025   0.986
 5813SOL    HW218339   5.018   5.070   0.831
 5814SOL     OW18340   6.344   0.973   2.204
 5814SOL    HW118341   6.330   1.039   2.278
 5814SOL    HW218342   6.393   1.017   2.129
 5815SOL     OW18343   6.150   3.141   4.453
 5815SOL    HW118344   6.219   3.181   4.514
 5815SOL    HW218345   6.088   3.084   4.505
 5816SOL     OW18346   6.842   3.796   1.848
 5816SOL    HW118347   6.852   3.844   1.760
 5816SOL    HW218348   6.763   3.735   1.842
 5817SOL     OW18349   6.389   2.811   3.453
 5817SOL    HW118350   6.328   2.762   3.391
 5817SOL    HW218351   6.396   2.906   3.425
 5818SOL     OW18352   2.397   0.469   4.706
 5818SOL    HW118353   2.359   0.377   4.700
 5818SOL    HW218354   2.426   0.499   4.615
 5819SOL     OW18355   3.935   3.827   0.402
 5819SOL    HW118356   3.857   3.794   0.348
 5819SOL    HW218357   3.901   3.878   0.481
 5820SOL     OW18358   6.508   0.248   3.141
 5820SOL    HW118359   6.606   0.249   3.158
 5820SOL    HW218360   6.490   0.252   3.043
 5821SOL     OW18361   6.641   6.946   1.858
 5821SOL    HW118362   6.678   0.019   1.859
 5821SOL    HW218363   6.704   6.884   1.905
 5822SOL     OW18364   0.941   4.150   2.796
 5822SOL    HW118365   0.937   4.050   2.799
 5822SOL    HW218366   1.035   4.178   2.774
 5823SOL     OW18367   2.491   6.790   4.401
 5823SOL    HW118368   2.434   6.818   4.478
 5823SOL    HW218369   2.460   6.837   4.318
 5824SOL     OW18370   1.771   0.034   2.297
 5824SOL    HW118371   1.721   7.013   2.221
 5824SOL    HW218372   1.804   0.124   2.271
 5825SOL     OW18373   4.827   1.646   3.953
 5825SOL    HW118374   4.906   1.681   3.902
 5825SOL    HW218375   4.753   1.626   3.889
 5826SOL     OW18376   1.516   6.306   5.026
 5826SOL    HW118377   1.532   6.325   4.929
 5826SOL    HW218378   1.574   6.230   5.055
 5827SOL     OW18379   2.070   3.729   3.216
 5827SOL    HW118380   2.095   3.814   3.263
 5827SOL    HW218381   2.075   3.744   3.117
 5828SOL     OW18382   4.908   0.829   5.774
 5828SOL    HW118383   4.953   0.785   5.696
 5828SOL    HW218384   4.817   0.860   5.747
 5829SOL     OW18385   2.260   0.777   3.250
 5829SOL    HW118386   2.203   0.840   3.198
 5829SOL    HW218387   2.272   0.811   3.343
 5830SOL     OW18388   4.185   4.947   4.473
 5830SOL    HW118389   4.259   5.013   4.477
 5830SOL    HW218390   4.180   4.897   4.559
 5831SOL     OW18391   2.497   2.589   4.676
 5831SOL    HW118392   2.591   2.572   4.646
 5831SOL    HW218393   2.497   2.620   4.771
 5832SOL     OW18394   3.159   5.651   2.804
 5832SOL    HW118395   3.157   5.612   2.712
 5832SOL    HW218396   3.252   5.682   2.824
 5833SOL     OW18397   3.766   5.603   0.284
 5833SOL    HW118398   3.691   5.590   0.349
 5833SOL    HW218399   3.853   5.598   0.332
 5834SOL     OW18400   6.642   3.316   5.662
 5834SOL    HW118401   6.666   3.283   5.753
 5834SOL    HW218402   6.581   3.395   5.670
 5835SOL     OW18403   4.534   1.353   3.204
 5835SOL    HW118404   4.503   1.363   3.298
 5835SOL    HW218405   4.508   1.262   3.170
 5836SOL     OW18406   4.434   6.078   1.664
 5836SOL    HW118407   4.432   6.093   1.565
 5836SOL    HW218408   4.521   6.036   1.689
 5837SOL     OW18409   3.281   4.509   6.268
 5837SOL    HW118410   3.250   4.490   6.174
 5837SOL    HW218411   3.251   4.435   6.328
 5838SOL     OW18412   3.420   3.333   0.230
 5838SOL    HW118413   3.401   3.404   0.298
 5838SOL    HW218414   3.476   3.261   0.272
 5839SOL     OW18415   1.925   1.825   0.441
 5839SOL    HW118416   1.841   1.811   0.494
 5839SOL    HW218417   1.987   1.885   0.491
 5840SOL     OW18418   0.770   3.711   3.434
 5840SOL    HW118419   0.841   3.780   3.448
 5840SOL    HW218420   0.702   3.746   3.370
 5841SOL     OW18421   5.534   1.652   0.361
 5841SOL    HW118422   5.623   1.626   0.324
 5841SOL    HW218423   5.500   1.733   0.313
 5842SOL     OW18424   3.394   2.016   1.526
 5842SOL    HW118425   3.454   2.048   1.600
 5842SOL    HW218426   3.307   1.988   1.565
 5843SOL     OW18427   3.787   3.216   0.173
 5843SOL    HW118428   3.762   3.311   0.194
 5843SOL    HW218429   3.865   3.215   0.110
 5844SOL     OW18430   0.501   5.431   5.156
 5844SOL    HW118431   0.590   5.416   5.113
 5844SOL    HW218432   0.443   5.351   5.140
 5845SOL     OW18433   1.974   0.242   2.732
 5845SOL    HW118434   1.895   0.232   2.792
 5845SOL    HW218435   2.041   0.303   2.774
 5846SOL     OW18436   0.659   4.441   4.975
 5846SOL    HW118437   0.562   4.432   4.950
 5846SOL    HW218438   0.676   4.388   5.058
 5847SOL     OW18439   1.625   3.877   6.405
 5847SOL    HW118440   1.669   3.936   6.336
 5847SOL    HW218441   1.548   3.926   6.445
 5848SOL     OW18442   2.349   6.315   1.464
 5848SOL    HW118443   2.303   6.244   1.412
 5848SOL    HW218444   2.309   6.404   1.441
 5849SOL     OW18445   2.998   5.381   6.782
 5849SOL    HW118446   3.052   5.350   6.704
 5849SOL    HW218447   3.007   5.480   6.793
 5850SOL     OW18448   0.030   1.665   1.483
 5850SOL    HW118449   0.110   1.613   1.452
 5850SOL    HW218450   6.987   1.678   1.406
 5851SOL     OW18451   6.669   3.528   4.351
 5851SOL    HW118452   6.577   3.545   4.389
 5851SOL    HW218453   6.674   3.434   4.318
 5852SOL     OW18454   4.718   4.256   2.183
 5852SOL    HW118455   4.623   4.281   2.164
 5852SOL    HW218456   4.741   4.280   2.277
 5853SOL     OW18457   4.548   4.775   6.743
 5853SOL    HW118458   4.574   4.864   6.707
 5853SOL    HW218459   4.450   4.761   6.731
 5854SOL     OW18460   3.195   4.833   5.394
 5854SOL    HW118461   3.247   4.772   5.453
 5854SOL    HW218462   3.101   4.798   5.384
 5855SOL     OW18463   2.335   2.701   3.392
 5855SOL    HW118464   2.381   2.673   3.476
 5855SOL    HW218465   2.270   2.631   3.364
 5856SOL     OW18466   1.036   6.851   2.705
 5856SOL    HW118467   1.078   6.829   2.793
 5856SOL    HW218468   1.102   6.835   2.632
 5857SOL     OW18469   5.523   4.673   6.552
 5857SOL    HW118470   5.510   4.736   6.628
 5857SOL    HW218471   5.516   4.579   6.585
 5858SOL     OW18472   2.276   1.328   2.581
 5858SOL    HW118473   2.341   1.403   2.573
 5858SOL    HW218474   2.185   1.365   2.601
 5859SOL     OW18475   5.376   5.602   1.899
 5859SOL    HW118476   5.311   5.656   1.846
 5859SOL    HW218477   5.417   5.659   1.970
 5860SOL     OW18478   0.842   4.337   2.599
 5860SOL    HW118479   0.804   4.285   2.523
 5860SOL    HW218480   0.914   4.284   2.644
 5861SOL     OW18481   4.905   0.906   6.038
 5861SOL    HW118482   4.930   1.002   6.049
 5861SOL    HW218483   4.913   0.880   5.942
 5862SOL     OW18484   6.684   4.921   3.457
 5862SOL    HW118485   6.695   4.896   3.553
 5862SOL    HW218486   6.684   5.020   3.448
 5863SOL     OW18487   3.986   0.074   6.141
 5863SOL    HW118488   3.918   0.080   6.214
 5863SOL    HW218489   3.974   7.007   6.092
 5864SOL     OW18490   4.157   3.518   2.537
 5864SOL    HW118491   4.132   3.421   2.532
 5864SOL    HW218492   4.162   3.547   2.632
 5865SOL     OW18493   6.757   0.388   7.009
 5865SOL    HW118494   6.764   0.438   0.076
 5865SOL    HW218495   6.713   0.446   6.941
 5866SOL     OW18496   3.404   3.056   2.603
 5866SOL    HW118497   3.396   3.032   2.700
 5866SOL    HW218498   3.430   2.974   2.551
 5867SOL     OW18499   3.255   1.591   1.386
 5867SOL    HW118500   3.200   1.509   1.373
 5867SOL    HW218501   3.298   1.590   1.476
 5868SOL     OW18502   0.959   0.703   0.805
 5868SOL    HW118503   0.946   0.785   0.750
 5868SOL    HW218504   0.874   0.651   0.809
 5869SOL     OW18505   1.389   5.719   3.223
 5869SOL    HW118506   1.425   5.676   3.306
 5869SOL    HW218507   1.292   5.740   3.236
 5870SOL     OW18508   4.217   0.398   3.877
 5870SOL    HW118509   4.168   0.485   3.888
 5870SOL    HW218510   4.217   0.350   3.964
 5871SOL     OW18511   4.146   3.472   3.849
 5871SOL    HW118512   4.177   3.454   3.756
 5871SOL    HW218513   4.067   3.413   3.869
 5872SOL     OW18514   4.314   6.441   0.597
 5872SOL    HW118515   4.239   6.378   0.614
 5872SOL    HW218516   4.282   6.515   0.538
 5873SOL     OW18517   3.527   5.940   1.770
 5873SOL    HW118518   3.624   5.915   1.765
 5873SOL    HW218519   3.512   6.024   1.717
 5874SOL     OW18520   0.873   4.059   5.136
 5874SOL    HW118521   0.938   4.087   5.206
 5874SOL    HW218522   0.920   4.043   5.049
 5875SOL     OW18523   3.801   1.876   1.147
 5875SOL    HW118524   3.881   1.834   1.189
 5875SOL    HW218525   3.811   1.975   1.146
 5876SOL     OW18526   3.048   3.714   2.081
 5876SOL    HW118527   3.056   3.812   2.101
 5876SOL    HW218528   2.987   3.702   2.002
 5877SOL     OW18529   5.363   4.660   1.546
 5877SOL    HW118530   5.267   4.685   1.549
 5877SOL    HW218531   5.394   4.633   1.637
 5878SOL     OW18532   1.869   3.648   2.702
 5878SOL    HW118533   1.892   3.745   2.711
 5878SOL    HW218534   1.926   3.607   2.631
 5879SOL     OW18535   1.222   4.414   3.699
 5879SOL    HW118536   1.250   4.326   3.660
 5879SOL    HW218537   1.304   4.468   3.722
 5880SOL     OW18538   3.729   6.160   0.094
 5880SOL    HW118539   3.719   6.081   0.034
 5880SOL    HW218540   3.801   6.143   0.161
 5881SOL     OW18541   0.859   6.062   4.188
 5881SOL    HW118542   0.886   5.971   4.154
 5881SOL    HW218543   0.902   6.132   4.132
 5882SOL     OW18544   4.788   0.354   2.695
 5882SOL    HW118545   4.730   0.410   2.754
 5882SOL    HW218546   4.858   0.310   2.750
 5883SOL     OW18547   0.898   3.557   5.300
 5883SOL    HW118548   0.926   3.519   5.388
 5883SOL    HW218549   0.936   3.649   5.290
 5884SOL     OW18550   0.839   0.765   3.766
 5884SOL    HW118551   0.864   0.808   3.679
 5884SOL    HW218552   0.771   0.694   3.750
 5885SOL     OW18553   6.101   6.309   1.438
 5885SOL    HW118554   6.085   6.211   1.428
 5885SOL    HW218555   6.102   6.352   1.348
 5886SOL     OW18556   0.010   1.151   6.475
 5886SOL    HW118557   7.010   1.054   6.456
 5886SOL    HW218558   0.108   1.163   6.487
 5887SOL     OW18559   3.897   5.886   2.847
 5887SOL    HW118560   3.827   5.925   2.906
 5887SOL    HW218561   3.871   5.899   2.751
 5888SOL     OW18562   0.721   0.933   2.680
 5888SOL    HW118563   0.697   1.025   2.713
 5888SOL    HW218564   0.819   0.919   2.690
 5889SOL     OW18565   2.333   6.894   6.570
 5889SOL    HW118566   2.397   6.851   6.507
 5889SOL    HW218567   2.246   6.845   6.567
 5890SOL     OW18568   3.395   4.401   5.621
 5890SOL    HW118569   3.403   4.486   5.570
 5890SOL    HW218570   3.462   4.335   5.586
 5891SOL     OW18571   2.123   3.540   6.501
 5891SOL    HW118572   2.088   3.633   6.505
 5891SOL    HW218573   2.135   3.505   6.594
 5892SOL     OW18574   2.313   6.522   2.179
 5892SOL    HW118575   2.312   6.619   2.154
 5892SOL    HW218576   2.388   6.476   2.130
 5893SOL     OW18577   2.079   1.014   3.396
 5893SOL    HW118578   2.134   0.983   3.474
 5893SOL    HW218579   2.137   1.065   3.333
 5894SOL     OW18580   0.734   3.172   3.529
 5894SOL    HW118581   0.801   3.121   3.582
 5894SOL    HW218582   0.705   3.117   3.451
 5895SOL     OW18583   5.516   4.204   3.328
 5895SOL    HW118584   5.559   4.170   3.412
 5895SOL    HW218585   5.554   4.156   3.249
 5896SOL     OW18586   4.883   2.947   5.369
 5896SOL    HW118587   4.930   2.963   5.282
 5896SOL    HW218588   4.863   3.034   5.413
 5897SOL     OW18589   4.373   6.392   1.453
 5897SOL    HW118590   4.274   6.374   1.457
 5897SOL    HW218591   4.407   6.412   1.545
 5898SOL     OW18592   2.595   6.491   2.884
 5898SOL    HW118593   2.655   6.498   2.804
 5898SOL    HW218594   2.572   6.395   2.899
 5899SOL     OW18595   5.582   0.668   3.490
 5899SOL    HW118596   5.662   0.699   3.438
 5899SOL    HW218597   5.564   0.572   3.470
 5900SOL     OW18598   3.869   4.946   2.319
 5900SOL    HW118599   3.813   5.014   2.274
 5900SOL    HW218600   3.814   4.864   2.339
 5901SOL     OW18601   2.990   6.326   4.338
 5901SOL    HW118602   3.086   6.326   4.368
 5901SOL    HW218603   2.968   6.416   4.299
 5902SOL     OW18604   5.922   2.117   6.876
 5902SOL    HW118605   5.947   2.212   6.856
 5902SOL    HW218606   5.858   2.084   6.806
 5903SOL     OW18607   6.997   3.677   6.429
 5903SOL    HW118608   6.945   3.591   6.437
 5903SOL    HW218609   6.933   3.753   6.418
 5904SOL     OW18610   0.590   3.671   2.131
 5904SOL    HW118611   0.575   3.588   2.077
 5904SOL    HW218612   0.588   3.648   2.229
 5905SOL     OW18613   6.614   4.879   2.381
 5905SOL    HW118614   6.552   4.807   2.348
 5905SOL    HW218615   6.708   4.844   2.382
 5906SOL     OW18616   0.622   0.903   3.572
 5906SOL    HW118617   0.720   0.915   3.582
 5906SOL    HW218618   0.574   0.977   3.620
 5907SOL     OW18619   2.241   0.455   2.102
 5907SOL    HW118620   2.225   0.367   2.056
 5907SOL    HW218621   2.336   0.457   2.135
 5908SOL     OW18622   0.191   2.905   6.083
 5908SOL    HW118623   0.138   2.871   6.161
 5908SOL    HW218624   0.273   2.849   6.071
 5909SOL     OW18625   6.429   4.172   0.613
 5909SOL    HW118626   6.523   4.164   0.580
 5909SOL    HW218627   6.409   4.098   0.676
 5910SOL     OW18628   2.011   1.525   3.755
 5910SOL    HW118629   2.015   1.447   3.817
 5910SOL    HW218630   1.973   1.497   3.667
 5911SOL     OW18631   6.434   5.969   6.867
 5911SOL    HW118632   6.532   5.976   6.848
 5911SOL    HW218633   6.384   5.959   6.781
 5912SOL     OW18634   0.613   0.227   4.148
 5912SOL    HW118635   0.681   0.282   4.100
 5912SOL    HW218636   0.527   0.278   4.152
 5913SOL     OW18637   5.969   1.865   0.313
 5913SOL    HW118638   5.918   1.815   0.382
 5913SOL    HW218639   5.908   1.895   0.241
 5914SOL     OW18640   1.295   6.101   0.064
 5914SOL    HW118641   1.353   6.174   0.101
 5914SOL    HW218642   1.224   6.141   0.006
 5915SOL     OW18643   3.587   1.523   5.868
 5915SOL    HW118644   3.647   1.468   5.811
 5915SOL    HW218645   3.631   1.611   5.888
 5916SOL     OW18646   1.171   6.850   1.712
 5916SOL    HW118647   1.243   6.782   1.706
 5916SOL    HW218648   1.082   6.804   1.721
 5917SOL     OW18649   3.320   4.052   6.974
 5917SOL    HW118650   3.410   4.085   6.944
 5917SOL    HW218651   3.328   4.013   0.046
 5918SOL     OW18652   3.173   6.757   4.861
 5918SOL    HW118653   3.215   6.726   4.776
 5918SOL    HW218654   3.114   6.685   4.897
 5919SOL     OW18655   3.505   3.165   4.537
 5919SOL    HW118656   3.436   3.238   4.539
 5919SOL    HW218657   3.596   3.206   4.533
 5920SOL     OW18658   6.798   0.303   5.757
 5920SOL    HW118659   6.843   0.215   5.773
 5920SOL    HW218660   6.741   0.297   5.676
 5921SOL     OW18661   2.425   4.263   6.529
 5921SOL    HW118662   2.393   4.168   6.529
 5921SOL    HW218663   2.440   4.293   6.623
 5922SOL     OW18664   5.120   3.062   2.613
 5922SOL    HW118665   5.157   3.057   2.520
 5922SOL    HW218666   5.104   2.969   2.647
 5923SOL     OW18667   5.629   1.310   3.629
 5923SOL    HW118668   5.648   1.394   3.577
 5923SOL    HW218669   5.641   1.327   3.726
 5924SOL     OW18670   5.318   6.668   3.798
 5924SOL    HW118671   5.349   6.763   3.793
 5924SOL    HW218672   5.334   6.623   3.710
 5925SOL     OW18673   4.839   1.186   1.151
 5925SOL    HW118674   4.856   1.267   1.208
 5925SOL    HW218675   4.752   1.196   1.103
 5926SOL     OW18676   5.442   4.484   3.354
 5926SOL    HW118677   5.366   4.492   3.418
 5926SOL    HW218678   5.481   4.392   3.360
 5927SOL     OW18679   0.131   5.383   2.002
 5927SOL    HW118680   0.206   5.320   1.979
 5927SOL    HW218681   0.158   5.440   2.080
 5928SOL     OW18682   2.960   6.863   6.945
 5928SOL    HW118683   2.987   6.880   6.850
 5928SOL    HW218684   2.876   6.914   6.965
 5929SOL     OW18685   1.481   0.741   0.205
 5929SOL    HW118686   1.560   0.769   0.261
 5929SOL    HW218687   1.502   0.756   0.109
 5930SOL     OW18688   1.824   3.862   2.323
 5930SOL    HW118689   1.893   3.899   2.384
 5930SOL    HW218690   1.811   3.923   2.245
 5931SOL     OW18691   5.098   6.397   2.476
 5931SOL    HW118692   5.079   6.424   2.382
 5931SOL    HW218693   5.165   6.460   2.516
 5932SOL     OW18694   2.943   0.288   6.979
 5932SOL    HW118695   2.925   0.385   6.961
 5932SOL    HW218696   3.041   0.270   6.969
 5933SOL     OW18697   5.860   6.220   4.616
 5933SOL    HW118698   5.807   6.136   4.622
 5933SOL    HW218699   5.958   6.198   4.617
 5934SOL     OW18700   2.514   3.531   0.018
 5934SOL    HW118701   2.593   3.591   0.019
 5934SOL    HW218702   2.451   3.557   0.091
 5935SOL     OW18703   1.167   6.101   5.866
 5935SOL    HW118704   1.165   6.033   5.939
 5935SOL    HW218705   1.232   6.073   5.795
 5936SOL     OW18706   4.093   3.254   2.503
 5936SOL    HW118707   4.151   3.178   2.532
 5936SOL    HW218708   4.015   3.218   2.452
 5937SOL     OW18709   0.104   3.136   1.232
 5937SOL    HW118710   0.187   3.141   1.176
 5937SOL    HW218711   0.109   3.058   1.293
 5938SOL     OW18712   0.467   4.380   4.055
 5938SOL    HW118713   0.522   4.363   4.136
 5938SOL    HW218714   0.406   4.302   4.039
 5939SOL     OW18715   3.694   1.199   5.399
 5939SOL    HW118716   3.742   1.275   5.442
 5939SOL    HW218717   3.750   1.116   5.406
 5940SOL     OW18718   4.808   5.555   1.754
 5940SOL    HW118719   4.835   5.620   1.825
 5940SOL    HW218720   4.810   5.463   1.792
 5941SOL     OW18721   0.147   2.331   2.757
 5941SOL    HW118722   0.079   2.397   2.789
 5941SOL    HW218723   0.116   2.238   2.779
 5942SOL     OW18724   4.976   2.946   6.197
 5942SOL    HW118725   5.057   2.918   6.145
 5942SOL    HW218726   5.005   3.000   6.276
 5943SOL     OW18727   2.625   4.323   1.496
 5943SOL    HW118728   2.551   4.369   1.546
 5943SOL    HW218729   2.692   4.391   1.466
 5944SOL     OW18730   6.432   2.985   5.407
 5944SOL    HW118731   6.412   3.015   5.314
 5944SOL    HW218732   6.530   2.996   5.426
 5945SOL     OW18733   6.661   6.737   4.931
 5945SOL    HW118734   6.620   6.792   5.004
 5945SOL    HW218735   6.589   6.696   4.876
 5946SOL     OW18736   2.326   4.158   6.801
 5946SOL    HW118737   2.318   4.090   6.727
 5946SOL    HW218738   2.281   4.242   6.773
 5947SOL     OW18739   4.039   3.341   4.306
 5947SOL    HW118740   4.043   3.431   4.263
 5947SOL    HW218741   4.047   3.270   4.237
 5948SOL     OW18742   4.721   3.468   1.748
 5948SOL    HW118743   4.745   3.565   1.755
 5948SOL    HW218744   4.695   3.448   1.653
 5949SOL     OW18745   0.424   4.707   3.121
 5949SOL    HW118746   0.453   4.648   3.197
 5949SOL    HW218747   0.381   4.790   3.157
 5950SOL     OW18748   3.965   0.351   4.471
 5950SOL    HW118749   4.060   0.326   4.449
 5950SOL    HW218750   3.915   0.269   4.500
 5951SOL     OW18751   6.965   4.151   0.010
 5951SOL    HW118752   7.005   4.180   6.942
 5951SOL    HW218753   6.988   4.218   0.081
 5952SOL     OW18754   4.222   4.576   1.331
 5952SOL    HW118755   4.188   4.668   1.352
 5952SOL    HW218756   4.285   4.581   1.254
 5953SOL     OW18757   6.760   2.898   4.963
 5953SOL    HW118758   6.761   2.830   4.890
 5953SOL    HW218759   6.761   2.852   5.052
 5954SOL     OW18760   1.623   6.017   4.115
 5954SOL    HW118761   1.524   6.001   4.121
 5954SOL    HW218762   1.671   5.942   4.160
 5955SOL     OW18763   5.117   3.532   0.376
 5955SOL    HW118764   5.200   3.579   0.407
 5955SOL    HW218765   5.039   3.567   0.427
 5956SOL     OW18766   5.061   2.720   5.222
 5956SOL    HW118767   5.063   2.695   5.319
 5956SOL    HW218768   5.049   2.637   5.167
 5957SOL     OW18769   6.967   1.386   3.424
 5957SOL    HW118770   6.940   1.423   3.513
 5957SOL    HW218771   6.890   1.339   3.382
 5958SOL     OW18772   2.795   6.587   3.135
 5958SOL    HW118773   2.856   6.535   3.195
 5958SOL    HW218774   2.757   6.527   3.064
 5959SOL     OW18775   5.108   2.314   3.742
 5959SOL    HW118776   5.071   2.328   3.833
 5959SOL    HW218777   5.033   2.309   3.676
 5960SOL     OW18778   4.658   0.562   6.095
 5960SOL    HW118779   4.620   0.480   6.139
 5960SOL    HW218780   4.711   0.534   6.015
 5961SOL     OW18781   2.793   2.172   3.609
 5961SOL    HW118782   2.876   2.182   3.554
 5961SOL    HW218783   2.814   2.190   3.705
 5962SOL     OW18784   5.038   5.707   0.197
 5962SOL    HW118785   4.943   5.686   0.174
 5962SOL    HW218786   5.096   5.628   0.177
 5963SOL     OW18787   2.709   4.043   0.336
 5963SOL    HW118788   2.637   3.977   0.352
 5963SOL    HW218789   2.759   4.061   0.421
 5964SOL     OW18790   2.443   6.609   2.398
 5964SOL    HW118791   2.374   6.618   2.469
 5964SOL    HW218792   2.405   6.559   2.320
 5965SOL     OW18793   2.722   0.025   0.680
 5965SOL    HW118794   2.745   6.966   0.735
 5965SOL    HW218795   2.765   0.017   0.590
 5966SOL     OW18796   3.068   1.687   4.818
 5966SOL    HW118797   3.049   1.601   4.770
 5966SOL    HW218798   3.020   1.687   4.906
 5967SOL     OW18799   4.436   1.985   4.694
 5967SOL    HW118800   4.441   1.977   4.793
 5967SOL    HW218801   4.424   1.894   4.654
 5968SOL     OW18802   5.717   2.565   1.779
 5968SOL    HW118803   5.736   2.488   1.718
 5968SOL    HW218804   5.655   2.629   1.733
 5969SOL     OW18805   5.564   0.379   0.558
 5969SOL    HW118806   5.562   0.336   0.649
 5969SOL    HW218807   5.482   0.436   0.547
 5970SOL     OW18808   6.965   3.708   0.516
 5970SOL    HW118809   7.017   3.701   0.431
 5970SOL    HW218810   7.012   3.658   0.589
 5971SOL     OW18811   6.633   6.503   4.115
 5971SOL    HW118812   6.675   6.593   4.122
 5971SOL    HW218813   6.698   6.433   4.144
 5972SOL     OW18814   5.842   5.359   0.756
 5972SOL    HW118815   5.834   5.368   0.656
 5972SOL    HW218816   5.908   5.287   0.777
 5973SOL     OW18817   3.062   1.484   2.447
 5973SOL    HW118818   3.157   1.457   2.433
 5973SOL    HW218819   3.044   1.569   2.397
 5974SOL     OW18820   5.607   1.733   5.328
 5974SOL    HW118821   5.690   1.787   5.312
 5974SOL    HW218822   5.596   1.718   5.427
 5975SOL     OW18823   4.409   4.572   1.125
 5975SOL    HW118824   4.494   4.520   1.132
 5975SOL    HW218825   4.424   4.652   1.066
 5976SOL     OW18826   2.115   3.473   5.660
 5976SOL    HW118827   2.026   3.516   5.673
 5976SOL    HW218828   2.117   3.429   5.570
 5977SOL     OW18829   6.772   4.374   0.742
 5977SOL    HW118830   6.840   4.443   0.767
 5977SOL    HW218831   6.682   4.403   0.775
 5978SOL     OW18832   2.642   3.871   6.311
 5978SOL    HW118833   2.700   3.822   6.246
 5978SOL    HW218834   2.661   3.969   6.306
 5979SOL     OW18835   5.995   0.447   2.002
 5979SOL    HW118836   5.897   0.430   2.015
 5979SOL    HW218837   6.019   0.535   2.044
 5980SOL     OW18838   2.787   2.915   1.322
 5980SOL    HW118839   2.790   2.965   1.235
 5980SOL    HW218840   2.784   2.979   1.398
 5981SOL     OW18841   2.934   1.776   0.467
 5981SOL    HW118842   2.972   1.818   0.385
 5981SOL    HW218843   2.976   1.817   0.548
 5982SOL     OW18844   4.809   3.155   0.911
 5982SOL    HW118845   4.902   3.118   0.905
 5982SOL    HW218846   4.807   3.246   0.869
 5983SOL     OW18847   6.823   0.744   3.588
 5983SOL    HW118848   6.826   0.803   3.507
 5983SOL    HW218849   6.871   0.658   3.568
 5984SOL     OW18850   5.774   6.778   4.281
 5984SOL    HW118851   5.810   6.865   4.317
 5984SOL    HW218852   5.777   6.780   4.181
 5985SOL     OW18853   6.384   3.055   2.463
 5985SOL    HW118854   6.450   2.984   2.486
 5985SOL    HW218855   6.414   3.102   2.380
 5986SOL     OW18856   3.754   3.346   4.252
 5986SOL    HW118857   3.840   3.296   4.259
 5986SOL    HW218858   3.723   3.347   4.157
 5987SOL     OW18859   0.140   6.072   5.463
 5987SOL    HW118860   0.207   6.144   5.445
 5987SOL    HW218861   0.177   6.008   5.531
 5988SOL     OW18862   0.951   2.744   6.518
 5988SOL    HW118863   0.987   2.783   6.433
 5988SOL    HW218864   0.852   2.758   6.522
 5989SOL     OW18865   0.430   6.506   6.064
 5989SOL    HW118866   0.483   6.453   5.998
 5989SOL    HW218867   0.415   6.452   6.146
 5990SOL     OW18868   2.550   4.613   1.820
 5990SOL    HW118869   2.643   4.615   1.857
 5990SOL    HW218870   2.487   4.656   1.884
 5991SOL     OW18871   4.711   0.716   0.615
 5991SOL    HW118872   4.769   0.797   0.607
 5991SOL    HW218873   4.655   0.723   0.697
 5992SOL     OW18874   3.741   6.038   2.370
 5992SOL    HW118875   3.774   6.095   2.294
 5992SOL    HW218876   3.668   5.978   2.337
 5993SOL     OW18877   5.569   1.871   0.123
 5993SOL    HW118878   5.590   1.852   0.027
 5993SOL    HW218879   5.583   1.968   0.142
 5994SOL     OW18880   0.071   3.069   7.011
 5994SOL    HW118881   0.149   3.074   6.949
 5994SOL    HW218882   0.034   3.161   0.006
 5995SOL     OW18883   4.766   3.658   1.360
 5995SOL    HW118884   4.814   3.634   1.276
 5995SOL    HW218885   4.830   3.653   1.437
 5996SOL     OW18886   2.758   5.987   1.403
 5996SOL    HW118887   2.753   6.018   1.498
 5996SOL    HW218888   2.666   5.976   1.366
 5997SOL     OW18889   6.365   0.275   4.246
 5997SOL    HW118890   6.284   0.327   4.219
 5997SOL    HW218891   6.411   0.241   4.165
 5998SOL     OW18892   6.213   5.771   0.188
 5998SOL    HW118893   6.300   5.749   0.143
 5998SOL    HW218894   6.231   5.804   0.281
 5999SOL     OW18895   4.992   3.358   1.614
 5999SOL    HW118896   4.988   3.422   1.692
 5999SOL    HW218897   4.919   3.291   1.622
 6000SOL     OW18898   0.284   4.016   0.960
 6000SOL    HW118899   0.334   4.091   1.002
 6000SOL    HW218900   0.341   3.934   0.955
 6001SOL     OW18901   6.318   5.600   5.993
 6001SOL    HW118902   6.294   5.680   5.939
 6001SOL    HW218903   6.239   5.538   5.998
 6002SOL     OW18904   5.863   4.829   5.213
 6002SOL    HW118905   5.837   4.916   5.169
 6002SOL    HW218906   5.782   4.786   5.251
 6003SOL     OW18907   2.094   2.504   4.491
 6003SOL    HW118908   2.169   2.480   4.552
 6003SOL    HW218909   2.100   2.600   4.466
 6004SOL     OW18910   5.345   2.368   4.450
 6004SOL    HW118911   5.413   2.302   4.481
 6004SOL    HW218912   5.329   2.356   4.352
 6005SOL     OW18913   4.344   4.322   6.576
 6005SOL    HW118914   4.244   4.312   6.573
 6005SOL    HW218915   4.375   4.368   6.492
 6006SOL     OW18916   3.594   6.160   6.788
 6006SOL    HW118917   3.598   6.187   6.691
 6006SOL    HW218918   3.644   6.075   6.801
 6007SOL     OW18919   2.236   5.986   5.591
 6007SOL    HW118920   2.248   6.039   5.508
 6007SOL    HW218921   2.177   5.907   5.573
 6008SOL     OW18922   3.006   3.989   6.604
 6008SOL    HW118923   2.947   4.016   6.680
 6008SOL    HW218924   3.101   3.991   6.633
 6009SOL     OW18925   3.935   5.360   2.970
 6009SOL    HW118926   3.839   5.339   2.955
 6009SOL    HW218927   3.989   5.276   2.966
 6010SOL     OW18928   0.435   4.685   4.134
 6010SOL    HW118929   0.501   4.612   4.151
 6010SOL    HW218930   0.483   4.773   4.136
 6011SOL     OW18931   6.053   1.592   2.527
 6011SOL    HW118932   6.131   1.601   2.466
 6011SOL    HW218933   6.002   1.509   2.504
 6012SOL     OW18934   6.870   0.491   6.169
 6012SOL    HW118935   6.816   0.479   6.086
 6012SOL    HW218936   6.852   0.582   6.207
 6013SOL     OW18937   6.190   1.290   1.965
 6013SOL    HW118938   6.215   1.310   1.870
 6013SOL    HW218939   6.097   1.254   1.968
 6014SOL     OW18940   3.048   3.865   3.914
 6014SOL    HW118941   3.093   3.779   3.890
 6014SOL    HW218942   2.998   3.853   4.000
 6015SOL     OW18943   6.141   0.419   4.100
 6015SOL    HW118944   6.080   0.443   4.175
 6015SOL    HW218945   6.146   0.495   4.035
 6016SOL     OW18946   4.738   1.838   4.157
 6016SOL    HW118947   4.767   1.763   4.097
 6016SOL    HW218948   4.740   1.807   4.252
 6017SOL     OW18949   0.894   1.202   5.762
 6017SOL    HW118950   0.941   1.136   5.703
 6017SOL    HW218951   0.802   1.219   5.726
 6018SOL     OW18952   2.996   1.386   4.503
 6018SOL    HW118953   3.057   1.328   4.449
 6018SOL    HW218954   3.028   1.480   4.499
 6019SOL     OW18955   6.573   4.529   6.669
 6019SOL    HW118956   6.511   4.605   6.690
 6019SOL    HW218957   6.643   4.522   6.740
 6020SOL     OW18958   0.988   4.708   5.729
 6020SOL    HW118959   0.980   4.686   5.632
 6020SOL    HW218960   0.911   4.766   5.756
 6021SOL     OW18961   6.076   0.015   3.685
 6021SOL    HW118962   6.063   0.108   3.721
 6021SOL    HW218963   6.164   0.010   3.637
 6022SOL     OW18964   6.789   2.582   1.216
 6022SOL    HW118965   6.826   2.551   1.304
 6022SOL    HW218966   6.781   2.504   1.154
 6023SOL     OW18967   3.870   0.243   1.421
 6023SOL    HW118968   3.969   0.249   1.432
 6023SOL    HW218969   3.841   0.302   1.346
 6024SOL     OW18970   1.363   5.867   6.974
 6024SOL    HW118971   1.358   5.961   7.007
 6024SOL    HW218972   1.406   5.810   0.024
 6025SOL     OW18973   3.129   0.230   4.844
 6025SOL    HW118974   3.069   0.150   4.830
 6025SOL    HW218975   3.084   0.293   4.908
 6026SOL     OW18976   5.661   6.009   4.761
 6026SOL    HW118977   5.595   6.084   4.765
 6026SOL    HW218978   5.639   5.949   4.684
 6027SOL     OW18979   5.242   4.634   6.424
 6027SOL    HW118980   5.336   4.653   6.454
 6027SOL    HW218981   5.180   4.700   6.465
 6028SOL     OW18982   5.725   5.190   5.867
 6028SOL    HW118983   5.823   5.200   5.880
 6028SOL    HW218984   5.688   5.274   5.827
 6029SOL     OW18985   2.899   1.180   2.731
 6029SOL    HW118986   2.945   1.202   2.817
 6029SOL    HW218987   2.835   1.254   2.708
 6030SOL     OW18988   5.840   2.874   4.406
 6030SOL    HW118989   5.919   2.862   4.467
 6030SOL    HW218990   5.865   2.930   4.328
 6031SOL     OW18991   0.055   5.830   5.331
 6031SOL    HW118992   0.090   5.914   5.372
 6031SOL    HW218993   0.132   5.770   5.308
 6032SOL     OW18994   3.732   6.041   3.329
 6032SOL    HW118995   3.670   6.115   3.356
 6032SOL    HW218996   3.806   6.033   3.397
 6033SOL     OW18997   1.408   1.535   2.317
 6033SOL    HW118998   1.325   1.483   2.336
 6033SOL    HW218999   1.415   1.612   2.381
 6034SOL     OW19000   0.855   6.644   1.151
 6034SOL    HW119001   0.897   6.653   1.242
 6034SOL    HW219002   0.894   6.712   1.090
 6035SOL     OW19003   2.527   0.302   2.491
 6035SOL    HW119004   2.620   0.271   2.508
 6035SOL    HW219005   2.476   0.304   2.577
 6036SOL     OW19006   6.430   3.341   1.189
 6036SOL    HW119007   6.366   3.394   1.245
 6036SOL    HW219008   6.418   3.244   1.207
 6037SOL     OW19009   4.968   1.774   6.552
 6037SOL    HW119010   4.924   1.751   6.639
 6037SOL    HW219011   4.931   1.715   6.480
 6038SOL     OW19012   1.588   1.632   6.073
 6038SOL    HW119013   1.532   1.659   6.151
 6038SOL    HW219014   1.574   1.535   6.052
 6039SOL     OW19015   4.089   3.744   3.839
 6039SOL    HW119016   4.124   3.652   3.823
 6039SOL    HW219017   4.124   3.779   3.925
 6040SOL     OW19018   0.636   1.575   0.716
 6040SOL    HW119019   0.633   1.491   0.661
 6040SOL    HW219020   0.680   1.648   0.662
 6041SOL     OW19021   2.799   3.875   5.566
 6041SOL    HW119022   2.827   3.798   5.508
 6041SOL    HW219023   2.878   3.934   5.581
 6042SOL     OW19024   3.350   5.650   3.702
 6042SOL    HW119025   3.443   5.688   3.711
 6042SOL    HW219026   3.308   5.686   3.619
 6043SOL     OW19027   2.520   0.477   3.074
 6043SOL    HW119028   2.602   0.465   3.130
 6043SOL    HW219029   2.547   0.490   2.979
 6044SOL     OW19030   0.972   3.218   1.005
 6044SOL    HW119031   1.061   3.179   1.027
 6044SOL    HW219032   0.966   3.310   1.043
 6045SOL     OW19033   5.341   2.055   3.196
 6045SOL    HW119034   5.367   1.962   3.170
 6045SOL    HW219035   5.310   2.105   3.116
 6046SOL     OW19036   3.652   2.907   2.854
 6046SOL    HW119037   3.694   2.844   2.789
 6046SOL    HW219038   3.677   3.001   2.831
 6047SOL     OW19039   0.080   1.726   0.769
 6047SOL    HW119040   0.152   1.660   0.748
 6047SOL    HW219041   0.009   1.682   0.823
 6048SOL     OW19042   5.785   5.768   3.710
 6048SOL    HW119043   5.839   5.738   3.632
 6048SOL    HW219044   5.766   5.866   3.702
 6049SOL     OW19045   4.599   4.930   6.158
 6049SOL    HW119046   4.693   4.900   6.143
 6049SOL    HW219047   4.551   4.862   6.214
 6050SOL     OW19048   2.919   6.094   2.130
 6050SOL    HW119049   2.963   6.113   2.042
 6050SOL    HW219050   2.955   6.155   2.200
 6051SOL     OW19051   0.635   1.229   3.304
 6051SOL    HW119052   0.612   1.214   3.208
 6051SOL    HW219053   0.658   1.326   3.318
 6052SOL     OW19054   4.730   5.777   0.576
 6052SOL    HW119055   4.646   5.770   0.630
 6052SOL    HW219056   4.781   5.858   0.604
 6053SOL     OW19057   3.969   2.475   5.796
 6053SOL    HW119058   4.026   2.489   5.715
 6053SOL    HW219059   3.975   2.556   5.855
 6054SOL     OW19060   3.801   3.930   0.643
 6054SOL    HW119061   3.881   3.984   0.670
 6054SOL    HW219062   3.728   3.942   0.709
 6055SOL     OW19063   2.998   3.886   0.860
 6055SOL    HW119064   2.987   3.984   0.873
 6055SOL    HW219065   2.987   3.839   0.948
 6056SOL     OW19066   5.136   5.883   3.514
 6056SOL    HW119067   5.048   5.924   3.539
 6056SOL    HW219068   5.142   5.877   3.415
 6057SOL     OW19069   5.050   0.749   4.338
 6057SOL    HW119070   5.062   0.672   4.401
 6057SOL    HW219071   4.953   0.759   4.316
 6058SOL     OW19072   6.688   2.529   5.347
 6058SOL    HW119073   6.706   2.433   5.327
 6058SOL    HW219074   6.723   2.550   5.439
 6059SOL     OW19075   4.297   2.855   0.163
 6059SOL    HW119076   4.215   2.837   0.217
 6059SOL    HW219077   4.376   2.860   0.224
 6060SOL     OW19078   2.229   3.206   6.965
 6060SOL    HW119079   2.327   3.221   6.975
 6060SOL    HW219080   2.189   3.279   6.910
 6061SOL     OW19081   3.062   4.515   6.995
 6061SOL    HW119082   3.084   4.441   0.039
 6061SOL    HW219083   3.091   4.488   6.903
 6062SOL     OW19084   2.044   1.889   6.653
 6062SOL    HW119085   1.991   1.974   6.650
 6062SOL    HW219086   2.106   1.892   6.732
 6063SOL     OW19087   4.622   4.068   6.364
 6063SOL    HW119088   4.555   4.032   6.429
 6063SOL    HW219089   4.714   4.042   6.394
 6064SOL     OW19090   6.395   5.247   1.086
 6064SOL    HW119091   6.473   5.185   1.097
 6064SOL    HW219092   6.386   5.303   1.168
 6065SOL     OW19093   1.547   0.474   2.214
 6065SOL    HW119094   1.573   0.378   2.201
 6065SOL    HW219095   1.531   0.516   2.125
 6066SOL     OW19096   5.336   5.765   3.649
 6066SOL    HW119097   5.403   5.757   3.576
 6066SOL    HW219098   5.253   5.809   3.613
 6067SOL     OW19099   6.517   6.511   6.494
 6067SOL    HW119100   6.533   6.513   6.396
 6067SOL    HW219101   6.508   6.605   6.528
 6068SOL     OW19102   4.809   2.538   4.208
 6068SOL    HW119103   4.758   2.621   4.232
 6068SOL    HW219104   4.843   2.495   4.291
 6069SOL     OW19105   0.207   4.491   6.141
 6069SOL    HW119106   0.243   4.443   6.061
 6069SOL    HW219107   0.234   4.443   6.224
 6070SOL     OW19108   2.475   1.247   0.373
 6070SOL    HW119109   2.531   1.167   0.390
 6070SOL    HW219110   2.522   1.329   0.408
 6071SOL     OW19111   5.935   1.191   5.587
 6071SOL    HW119112   6.019   1.138   5.580
 6071SOL    HW219113   5.913   1.231   5.498
 6072SOL     OW19114   0.203   2.727   0.229
 6072SOL    HW119115   0.180   2.641   0.183
 6072SOL    HW219116   0.192   2.717   0.328
 6073SOL     OW19117   5.050   3.019   0.332
 6073SOL    HW119118   5.115   3.096   0.333
 6073SOL    HW219119   5.064   2.963   0.414
 6074SOL     OW19120   0.928   6.508   2.207
 6074SOL    HW119121   0.923   6.567   2.287
 6074SOL    HW219122   0.862   6.433   2.217
 6075SOL     OW19123   5.434   0.548   6.721
 6075SOL    HW119124   5.531   0.560   6.741
 6075SOL    HW219125   5.410   0.452   6.733
 6076SOL     OW19126   0.722   5.962   2.764
 6076SOL    HW119127   0.729   6.054   2.725
 6076SOL    HW219128   0.808   5.914   2.752
 6077SOL     OW19129   5.570   6.916   2.877
 6077SOL    HW119130   5.611   6.965   2.954
 6077SOL    HW219131   5.497   6.857   2.910
 6078SOL     OW19132   4.296   4.333   0.550
 6078SOL    HW119133   4.305   4.238   0.577
 6078SOL    HW219134   4.215   4.343   0.491
 6079SOL     OW19135   2.716   2.958   0.427
 6079SOL    HW119136   2.652   2.890   0.462
 6079SOL    HW219137   2.687   3.049   0.456
 6080SOL     OW19138   6.673   4.650   6.409
 6080SOL    HW119139   6.628   4.609   6.489
 6080SOL    HW219140   6.772   4.639   6.417
 6081SOL     OW19141   1.324   3.944   3.582
 6081SOL    HW119142   1.247   3.919   3.641
 6081SOL    HW219143   1.325   4.043   3.570
 6082SOL     OW19144   5.175   1.281   1.308
 6082SOL    HW119145   5.206   1.286   1.213
 6082SOL    HW219146   5.116   1.202   1.320
 6083SOL     OW19147   4.798   0.920   6.600
 6083SOL    HW119148   4.827   1.016   6.596
 6083SOL    HW219149   4.769   0.891   6.509
 6084SOL     OW19150   6.878   5.873   2.678
 6084SOL    HW119151   6.877   5.815   2.759
 6084SOL    HW219152   6.887   5.816   2.596
 6085SOL     OW19153   0.438   6.915   0.648
 6085SOL    HW119154   0.456   6.990   0.585
 6085SOL    HW219155   0.450   6.828   0.601
 6086SOL     OW19156   3.536   4.176   6.905
 6086SOL    HW119157   3.618   4.137   6.948
 6086SOL    HW219158   3.563   4.248   6.841
 6087SOL     OW19159   5.247   0.216   0.830
 6087SOL    HW119160   5.208   0.160   0.903
 6087SOL    HW219161   5.345   0.227   0.845
 6088SOL     OW19162   5.207   5.904   3.252
 6088SOL    HW119163   5.301   5.884   3.280
 6088SOL    HW219164   5.201   5.903   3.152
 6089SOL     OW19165   6.336   3.712   3.820
 6089SOL    HW119166   6.279   3.632   3.800
 6089SOL    HW219167   6.392   3.694   3.900
 6090SOL     OW19168   4.081   5.823   3.935
 6090SOL    HW119169   4.004   5.834   3.999
 6090SOL    HW219170   4.155   5.773   3.980
 6091SOL     OW19171   1.483   1.560   2.045
 6091SOL    HW119172   1.408   1.557   1.980
 6091SOL    HW219173   1.451   1.531   2.135
 6092SOL     OW19174   2.627   6.321   0.934
 6092SOL    HW119175   2.532   6.303   0.907
 6092SOL    HW219176   2.643   6.286   1.026
 6093SOL     OW19177   2.544   2.387   2.575
 6093SOL    HW119178   2.517   2.459   2.638
 6093SOL    HW219179   2.472   2.317   2.570
 6094SOL     OW19180   0.706   5.908   5.030
 6094SOL    HW119181   0.641   5.899   4.954
 6094SOL    HW219182   0.798   5.922   4.993
 6095SOL     OW19183   4.650   4.889   1.974
 6095SOL    HW119184   4.603   4.846   1.897
 6095SOL    HW219185   4.731   4.834   1.998
 6096SOL     OW19186   5.459   6.073   3.164
 6096SOL    HW119187   5.428   6.099   3.255
 6096SOL    HW219188   5.501   6.152   3.119
 6097SOL     OW19189   1.662   5.121   1.996
 6097SOL    HW119190   1.635   5.042   1.940
 6097SOL    HW219191   1.656   5.097   2.093
 6098SOL     OW19192   7.019   0.503   5.048
 6098SOL    HW119193   6.996   0.564   5.123
 6098SOL    HW219194   7.002   0.549   4.961
 6099SOL     OW19195   3.548   0.757   5.829
 6099SOL    HW119196   3.490   0.836   5.810
 6099SOL    HW219197   3.606   0.739   5.749
 6100SOL     OW19198   0.146   5.795   4.995
 6100SOL    HW119199   0.062   5.754   5.030
 6100SOL    HW219200   0.220   5.781   5.061
 6101SOL     OW19201   0.082   3.646   1.845
 6101SOL    HW119202   0.171   3.678   1.878
 6101SOL    HW219203   0.024   3.725   1.824
 6102SOL     OW19204   3.749   0.414   2.569
 6102SOL    HW119205   3.823   0.433   2.633
 6102SOL    HW219206   3.670   0.380   2.619
 6103SOL     OW19207   6.213   1.687   1.955
 6103SOL    HW119208   6.281   1.654   1.890
 6103SOL    HW219209   6.188   1.614   2.018
 6104SOL     OW19210   0.152   0.994   4.643
 6104SOL    HW119211   0.172   0.971   4.548
 6104SOL    HW219212   0.054   0.993   4.658
 6105SOL     OW19213   2.919   4.683   5.631
 6105SOL    HW119214   2.871   4.762   5.593
 6105SOL    HW219215   2.863   4.601   5.618
 6106SOL     OW19216   6.120   5.057   5.229
 6106SOL    HW119217   6.063   5.116   5.171
 6106SOL    HW219218   6.095   5.071   5.325
 6107SOL     OW19219   5.308   5.827   5.386
 6107SOL    HW119220   5.356   5.739   5.383
 6107SOL    HW219221   5.371   5.898   5.417
 6108SOL     OW19222   2.149   1.198   0.167
 6108SOL    HW119223   2.131   1.296   0.160
 6108SOL    HW219224   2.235   1.176   0.122
 6109SOL     OW19225   6.671   6.976   3.821
 6109SOL    HW119226   6.653   0.055   3.814
 6109SOL    HW219227   6.749   6.961   3.881
 6110SOL     OW19228   1.544   1.430   4.575
 6110SOL    HW119229   1.464   1.420   4.516
 6110SOL    HW219230   1.618   1.473   4.523
 6111SOL     OW19231   1.726   4.413   0.873
 6111SOL    HW119232   1.715   4.349   0.949
 6111SOL    HW219233   1.749   4.503   0.908
 6112SOL     OW19234   4.707   6.340   3.199
 6112SOL    HW119235   4.701   6.389   3.111
 6112SOL    HW219236   4.641   6.379   3.263
 6113SOL     OW19237   3.186   5.226   0.906
 6113SOL    HW119238   3.161   5.322   0.891
 6113SOL    HW219239   3.147   5.194   0.992
 6114SOL     OW19240   5.606   2.394   0.373
 6114SOL    HW119241   5.573   2.386   0.467
 6114SOL    HW219242   5.541   2.449   0.320
 6115SOL     OW19243   1.094   0.505   5.789
 6115SOL    HW119244   1.111   0.425   5.730
 6115SOL    HW219245   1.115   0.588   5.738
 6116SOL     OW19246   5.674   2.411   6.566
 6116SOL    HW119247   5.665   2.313   6.552
 6116SOL    HW219248   5.613   2.461   6.505
 6117SOL     OW19249   1.768   2.117   1.368
 6117SOL    HW119250   1.729   2.172   1.442
 6117SOL    HW219251   1.754   2.020   1.388
 6118SOL     OW19252   6.003   0.613   1.233
 6118SOL    HW119253   6.070   0.621   1.159
 6118SOL    HW219254   5.970   0.705   1.257
 6119SOL     OW19255   0.212   1.657   6.714
 6119SOL    HW119256   0.232   1.598   6.792
 6119SOL    HW219257   0.293   1.712   6.692
 6120SOL     OW19258   2.633   0.916   4.766
 6120SOL    HW119259   2.658   1.013   4.760
 6120SOL    HW219260   2.533   0.908   4.769
 6121SOL     OW19261   0.609   2.423   5.499
 6121SOL    HW119262   0.685   2.488   5.505
 6121SOL    HW219263   0.559   2.439   5.413
 6122SOL     OW19264   4.825   4.682   5.522
 6122SOL    HW119265   4.914   4.687   5.566
 6122SOL    HW219266   4.770   4.763   5.546
 6123SOL     OW19267   5.280   1.413   5.239
 6123SOL    HW119268   5.229   1.393   5.322
 6123SOL    HW219269   5.378   1.411   5.258
 6124SOL     OW19270   2.457   5.772   3.989
 6124SOL    HW119271   2.377   5.831   4.000
 6124SOL    HW219272   2.456   5.732   3.897
 6125SOL     OW19273   2.734   1.916   6.534
 6125SOL    HW119274   2.725   2.004   6.582
 6125SOL    HW219275   2.828   1.905   6.502
 6126SOL     OW19276   5.845   3.297   5.254
 6126SOL    HW119277   5.840   3.288   5.354
 6126SOL    HW219278   5.788   3.374   5.225
 6127SOL     OW19279   4.339   2.014   1.929
 6127SOL    HW119280   4.268   2.084   1.935
 6127SOL    HW219281   4.426   2.053   1.958
 6128SOL     OW19282   5.246   5.513   0.196
 6128SOL    HW119283   5.278   5.585   0.257
 6128SOL    HW219284   5.320   5.484   0.136
 6129SOL     OW19285   1.461   5.848   2.412
 6129SOL    HW119286   1.387   5.799   2.366
 6129SOL    HW219287   1.508   5.787   2.475
 6130SOL     OW19288   6.294   2.391   6.962
 6130SOL    HW119289   6.245   2.304   6.972
 6130SOL    HW219290   6.238   2.466   6.998
 6131SOL     OW19291   6.517   1.265   2.661
 6131SOL    HW119292   6.590   1.199   2.650
 6131SOL    HW219293   6.439   1.222   2.706
 6132SOL     OW19294   3.729   1.661   6.339
 6132SOL    HW119295   3.644   1.712   6.355
 6132SOL    HW219296   3.710   1.563   6.345
 6133SOL     OW19297   1.452   1.975   3.255
 6133SOL    HW119298   1.542   1.937   3.234
 6133SOL    HW219299   1.438   2.060   3.204
 6134SOL     OW19300   6.464   6.874   6.157
 6134SOL    HW119301   6.516   6.959   6.147
 6134SOL    HW219302   6.389   6.873   6.091
 6135SOL     OW19303   6.836   0.066   6.735
 6135SOL    HW119304   6.788   0.120   6.803
 6135SOL    HW219305   6.916   0.118   6.702
 6136SOL     OW19306   0.984   2.750   2.205
 6136SOL    HW119307   1.022   2.789   2.121
 6136SOL    HW219308   0.990   2.817   2.279
 6137SOL     OW19309   6.326   4.276   1.978
 6137SOL    HW119310   6.333   4.211   2.053
 6137SOL    HW219311   6.396   4.255   1.909
 6138SOL     OW19312   4.199   0.046   2.007
 6138SOL    HW119313   4.239   0.080   2.092
 6138SOL    HW219314   4.225   6.970   1.993
 6139SOL     OW19315   1.102   0.226   5.292
 6139SOL    HW119316   1.130   0.278   5.211
 6139SOL    HW219317   1.057   0.142   5.264
 6140SOL     OW19318   1.446   0.075   3.344
 6140SOL    HW119319   1.348   0.081   3.327
 6140SOL    HW219320   1.470   7.000   3.365
 6141SOL     OW19321   0.612   1.132   5.907
 6141SOL    HW119322   0.616   1.185   5.822
 6141SOL    HW219323   0.681   1.165   5.970
 6142SOL     OW19324   0.112   0.560   1.523
 6142SOL    HW119325   0.107   0.570   1.622
 6142SOL    HW219326   0.208   0.565   1.493
 6143SOL     OW19327   7.011   3.956   5.570
 6143SOL    HW119328   0.073   3.999   5.606
 6143SOL    HW219329   6.930   4.007   5.598
 6144SOL     OW19330   3.849   5.093   2.749
 6144SOL    HW119331   3.831   5.185   2.713
 6144SOL    HW219332   3.930   5.055   2.704
 6145SOL     OW19333   4.966   3.620   3.833
 6145SOL    HW119334   4.962   3.686   3.907
 6145SOL    HW219335   4.953   3.527   3.869
 6146SOL     OW19336   5.329   6.970   5.103
 6146SOL    HW119337   5.397   6.904   5.136
 6146SOL    HW219338   5.237   6.937   5.125
 6147SOL     OW19339   1.678   2.561   4.397
 6147SOL    HW119340   1.750   2.500   4.362
 6147SOL    HW219341   1.617   2.586   4.321
 6148SOL     OW19342   3.000   5.819   0.077
 6148SOL    HW119343   2.937   5.883   0.034
 6148SOL    HW219344   3.091   5.861   0.084
 6149SOL     OW19345   2.824   1.037   1.345
 6149SOL    HW119346   2.780   0.995   1.266
 6149SOL    HW219347   2.754   1.075   1.406
 6150SOL     OW19348   1.088   4.083   5.340
 6150SOL    HW119349   1.027   4.120   5.410
 6150SOL    HW219350   1.178   4.126   5.348
 6151SOL     OW19351   4.497   5.503   4.044
 6151SOL    HW119352   4.497   5.427   4.109
 6151SOL    HW219353   4.493   5.467   3.951
 6152SOL     OW19354   1.412   4.560   4.234
 6152SOL    HW119355   1.450   4.480   4.279
 6152SOL    HW219356   1.473   4.638   4.246
 6153SOL     OW19357   5.460   5.153   1.336
 6153SOL    HW119358   5.368   5.192   1.328
 6153SOL    HW219359   5.517   5.214   1.391
 6154SOL     OW19360   5.114   3.184   2.199
 6154SOL    HW119361   5.128   3.258   2.133
 6154SOL    HW219362   5.026   3.139   2.182
 6155SOL     OW19363   2.005   1.198   2.991
 6155SOL    HW119364   1.935   1.232   2.928
 6155SOL    HW219365   1.961   1.155   3.070
 6156SOL     OW19366   4.883   5.323   1.620
 6156SOL    HW119367   4.966   5.271   1.601
 6156SOL    HW219368   4.894   5.417   1.586
 6157SOL     OW19369   1.401   2.481   2.119
 6157SOL    HW119370   1.321   2.487   2.178
 6157SOL    HW219371   1.394   2.548   2.046
 6158SOL     OW19372   3.088   2.193   4.635
 6158SOL    HW119373   3.175   2.223   4.594
 6158SOL    HW219374   3.081   2.093   4.628
 6159SOL     OW19375   6.386   3.039   1.049
 6159SOL    HW119376   6.478   3.030   1.011
 6159SOL    HW219377   6.319   3.029   0.976
 6160SOL     OW19378   1.527   0.667   0.901
 6160SOL    HW119379   1.456   0.713   0.847
 6160SOL    HW219380   1.577   0.603   0.843
 6161SOL     OW19381   4.343   3.210   6.733
 6161SOL    HW119382   4.302   3.163   6.812
 6161SOL    HW219383   4.297   3.298   6.720
 6162SOL     OW19384   6.168   5.086   3.037
 6162SOL    HW119385   6.193   5.022   3.110
 6162SOL    HW219386   6.169   5.179   3.072
 6163SOL     OW19387   5.555   6.131   3.879
 6163SOL    HW119388   5.466   6.131   3.926
 6163SOL    HW219389   5.628   6.126   3.948
 6164SOL     OW19390   2.889   3.635   4.839
 6164SOL    HW119391   2.923   3.543   4.859
 6164SOL    HW219392   2.821   3.661   4.908
 6165SOL     OW19393   3.970   1.349   0.340
 6165SOL    HW119394   4.057   1.359   0.291
 6165SOL    HW219395   3.961   1.256   0.374
 6166SOL     OW19396   1.842   3.089   6.548
 6166SOL    HW119397   1.850   3.048   6.639
 6166SOL    HW219398   1.902   3.041   6.484
 6167SOL     OW19399   1.793   3.788   3.331
 6167SOL    HW119400   1.885   3.823   3.317
 6167SOL    HW219401   1.752   3.830   3.412
 6168SOL     OW19402   0.679   4.136   3.831
 6168SOL    HW119403   0.642   4.069   3.766
 6168SOL    HW219404   0.633   4.224   3.818
 6169SOL     OW19405   2.330   0.421   0.090
 6169SOL    HW119406   2.397   0.421   0.164
 6169SOL    HW219407   2.360   0.482   0.017
 6170SOL     OW19408   3.119   3.693   6.705
 6170SOL    HW119409   3.059   3.655   6.634
 6170SOL    HW219410   3.113   3.793   6.705
 6171SOL     OW19411   2.223   4.196   2.379
 6171SOL    HW119412   2.141   4.230   2.333
 6171SOL    HW219413   2.301   4.254   2.356
 6172SOL     OW19414   2.114   6.314   2.536
 6172SOL    HW119415   2.120   6.244   2.466
 6172SOL    HW219416   2.021   6.352   2.538
 6173SOL     OW19417   1.251   5.677   2.295
 6173SOL    HW119418   1.174   5.706   2.239
 6173SOL    HW219419   1.221   5.605   2.358
 6174SOL     OW19420   5.471   5.300   2.449
 6174SOL    HW119421   5.568   5.307   2.472
 6174SOL    HW219422   5.419   5.271   2.529
 6175SOL     OW19423   4.947   0.564   3.036
 6175SOL    HW119424   4.887   0.642   3.053
 6175SOL    HW219425   4.901   0.499   2.976
 6176SOL     OW19426   6.819   3.441   5.471
 6176SOL    HW119427   6.866   3.523   5.504
 6176SOL    HW219428   6.767   3.400   5.546
 6177SOL     OW19429   6.490   2.540   0.389
 6177SOL    HW119430   6.520   2.481   0.314
 6177SOL    HW219431   6.405   2.503   0.428
 6178SOL     OW19432   5.909   3.235   1.347
 6178SOL    HW119433   5.867   3.326   1.350
 6178SOL    HW219434   5.995   3.237   1.397
 6179SOL     OW19435   0.410   1.596   5.881
 6179SOL    HW119436   0.361   1.569   5.964
 6179SOL    HW219437   0.346   1.637   5.816
 6180SOL     OW19438   3.490   0.103   6.841
 6180SOL    HW119439   3.468   0.173   6.774
 6180SOL    HW219440   3.432   0.023   6.827
 6181SOL     OW19441   5.160   6.556   6.919
 6181SOL    HW119442   5.155   6.516   7.010
 6181SOL    HW219443   5.147   6.483   6.851
 6182SOL     OW19444   4.610   6.055   6.708
 6182SOL    HW119445   4.562   6.043   6.794
 6182SOL    HW219446   4.557   6.115   6.648
 6183SOL     OW19447   3.515   0.523   3.154
 6183SOL    HW119448   3.573   0.471   3.091
 6183SOL    HW219449   3.428   0.545   3.110
 6184SOL     OW19450   0.532   0.101   6.756
 6184SOL    HW119451   0.538   0.162   6.836
 6184SOL    HW219452   0.622   0.093   6.713
 6185SOL     OW19453   0.605   3.445   6.301
 6185SOL    HW119454   0.659   3.451   6.385
 6185SOL    HW219455   0.518   3.493   6.314
 6186SOL     OW19456   5.796   0.178   4.879
 6186SOL    HW119457   5.760   0.209   4.791
 6186SOL    HW219458   5.730   0.116   4.922
 6187SOL     OW19459   4.038   4.797   4.290
 6187SOL    HW119460   4.103   4.860   4.332
 6187SOL    HW219461   4.064   4.703   4.313
 6188SOL     OW19462   2.880   6.213   1.285
 6188SOL    HW119463   2.873   6.268   1.368
 6188SOL    HW219464   2.827   6.129   1.295
 6189SOL     OW19465   5.974   4.676   3.105
 6189SOL    HW119466   5.939   4.769   3.119
 6189SOL    HW219467   6.069   4.671   3.135
 6190SOL     OW19468   5.643   2.376   6.986
 6190SOL    HW119469   5.609   2.438   6.915
 6190SOL    HW219470   5.721   2.418   0.012
 6191SOL     OW19471   6.539   2.511   6.947
 6191SOL    HW119472   6.444   2.478   6.945
 6191SOL    HW219473   6.555   2.570   6.868
 6192SOL     OW19474   3.105   2.903   6.874
 6192SOL    HW119475   3.142   2.881   6.964
 6192SOL    HW219476   3.181   2.922   6.811
 6193SOL     OW19477   6.236   0.109   1.175
 6193SOL    HW119478   6.257   0.019   1.136
 6193SOL    HW219479   6.190   0.164   1.106
 6194SOL     OW19480   1.950   0.656   0.569
 6194SOL    HW119481   2.029   0.703   0.530
 6194SOL    HW219482   1.879   0.722   0.593
 6195SOL     OW19483   3.651   0.342   6.469
 6195SOL    HW119484   3.663   0.437   6.442
 6195SOL    HW219485   3.635   0.286   6.388
 6196SOL     OW19486   0.531   1.195   6.552
 6196SOL    HW119487   0.614   1.159   6.595
 6196SOL    HW219488   0.545   1.292   6.529
 6197SOL     OW19489   2.416   3.478   0.480
 6197SOL    HW119490   2.471   3.518   0.553
 6197SOL    HW219491   2.340   3.426   0.520
 6198SOL     OW19492   4.043   4.909   2.525
 6198SOL    HW119493   4.114   4.865   2.471
 6198SOL    HW219494   3.974   4.949   2.464
 6199SOL     OW19495   1.432   6.752   6.309
 6199SOL    HW119496   1.384   6.757   6.222
 6199SOL    HW219497   1.394   6.678   6.364
 6200SOL     OW19498   4.259   0.120   6.132
 6200SOL    HW119499   4.277   0.168   6.218
 6200SOL    HW219500   4.161   0.097   6.126
 6201SOL     OW19501   2.149   4.628   5.356
 6201SOL    HW119502   2.132   4.538   5.314
 6201SOL    HW219503   2.065   4.659   5.400
 6202SOL     OW19504   2.916   1.664   1.399
 6202SOL    HW119505   2.929   1.661   1.498
 6202SOL    HW219506   2.856   1.589   1.371
 6203SOL     OW19507   4.281   1.460   4.905
 6203SOL    HW119508   4.196   1.442   4.955
 6203SOL    HW219509   4.339   1.378   4.908
 6204SOL     OW19510   1.731   6.524   5.811
 6204SOL    HW119511   1.656   6.526   5.745
 6204SOL    HW219512   1.712   6.455   5.881
 6205SOL     OW19513   5.512   6.248   6.901
 6205SOL    HW119514   5.545   6.153   6.907
 6205SOL    HW219515   5.415   6.251   6.925
 6206SOL     OW19516   5.147   0.163   2.871
 6206SOL    HW119517   5.180   0.136   2.781
 6206SOL    HW219518   5.175   0.095   2.939
 6207SOL     OW19519   1.770   3.934   4.863
 6207SOL    HW119520   1.734   3.948   4.771
 6207SOL    HW219521   1.867   3.959   4.865
 6208SOL     OW19522   6.030   6.583   5.833
 6208SOL    HW119523   6.059   6.578   5.929
 6208SOL    HW219524   5.937   6.547   5.824
 6209SOL     OW19525   3.895   5.080   1.030
 6209SOL    HW119526   3.984   5.070   0.985
 6209SOL    HW219527   3.891   5.169   1.075
 6210SOL     OW19528   5.786   4.307   3.636
 6210SOL    HW119529   5.806   4.403   3.659
 6210SOL    HW219530   5.828   4.284   3.548
 6211SOL     OW19531   3.030   7.003   4.792
 6211SOL    HW119532   3.073   6.914   4.811
 6211SOL    HW219533   3.014   7.012   4.694
 6212SOL     OW19534   6.921   6.359   3.801
 6212SOL    HW119535   6.822   6.367   3.799
 6212SOL    HW219536   6.949   6.277   3.752
 6213SOL     OW19537   0.106   6.468   6.517
 6213SOL    HW119538   0.130   6.561   6.547
 6213SOL    HW219539   0.146   6.401   6.579
 6214SOL     OW19540   6.254   4.385   2.695
 6214SOL    HW119541   6.230   4.462   2.753
 6214SOL    HW219542   6.280   4.307   2.753
 6215SOL     OW19543   3.161   3.446   0.745
 6215SOL    HW119544   3.136   3.352   0.720
 6215SOL    HW219545   3.080   3.504   0.741
 6216SOL     OW19546   5.524   1.413   2.499
 6216SOL    HW119547   5.531   1.505   2.538
 6216SOL    HW219548   5.545   1.416   2.402
 6217SOL     OW19549   5.222   3.067   1.481
 6217SOL    HW119550   5.132   3.053   1.441
 6217SOL    HW219551   5.212   3.113   1.569
 6218SOL     OW19552   3.351   5.413   5.413
 6218SOL    HW119553   3.415   5.337   5.427
 6218SOL    HW219554   3.261   5.388   5.450
 6219SOL     OW19555   0.496   1.766   4.752
 6219SOL    HW119556   0.560   1.829   4.707
 6219SOL    HW219557   0.405   1.776   4.712
 6220SOL     OW19558   1.906   4.283   5.301
 6220SOL    HW119559   1.998   4.268   5.338
 6220SOL    HW219560   1.905   4.262   5.204
 6221SOL     OW19561   3.640   5.259   4.836
 6221SOL    HW119562   3.553   5.294   4.799
 6221SOL    HW219563   3.626   5.167   4.872
 6222SOL     OW19564   0.077   1.153   0.796
 6222SOL    HW119565   0.088   1.177   0.893
 6222SOL    HW219566   7.000   1.135   0.778
 6223SOL     OW19567   4.864   3.079   4.591
 6223SOL    HW119568   4.864   3.111   4.686
 6223SOL    HW219569   4.830   3.152   4.532
 6224SOL     OW19570   2.890   1.153   5.290
 6224SOL    HW119571   2.936   1.207   5.361
 6224SOL    HW219572   2.791   1.155   5.307
 6225SOL     OW19573   3.636   2.482   0.463
 6225SOL    HW119574   3.552   2.503   0.414
 6225SOL    HW219575   3.715   2.510   0.408
 6226SOL     OW19576   5.580   0.522   4.797
 6226SOL    HW119577   5.541   0.614   4.803
 6226SOL    HW219578   5.676   0.524   4.823
 6227SOL     OW19579   3.138   4.794   5.982
 6227SOL    HW119580   3.211   4.728   5.965
 6227SOL    HW219581   3.161   4.850   6.061
 6228SOL     OW19582   6.591   0.613   3.714
 6228SOL    HW119583   6.668   0.625   3.651
 6228SOL    HW219584   6.528   0.690   3.705
 6229SOL     OW19585   2.357   2.759   1.899
 6229SOL    HW119586   2.433   2.703   1.933
 6229SOL    HW219587   2.381   2.798   1.810
 6230SOL     OW19588   2.486   2.033   3.516
 6230SOL    HW119589   2.497   2.097   3.592
 6230SOL    HW219590   2.429   1.956   3.546
 6231SOL     OW19591   0.041   4.771   1.613
 6231SOL    HW119592   6.993   4.794   1.543
 6231SOL    HW219593   7.015   4.757   1.701
 6232SOL     OW19594   1.185   1.120   6.633
 6232SOL    HW119595   1.124   1.191   6.667
 6232SOL    HW219596   1.203   1.135   6.535
 6233SOL     OW19597   4.586   2.370   6.927
 6233SOL    HW119598   4.639   2.449   6.959
 6233SOL    HW219599   4.648   2.302   6.889
 6234SOL     OW19600   2.394   2.193   3.741
 6234SOL    HW119601   2.315   2.187   3.680
 6234SOL    HW219602   2.376   2.261   3.813
 6235SOL     OW19603   2.455   6.723   3.441
 6235SOL    HW119604   2.384   6.656   3.461
 6235SOL    HW219605   2.466   6.784   3.520
 6236SOL     OW19606   6.699   4.135   0.605
 6236SOL    HW119607   6.753   4.056   0.633
 6236SOL    HW219608   6.735   4.217   0.648
 6237SOL     OW19609   4.457   0.056   0.821
 6237SOL    HW119610   4.383   7.009   0.831
 6237SOL    HW219611   4.540   0.020   0.863
 6238SOL     OW19612   4.783   4.725   1.349
 6238SOL    HW119613   4.792   4.668   1.267
 6238SOL    HW219614   4.755   4.817   1.322
 6239SOL     OW19615   2.717   0.182   3.738
 6239SOL    HW119616   2.785   0.227   3.680
 6239SOL    HW219617   2.654   0.129   3.680
 6240SOL     OW19618   1.896   4.095   0.664
 6240SOL    HW119619   1.885   4.099   0.565
 6240SOL    HW219620   1.911   4.188   0.700
 6241SOL     OW19621   4.392   0.421   1.410
 6241SOL    HW119622   4.389   0.482   1.330
 6241SOL    HW219623   4.465   0.354   1.398
 6242SOL     OW19624   4.623   2.205   3.503
 6242SOL    HW119625   4.642   2.255   3.418
 6242SOL    HW219626   4.524   2.199   3.517
 6243SOL     OW19627   6.302   5.907   3.702
 6243SOL    HW119628   6.398   5.877   3.706
 6243SOL    HW219629   6.299   6.006   3.688
 6244SOL     OW19630   2.473   1.511   2.355
 6244SOL    HW119631   2.424   1.443   2.302
 6244SOL    HW219632   2.424   1.598   2.352
 6245SOL     OW19633   3.122   4.079   0.450
 6245SOL    HW119634   3.079   4.059   0.362
 6245SOL    HW219635   3.201   4.019   0.463
 6246SOL     OW19636   3.002   0.967   5.908
 6246SOL    HW119637   2.963   0.891   5.855
 6246SOL    HW219638   2.947   1.049   5.894
 6247SOL     OW19639   0.265   5.916   2.685
 6247SOL    HW119640   0.299   5.845   2.747
 6247SOL    HW219641   0.203   5.875   2.618
 6248SOL     OW19642   0.252   4.730   1.415
 6248SOL    HW119643   0.302   4.647   1.442
 6248SOL    HW219644   0.195   4.761   1.491
 6249SOL     OW19645   5.838   4.054   6.405
 6249SOL    HW119646   5.764   4.067   6.338
 6249SOL    HW219647   5.831   3.962   6.444
 6250SOL     OW19648   5.648   6.014   6.794
 6250SOL    HW119649   5.637   5.920   6.761
 6250SOL    HW219650   5.742   6.028   6.826
 6251SOL     OW19651   4.322   1.670   0.767
 6251SOL    HW119652   4.348   1.683   0.671
 6251SOL    HW219653   4.245   1.607   0.773
 6252SOL     OW19654   2.496   5.982   5.320
 6252SOL    HW119655   2.425   6.051   5.334
 6252SOL    HW219656   2.466   5.918   5.250
 6253SOL     OW19657   1.649   3.948   1.314
 6253SOL    HW119658   1.706   3.871   1.285
 6253SOL    HW219659   1.578   3.964   1.247
 6254SOL     OW19660   5.299   0.486   0.551
 6254SOL    HW119661   5.301   0.513   0.455
 6254SOL    HW219662   5.238   0.408   0.563
 6255SOL     OW19663   0.751   1.315   2.187
 6255SOL    HW119664   0.690   1.333   2.265
 6255SOL    HW219665   0.711   1.354   2.104
 6256SOL     OW19666   3.264   4.892   2.722
 6256SOL    HW119667   3.210   4.918   2.802
 6256SOL    HW219668   3.214   4.918   2.639
 6257SOL     OW19669   5.314   2.533   6.693
 6257SOL    HW119670   5.232   2.541   6.636
 6257SOL    HW219671   5.326   2.438   6.721
 6258SOL     OW19672   5.115   1.697   2.458
 6258SOL    HW119673   5.031   1.742   2.426
 6258SOL    HW219674   5.096   1.601   2.477
 6259SOL     OW19675   2.900   2.514   1.649
 6259SOL    HW119676   2.876   2.436   1.591
 6259SOL    HW219677   2.909   2.484   1.744
 6260SOL     OW19678   3.720   3.534   6.985
 6260SOL    HW119679   3.684   3.499   0.051
 6260SOL    HW219680   3.804   3.585   7.002
 6261SOL     OW19681   4.270   1.364   0.548
 6261SOL    HW119682   4.323   1.294   0.595
 6261SOL    HW219683   4.206   1.406   0.613
 6262SOL     OW19684   0.472   5.151   6.026
 6262SOL    HW119685   0.494   5.242   5.991
 6262SOL    HW219686   0.496   5.146   6.123
 6263SOL     OW19687   6.341   0.416   0.770
 6263SOL    HW119688   6.322   0.344   0.703
 6263SOL    HW219689   6.269   0.485   0.765
 6264SOL     OW19690   2.660   1.533   0.311
 6264SOL    HW119691   2.574   1.515   0.262
 6264SOL    HW219692   2.640   1.557   0.406
 6265SOL     OW19693   3.546   2.764   1.332
 6265SOL    HW119694   3.623   2.757   1.394
 6265SOL    HW219695   3.484   2.687   1.346
 6266SOL     OW19696   2.553   0.214   3.118
 6266SOL    HW119697   2.503   0.300   3.105
 6266SOL    HW219698   2.607   0.195   3.036
 6267SOL     OW19699   3.273   0.089   6.495
 6267SOL    HW119700   3.349   0.072   6.558
 6267SOL    HW219701   3.304   0.146   6.419
 6268SOL     OW19702   3.466   4.917   2.498
 6268SOL    HW119703   3.425   4.853   2.563
 6268SOL    HW219704   3.497   4.998   2.547
 6269SOL     OW19705   6.321   4.582   1.021
 6269SOL    HW119706   6.321   4.515   1.094
 6269SOL    HW219707   6.227   4.609   0.999
 6270SOL     OW19708   0.475   0.653   4.757
 6270SOL    HW119709   0.397   0.678   4.815
 6270SOL    HW219710   0.560   0.687   4.798
 6271SOL     OW19711   5.774   1.466   0.739
 6271SOL    HW119712   5.679   1.447   0.764
 6271SOL    HW219713   5.783   1.469   0.640
 6272SOL     OW19714   1.573   2.076   3.619
 6272SOL    HW119715   1.513   2.153   3.597
 6272SOL    HW219716   1.643   2.067   3.547
 6273SOL     OW19717   3.494   0.998   1.817
 6273SOL    HW119718   3.498   0.939   1.898
 6273SOL    HW219719   3.399   1.006   1.786
 6274SOL     OW19720   3.783   0.081   6.312
 6274SOL    HW119721   3.840   0.114   6.388
 6274SOL    HW219722   3.738   7.016   6.338
 6275SOL     OW19723   2.367   0.853   4.727
 6275SOL    HW119724   2.292   0.788   4.741
 6275SOL    HW219725   2.331   0.937   4.685
 6276SOL     OW19726   1.234   5.651   4.003
 6276SOL    HW119727   1.190   5.654   4.093
 6276SOL    HW219728   1.330   5.678   4.012
 6277SOL     OW19729   5.829   3.389   2.932
 6277SOL    HW119730   5.874   3.379   2.844
 6277SOL    HW219731   5.773   3.309   2.951
 6278SOL     OW19732   5.413   0.569   4.328
 6278SOL    HW119733   5.332   0.560   4.271
 6278SOL    HW219734   5.419   0.661   4.365
 6279SOL     OW19735   4.821   2.002   0.200
 6279SOL    HW119736   4.860   1.912   0.178
 6279SOL    HW219737   4.857   2.033   0.288
 6280SOL     OW19738   0.601   4.619   5.744
 6280SOL    HW119739   0.536   4.695   5.736
 6280SOL    HW219740   0.659   4.616   5.663
 6281SOL     OW19741   2.614   6.739   5.346
 6281SOL    HW119742   2.553   6.665   5.376
 6281SOL    HW219743   2.599   6.756   5.249
 6282SOL     OW19744   1.503   6.862   4.140
 6282SOL    HW119745   1.465   6.938   4.192
 6282SOL    HW219746   1.433   6.823   4.081
 6283SOL     OW19747   0.239   2.335   5.197
 6283SOL    HW119748   0.155   2.354   5.249
 6283SOL    HW219749   0.215   2.290   5.111
 6284SOL     OW19750   2.068   4.391   6.051
 6284SOL    HW119751   2.148   4.430   6.095
 6284SOL    HW219752   2.037   4.452   5.978
 6285SOL     OW19753   1.757   4.478   2.054
 6285SOL    HW119754   1.659   4.469   2.037
 6285SOL    HW219755   1.808   4.454   1.972
 6286SOL     OW19756   5.727   0.961   4.032
 6286SOL    HW119757   5.812   0.982   3.983
 6286SOL    HW219758   5.709   1.033   4.099
 6287SOL     OW19759   4.715   4.337   1.845
 6287SOL    HW119760   4.624   4.306   1.874
 6287SOL    HW219761   4.783   4.270   1.874
 6288SOL     OW19762   5.340   3.316   0.892
 6288SOL    HW119763   5.325   3.285   0.799
 6288SOL    HW219764   5.268   3.380   0.918
 6289SOL     OW19765   1.566   1.267   3.630
 6289SOL    HW119766   1.592   1.274   3.533
 6289SOL    HW219767   1.469   1.287   3.639
 6290SOL     OW19768   5.634   3.771   3.291
 6290SOL    HW119769   5.546   3.735   3.322
 6290SOL    HW219770   5.694   3.695   3.266
 6291SOL     OW19771   3.596   4.100   3.098
 6291SOL    HW119772   3.656   4.047   3.038
 6291SOL    HW219773   3.502   4.091   3.068
 6292SOL     OW19774   1.266   2.130   1.922
 6292SOL    HW119775   1.322   2.168   1.997
 6292SOL    HW219776   1.182   2.092   1.959
 6293SOL     OW19777   4.641   0.237   0.565
 6293SOL    HW119778   4.662   0.248   0.468
 6293SOL    HW219779   4.607   0.323   0.602
 6294SOL     OW19780   4.268   5.324   2.680
 6294SOL    HW119781   4.231   5.234   2.658
 6294SOL    HW219782   4.347   5.344   2.622
 6295SOL     OW19783   6.315   6.772   6.378
 6295SOL    HW119784   6.234   6.765   6.320
 6295SOL    HW219785   6.388   6.819   6.328
 6296SOL     OW19786   6.157   0.899   3.617
 6296SOL    HW119787   6.123   0.819   3.568
 6296SOL    HW219788   6.106   0.910   3.702
 6297SOL     OW19789   5.560   0.114   5.673
 6297SOL    HW119790   5.590   0.121   5.578
 6297SOL    HW219791   5.543   0.206   5.709
 6298SOL     OW19792   1.290   2.006   4.896
 6298SOL    HW119793   1.238   2.091   4.904
 6298SOL    HW219794   1.273   1.950   4.977
 6299SOL     OW19795   5.972   3.119   0.345
 6299SOL    HW119796   6.003   3.195   0.287
 6299SOL    HW219797   6.022   3.120   0.431
 6300SOL     OW19798   5.109   0.320   3.736
 6300SOL    HW119799   5.198   0.365   3.739
 6300SOL    HW219800   5.117   0.228   3.774
 6301SOL     OW19801   3.044   6.794   0.668
 6301SOL    HW119802   3.027   6.861   0.741
 6301SOL    HW219803   3.015   6.704   0.699
 6302SOL     OW19804   1.312   0.668   3.521
 6302SOL    HW119805   1.331   0.577   3.485
 6302SOL    HW219806   1.380   0.692   3.590
 6303SOL     OW19807   1.716   5.992   5.474
 6303SOL    HW119808   1.640   6.009   5.412
 6303SOL    HW219809   1.800   5.980   5.421
 6304SOL     OW19810   3.220   1.206   6.380
 6304SOL    HW119811   3.264   1.119   6.356
 6304SOL    HW219812   3.270   1.281   6.337
 6305SOL     OW19813   6.065   1.003   1.498
 6305SOL    HW119814   6.131   1.052   1.441
 6305SOL    HW219815   5.996   0.960   1.439
 6306SOL     OW19816   6.159   2.784   4.163
 6306SOL    HW119817   6.085   2.720   4.186
 6306SOL    HW219818   6.169   2.789   4.064
 6307SOL     OW19819   2.799   4.752   0.998
 6307SOL    HW119820   2.722   4.777   1.056
 6307SOL    HW219821   2.839   4.834   0.958
 6308SOL     OW19822   2.937   2.232   5.256
 6308SOL    HW119823   2.877   2.281   5.192
 6308SOL    HW219824   3.027   2.275   5.256
 6309SOL     OW19825   5.895   2.119   4.383
 6309SOL    HW119826   5.975   2.107   4.441
 6309SOL    HW219827   5.846   2.033   4.373
 6310SOL     OW19828   1.508   4.785   4.997
 6310SOL    HW119829   1.470   4.743   5.079
 6310SOL    HW219830   1.458   4.752   4.917
 6311SOL     OW19831   5.897   0.542   4.866
 6311SOL    HW119832   5.969   0.514   4.803
 6311SOL    HW219833   5.894   0.479   4.944
 6312SOL     OW19834   4.317   4.993   5.761
 6312SOL    HW119835   4.303   4.897   5.786
 6312SOL    HW219836   4.393   5.030   5.815
 6313SOL     OW19837   2.529   5.490   3.093
 6313SOL    HW119838   2.462   5.419   3.113
 6313SOL    HW219839   2.606   5.449   3.043
 6314SOL     OW19840   3.374   5.983   3.353
 6314SOL    HW119841   3.304   5.925   3.312
 6314SOL    HW219842   3.435   5.927   3.409
 6315SOL     OW19843   3.174   3.413   0.400
 6315SOL    HW119844   3.085   3.381   0.433
 6315SOL    HW219845   3.161   3.479   0.327
 6316SOL     OW19846   5.536   1.833   6.016
 6316SOL    HW119847   5.560   1.910   6.076
 6316SOL    HW219848   5.474   1.771   6.065
 6317SOL     OW19849   6.412   6.053   4.578
 6317SOL    HW119850   6.488   6.103   4.619
 6317SOL    HW219851   6.423   6.052   4.478
 6318SOL     OW19852   2.597   1.689   4.799
 6318SOL    HW119853   2.634   1.775   4.835
 6318SOL    HW219854   2.501   1.703   4.772
 6319SOL     OW19855   0.430   1.740   3.098
 6319SOL    HW119856   0.527   1.734   3.123
 6319SOL    HW219857   0.410   1.833   3.068
 6320SOL     OW19858   6.490   2.830   3.765
 6320SOL    HW119859   6.505   2.736   3.734
 6320SOL    HW219860   6.497   2.835   3.864
 6321SOL     OW19861   2.300   3.863   0.497
 6321SOL    HW119862   2.254   3.925   0.433
 6321SOL    HW219863   2.381   3.825   0.453
 6322SOL     OW19864   1.180   1.318   6.906
 6322SOL    HW119865   1.214   1.236   6.953
 6322SOL    HW219866   1.177   1.395   6.970
 6323SOL     OW19867   3.864   2.366   0.663
 6323SOL    HW119868   3.855   2.398   0.757
 6323SOL    HW219869   3.793   2.407   0.606
 6324SOL     OW19870   4.674   1.338   6.421
 6324SOL    HW119871   4.623   1.410   6.469
 6324SOL    HW219872   4.610   1.280   6.371
 6325SOL     OW19873   1.262   2.236   2.320
 6325SOL    HW119874   1.245   2.334   2.316
 6325SOL    HW219875   1.288   2.203   2.230
 6326SOL     OW19876   4.928   6.120   0.939
 6326SOL    HW119877   5.000   6.053   0.923
 6326SOL    HW219878   4.846   6.073   0.973
 6327SOL     OW19879   4.818   5.380   6.157
 6327SOL    HW119880   4.869   5.405   6.238
 6327SOL    HW219881   4.834   5.447   6.084
 6328SOL     OW19882   2.890   4.205   6.404
 6328SOL    HW119883   2.799   4.199   6.363
 6328SOL    HW219884   2.914   4.116   6.444
 6329SOL     OW19885   0.926   1.574   3.221
 6329SOL    HW119886   0.997   1.548   3.156
 6329SOL    HW219887   0.955   1.655   3.272
 6330SOL     OW19888   3.304   1.787   0.302
 6330SOL    HW119889   3.398   1.798   0.270
 6330SOL    HW219890   3.305   1.742   0.392
 6331SOL     OW19891   6.297   3.170   1.629
 6331SOL    HW119892   6.366   3.217   1.574
 6331SOL    HW219893   6.342   3.118   1.702
 6332SOL     OW19894   5.418   6.403   1.600
 6332SOL    HW119895   5.395   6.358   1.686
 6332SOL    HW219896   5.511   6.379   1.573
 6333SOL     OW19897   2.625   5.014   2.944
 6333SOL    HW119898   2.531   5.047   2.942
 6333SOL    HW219899   2.676   5.055   2.869
 6334SOL     OW19900   2.506   1.818   2.732
 6334SOL    HW119901   2.490   1.917   2.737
 6334SOL    HW219902   2.604   1.799   2.739
 6335SOL     OW19903   6.683   1.465   0.101
 6335SOL    HW119904   6.770   1.449   0.149
 6335SOL    HW219905   6.666   1.563   0.096
 6336SOL     OW19906   0.631   2.642   4.997
 6336SOL    HW119907   0.605   2.724   5.047
 6336SOL    HW219908   0.556   2.575   5.001
 6337SOL     OW19909   6.402   4.654   5.337
 6337SOL    HW119910   6.323   4.690   5.387
 6337SOL    HW219911   6.374   4.577   5.281
 6338SOL     OW19912   3.947   1.105   3.506
 6338SOL    HW119913   3.876   1.131   3.439
 6338SOL    HW219914   4.037   1.121   3.466
 6339SOL     OW19915   6.658   2.172   4.635
 6339SOL    HW119916   6.654   2.166   4.735
 6339SOL    HW219917   6.588   2.234   4.602
 6340SOL     OW19918   1.987   5.388   4.127
 6340SOL    HW119919   2.001   5.303   4.076
 6340SOL    HW219920   1.981   5.368   4.224
 6341SOL     OW19921   0.126   4.199   2.884
 6341SOL    HW119922   0.058   4.207   2.811
 6341SOL    HW219923   0.144   4.102   2.902
 6342SOL     OW19924   1.596   2.848   0.670
 6342SOL    HW119925   1.689   2.882   0.681
 6342SOL    HW219926   1.558   2.826   0.760
 6343SOL     OW19927   4.071   1.279   6.743
 6343SOL    HW119928   4.029   1.190   6.759
 6343SOL    HW219929   4.016   1.350   6.787
 6344SOL     OW19930   0.740   4.111   4.265
 6344SOL    HW119931   0.778   4.055   4.192
 6344SOL    HW219932   0.641   4.100   4.268
 6345SOL     OW19933   3.451   1.857   2.221
 6345SOL    HW119934   3.431   1.898   2.131
 6345SOL    HW219935   3.462   1.930   2.288
 6346SOL     OW19936   1.079   4.935   3.672
 6346SOL    HW119937   1.136   4.875   3.729
 6346SOL    HW219938   0.987   4.941   3.710
 6347SOL     OW19939   3.573   0.462   1.375
 6347SOL    HW119940   3.523   0.400   1.436
 6347SOL    HW219941   3.526   0.550   1.371
 6348SOL     OW19942   1.364   3.039   3.977
 6348SOL    HW119943   1.412   3.037   3.889
 6348SOL    HW219944   1.413   3.098   4.041
 6349SOL     OW19945   2.548   0.184   0.366
 6349SOL    HW119946   2.586   0.092   0.373
 6349SOL    HW219947   2.455   0.185   0.401
 6350SOL     OW19948   1.334   6.363   2.037
 6350SOL    HW119949   1.293   6.453   2.053
 6350SOL    HW219950   1.328   6.308   2.120
 6351SOL     OW19951   0.174   1.090   2.989
 6351SOL    HW119952   0.246   1.038   3.033
 6351SOL    HW219953   0.137   1.038   2.911
 6352SOL     OW19954   0.142   5.608   1.851
 6352SOL    HW119955   0.087   5.678   1.897
 6352SOL    HW219956   0.129   5.521   1.898
 6353SOL     OW19957   0.119   6.752   1.947
 6353SOL    HW119958   0.056   6.733   2.022
 6353SOL    HW219959   0.209   6.715   1.968
 6354SOL     OW19960   0.468   6.858   3.810
 6354SOL    HW119961   0.550   6.843   3.754
 6354SOL    HW219962   0.494   6.906   3.894
 6355SOL     OW19963   1.999   2.328   3.081
 6355SOL    HW119964   2.049   2.383   3.148
 6355SOL    HW219965   2.049   2.328   2.994
 6356SOL     OW19966   3.320   3.446   1.196
 6356SOL    HW119967   3.269   3.485   1.272
 6356SOL    HW219968   3.403   3.500   1.181
 6357SOL     OW19969   4.409   2.309   0.096
 6357SOL    HW119970   4.473   2.343   0.027
 6357SOL    HW219971   4.456   2.299   0.184
 6358SOL     OW19972   0.407   2.240   3.704
 6358SOL    HW119973   0.320   2.198   3.729
 6358SOL    HW219974   0.467   2.171   3.663
 6359SOL     OW19975   0.239   1.145   7.006
 6359SOL    HW119976   0.179   1.130   0.064
 6359SOL    HW219977   0.184   1.165   6.925
 6360SOL     OW19978   3.139   5.784   4.041
 6360SOL    HW119979   3.232   5.809   4.013
 6360SOL    HW219980   3.141   5.752   4.136
 6361SOL     OW19981   3.799   6.046   6.214
 6361SOL    HW119982   3.870   6.116   6.224
 6361SOL    HW219983   3.815   5.972   6.278
 6362SOL     OW19984   6.288   5.235   6.338
 6362SOL    HW119985   6.237   5.312   6.376
 6362SOL    HW219986   6.366   5.269   6.286
 6363SOL     OW19987   0.816   5.861   3.837
 6363SOL    HW119988   0.884   5.805   3.790
 6363SOL    HW219989   0.835   5.862   3.935
 6364SOL     OW19990   2.704   2.252   6.022
 6364SOL    HW119991   2.742   2.214   5.938
 6364SOL    HW219992   2.741   2.344   6.037
 6365SOL     OW19993   5.294   6.010   2.391
 6365SOL    HW119994   5.208   6.056   2.411
 6365SOL    HW219995   5.351   6.007   2.473
 6366SOL     OW19996   0.111   4.799   5.868
 6366SOL    HW119997   0.080   4.705   5.859
 6366SOL    HW219998   0.033   4.859   5.884
 6367SOL     OW19999   5.719   6.036   3.685
 6367SOL    HW120000   5.647   6.062   3.749
 6367SOL    HW220001   5.808   6.061   3.723
 6368SOL     OW20002   2.406   0.175   4.167
 6368SOL    HW120003   2.392   0.173   4.068
 6368SOL    HW220004   2.319   0.193   4.212
 6369SOL     OW20005   2.272   5.431   4.420
 6369SOL    HW120006   2.303   5.336   4.409
 6369SOL    HW220007   2.331   5.478   4.485
 6370SOL     OW20008   6.111   2.597   1.561
 6370SOL    HW120009   6.083   2.567   1.470
 6370SOL    HW220010   6.153   2.687   1.555
 6371SOL     OW20011   4.970   2.307   3.156
 6371SOL    HW120012   4.961   2.371   3.081
 6371SOL    HW220013   5.024   2.349   3.230
 6372SOL     OW20014   3.134   6.251   2.454
 6372SOL    HW120015   3.062   6.252   2.523
 6372SOL    HW220016   3.133   6.337   2.404
 6373SOL     OW20017   3.494   4.614   0.021
 6373SOL    HW120018   3.394   4.611   0.024
 6373SOL    HW220019   3.530   4.613   0.115
 6374SOL     OW20020   3.396   2.851   2.301
 6374SOL    HW120021   3.345   2.771   2.333
 6374SOL    HW220022   3.332   2.928   2.291
 6375SOL     OW20023   1.776   6.638   2.361
 6375SOL    HW120024   1.779   6.691   2.445
 6375SOL    HW220025   1.862   6.589   2.348
 6376SOL     OW20026   0.104   2.270   5.458
 6376SOL    HW120027   0.079   2.355   5.412
 6376SOL    HW220028   0.193   2.239   5.424
 6377SOL     OW20029   0.845   0.952   4.253
 6377SOL    HW120030   0.869   0.952   4.350
 6377SOL    HW220031   0.913   1.005   4.202
 6378SOL     OW20032   4.650   4.306   3.736
 6378SOL    HW120033   4.664   4.315   3.835
 6378SOL    HW220034   4.556   4.329   3.713
 6379SOL     OW20035   2.708   4.593   3.220
 6379SOL    HW120036   2.733   4.669   3.160
 6379SOL    HW220037   2.713   4.507   3.169
 6380SOL     OW20038   0.910   0.626   5.993
 6380SOL    HW120039   0.825   0.575   5.975
 6380SOL    HW220040   0.987   0.578   5.950
 6381SOL     OW20041   3.042   3.762   2.623
 6381SOL    HW120042   3.014   3.853   2.593
 6381SOL    HW220043   3.020   3.695   2.551
 6382SOL     OW20044   1.301   3.913   5.651
 6382SOL    HW120045   1.380   3.951   5.700
 6382SOL    HW220046   1.217   3.956   5.685
 6383SOL     OW20047   3.464   1.268   3.896
 6383SOL    HW120048   3.531   1.332   3.934
 6383SOL    HW220049   3.505   1.219   3.820
 6384SOL     OW20050   6.151   4.565   3.290
 6384SOL    HW120051   6.175   4.469   3.278
 6384SOL    HW220052   6.188   4.598   3.378
 6385SOL     OW20053   0.521   5.832   4.818
 6385SOL    HW120054   0.458   5.760   4.790
 6385SOL    HW220055   0.611   5.815   4.777
 6386SOL     OW20056   2.767   5.502   1.220
 6386SOL    HW120057   2.824   5.487   1.139
 6386SOL    HW220058   2.805   5.449   1.297
 6387SOL     OW20059   6.509   1.113   5.370
 6387SOL    HW120060   6.412   1.090   5.363
 6387SOL    HW220061   6.561   1.056   5.306
 6388SOL     OW20062   2.565   4.630   2.657
 6388SOL    HW120063   2.630   4.645   2.582
 6388SOL    HW220064   2.472   4.624   2.619
 6389SOL     OW20065   1.137   4.943   2.614
 6389SOL    HW120066   1.063   4.948   2.681
 6389SOL    HW220067   1.104   4.899   2.530
 6390SOL     OW20068   0.548   3.262   3.721
 6390SOL    HW120069   0.603   3.192   3.675
 6390SOL    HW220070   0.590   3.286   3.808
 6391SOL     OW20071   3.152   1.100   0.175
 6391SOL    HW120072   3.157   1.068   0.080
 6391SOL    HW220073   3.129   1.197   0.176
 6392SOL     OW20074   1.292   6.883   3.763
 6392SOL    HW120075   1.299   6.837   3.852
 6392SOL    HW220076   1.247   6.972   3.775
 6393SOL     OW20077   5.755   0.558   0.529
 6393SOL    HW120078   5.680   0.495   0.546
 6393SOL    HW220079   5.801   0.580   0.615
 6394SOL     OW20080   3.094   4.827   1.155
 6394SOL    HW120081   3.046   4.745   1.122
 6394SOL    HW220082   3.117   4.815   1.252
 6395SOL     OW20083   5.677   1.628   1.051
 6395SOL    HW120084   5.666   1.548   1.110
 6395SOL    HW220085   5.627   1.614   0.965
 6396SOL     OW20086   5.375   4.315   5.364
 6396SOL    HW120087   5.302   4.247   5.365
 6396SOL    HW220088   5.443   4.289   5.295
 6397SOL     OW20089   0.347   1.079   0.926
 6397SOL    HW120090   0.350   1.175   0.899
 6397SOL    HW220091   0.278   1.066   0.998
 6398SOL     OW20092   3.662   1.616   1.257
 6398SOL    HW120093   3.637   1.709   1.229
 6398SOL    HW220094   3.583   1.556   1.246
 6399SOL     OW20095   2.276   5.429   6.909
 6399SOL    HW120096   2.268   5.528   6.917
 6399SOL    HW220097   2.373   5.403   6.912
 6400SOL     OW20098   2.777   5.738   3.802
 6400SOL    HW120099   2.849   5.677   3.834
 6400SOL    HW220100   2.818   5.822   3.766
 6401SOL     OW20101   0.913   5.131   3.834
 6401SOL    HW120102   0.900   5.069   3.912
 6401SOL    HW220103   0.976   5.204   3.860
 6402SOL     OW20104   2.105   1.727   3.095
 6402SOL    HW120105   2.109   1.761   3.189
 6402SOL    HW220106   2.075   1.632   3.096
 6403SOL     OW20107   0.037   6.317   0.909
 6403SOL    HW120108   6.989   6.391   0.905
 6403SOL    HW220109   0.090   6.316   0.825
 6404SOL     OW20110   5.088   0.650   2.770
 6404SOL    HW120111   5.141   0.566   2.784
 6404SOL    HW220112   5.040   0.674   2.854
 6405SOL     OW20113   2.941   1.215   2.308
 6405SOL    HW120114   2.919   1.244   2.401
 6405SOL    HW220115   2.917   1.287   2.244
 6406SOL     OW20116   2.462   1.520   3.751
 6406SOL    HW120117   2.490   1.440   3.698
 6406SOL    HW220118   2.398   1.492   3.823
 6407SOL     OW20119   3.899   5.624   6.155
 6407SOL    HW120120   3.949   5.572   6.086
 6407SOL    HW220121   3.842   5.693   6.110
 6408SOL     OW20122   6.423   2.128   0.098
 6408SOL    HW120123   6.423   2.030   0.119
 6408SOL    HW220124   6.336   2.153   0.054
 6409SOL     OW20125   1.105   4.839   2.373
 6409SOL    HW120126   1.159   4.787   2.306
 6409SOL    HW220127   1.008   4.822   2.358
 6410SOL     OW20128   0.889   1.632   1.444
 6410SOL    HW120129   0.946   1.677   1.375
 6410SOL    HW220130   0.802   1.605   1.402
 6411SOL     OW20131   1.495   0.763   3.845
 6411SOL    HW120132   1.459   0.846   3.803
 6411SOL    HW220133   1.529   0.784   3.937
 6412SOL     OW20134   0.033   2.049   4.637
 6412SOL    HW120135   7.006   1.963   4.656
 6412SOL    HW220136   0.044   2.059   4.538
 6413SOL     OW20137   6.855   4.772   0.661
 6413SOL    HW120138   6.882   4.755   0.567
 6413SOL    HW220139   6.818   4.865   0.668
 6414SOL     OW20140   5.756   6.972   2.331
 6414SOL    HW120141   5.768   6.962   2.430
 6414SOL    HW220142   5.832   6.928   2.283
 6415SOL     OW20143   1.604   1.785   1.905
 6415SOL    HW120144   1.576   1.699   1.947
 6415SOL    HW220145   1.599   1.859   1.972
 6416SOL     OW20146   1.682   6.925   6.659
 6416SOL    HW120147   1.591   6.963   6.641
 6416SOL    HW220148   1.748   6.968   6.598
 6417SOL     OW20149   1.091   0.100   2.830
 6417SOL    HW120150   1.173   0.129   2.781
 6417SOL    HW220151   1.046   0.027   2.778
 6418SOL     OW20152   6.032   6.268   2.330
 6418SOL    HW120153   5.959   6.336   2.314
 6418SOL    HW220154   6.120   6.310   2.310
 6419SOL     OW20155   3.121   4.738   1.450
 6419SOL    HW120156   3.116   4.660   1.511
 6419SOL    HW220157   3.054   4.807   1.478
 6420SOL     OW20158   1.141   3.637   6.607
 6420SOL    HW120159   1.230   3.619   6.564
 6420SOL    HW220160   1.070   3.586   6.558
 6421SOL     OW20161   5.417   1.898   1.007
 6421SOL    HW120162   5.457   1.883   1.097
 6421SOL    HW220163   5.320   1.877   1.009
 6422SOL     OW20164   5.912   1.668   3.027
 6422SOL    HW120165   5.915   1.621   2.939
 6422SOL    HW220166   5.849   1.745   3.022
 6423SOL     OW20167   5.053   4.336   0.291
 6423SOL    HW120168   5.085   4.430   0.293
 6423SOL    HW220169   5.008   4.314   0.378
 6424SOL     OW20170   6.798   5.345   4.894
 6424SOL    HW120171   6.757   5.436   4.901
 6424SOL    HW220172   6.832   5.317   4.984
 6425SOL     OW20173   0.461   4.882   1.693
 6425SOL    HW120174   0.478   4.896   1.596
 6425SOL    HW220175   0.528   4.817   1.730
 6426SOL     OW20176   6.638   2.993   3.585
 6426SOL    HW120177   6.587   3.022   3.504
 6426SOL    HW220178   6.578   2.942   3.646
 6427SOL     OW20179   1.888   3.422   5.256
 6427SOL    HW120180   1.940   3.380   5.182
 6427SOL    HW220181   1.906   3.373   5.341
 6428SOL     OW20182   6.295   2.796   2.700
 6428SOL    HW120183   6.344   2.823   2.617
 6428SOL    HW220184   6.353   2.737   2.756
 6429SOL     OW20185   1.061   0.888   4.583
 6429SOL    HW120186   1.005   0.820   4.537
 6429SOL    HW220187   1.028   0.902   4.676
 6430SOL     OW20188   6.038   3.647   0.691
 6430SOL    HW120189   5.977   3.698   0.752
 6430SOL    HW220190   5.987   3.615   0.611
 6431SOL     OW20191   5.203   6.984   3.084
 6431SOL    HW120192   5.269   6.914   3.109
 6431SOL    HW220193   5.212   0.042   3.146
 6432SOL     OW20194   5.549   3.179   0.484
 6432SOL    HW120195   5.485   3.124   0.431
 6432SOL    HW220196   5.623   3.210   0.425
 6433SOL     OW20197   2.434   3.854   1.681
 6433SOL    HW120198   2.363   3.920   1.656
 6433SOL    HW220199   2.393   3.765   1.698
 6434SOL     OW20200   1.437   4.750   1.013
 6434SOL    HW120201   1.411   4.747   0.916
 6434SOL    HW220202   1.439   4.845   1.043
 6435SOL     OW20203   5.056   4.378   6.985
 6435SOL    HW120204   5.095   4.431   6.910
 6435SOL    HW220205   4.973   4.331   6.953
 6436SOL     OW20206   1.582   2.847   2.664
 6436SOL    HW120207   1.483   2.854   2.670
 6436SOL    HW220208   1.609   2.751   2.676
 6437SOL     OW20209   1.036   0.979   6.839
 6437SOL    HW120210   0.960   1.027   6.884
 6437SOL    HW220211   1.038   1.005   6.742
 6438SOL     OW20212   1.435   3.322   3.276
 6438SOL    HW120213   1.452   3.402   3.334
 6438SOL    HW220214   1.499   3.322   3.199
 6439SOL     OW20215   0.474   0.304   1.853
 6439SOL    HW120216   0.508   0.223   1.901
 6439SOL    HW220217   0.549   0.370   1.842
 6440SOL     OW20218   0.989   1.332   2.646
 6440SOL    HW120219   0.986   1.393   2.725
 6440SOL    HW220220   0.958   1.381   2.565
 6441SOL     OW20221   3.654   1.510   3.676
 6441SOL    HW120222   3.625   1.450   3.602
 6441SOL    HW220223   3.726   1.571   3.643
 6442SOL     OW20224   3.303   0.886   3.484
 6442SOL    HW120225   3.370   0.822   3.447
 6442SOL    HW220226   3.211   0.860   3.453
 6443SOL     OW20227   2.915   1.258   0.414
 6443SOL    HW120228   2.953   1.348   0.393
 6443SOL    HW220229   2.865   1.224   0.335
 6444SOL     OW20230   0.589   0.715   3.385
 6444SOL    HW120231   0.640   0.718   3.299
 6444SOL    HW220232   0.616   0.792   3.442
 6445SOL     OW20233   4.028   3.137   5.183
 6445SOL    HW120234   4.014   3.097   5.273
 6445SOL    HW220235   3.998   3.073   5.112
 6446SOL     OW20236   6.259   1.587   0.426
 6446SOL    HW120237   6.302   1.657   0.484
 6446SOL    HW220238   6.225   1.513   0.484
 6447SOL     OW20239   1.856   0.566   3.056
 6447SOL    HW120240   1.835   0.560   2.959
 6447SOL    HW220241   1.955   0.578   3.068
 6448SOL     OW20242   5.875   2.163   2.817
 6448SOL    HW120243   5.971   2.135   2.817
 6448SOL    HW220244   5.818   2.087   2.787
 6449SOL     OW20245   3.557   2.872   1.065
 6449SOL    HW120246   3.570   2.818   1.148
 6449SOL    HW220247   3.540   2.967   1.089
 6450SOL     OW20248   6.780   3.257   6.891
 6450SOL    HW120249   6.856   3.284   6.950
 6450SOL    HW220250   6.709   3.327   6.893
 6451SOL     OW20251   2.151   6.789   4.217
 6451SOL    HW120252   2.172   6.691   4.216
 6451SOL    HW220253   2.053   6.803   4.228
 6452SOL     OW20254   4.356   6.672   3.115
 6452SOL    HW120255   4.375   6.748   3.053
 6452SOL    HW220256   4.290   6.610   3.071
 6453SOL     OW20257   1.753   5.382   6.301
 6453SOL    HW120258   1.673   5.323   6.307
 6453SOL    HW220259   1.836   5.328   6.308
 6454SOL     OW20260   3.290   1.440   4.409
 6454SOL    HW120261   3.231   1.514   4.441
 6454SOL    HW220262   3.382   1.475   4.395
 6455SOL     OW20263   6.375   2.850   4.982
 6455SOL    HW120264   6.385   2.804   5.070
 6455SOL    HW220265   6.282   2.884   4.972
 6456SOL     OW20266   6.873   1.016   4.655
 6456SOL    HW120267   6.907   1.110   4.658
 6456SOL    HW220268   6.774   1.016   4.669
 6457SOL     OW20269   6.841   3.052   1.389
 6457SOL    HW120270   6.902   3.066   1.467
 6457SOL    HW220271   6.834   3.137   1.337
 6458SOL     OW20272   1.158   5.487   2.461
 6458SOL    HW120273   1.212   5.406   2.484
 6458SOL    HW220274   1.124   5.529   2.544
 6459SOL     OW20275   5.248   4.580   0.557
 6459SOL    HW120276   5.162   4.604   0.603
 6459SOL    HW220277   5.233   4.577   0.458
 6460SOL     OW20278   3.210   4.939   6.237
 6460SOL    HW120279   3.192   5.034   6.210
 6460SOL    HW220280   3.291   4.936   6.296
 6461SOL     OW20281   3.763   5.667   4.621
 6461SOL    HW120282   3.775   5.600   4.694
 6461SOL    HW220283   3.770   5.759   4.660
 6462SOL     OW20284   1.953   3.334   3.911
 6462SOL    HW120285   2.026   3.289   3.963
 6462SOL    HW220286   1.969   3.322   3.813
 6463SOL     OW20287   1.589   4.431   5.167
 6463SOL    HW120288   1.529   4.351   5.172
 6463SOL    HW220289   1.650   4.433   5.246
 6464SOL     OW20290   0.843   5.361   3.209
 6464SOL    HW120291   0.782   5.285   3.230
 6464SOL    HW220292   0.932   5.345   3.251
 6465SOL     OW20293   6.112   0.485   3.184
 6465SOL    HW120294   6.166   0.476   3.100
 6465SOL    HW220295   6.042   0.414   3.186
 6466SOL     OW20296   0.070   2.329   4.956
 6466SOL    HW120297   0.088   2.319   4.858
 6466SOL    HW220298   0.060   2.425   4.979
 6467SOL     OW20299   2.617   0.754   6.663
 6467SOL    HW120300   2.675   0.757   6.581
 6467SOL    HW220301   2.531   0.708   6.642
 6468SOL     OW20302   4.798   4.694   0.899
 6468SOL    HW120303   4.818   4.759   0.825
 6468SOL    HW220304   4.700   4.694   0.917
 6469SOL     OW20305   0.160   1.229   5.752
 6469SOL    HW120306   0.136   1.268   5.663
 6469SOL    HW220307   0.077   1.207   5.802
 6470SOL     OW20308   6.518   6.313   5.799
 6470SOL    HW120309   6.547   6.267   5.883
 6470SOL    HW220310   6.419   6.322   5.798
 6471SOL     OW20311   5.757   4.945   5.507
 6471SOL    HW120312   5.742   4.919   5.603
 6471SOL    HW220313   5.731   4.869   5.447
 6472SOL     OW20314   1.187   5.725   0.884
 6472SOL    HW120315   1.217   5.752   0.792
 6472SOL    HW220316   1.088   5.711   0.883
 6473SOL     OW20317   2.725   1.572   5.829
 6473SOL    HW120318   2.821   1.599   5.826
 6473SOL    HW220319   2.685   1.598   5.917
 6474SOL     OW20320   2.064   3.270   5.450
 6474SOL    HW120321   2.066   3.188   5.508
 6474SOL    HW220322   2.145   3.271   5.391
 6475SOL     OW20323   4.383   6.427   3.936
 6475SOL    HW120324   4.456   6.360   3.921
 6475SOL    HW220325   4.329   6.436   3.853
 6476SOL     OW20326   4.606   5.781   3.080
 6476SOL    HW120327   4.700   5.748   3.069
 6476SOL    HW220328   4.549   5.744   3.007
 6477SOL     OW20329   0.075   5.948   6.816
 6477SOL    HW120330   0.021   5.907   6.889
 6477SOL    HW220331   0.038   6.039   6.794
 6478SOL     OW20332   4.940   6.621   1.160
 6478SOL    HW120333   5.028   6.658   1.128
 6478SOL    HW220334   4.946   6.521   1.165
 6479SOL     OW20335   3.538   5.171   2.590
 6479SOL    HW120336   3.627   5.210   2.616
 6479SOL    HW220337   3.476   5.174   2.668
 6480SOL     OW20338   3.290   2.463   6.664
 6480SOL    HW120339   3.199   2.424   6.655
 6480SOL    HW220340   3.292   2.526   6.741
 6481SOL     OW20341   4.819   0.768   1.528
 6481SOL    HW120342   4.910   0.726   1.526
 6481SOL    HW220343   4.828   0.866   1.547
 6482SOL     OW20344   0.309   0.553   6.765
 6482SOL    HW120345   0.327   0.455   6.761
 6482SOL    HW220346   0.274   0.577   6.856
 6483SOL     OW20347   2.066   6.573   2.357
 6483SOL    HW120348   2.143   6.592   2.418
 6483SOL    HW220349   2.101   6.557   2.264
 6484SOL     OW20350   5.680   6.572   3.640
 6484SOL    HW120351   5.721   6.495   3.591
 6484SOL    HW220352   5.596   6.599   3.594
 6485SOL     OW20353   1.524   2.561   3.088
 6485SOL    HW120354   1.624   2.556   3.084
 6485SOL    HW220355   1.494   2.646   3.044
 6486SOL     OW20356   1.848   2.684   3.246
 6486SOL    HW120357   1.778   2.755   3.238
 6486SOL    HW220358   1.847   2.627   3.164
 6487SOL     OW20359   5.966   6.086   3.822
 6487SOL    HW120360   5.972   6.002   3.874
 6487SOL    HW220361   5.999   6.163   3.877
 6488SOL     OW20362   3.251   5.826   5.858
 6488SOL    HW120363   3.319   5.757   5.881
 6488SOL    HW220364   3.264   5.854   5.762
 6489SOL     OW20365   1.907   1.673   5.514
 6489SOL    HW120366   1.993   1.621   5.514
 6489SOL    HW220367   1.848   1.639   5.587
 6490SOL     OW20368   3.373   1.170   0.413
 6490SOL    HW120369   3.315   1.180   0.332
 6490SOL    HW220370   3.315   1.167   0.495
 6491SOL     OW20371   3.508   1.825   6.405
 6491SOL    HW120372   3.489   1.908   6.457
 6491SOL    HW220373   3.433   1.760   6.418
 6492SOL     OW20374   6.000   5.633   0.093
 6492SOL    HW120375   6.087   5.673   0.124
 6492SOL    HW220376   5.925   5.693   0.121
 6493SOL     OW20377   0.787   6.470   6.032
 6493SOL    HW120378   0.870   6.516   6.003
 6493SOL    HW220379   0.791   6.374   6.007
 6494SOL     OW20380   1.489   0.148   3.901
 6494SOL    HW120381   1.500   0.217   3.972
 6494SOL    HW220382   1.393   0.118   3.898
 6495SOL     OW20383   5.200   4.982   2.712
 6495SOL    HW120384   5.172   4.895   2.752
 6495SOL    HW220385   5.149   5.057   2.754
 6496SOL     OW20386   2.239   0.000   2.370
 6496SOL    HW120387   2.217   0.079   2.428
 6496SOL    HW220388   2.155   6.983   2.331
 6497SOL     OW20389   0.748   4.565   6.842
 6497SOL    HW120390   0.798   4.518   6.915
 6497SOL    HW220391   0.762   4.663   6.851
 6498SOL     OW20392   1.867   4.438   4.139
 6498SOL    HW120393   1.916   4.455   4.225
 6498SOL    HW220394   1.907   4.358   4.094
 6499SOL     OW20395   6.009   1.343   4.143
 6499SOL    HW120396   6.003   1.303   4.052
 6499SOL    HW220397   6.092   1.312   4.189
 6500SOL     OW20398   5.501   4.694   3.756
 6500SOL    HW120399   5.435   4.664   3.688
 6500SOL    HW220400   5.472   4.782   3.794
 6501SOL     OW20401   0.021   3.764   1.227
 6501SOL    HW120402   6.947   3.794   1.211
 6501SOL    HW220403   0.023   3.664   1.230
 6502SOL     OW20404   1.297   5.855   2.831
 6502SOL    HW120405   1.293   5.934   2.771
 6502SOL    HW220406   1.341   5.881   2.917
 6503SOL     OW20407   4.657   0.086   4.788
 6503SOL    HW120408   4.662   0.087   4.688
 6503SOL    HW220409   4.698   0.002   4.823
 6504SOL     OW20410   2.845   1.121   0.869
 6504SOL    HW120411   2.878   1.120   0.774
 6504SOL    HW220412   2.894   1.191   0.920
 6505SOL     OW20413   5.518   4.955   0.827
 6505SOL    HW120414   5.569   4.891   0.885
 6505SOL    HW220415   5.482   4.906   0.747
 6506SOL     OW20416   2.138   2.439   0.590
 6506SOL    HW120417   2.209   2.400   0.532
 6506SOL    HW220418   2.178   2.504   0.653
 6507SOL     OW20419   2.709   0.959   2.112
 6507SOL    HW120420   2.714   1.056   2.087
 6507SOL    HW220421   2.671   0.907   2.036
 6508SOL     OW20422   1.835   1.727   2.479
 6508SOL    HW120423   1.910   1.683   2.430
 6508SOL    HW220424   1.773   1.658   2.516
 6509SOL     OW20425   0.438   2.319   4.332
 6509SOL    HW120426   0.426   2.406   4.380
 6509SOL    HW220427   0.483   2.254   4.393
 6510SOL     OW20428   5.639   4.802   6.044
 6510SOL    HW120429   5.631   4.893   6.086
 6510SOL    HW220430   5.585   4.800   5.960
 6511SOL     OW20431   6.301   6.120   6.166
 6511SOL    HW120432   6.270   6.027   6.182
 6511SOL    HW220433   6.223   6.177   6.139
 6512SOL     OW20434   4.893   6.610   3.642
 6512SOL    HW120435   4.877   6.704   3.610
 6512SOL    HW220436   4.806   6.567   3.665
 6513SOL     OW20437   3.037   7.009   2.807
 6513SOL    HW120438   2.975   6.982   2.733
 6513SOL    HW220439   3.110   0.045   2.771
 6514SOL     OW20440   3.556   6.947   3.418
 6514SOL    HW120441   3.620   0.002   3.435
 6514SOL    HW220442   3.464   6.975   3.446
 6515SOL     OW20443   1.322   0.766   5.010
 6515SOL    HW120444   1.314   0.861   5.040
 6515SOL    HW220445   1.408   0.754   4.960
 6516SOL     OW20446   1.317   1.309   5.932
 6516SOL    HW120447   1.365   1.357   5.858
 6516SOL    HW220448   1.286   1.220   5.899
 6517SOL     OW20449   1.074   1.895   6.829
 6517SOL    HW120450   1.125   1.918   6.746
 6517SOL    HW220451   1.126   1.925   6.909
 6518SOL     OW20452   6.275   5.962   0.942
 6518SOL    HW120453   6.373   5.939   0.944
 6518SOL    HW220454   6.256   6.031   1.012
 6519SOL     OW20455   2.422   1.803   3.676
 6519SOL    HW120456   2.401   1.854   3.760
 6519SOL    HW220457   2.440   1.708   3.699
 6520SOL     OW20458   5.547   5.488   1.510
 6520SOL    HW120459   5.589   5.459   1.596
 6520SOL    HW220460   5.596   5.448   1.433
 6521SOL     OW20461   1.240   1.860   5.594
 6521SOL    HW120462   1.248   1.761   5.579
 6521SOL    HW220463   1.295   1.886   5.673
 6522SOL     OW20464   2.129   5.309   5.316
 6522SOL    HW120465   2.203   5.352   5.367
 6522SOL    HW220466   2.042   5.329   5.359
 6523SOL     OW20467   1.665   1.965   6.559
 6523SOL    HW120468   1.741   2.013   6.603
 6523SOL    HW220469   1.654   1.999   6.466
 6524SOL     OW20470   3.576   3.559   4.172
 6524SOL    HW120471   3.670   3.549   4.204
 6524SOL    HW220472   3.520   3.601   4.244
 6525SOL     OW20473   0.139   2.604   4.165
 6525SOL    HW120474   0.140   2.568   4.072
 6525SOL    HW220475   0.163   2.531   4.229
 6526SOL     OW20476   1.517   6.342   4.723
 6526SOL    HW120477   1.425   6.354   4.686
 6526SOL    HW220478   1.580   6.315   4.650
 6527SOL     OW20479   1.710   1.549   4.394
 6527SOL    HW120480   1.669   1.635   4.423
 6527SOL    HW220481   1.757   1.562   4.307
 6528SOL     OW20482   6.327   0.420   3.861
 6528SOL    HW120483   6.248   0.377   3.905
 6528SOL    HW220484   6.359   0.496   3.917
 6529SOL     OW20485   6.759   2.311   1.891
 6529SOL    HW120486   6.789   2.216   1.888
 6529SOL    HW220487   6.837   2.371   1.869
 6530SOL     OW20488   0.172   2.128   0.666
 6530SOL    HW120489   0.133   2.219   0.651
 6530SOL    HW220490   0.259   2.121   0.615
 6531SOL     OW20491   4.849   2.997   4.245
 6531SOL    HW120492   4.868   3.094   4.262
 6531SOL    HW220493   4.935   2.946   4.242
 6532SOL     OW20494   0.463   1.757   6.673
 6532SOL    HW120495   0.510   1.732   6.758
 6532SOL    HW220496   0.499   1.843   6.639
 6533SOL     OW20497   4.880   0.789   1.261
 6533SOL    HW120498   4.810   0.836   1.206
 6533SOL    HW220499   4.838   0.746   1.340
 6534SOL     OW20500   2.002   3.778   1.036
 6534SOL    HW120501   1.983   3.853   0.973
 6534SOL    HW220502   2.044   3.702   0.987
 6535SOL     OW20503   1.629   3.672   5.699
 6535SOL    HW120504   1.612   3.737   5.624
 6535SOL    HW220505   1.727   3.665   5.715
 6536SOL     OW20506   0.096   2.480   0.133
 6536SOL    HW120507   0.039   2.405   0.099
 6536SOL    HW220508   0.177   2.443   0.178
 6537SOL     OW20509   0.664   0.056   0.442
 6537SOL    HW120510   0.587   0.087   0.386
 6537SOL    HW220511   0.744   0.113   0.421
 6538SOL     OW20512   2.277   3.116   5.836
 6538SOL    HW120513   2.316   3.031   5.802
 6538SOL    HW220514   2.178   3.106   5.849
 6539SOL     OW20515   2.593   1.454   7.002
 6539SOL    HW120516   2.641   1.378   6.958
 6539SOL    HW220517   2.518   1.418   0.037
 6540SOL     OW20518   3.431   0.901   3.970
 6540SOL    HW120519   3.369   0.872   3.897
 6540SOL    HW220520   3.386   0.970   4.027
 6541SOL     OW20521   2.174   2.307   5.650
 6541SOL    HW120522   2.147   2.310   5.554
 6541SOL    HW220523   2.153   2.217   5.688
 6542SOL     OW20524   6.230   4.274   3.362
 6542SOL    HW120525   6.279   4.187   3.359
 6542SOL    HW220526   6.289   4.345   3.400
 6543SOL     OW20527   6.911   6.054   0.051
 6543SOL    HW120528   6.943   6.062   0.145
 6543SOL    HW220529   6.834   6.117   0.036
 6544SOL     OW20530   6.364   6.395   4.332
 6544SOL    HW120531   6.329   6.426   4.420
 6544SOL    HW220532   6.338   6.459   4.260
 6545SOL     OW20533   5.376   2.391   5.701
 6545SOL    HW120534   5.287   2.408   5.742
 6545SOL    HW220535   5.414   2.306   5.738
 6546SOL     OW20536   3.080   4.243   6.153
 6546SOL    HW120537   3.031   4.250   6.240
 6546SOL    HW220538   3.025   4.284   6.080
 6547SOL     OW20539   4.632   2.146   6.545
 6547SOL    HW120540   4.573   2.211   6.498
 6547SOL    HW220541   4.599   2.053   6.528
 6548SOL     OW20542   6.356   4.923   5.134
 6548SOL    HW120543   6.276   4.982   5.144
 6548SOL    HW220544   6.405   4.918   5.220
 6549SOL     OW20545   3.447   1.445   1.197
 6549SOL    HW120546   3.361   1.490   1.219
 6549SOL    HW220547   3.443   1.408   1.104
 6550SOL     OW20548   0.803   5.573   3.391
 6550SOL    HW120549   0.800   5.480   3.355
 6550SOL    HW220550   0.889   5.586   3.441
 6551SOL     OW20551   2.291   5.263   2.303
 6551SOL    HW120552   2.319   5.209   2.224
 6551SOL    HW220553   2.367   5.269   2.368
 6552SOL     OW20554   3.817   4.852   6.024
 6552SOL    HW120555   3.910   4.887   6.030
 6552SOL    HW220556   3.803   4.780   6.092
 6553SOL     OW20557   0.122   2.741   2.515
 6553SOL    HW120558   0.216   2.763   2.488
 6553SOL    HW220559   0.111   2.758   2.613
 6554SOL     OW20560   0.244   2.889   5.026
 6554SOL    HW120561   0.239   2.921   5.121
 6554SOL    HW220562   0.185   2.947   4.969
 6555SOL     OW20563   0.149   1.545   2.329
 6555SOL    HW120564   0.134   1.502   2.240
 6555SOL    HW220565   0.096   1.630   2.334
 6556SOL     OW20566   3.829   7.006   4.235
 6556SOL    HW120567   3.773   6.923   4.230
 6556SOL    HW220568   3.924   6.981   4.255
 6557SOL     OW20569   6.548   5.925   0.887
 6557SOL    HW120570   6.588   5.939   0.977
 6557SOL    HW220571   6.619   5.935   0.817
 6558SOL     OW20572   6.447   5.206   6.685
 6558SOL    HW120573   6.351   5.230   6.674
 6558SOL    HW220574   6.501   5.254   6.616
 6559SOL     OW20575   3.429   3.272   0.789
 6559SOL    HW120576   3.330   3.264   0.794
 6559SOL    HW220577   3.456   3.295   0.695
 6560SOL     OW20578   3.904   2.178   0.421
 6560SOL    HW120579   3.871   2.244   0.355
 6560SOL    HW220580   3.919   2.223   0.509
 6561SOL     OW20581   3.921   3.875   4.526
 6561SOL    HW120582   3.948   3.888   4.431
 6561SOL    HW220583   3.915   3.777   4.546
 6562SOL     OW20584   5.906   3.916   5.592
 6562SOL    HW120585   5.992   3.887   5.634
 6562SOL    HW220586   5.830   3.903   5.655
 6563SOL     OW20587   1.782   5.335   2.151
 6563SOL    HW120588   1.861   5.282   2.184
 6563SOL    HW220589   1.736   5.284   2.079
 6564SOL     OW20590   1.174   5.592   2.737
 6564SOL    HW120591   1.214   5.667   2.790
 6564SOL    HW220592   1.177   5.508   2.790
 6565SOL     OW20593   6.393   3.120   5.141
 6565SOL    HW120594   6.301   3.083   5.126
 6565SOL    HW220595   6.434   3.145   5.053
 6566SOL     OW20596   3.693   6.993   0.407
 6566SOL    HW120597   3.628   0.049   0.402
 6566SOL    HW220598   3.774   0.001   0.458
 6567SOL     OW20599   5.586   2.911   1.459
 6567SOL    HW120600   5.684   2.931   1.456
 6567SOL    HW220601   5.539   2.964   1.389
 6568SOL     OW20602   3.977   4.430   1.314
 6568SOL    HW120603   3.972   4.364   1.388
 6568SOL    HW220604   4.060   4.485   1.323
 6569SOL     OW20605   0.530   4.333   6.149
 6569SOL    HW120606   0.616   4.283   6.158
 6569SOL    HW220607   0.544   4.416   6.094
 6570SOL     OW20608   6.391   2.821   0.766
 6570SOL    HW120609   6.339   2.772   0.696
 6570SOL    HW220610   6.373   2.781   0.855
 6571SOL     OW20611   2.636   6.035   3.478
 6571SOL    HW120612   2.639   6.072   3.385
 6571SOL    HW220613   2.693   5.953   3.482
 6572SOL     OW20614   0.974   3.713   6.294
 6572SOL    HW120615   0.974   3.791   6.232
 6572SOL    HW220616   0.936   3.740   6.382
 6573SOL     OW20617   2.079   2.242   2.341
 6573SOL    HW120618   2.023   2.288   2.410
 6573SOL    HW220619   2.112   2.156   2.377
 6574SOL     OW20620   2.537   4.961   3.223
 6574SOL    HW120621   2.484   5.042   3.201
 6574SOL    HW220622   2.580   4.926   3.140
 6575SOL     OW20623   0.913   1.108   2.976
 6575SOL    HW120624   0.983   1.111   2.905
 6575SOL    HW220625   0.826   1.142   2.939
 6576SOL     OW20626   0.874   6.142   5.508
 6576SOL    HW120627   0.966   6.181   5.513
 6576SOL    HW220628   0.849   6.128   5.412
 6577SOL     OW20629   6.311   1.769   4.175
 6577SOL    HW120630   6.317   1.867   4.195
 6577SOL    HW220631   6.219   1.748   4.142
 6578SOL     OW20632   6.182   5.252   3.382
 6578SOL    HW120633   6.265   5.214   3.424
 6578SOL    HW220634   6.147   5.326   3.440
 6579SOL     OW20635   0.557   3.575   2.391
 6579SOL    HW120636   0.465   3.600   2.423
 6579SOL    HW220637   0.566   3.475   2.392
 6580SOL     OW20638   6.308   2.680   1.239
 6580SOL    HW120639   6.296   2.690   1.140
 6580SOL    HW220640   6.221   2.653   1.280
 6581SOL     OW20641   2.582   2.016   5.435
 6581SOL    HW120642   2.578   1.971   5.346
 6581SOL    HW220643   2.499   1.995   5.487
 6582SOL     OW20644   6.976   6.942   2.712
 6582SOL    HW120645   6.905   6.935   2.642
 6582SOL    HW220646   0.008   0.006   2.699
 6583SOL     OW20647   6.207   1.971   5.449
 6583SOL    HW120648   6.151   2.036   5.501
 6583SOL    HW220649   6.259   1.914   5.513
 6584SOL     OW20650   5.915   1.614   6.768
 6584SOL    HW120651   5.960   1.526   6.755
 6584SOL    HW220652   5.923   1.642   6.864
 6585SOL     OW20653   1.848   1.177   0.263
 6585SOL    HW120654   1.912   1.104   0.288
 6585SOL    HW220655   1.767   1.137   0.220
 6586SOL     OW20656   6.971   2.336   6.681
 6586SOL    HW120657   6.934   2.389   6.758
 6586SOL    HW220658   0.047   2.362   6.667
 6587SOL     OW20659   1.999   6.916   2.254
 6587SOL    HW120660   1.981   6.818   2.241
 6587SOL    HW220661   1.913   6.965   2.267
 6588SOL     OW20662   2.302   3.010   6.758
 6588SOL    HW120663   2.335   3.064   6.680
 6588SOL    HW220664   2.281   3.071   6.834
 6589SOL     OW20665   4.489   1.595   5.613
 6589SOL    HW120666   4.478   1.573   5.710
 6589SOL    HW220667   4.574   1.647   5.600
 6590SOL     OW20668   6.744   1.317   5.481
 6590SOL    HW120669   6.645   1.304   5.473
 6590SOL    HW220670   6.780   1.258   5.552
 6591SOL     OW20671   5.445   0.915   2.335
 6591SOL    HW120672   5.419   0.950   2.425
 6591SOL    HW220673   5.482   0.990   2.280
 6592SOL     OW20674   4.895   5.771   4.420
 6592SOL    HW120675   4.949   5.704   4.369
 6592SOL    HW220676   4.887   5.741   4.515
 6593SOL     OW20677   3.966   0.871   2.329
 6593SOL    HW120678   4.005   0.937   2.265
 6593SOL    HW220679   4.014   0.878   2.417
 6594SOL     OW20680   5.809   0.639   6.131
 6594SOL    HW120681   5.853   0.713   6.183
 6594SOL    HW220682   5.714   0.631   6.159
 6595SOL     OW20683   1.263   3.876   1.009
 6595SOL    HW120684   1.185   3.870   0.947
 6595SOL    HW220685   1.259   3.800   1.074
 6596SOL     OW20686   3.945   6.980   4.793
 6596SOL    HW120687   4.035   0.001   4.778
 6596SOL    HW220688   3.907   6.951   4.705
 6597SOL     OW20689   6.881   4.601   5.570
 6597SOL    HW120690   6.887   4.679   5.631
 6597SOL    HW220691   6.946   4.612   5.494
 6598SOL     OW20692   1.792   5.560   5.621
 6598SOL    HW120693   1.865   5.505   5.662
 6598SOL    HW220694   1.715   5.566   5.685
 6599SOL     OW20695   4.526   4.344   5.961
 6599SOL    HW120696   4.521   4.444   5.954
 6599SOL    HW220697   4.606   4.319   6.015
 6600SOL     OW20698   4.685   6.002   4.762
 6600SOL    HW120699   4.649   5.989   4.670
 6600SOL    HW220700   4.776   5.960   4.769
 6601SOL     OW20701   1.614   0.131   1.197
 6601SOL    HW120702   1.674   0.091   1.127
 6601SOL    HW220703   1.529   0.162   1.155
 6602SOL     OW20704   6.367   1.771   1.531
 6602SOL    HW120705   6.430   1.756   1.455
 6602SOL    HW220706   6.416   1.811   1.608
 6603SOL     OW20707   2.117   3.118   3.286
 6603SOL    HW120708   2.128   3.090   3.191
 6603SOL    HW220709   2.181   3.066   3.344
 6604SOL     OW20710   3.701   5.981   3.044
 6604SOL    HW120711   3.728   6.041   3.119
 6604SOL    HW220712   3.604   5.996   3.023
 6605SOL     OW20713   5.771   6.509   0.432
 6605SOL    HW120714   5.678   6.547   0.427
 6605SOL    HW220715   5.838   6.582   0.425
 6606SOL     OW20716   5.213   1.148   3.019
 6606SOL    HW120717   5.192   1.076   3.085
 6606SOL    HW220718   5.191   1.237   3.058
 6607SOL     OW20719   1.100   2.591   3.239
 6607SOL    HW120720   1.003   2.572   3.231
 6607SOL    HW220721   1.115   2.668   3.301
 6608SOL     OW20722   5.841   3.709   4.533
 6608SOL    HW120723   5.903   3.637   4.564
 6608SOL    HW220724   5.863   3.734   4.439
 6609SOL     OW20725   6.172   1.829   6.661
 6609SOL    HW120726   6.084   1.848   6.705
 6609SOL    HW220727   6.177   1.878   6.574
 6610SOL     OW20728   2.961   0.896   0.196
 6610SOL    HW120729   3.036   0.962   0.206
 6610SOL    HW220730   2.883   0.941   0.151
 6611SOL     OW20731   5.595   2.799   3.229
 6611SOL    HW120732   5.655   2.719   3.240
 6611SOL    HW220733   5.647   2.875   3.192
 6612SOL     OW20734   1.247   6.125   6.370
 6612SOL    HW120735   1.198   6.055   6.317
 6612SOL    HW220736   1.193   6.150   6.450
 6613SOL     OW20737   4.607   5.261   1.683
 6613SOL    HW120738   4.702   5.266   1.652
 6613SOL    HW220739   4.604   5.233   1.779
 6614SOL     OW20740   5.547   6.089   5.951
 6614SOL    HW120741   5.503   6.116   6.037
 6614SOL    HW220742   5.480   6.041   5.894
 6615SOL     OW20743   1.344   3.973   5.190
 6615SOL    HW120744   1.368   3.890   5.239
 6615SOL    HW220745   1.245   3.983   5.187
 6616SOL     OW20746   4.750   0.335   4.872
 6616SOL    HW120747   4.699   0.252   4.851
 6616SOL    HW220748   4.746   0.397   4.793
 6617SOL     OW20749   4.413   6.809   5.336
 6617SOL    HW120750   4.337   6.755   5.372
 6617SOL    HW220751   4.497   6.785   5.384
 6618SOL     OW20752   0.863   4.315   1.534
 6618SOL    HW120753   0.952   4.294   1.493
 6618SOL    HW220754   0.874   4.337   1.630
 6619SOL     OW20755   5.416   5.737   2.610
 6619SOL    HW120756   5.396   5.679   2.690
 6619SOL    HW220757   5.409   5.833   2.637
 6620SOL     OW20758   2.779   2.822   5.571
 6620SOL    HW120759   2.723   2.754   5.524
 6620SOL    HW220760   2.793   2.794   5.666
 6621SOL     OW20761   2.574   4.370   6.724
 6621SOL    HW120762   2.573   4.463   6.761
 6621SOL    HW220763   2.629   4.311   6.784
 6622SOL     OW20764   6.274   6.985   0.448
 6622SOL    HW120765   6.205   7.009   0.380
 6622SOL    HW220766   6.351   6.939   0.403
 6623SOL     OW20767   3.480   3.830   2.019
 6623SOL    HW120768   3.404   3.780   1.978
 6623SOL    HW220769   3.560   3.824   1.959
 6624SOL     OW20770   4.296   4.684   4.282
 6624SOL    HW120771   4.360   4.706   4.355
 6624SOL    HW220772   4.321   4.735   4.199
 6625SOL     OW20773   6.379   0.227   0.568
 6625SOL    HW120774   6.402   0.288   0.493
 6625SOL    HW220775   6.339   0.143   0.532
 6626SOL     OW20776   3.149   4.832   3.336
 6626SOL    HW120777   3.243   4.864   3.345
 6626SOL    HW220778   3.116   4.801   3.426
 6627SOL     OW20779   1.911   6.217   1.534
 6627SOL    HW120780   1.877   6.198   1.626
 6627SOL    HW220781   1.981   6.151   1.510
 6628SOL     OW20782   4.103   6.048   2.935
 6628SOL    HW120783   4.027   5.998   2.895
 6628SOL    HW220784   4.178   5.985   2.956
 6629SOL     OW20785   3.157   4.286   0.141
 6629SOL    HW120786   3.191   4.212   0.084
 6629SOL    HW220787   3.231   4.319   0.201
 6630SOL     OW20788   3.211   2.098   5.979
 6630SOL    HW120789   3.146   2.173   5.975
 6630SOL    HW220790   3.239   2.073   5.886
 6631SOL     OW20791   4.016   0.610   2.074
 6631SOL    HW120792   3.946   0.574   2.136
 6631SOL    HW220793   4.079   0.668   2.126
 6632SOL     OW20794   0.107   2.382   2.128
 6632SOL    HW120795   0.039   2.309   2.133
 6632SOL    HW220796   0.193   2.346   2.090
 6633SOL     OW20797   0.658   6.827   1.341
 6633SOL    HW120798   0.636   6.738   1.383
 6633SOL    HW220799   0.591   6.895   1.372
 6634SOL     OW20800   6.806   2.892   5.627
 6634SOL    HW120801   6.841   2.809   5.584
 6634SOL    HW220802   6.879   2.959   5.636
 6635SOL     OW20803   4.472   4.514   3.579
 6635SOL    HW120804   4.498   4.579   3.508
 6635SOL    HW220805   4.419   4.561   3.649
 6636SOL     OW20806   1.509   2.723   4.584
 6636SOL    HW120807   1.576   2.686   4.519
 6636SOL    HW220808   1.435   2.767   4.535
 6637SOL     OW20809   6.489   1.400   1.355
 6637SOL    HW120810   6.532   1.335   1.293
 6637SOL    HW220811   6.453   1.478   1.303
 6638SOL     OW20812   1.789   5.847   5.769
 6638SOL    HW120813   1.817   5.892   5.684
 6638SOL    HW220814   1.692   5.826   5.766
 6639SOL     OW20815   5.433   5.477   7.014
 6639SOL    HW120816   5.390   5.413   6.951
 6639SOL    HW220817   5.446   5.565   6.969
 6640SOL     OW20818   6.006   3.032   3.375
 6640SOL    HW120819   6.036   3.075   3.460
 6640SOL    HW220820   5.952   3.098   3.322
 6641SOL     OW20821   1.916   4.322   6.332
 6641SOL    HW120822   1.834   4.267   6.321
 6641SOL    HW220823   1.951   4.349   6.242
 6642SOL     OW20824   0.270   6.311   0.422
 6642SOL    HW120825   0.256   6.337   0.517
 6642SOL    HW220826   0.181   6.308   0.374
 6643SOL     OW20827   4.340   5.216   6.656
 6643SOL    HW120828   4.324   5.145   6.724
 6643SOL    HW220829   4.386   5.294   6.698
 6644SOL     OW20830   2.750   4.768   2.156
 6644SOL    HW120831   2.667   4.822   2.143
 6644SOL    HW220832   2.769   4.716   2.072
 6645SOL     OW20833   0.215   5.068   5.352
 6645SOL    HW120834   0.123   5.091   5.321
 6645SOL    HW220835   0.218   5.072   5.452
 6646SOL     OW20836   1.922   6.066   3.617
 6646SOL    HW120837   1.904   5.968   3.622
 6646SOL    HW220838   2.014   6.081   3.582
 6647SOL     OW20839   3.152   1.973   2.184
 6647SOL    HW120840   3.090   2.046   2.212
 6647SOL    HW220841   3.231   2.012   2.136
 6648SOL     OW20842   4.988   5.645   2.686
 6648SOL    HW120843   4.910   5.590   2.657
 6648SOL    HW220844   5.025   5.694   2.607
 6649SOL     OW20845   3.897   2.643   6.255
 6649SOL    HW120846   3.808   2.688   6.246
 6649SOL    HW220847   3.883   2.550   6.291
 6650SOL     OW20848   3.012   2.167   3.439
 6650SOL    HW120849   3.092   2.116   3.407
 6650SOL    HW220850   2.968   2.211   3.360
 6651SOL     OW20851   0.891   2.469   6.470
 6651SOL    HW120852   0.949   2.388   6.469
 6651SOL    HW220853   0.947   2.551   6.480
 6652SOL     OW20854   6.969   5.209   2.943
 6652SOL    HW120855   6.944   5.291   2.890
 6652SOL    HW220856   6.894   5.143   2.938
 6653SOL     OW20857   3.339   3.424   3.501
 6653SOL    HW120858   3.381   3.422   3.591
 6653SOL    HW220859   3.387   3.491   3.444
 6654SOL     OW20860   2.080   3.421   1.721
 6654SOL    HW120861   2.019   3.437   1.799
 6654SOL    HW220862   2.168   3.387   1.754
 6655SOL     OW20863   2.303   0.103   1.079
 6655SOL    HW120864   2.265   0.171   1.142
 6655SOL    HW220865   2.357   0.149   1.009
 6656SOL     OW20866   5.780   2.416   1.547
 6656SOL    HW120867   5.762   2.500   1.497
 6656SOL    HW220868   5.857   2.367   1.505
 6657SOL     OW20869   2.743   6.231   5.977
 6657SOL    HW120870   2.819   6.190   6.027
 6657SOL    HW220871   2.660   6.227   6.032
 6658SOL     OW20872   5.182   0.977   5.845
 6658SOL    HW120873   5.120   0.998   5.769
 6658SOL    HW220874   5.158   1.033   5.924
 6659SOL     OW20875   1.594   3.160   6.582
 6659SOL    HW120876   1.690   3.139   6.560
 6659SOL    HW220877   1.539   3.077   6.574
 6660SOL     OW20878   6.903   6.641   2.984
 6660SOL    HW120879   6.868   6.670   2.895
 6660SOL    HW220880   6.861   6.554   3.009
 6661SOL     OW20881   0.050   6.140   3.670
 6661SOL    HW120882   0.116   6.209   3.640
 6661SOL    HW220883   0.037   6.072   3.598
 6662SOL     OW20884   0.819   3.399   6.551
 6662SOL    HW120885   0.898   3.415   6.492
 6662SOL    HW220886   0.835   3.318   6.607
 6663SOL     OW20887   0.329   5.822   1.834
 6663SOL    HW120888   0.375   5.793   1.917
 6663SOL    HW220889   0.246   5.767   1.821
 6664SOL     OW20890   1.153   1.543   3.049
 6664SOL    HW120891   1.225   1.486   3.008
 6664SOL    HW220892   1.188   1.635   3.063
 6665SOL     OW20893   2.763   6.548   2.639
 6665SOL    HW120894   2.822   6.603   2.698
 6665SOL    HW220895   2.748   6.597   2.552
 6666SOL     OW20896   6.812   0.477   0.251
 6666SOL    HW120897   6.765   0.402   0.297
 6666SOL    HW220898   6.785   0.564   0.293
 6667SOL     OW20899   6.731   5.222   4.674
 6667SOL    HW120900   6.799   5.149   4.680
 6667SOL    HW220901   6.722   5.267   4.763
 6668SOL     OW20902   0.663   5.478   1.607
 6668SOL    HW120903   0.601   5.532   1.664
 6668SOL    HW220904   0.629   5.384   1.599
 6669SOL     OW20905   2.317   5.988   2.489
 6669SOL    HW120906   2.265   5.906   2.466
 6669SOL    HW220907   2.303   6.058   2.418
 6670SOL     OW20908   3.759   4.528   6.998
 6670SOL    HW120909   3.792   4.621   7.018
 6670SOL    HW220910   3.659   4.528   6.992
 6671SOL     OW20911   0.408   2.362   4.956
 6671SOL    HW120912   0.354   2.438   4.991
 6671SOL    HW220913   0.366   2.327   4.872
 6672SOL     OW20914   1.935   0.843   5.433
 6672SOL    HW120915   1.936   0.941   5.450
 6672SOL    HW220916   2.019   0.802   5.468
 6673SOL     OW20917   4.685   4.951   1.273
 6673SOL    HW120918   4.598   4.989   1.242
 6673SOL    HW220919   4.750   5.026   1.292
 6674SOL     OW20920   0.700   0.204   4.385
 6674SOL    HW120921   0.662   0.204   4.293
 6674SOL    HW220922   0.797   0.229   4.381
 6675SOL     OW20923   6.084   5.626   0.520
 6675SOL    HW120924   6.143   5.702   0.493
 6675SOL    HW220925   5.990   5.645   0.493
 6676SOL     OW20926   0.919   2.626   5.962
 6676SOL    HW120927   0.834   2.652   6.006
 6676SOL    HW220928   0.972   2.566   6.022
 6677SOL     OW20929   0.336   3.633   0.184
 6677SOL    HW120930   0.313   3.542   0.149
 6677SOL    HW220931   0.433   3.636   0.206
 6678SOL     OW20932   1.349   3.133   5.235
 6678SOL    HW120933   1.437   3.176   5.256
 6678SOL    HW220934   1.314   3.090   5.318
 6679SOL     OW20935   1.330   2.055   4.632
 6679SOL    HW120936   1.313   2.037   4.729
 6679SOL    HW220937   1.354   1.970   4.586
 6680SOL     OW20938   2.921   6.830   6.599
 6680SOL    HW120939   2.870   6.746   6.619
 6680SOL    HW220940   2.952   6.829   6.504
 6681SOL     OW20941   5.474   5.148   0.161
 6681SOL    HW120942   5.530   5.224   0.126
 6681SOL    HW220943   5.530   5.091   0.221
 6682SOL     OW20944   6.918   6.111   2.428
 6682SOL    HW120945   6.837   6.092   2.485
 6682SOL    HW220946   6.945   6.206   2.441
 6683SOL     OW20947   5.523   2.077   4.178
 6683SOL    HW120948   5.463   2.102   4.102
 6683SOL    HW220949   5.518   2.149   4.249
 6684SOL     OW20950   1.917   0.271   2.239
 6684SOL    HW120951   1.879   0.340   2.300
 6684SOL    HW220952   1.952   0.314   2.156
 6685SOL     OW20953   5.017   3.453   6.401
 6685SOL    HW120954   5.080   3.494   6.467
 6685SOL    HW220955   5.054   3.464   6.309
 6686SOL     OW20956   6.106   3.525   3.846
 6686SOL    HW120957   6.077   3.537   3.941
 6686SOL    HW220958   6.033   3.554   3.785
 6687SOL     OW20959   1.787   1.470   0.065
 6687SOL    HW120960   1.704   1.484   0.012
 6687SOL    HW220961   1.764   1.431   0.154
 6688SOL     OW20962   0.644   5.076   3.141
 6688SOL    HW120963   0.633   5.151   3.206
 6688SOL    HW220964   0.609   4.992   3.180
 6689SOL     OW20965   4.427   4.415   0.221
 6689SOL    HW120966   4.499   4.353   0.253
 6689SOL    HW220967   4.356   4.362   0.174
 6690SOL     OW20968   1.837   2.434   0.853
 6690SOL    HW120969   1.795   2.422   0.943
 6690SOL    HW220970   1.890   2.353   0.830
 6691SOL     OW20971   1.751   4.744   1.517
 6691SOL    HW120972   1.698   4.759   1.433
 6691SOL    HW220973   1.847   4.731   1.494
 6692SOL     OW20974   3.244   3.933   5.891
 6692SOL    HW120975   3.322   3.978   5.847
 6692SOL    HW220976   3.244   3.955   5.989
 6693SOL     OW20977   3.947   3.650   4.866
 6693SOL    HW120978   3.866   3.623   4.814
 6693SOL    HW220979   4.026   3.659   4.805
 6694SOL     OW20980   2.653   6.483   0.684
 6694SOL    HW120981   2.624   6.428   0.762
 6694SOL    HW220982   2.672   6.423   0.606
 6695SOL     OW20983   1.665   1.684   0.279
 6695SOL    HW120984   1.599   1.684   0.204
 6695SOL    HW220985   1.741   1.746   0.257
 6696SOL     OW20986   2.112   3.218   1.996
 6696SOL    HW120987   2.015   3.238   2.008
 6696SOL    HW220988   2.166   3.300   2.017
 6697SOL     OW20989   4.984   1.440   3.213
 6697SOL    HW120990   4.959   1.409   3.305
 6697SOL    HW220991   4.986   1.539   3.211
 6698SOL     OW20992   3.732   3.473   0.243
 6698SOL    HW120993   3.813   3.463   0.300
 6698SOL    HW220994   3.666   3.533   0.289
 6699SOL     OW20995   1.098   3.594   6.868
 6699SOL    HW120996   1.003   3.598   6.900
 6699SOL    HW220997   1.100   3.606   6.768
 6700SOL     OW20998   6.688   6.257   7.000
 6700SOL    HW120999   6.711   6.354   7.010
 6700SOL    HW221000   6.596   6.241   0.016
 6701SOL     OW21001   0.873   1.784   0.928
 6701SOL    HW121002   0.857   1.739   0.840
 6701SOL    HW221003   0.970   1.805   0.939
 6702SOL     OW21004   2.354   2.296   0.783
 6702SOL    HW121005   2.446   2.334   0.789
 6702SOL    HW221006   2.357   2.212   0.728
 6703SOL     OW21007   0.403   2.184   6.680
 6703SOL    HW121008   0.358   2.270   6.654
 6703SOL    HW221009   0.368   2.155   6.770
 6704SOL     OW21010   5.116   1.832   2.938
 6704SOL    HW121011   5.125   1.923   2.898
 6704SOL    HW221012   5.167   1.766   2.883
 6705SOL     OW21013   5.799   1.426   0.431
 6705SOL    HW121014   5.739   1.347   0.419
 6705SOL    HW221015   5.889   1.405   0.394
 6706SOL     OW21016   0.437   4.882   6.349
 6706SOL    HW121017   0.474   4.805   6.402
 6706SOL    HW221018   0.411   4.956   6.411
 6707SOL     OW21019   1.791   6.139   2.478
 6707SOL    HW121020   1.818   6.216   2.536
 6707SOL    HW221021   1.830   6.055   2.514
 6708SOL     OW21022   2.364   5.964   1.080
 6708SOL    HW121023   2.415   5.918   1.153
 6708SOL    HW221024   2.340   5.897   1.010
 6709SOL     OW21025   4.764   1.460   2.847
 6709SOL    HW121026   4.842   1.524   2.850
 6709SOL    HW221027   4.773   1.394   2.921
 6710SOL     OW21028   2.434   2.618   1.093
 6710SOL    HW121029   2.443   2.685   1.167
 6710SOL    HW221030   2.508   2.550   1.101
 6711SOL     OW21031   3.785   3.673   0.975
 6711SOL    HW121032   3.831   3.591   0.941
 6711SOL    HW221033   3.729   3.650   1.054
 6712SOL     OW21034   3.303   5.817   0.603
 6712SOL    HW121035   3.212   5.810   0.562
 6712SOL    HW221036   3.370   5.837   0.532
 6713SOL     OW21037   2.134   1.843   2.205
 6713SOL    HW121038   2.205   1.774   2.221
 6713SOL    HW221039   2.175   1.921   2.157
 6714SOL     OW21040   6.566   0.188   4.074
 6714SOL    HW121041   6.609   0.256   4.015
 6714SOL    HW221042   6.634   0.148   4.135
 6715SOL     OW21043   0.955   1.758   1.183
 6715SOL    HW121044   0.896   1.738   1.105
 6715SOL    HW221045   0.994   1.850   1.172
 6716SOL     OW21046   2.186   5.740   0.636
 6716SOL    HW121047   2.088   5.754   0.647
 6716SOL    HW221048   2.212   5.758   0.541
 6717SOL     OW21049   3.763   1.626   6.634
 6717SOL    HW121050   3.782   1.687   6.557
 6717SOL    HW221051   3.761   1.531   6.602
 6718SOL     OW21052   3.454   0.226   0.098
 6718SOL    HW121053   3.528   0.264   0.043
 6718SOL    HW221054   3.403   0.159   0.044
 6719SOL     OW21055   0.639   0.441   5.545
 6719SOL    HW121056   0.671   0.467   5.636
 6719SOL    HW221057   0.545   0.408   5.550
 6720SOL     OW21058   1.805   4.697   1.785
 6720SOL    HW121059   1.902   4.684   1.803
 6720SOL    HW221060   1.787   4.691   1.687
 6721SOL     OW21061   6.443   6.788   3.811
 6721SOL    HW121062   6.534   6.825   3.794
 6721SOL    HW221063   6.431   6.703   3.760
 6722SOL     OW21064   4.692   3.814   6.855
 6722SOL    HW121065   4.745   3.896   6.834
 6722SOL    HW221066   4.617   3.838   6.917
 6723SOL     OW21067   3.640   6.795   1.565
 6723SOL    HW121068   3.670   6.887   1.543
 6723SOL    HW221069   3.703   6.754   1.632
 6724SOL     OW21070   3.422   4.592   5.342
 6724SOL    HW121071   3.325   4.570   5.328
 6724SOL    HW221072   3.434   4.628   5.435
 6725SOL     OW21073   0.554   4.760   2.867
 6725SOL    HW121074   0.519   4.734   2.957
 6725SOL    HW221075   0.615   4.689   2.833
 6726SOL     OW21076   2.532   2.488   2.322
 6726SOL    HW121077   2.536   2.475   2.421
 6726SOL    HW221078   2.595   2.424   2.278
 6727SOL     OW21079   3.920   3.946   0.024
 6727SOL    HW121080   4.014   3.964   0.051
 6727SOL    HW221081   3.885   4.024   6.993
 6728SOL     OW21082   4.791   1.035   4.099
 6728SOL    HW121083   4.743   1.116   4.066
 6728SOL    HW221084   4.858   1.007   4.030
 6729SOL     OW21085   6.085   0.123   3.080
 6729SOL    HW121086   6.050   0.032   3.100
 6729SOL    HW221087   6.172   0.137   3.128
 6730SOL     OW21088   1.596   0.261   0.911
 6730SOL    HW121089   1.512   0.233   0.863
 6730SOL    HW221090   1.666   0.191   0.898
 6731SOL     OW21091   2.355   4.754   1.928
 6731SOL    HW121092   2.287   4.687   1.958
 6731SOL    HW221093   2.309   4.831   1.884
 6732SOL     OW21094   1.923   4.380   0.696
 6732SOL    HW121095   1.941   4.463   0.644
 6732SOL    HW221096   1.841   4.392   0.753
 6733SOL     OW21097   5.335   5.986   5.803
 6733SOL    HW121098   5.235   5.991   5.799
 6733SOL    HW221099   5.367   5.907   5.751
 6734SOL     OW21100   2.543   3.741   5.558
 6734SOL    HW121101   2.525   3.681   5.636
 6734SOL    HW221102   2.613   3.808   5.583
 6735SOL     OW21103   0.114   4.934   6.183
 6735SOL    HW121104   0.156   4.994   6.114
 6735SOL    HW221105   0.128   4.974   6.273
 6736SOL     OW21106   2.136   3.806   2.628
 6736SOL    HW121107   2.151   3.711   2.599
 6736SOL    HW221108   2.164   3.816   2.723
 6737SOL     OW21109   1.825   1.226   1.081
 6737SOL    HW121110   1.870   1.282   1.012
 6737SOL    HW221111   1.795   1.140   1.039
 6738SOL     OW21112   3.798   1.800   2.215
 6738SOL    HW121113   3.802   1.891   2.174
 6738SOL    HW221114   3.733   1.801   2.291
 6739SOL     OW21115   4.066   6.429   4.906
 6739SOL    HW121116   4.075   6.501   4.837
 6739SOL    HW221117   4.019   6.350   4.865
 6740SOL     OW21118   6.111   2.630   4.690
 6740SOL    HW121119   6.188   2.615   4.753
 6740SOL    HW221120   6.134   2.593   4.600
 6741SOL     OW21121   6.939   6.959   6.013
 6741SOL    HW121122   6.883   6.881   5.986
 6741SOL    HW221123   0.015   6.940   5.992
 6742SOL     OW21124   6.542   5.940   5.866
 6742SOL    HW121125   6.548   6.022   5.923
 6742SOL    HW221126   6.571   5.860   5.920
 6743SOL     OW21127   4.833   3.376   0.659
 6743SOL    HW121128   4.803   3.452   0.716
 6743SOL    HW221129   4.788   3.381   0.570
 6744SOL     OW21130   5.580   5.433   5.792
 6744SOL    HW121131   5.623   5.516   5.827
 6744SOL    HW221132   5.508   5.404   5.855
 6745SOL     OW21133   6.958   3.920   3.787
 6745SOL    HW121134   7.001   3.959   3.869
 6745SOL    HW221135   6.861   3.944   3.786
 6746SOL     OW21136   6.878   1.590   0.903
 6746SOL    HW121137   6.844   1.684   0.908
 6746SOL    HW221138   6.903   1.558   0.994
 6747SOL     OW21139   5.457   6.361   6.394
 6747SOL    HW121140   5.400   6.377   6.313
 6747SOL    HW221141   5.526   6.433   6.402
 6748SOL     OW21142   6.812   6.663   2.197
 6748SOL    HW121143   6.721   6.623   2.185
 6748SOL    HW221144   6.804   6.763   2.201
 6749SOL     OW21145   3.529   6.109   0.951
 6749SOL    HW121146   3.556   6.076   0.860
 6749SOL    HW221147   3.505   6.206   0.945
 6750SOL     OW21148   2.736   3.187   5.327
 6750SOL    HW121149   2.680   3.207   5.407
 6750SOL    HW221150   2.686   3.127   5.265
 6751SOL     OW21151   3.248   2.279   5.609
 6751SOL    HW121152   3.186   2.357   5.625
 6751SOL    HW221153   3.280   2.280   5.515
 6752SOL     OW21154   6.158   1.959   0.503
 6752SOL    HW121155   6.072   1.934   0.459
 6752SOL    HW221156   6.211   2.017   0.442
 6753SOL     OW21157   5.346   2.043   6.009
 6753SOL    HW121158   5.369   1.947   5.995
 6753SOL    HW221159   5.271   2.050   6.075
 6754SOL     OW21160   5.429   1.117   0.334
 6754SOL    HW121161   5.445   1.021   0.311
 6754SOL    HW221162   5.395   1.165   0.254
 6755SOL     OW21163   5.513   1.531   3.310
 6755SOL    HW121164   5.571   1.572   3.240
 6755SOL    HW221165   5.483   1.602   3.374
 6756SOL     OW21166   5.140   4.237   4.240
 6756SOL    HW121167   5.229   4.284   4.239
 6756SOL    HW221168   5.150   4.147   4.199
 6757SOL     OW21169   4.991   4.820   2.251
 6757SOL    HW121170   5.085   4.825   2.219
 6757SOL    HW221171   4.983   4.866   2.339
 6758SOL     OW21172   5.713   1.876   2.979
 6758SOL    HW121173   5.714   1.915   2.887
 6758SOL    HW221174   5.711   1.950   3.046
 6759SOL     OW21175   0.762   4.488   3.269
 6759SOL    HW121176   0.800   4.442   3.350
 6759SOL    HW221177   0.824   4.475   3.192
 6760SOL     OW21178   0.137   4.140   4.843
 6760SOL    HW121179   0.188   4.142   4.929
 6760SOL    HW221180   0.197   4.107   4.770
 6761SOL     OW21181   5.808   3.514   6.543
 6761SOL    HW121182   5.848   3.450   6.477
 6761SOL    HW221183   5.724   3.552   6.504
 6762SOL     OW21184   5.528   4.896   3.498
 6762SOL    HW121185   5.495   4.973   3.443
 6762SOL    HW221186   5.574   4.830   3.439
 6763SOL     OW21187   5.759   6.383   5.800
 6763SOL    HW121188   5.832   6.315   5.801
 6763SOL    HW221189   5.672   6.338   5.785
 6764SOL     OW21190   2.311   3.595   0.226
 6764SOL    HW121191   2.215   3.607   0.199
 6764SOL    HW221192   2.317   3.524   0.296
 6765SOL     OW21193   5.059   5.196   2.842
 6765SOL    HW121194   5.053   5.185   2.941
 6765SOL    HW221195   4.978   5.246   2.809
 6766SOL     OW21196   1.474   1.427   5.766
 6766SOL    HW121197   1.455   1.373   5.684
 6766SOL    HW221198   1.573   1.429   5.781
 6767SOL     OW21199   1.094   2.707   5.419
 6767SOL    HW121200   1.160   2.745   5.353
 6767SOL    HW221201   1.027   2.777   5.443
 6768SOL     OW21202   0.414   0.300   5.588
 6768SOL    HW121203   0.316   0.318   5.595
 6768SOL    HW221204   0.438   0.223   5.647
 6769SOL     OW21205   1.433   2.946   6.583
 6769SOL    HW121206   1.423   2.863   6.528
 6769SOL    HW221207   1.427   2.922   6.680
 6770SOL     OW21208   6.613   1.261   4.327
 6770SOL    HW121209   6.673   1.313   4.387
 6770SOL    HW221210   6.664   1.186   4.285
 6771SOL     OW21211   4.055   1.666   2.002
 6771SOL    HW121212   4.125   1.627   2.062
 6771SOL    HW221213   3.965   1.648   2.042
 6772SOL     OW21214   0.323   0.916   1.533
 6772SOL    HW121215   0.230   0.898   1.563
 6772SOL    HW221216   0.387   0.901   1.609
 6773SOL     OW21217   1.092   0.706   2.120
 6773SOL    HW121218   1.022   0.712   2.190
 6773SOL    HW221219   1.050   0.711   2.029
 6774SOL     OW21220   3.227   0.974   5.434
 6774SOL    HW121221   3.204   1.048   5.498
 6774SOL    HW221222   3.320   0.988   5.400
 6775SOL     OW21223   0.595   3.003   4.958
 6775SOL    HW121224   0.637   3.066   4.893
 6775SOL    HW221225   0.657   2.990   5.036
 6776SOL     OW21226   3.419   3.850   3.206
 6776SOL    HW121227   3.385   3.918   3.141
 6776SOL    HW221228   3.439   3.895   3.293
 6777SOL     OW21229   6.801   6.618   6.696
 6777SOL    HW121230   6.879   6.576   6.650
 6777SOL    HW221231   6.824   6.712   6.721
 6778SOL     OW21232   5.907   6.041   2.245
 6778SOL    HW121233   5.842   6.054   2.170
 6778SOL    HW221234   5.960   6.124   2.258
 6779SOL     OW21235   5.008   4.266   6.415
 6779SOL    HW121236   5.063   4.291   6.495
 6779SOL    HW221237   4.911   4.277   6.437
 6780SOL     OW21238   4.019   1.308   2.032
 6780SOL    HW121239   3.999   1.346   1.942
 6780SOL    HW221240   3.935   1.301   2.085
 6781SOL     OW21241   6.113   2.617   3.051
 6781SOL    HW121242   6.168   2.533   3.046
 6781SOL    HW221243   6.063   2.618   3.138
 6782SOL     OW21244   7.020   1.650   3.291
 6782SOL    HW121245   6.977   1.563   3.318
 6782SOL    HW221246   0.088   1.659   3.338
 6783SOL     OW21247   0.557   6.105   5.985
 6783SOL    HW121248   0.593   6.035   6.047
 6783SOL    HW221249   0.546   6.066   5.894
 6784SOL     OW21250   1.346   4.496   1.443
 6784SOL    HW121251   1.400   4.550   1.379
 6784SOL    HW221252   1.251   4.527   1.441
 6785SOL     OW21253   5.244   4.663   3.553
 6785SOL    HW121254   5.216   4.706   3.467
 6785SOL    HW221255   5.243   4.563   3.542
 6786SOL     OW21256   6.645   2.289   5.906
 6786SOL    HW121257   6.562   2.344   5.911
 6786SOL    HW221258   6.684   2.278   5.997
 6787SOL     OW21259   3.115   1.379   0.775
 6787SOL    HW121260   3.145   1.426   0.691
 6787SOL    HW221261   3.084   1.447   0.841
 6788SOL     OW21262   0.693   4.389   1.351
 6788SOL    HW121263   0.605   4.344   1.364
 6788SOL    HW221264   0.758   4.356   1.420
 6789SOL     OW21265   6.024   4.616   2.646
 6789SOL    HW121266   5.982   4.531   2.677
 6789SOL    HW221267   6.001   4.632   2.550
 6790SOL     OW21268   0.518   6.186   0.885
 6790SOL    HW121269   0.515   6.105   0.944
 6790SOL    HW221270   0.609   6.228   0.890
 6791SOL     OW21271   2.191   6.114   3.495
 6791SOL    HW121272   2.176   6.212   3.514
 6791SOL    HW221273   2.281   6.087   3.527
 6792SOL     OW21274   3.567   6.742   6.042
 6792SOL    HW121275   3.577   6.650   6.005
 6792SOL    HW221276   3.472   6.773   6.028
 6793SOL     OW21277   2.455   3.333   5.861
 6793SOL    HW121278   2.475   3.302   5.954
 6793SOL    HW221279   2.369   3.294   5.830
 6794SOL     OW21280   5.036   2.536   5.041
 6794SOL    HW121281   4.967   2.471   5.074
 6794SOL    HW221282   5.020   2.555   4.944
 6795SOL     OW21283   0.842   0.788   1.635
 6795SOL    HW121284   0.796   0.876   1.646
 6795SOL    HW221285   0.938   0.796   1.664
 6796SOL     OW21286   6.794   1.823   2.659
 6796SOL    HW121287   6.696   1.830   2.642
 6796SOL    HW221288   6.840   1.907   2.627
 6797SOL     OW21289   1.333   3.173   0.732
 6797SOL    HW121290   1.299   3.080   0.738
 6797SOL    HW221291   1.372   3.200   0.820
 6798SOL     OW21292   4.755   1.258   1.869
 6798SOL    HW121293   4.672   1.274   1.816
 6798SOL    HW221294   4.737   1.188   1.939
 6799SOL     OW21295   0.050   6.951   2.959
 6799SOL    HW121296   7.006   6.971   3.032
 6799SOL    HW221297   0.001   6.943   2.872
 6800SOL     OW21298   6.240   2.922   1.790
 6800SOL    HW121299   6.222   2.933   1.693
 6800SOL    HW221300   6.302   2.845   1.805
 6801SOL     OW21301   1.229   5.867   6.081
 6801SOL    HW121302   1.247   5.782   6.131
 6801SOL    HW221303   1.313   5.919   6.072
 6802SOL     OW21304   3.095   4.589   1.665
 6802SOL    HW121305   3.190   4.557   1.670
 6802SOL    HW221306   3.046   4.560   1.747
 6803SOL     OW21307   5.512   5.371   6.306
 6803SOL    HW121308   5.464   5.294   6.264
 6803SOL    HW221309   5.554   5.341   6.392
 6804SOL     OW21310   3.571   5.340   2.183
 6804SOL    HW121311   3.493   5.397   2.209
 6804SOL    HW221312   3.543   5.278   2.109
 6805SOL     OW21313   0.907   4.074   4.029
 6805SOL    HW121314   0.838   4.087   3.957
 6805SOL    HW221315   0.969   4.152   4.031
 6806SOL     OW21316   5.887   3.441   2.460
 6806SOL    HW121317   5.833   3.357   2.462
 6806SOL    HW221318   5.972   3.425   2.410
 6807SOL     OW21319   3.088   4.052   2.529
 6807SOL    HW121320   3.155   4.054   2.454
 6807SOL    HW221321   3.025   4.129   2.520
 6808SOL     OW21322   3.653   0.189   3.498
 6808SOL    HW121323   3.711   0.211   3.577
 6808SOL    HW221324   3.604   0.271   3.469
 6809SOL     OW21325   5.816   2.600   0.638
 6809SOL    HW121326   5.720   2.620   0.655
 6809SOL    HW221327   5.830   2.501   0.639
 6810SOL     OW21328   2.919   0.626   5.121
 6810SOL    HW121329   2.868   0.669   5.047
 6810SOL    HW221330   2.972   0.695   5.170
 6811SOL     OW21331   6.580   1.982   1.401
 6811SOL    HW121332   6.590   1.887   1.431
 6811SOL    HW221333   6.491   2.017   1.430
 6812SOL     OW21334   3.150   4.525   5.305
 6812SOL    HW121335   3.124   4.459   5.376
 6812SOL    HW221336   3.070   4.545   5.248
 6813SOL     OW21337   6.994   3.980   2.068
 6813SOL    HW121338   6.916   3.925   2.039
 6813SOL    HW221339   6.984   4.073   2.032
 6814SOL     OW21340   5.606   1.369   1.126
 6814SOL    HW121341   5.515   1.335   1.101
 6814SOL    HW221342   5.619   1.360   1.224
 6815SOL     OW21343   0.570   5.886   6.676
 6815SOL    HW121344   0.504   5.948   6.719
 6815SOL    HW221345   0.656   5.889   6.728
 6816SOL     OW21346   6.473   6.655   4.731
 6816SOL    HW121347   6.374   6.660   4.741
 6816SOL    HW221348   6.502   6.716   4.658
 6817SOL     OW21349   5.133   2.183   1.724
 6817SOL    HW121350   5.105   2.265   1.674
 6817SOL    HW221351   5.067   2.164   1.796
 6818SOL     OW21352   0.829   6.827   5.483
 6818SOL    HW121353   0.828   6.841   5.582
 6818SOL    HW221354   0.770   6.895   5.439
 6819SOL     OW21355   4.852   4.394   1.605
 6819SOL    HW121356   4.832   4.491   1.594
 6819SOL    HW221357   4.808   4.360   1.688
 6820SOL     OW21358   2.834   5.362   1.481
 6820SOL    HW121359   2.814   5.271   1.517
 6820SOL    HW221360   2.932   5.380   1.491
 6821SOL     OW21361   3.156   2.860   6.163
 6821SOL    HW121362   3.199   2.950   6.172
 6821SOL    HW221363   3.079   2.866   6.100
 6822SOL     OW21364   5.848   3.671   5.316
 6822SOL    HW121365   5.882   3.618   5.394
 6822SOL    HW221366   5.782   3.739   5.349
 6823SOL     OW21367   0.403   2.722   6.013
 6823SOL    HW121368   0.420   2.741   5.916
 6823SOL    HW221369   0.444   2.634   6.037
 6824SOL     OW21370   1.236   0.573   5.219
 6824SOL    HW121371   1.296   0.619   5.153
 6824SOL    HW221372   1.202   0.489   5.179
 6825SOL     OW21373   4.277   4.251   1.271
 6825SOL    HW121374   4.182   4.260   1.303
 6825SOL    HW221375   4.336   4.313   1.322
 6826SOL     OW21376   5.539   0.391   3.444
 6826SOL    HW121377   5.522   0.292   3.447
 6826SOL    HW221378   5.609   0.414   3.513
 6827SOL     OW21379   4.544   5.583   5.524
 6827SOL    HW121380   4.615   5.609   5.459
 6827SOL    HW221381   4.473   5.530   5.477
 6828SOL     OW21382   3.363   2.026   1.999
 6828SOL    HW121383   3.324   2.025   1.907
 6828SOL    HW221384   3.443   2.085   2.001
 6829SOL     OW21385   4.504   6.909   3.739
 6829SOL    HW121386   4.479   6.814   3.720
 6829SOL    HW221387   4.554   6.914   3.826
 6830SOL     OW21388   3.922   5.434   1.860
 6830SOL    HW121389   3.852   5.469   1.921
 6830SOL    HW221390   3.893   5.345   1.824
 6831SOL     OW21391   1.954   1.229   6.501
 6831SOL    HW121392   1.921   1.281   6.579
 6831SOL    HW221393   2.053   1.213   6.511
 6832SOL     OW21394   2.896   2.360   6.722
 6832SOL    HW121395   2.913   2.451   6.759
 6832SOL    HW221396   2.875   2.366   6.624
 6833SOL     OW21397   3.947   5.050   6.158
 6833SOL    HW121398   3.858   5.093   6.143
 6833SOL    HW221399   4.019   5.112   6.128
 6834SOL     OW21400   6.319   6.325   6.524
 6834SOL    HW121401   6.333   6.229   6.501
 6834SOL    HW221402   6.404   6.375   6.514
 6835SOL     OW21403   3.776   0.796   3.904
 6835SOL    HW121404   3.731   0.718   3.861
 6835SOL    HW221405   3.815   0.855   3.832
 6836SOL     OW21406   0.166   4.136   6.099
 6836SOL    HW121407   0.229   4.189   6.156
 6836SOL    HW221408   0.072   4.152   6.130
 6837SOL     OW21409   6.293   0.625   2.167
 6837SOL    HW121410   6.323   0.718   2.188
 6837SOL    HW221411   6.194   0.618   2.180
 6838SOL     OW21412   2.954   3.854   5.984
 6838SOL    HW121413   2.885   3.911   5.938
 6838SOL    HW221414   3.035   3.849   5.926
 6839SOL     OW21415   5.657   3.197   4.477
 6839SOL    HW121416   5.599   3.250   4.538
 6839SOL    HW221417   5.728   3.150   4.531
 6840SOL     OW21418   2.447   6.233   4.436
 6840SOL    HW121419   2.433   6.220   4.338
 6840SOL    HW221420   2.412   6.323   4.463
 6841SOL     OW21421   4.784   6.900   1.188
 6841SOL    HW121422   4.699   6.866   1.228
 6841SOL    HW221423   4.846   6.823   1.171
 6842SOL     OW21424   0.467   4.074   4.247
 6842SOL    HW121425   0.419   3.990   4.223
 6842SOL    HW221426   0.403   4.151   4.251
 6843SOL     OW21427   4.479   2.853   1.704
 6843SOL    HW121428   4.530   2.919   1.759
 6843SOL    HW221429   4.515   2.851   1.611
 6844SOL     OW21430   3.188   5.900   4.345
 6844SOL    HW121431   3.221   5.843   4.421
 6844SOL    HW221432   3.232   5.990   4.350
 6845SOL     OW21433   4.027   4.160   0.597
 6845SOL    HW121434   4.105   4.098   0.591
 6845SOL    HW221435   4.028   4.223   0.520
 6846SOL     OW21436   4.093   3.369   2.985
 6846SOL    HW121437   4.158   3.301   3.019
 6846SOL    HW221438   4.040   3.406   3.061
 6847SOL     OW21439   6.547   3.605   1.387
 6847SOL    HW121440   6.501   3.633   1.303
 6847SOL    HW221441   6.530   3.673   1.458
 6848SOL     OW21442   0.016   5.941   3.894
 6848SOL    HW121443   0.021   6.030   3.849
 6848SOL    HW221444   6.944   5.903   3.885
 6849SOL     OW21445   3.538   6.662   4.312
 6849SOL    HW121446   3.569   6.701   4.225
 6849SOL    HW221447   3.609   6.672   4.381
 6850SOL     OW21448   5.523   3.457   1.498
 6850SOL    HW121449   5.544   3.404   1.579
 6850SOL    HW221450   5.429   3.437   1.468
 6851SOL     OW21451   1.091   5.347   5.212
 6851SOL    HW121452   1.163   5.281   5.189
 6851SOL    HW221453   1.081   5.412   5.136
 6852SOL     OW21454   6.843   5.335   2.428
 6852SOL    HW121455   6.786   5.257   2.453
 6852SOL    HW221456   6.810   5.375   2.343
 6853SOL     OW21457   6.475   4.031   5.352
 6853SOL    HW121458   6.567   3.999   5.332
 6853SOL    HW221459   6.411   3.995   5.283
 6854SOL     OW21460   0.068   1.832   6.844
 6854SOL    HW121461   0.004   1.790   6.908
 6854SOL    HW221462   0.118   1.760   6.795
 6855SOL     OW21463   3.022   6.568   1.884
 6855SOL    HW121464   3.111   6.612   1.898
 6855SOL    HW221465   2.992   6.525   1.970
 6856SOL     OW21466   0.283   4.676   5.279
 6856SOL    HW121467   0.306   4.752   5.218
 6856SOL    HW221468   0.310   4.590   5.237
 6857SOL     OW21469   3.753   1.323   6.045
 6857SOL    HW121470   3.853   1.317   6.045
 6857SOL    HW221471   3.723   1.385   5.973
 6858SOL     OW21472   3.809   3.099   5.377
 6858SOL    HW121473   3.815   3.004   5.345
 6858SOL    HW221474   3.852   3.106   5.467
 6859SOL     OW21475   3.591   0.811   0.533
 6859SOL    HW121476   3.570   0.762   0.618
 6859SOL    HW221477   3.518   0.876   0.512
 6860SOL     OW21478   4.399   4.443   6.829
 6860SOL    HW121479   4.446   4.364   6.869
 6860SOL    HW221480   4.357   4.416   6.742
 6861SOL     OW21481   5.882   4.011   0.778
 6861SOL    HW121482   5.972   4.050   0.794
 6861SOL    HW221483   5.813   4.067   0.824
 6862SOL     OW21484   2.683   5.075   4.085
 6862SOL    HW121485   2.744   5.040   4.015
 6862SOL    HW221486   2.700   5.173   4.099
 6863SOL     OW21487   0.413   3.012   4.021
 6863SOL    HW121488   0.507   3.048   4.015
 6863SOL    HW221489   0.415   2.920   4.059
 6864SOL     OW21490   4.897   5.547   5.957
 6864SOL    HW121491   4.893   5.647   5.970
 6864SOL    HW221492   4.873   5.526   5.862
 6865SOL     OW21493   6.913   3.255   4.494
 6865SOL    HW121494   6.979   3.182   4.475
 6865SOL    HW221495   6.824   3.231   4.454
 6866SOL     OW21496   0.365   2.950   2.089
 6866SOL    HW121497   0.317   3.033   2.061
 6866SOL    HW221498   0.437   2.928   2.023
 6867SOL     OW21499   2.707   5.462   2.885
 6867SOL    HW121500   2.624   5.443   2.831
 6867SOL    HW221501   2.786   5.423   2.838
 6868SOL     OW21502   1.644   5.498   4.716
 6868SOL    HW121503   1.672   5.489   4.621
 6868SOL    HW221504   1.600   5.587   4.730
 6869SOL     OW21505   6.291   3.169   4.717
 6869SOL    HW121506   6.231   3.238   4.759
 6869SOL    HW221507   6.385   3.204   4.714
 6870SOL     OW21508   5.466   3.351   2.370
 6870SOL    HW121509   5.375   3.390   2.366
 6870SOL    HW221510   5.521   3.384   2.293
 6871SOL     OW21511   4.715   7.016   1.727
 6871SOL    HW121512   4.768   0.065   1.776
 6871SOL    HW221513   4.771   6.976   1.654
 6872SOL     OW21514   2.584   3.354   6.684
 6872SOL    HW121515   2.550   3.413   6.610
 6872SOL    HW221516   2.678   3.327   6.663
 6873SOL     OW21517   5.179   3.860   5.537
 6873SOL    HW121518   5.082   3.852   5.557
 6873SOL    HW221519   5.220   3.768   5.532
 6874SOL     OW21520   1.257   2.703   5.195
 6874SOL    HW121521   1.347   2.721   5.156
 6874SOL    HW221522   1.245   2.605   5.208
 6875SOL     OW21523   3.416   2.032   3.930
 6875SOL    HW121524   3.330   2.079   3.951
 6875SOL    HW221525   3.421   2.012   3.832
 6876SOL     OW21526   3.298   6.366   4.848
 6876SOL    HW121527   3.280   6.396   4.942
 6876SOL    HW221528   3.389   6.397   4.821
 6877SOL     OW21529   2.344   3.736   6.579
 6877SOL    HW121530   2.430   3.687   6.565
 6877SOL    HW221531   2.269   3.686   6.535
 6878SOL     OW21532   1.659   2.146   4.799
 6878SOL    HW121533   1.585   2.198   4.841
 6878SOL    HW221534   1.745   2.168   4.845
 6879SOL     OW21535   1.221   1.061   5.799
 6879SOL    HW121536   1.158   0.994   5.758
 6879SOL    HW221537   1.273   1.017   5.873
 6880SOL     OW21538   2.033   4.046   4.870
 6880SOL    HW121539   2.098   4.122   4.882
 6880SOL    HW221540   2.084   3.960   4.861
 6881SOL     OW21541   6.128   5.474   1.921
 6881SOL    HW121542   6.101   5.481   1.825
 6881SOL    HW221543   6.187   5.394   1.933
 6882SOL     OW21544   2.660   6.290   5.031
 6882SOL    HW121545   2.716   6.318   4.953
 6882SOL    HW221546   2.585   6.355   5.044
 6883SOL     OW21547   3.112   6.155   1.100
 6883SOL    HW121548   3.039   6.168   1.167
 6883SOL    HW221549   3.120   6.058   1.077
 6884SOL     OW21550   2.367   5.032   2.926
 6884SOL    HW121551   2.345   4.975   2.847
 6884SOL    HW221552   2.291   5.095   2.944
 6885SOL     OW21553   3.588   5.587   4.945
 6885SOL    HW121554   3.667   5.555   4.893
 6885SOL    HW221555   3.620   5.643   5.022
 6886SOL     OW21556   5.331   1.720   2.252
 6886SOL    HW121557   5.331   1.797   2.189
 6886SOL    HW221558   5.280   1.744   2.334
 6887SOL     OW21559   4.890   0.829   5.069
 6887SOL    HW121560   4.804   0.797   5.109
 6887SOL    HW221561   4.908   0.779   4.985
 6888SOL     OW21562   5.644   6.669   5.470
 6888SOL    HW121563   5.743   6.681   5.476
 6888SOL    HW221564   5.623   6.599   5.402
 6889SOL     OW21565   1.320   4.184   6.291
 6889SOL    HW121566   1.295   4.139   6.205
 6889SOL    HW221567   1.242   4.235   6.326
 6890SOL     OW21568   2.057   0.668   0.823
 6890SOL    HW121569   1.999   0.643   0.745
 6890SOL    HW221570   2.000   0.698   0.899
 6891SOL     OW21571   3.730   5.096   5.233
 6891SOL    HW121572   3.707   5.072   5.138
 6891SOL    HW221573   3.717   5.194   5.247
 6892SOL     OW21574   3.711   1.183   4.424
 6892SOL    HW121575   3.664   1.111   4.373
 6892SOL    HW221576   3.791   1.213   4.373
 6893SOL     OW21577   6.087   6.739   1.664
 6893SOL    HW121578   6.098   6.779   1.574
 6893SOL    HW221579   6.068   6.641   1.655
 6894SOL     OW21580   6.207   4.823   5.479
 6894SOL    HW121581   6.126   4.764   5.486
 6894SOL    HW221582   6.178   4.917   5.462
 6895SOL     OW21583   3.664   5.144   6.412
 6895SOL    HW121584   3.663   5.045   6.427
 6895SOL    HW221585   3.758   5.175   6.404
 6896SOL     OW21586   4.619   0.513   2.885
 6896SOL    HW121587   4.626   0.612   2.874
 6896SOL    HW221588   4.585   0.492   2.977
 6897SOL     OW21589   3.397   1.799   0.622
 6897SOL    HW121590   3.327   1.863   0.651
 6897SOL    HW221591   3.483   1.848   0.608
 6898SOL     OW21592   3.658   1.531   3.091
 6898SOL    HW121593   3.615   1.603   3.144
 6898SOL    HW221594   3.589   1.461   3.069
 6899SOL     OW21595   5.718   6.381   6.680
 6899SOL    HW121596   5.725   6.325   6.762
 6899SOL    HW221597   5.677   6.469   6.704
 6900SOL     OW21598   4.068   1.151   5.611
 6900SOL    HW121599   4.010   1.117   5.684
 6900SOL    HW221600   4.119   1.231   5.643
 6901SOL     OW21601   1.259   0.678   0.667
 6901SOL    HW121602   1.245   0.580   0.683
 6901SOL    HW221603   1.272   0.694   0.569
 6902SOL     OW21604   6.307   5.243   1.699
 6902SOL    HW121605   6.308   5.227   1.797
 6902SOL    HW221606   6.386   5.198   1.657
 6903SOL     OW21607   4.259   4.658   0.679
 6903SOL    HW121608   4.234   4.571   0.721
 6903SOL    HW221609   4.355   4.679   0.701
 6904SOL     OW21610   0.708   1.751   3.182
 6904SOL    HW121611   0.767   1.829   3.159
 6904SOL    HW221612   0.763   1.667   3.182
 6905SOL     OW21613   4.127   4.858   0.819
 6905SOL    HW121614   4.111   4.928   0.749
 6905SOL    HW221615   4.172   4.779   0.778
 6906SOL     OW21616   4.751   5.961   3.700
 6906SOL    HW121617   4.808   6.040   3.680
 6906SOL    HW221618   4.680   5.953   3.631
 6907SOL     OW21619   3.536   1.101   1.116
 6907SOL    HW121620   3.553   1.020   1.172
 6907SOL    HW221621   3.612   1.165   1.124
 6908SOL     OW21622   6.997   6.788   6.622
 6908SOL    HW121623   0.073   6.762   6.610
 6908SOL    HW221624   6.993   6.877   6.668
 6909SOL     OW21625   4.080   3.073   6.881
 6909SOL    HW121626   3.993   3.035   6.912
 6909SOL    HW221627   4.155   3.017   6.917
 6910SOL     OW21628   6.640   1.396   1.578
 6910SOL    HW121629   6.671   1.321   1.637
 6910SOL    HW221630   6.616   1.360   1.488
 6911SOL     OW21631   4.638   0.687   5.158
 6911SOL    HW121632   4.546   0.654   5.139
 6911SOL    HW221633   4.703   0.612   5.146
 6912SOL     OW21634   4.566   4.957   1.719
 6912SOL    HW121635   4.525   4.932   1.631
 6912SOL    HW221636   4.497   4.997   1.778
 6913SOL     OW21637   4.597   5.788   5.793
 6913SOL    HW121638   4.565   5.708   5.743
 6913SOL    HW221639   4.544   5.868   5.766
 6914SOL     OW21640   6.190   4.924   0.122
 6914SOL    HW121641   6.278   4.916   0.168
 6914SOL    HW221642   6.118   4.886   0.180
 6915SOL     OW21643   1.124   5.509   1.184
 6915SOL    HW121644   1.074   5.595   1.176
 6915SOL    HW221645   1.216   5.519   1.146
 6916SOL     OW21646   6.511   0.930   6.325
 6916SOL    HW121647   6.563   0.982   6.258
 6916SOL    HW221648   6.524   0.832   6.309
 6917SOL     OW21649   4.843   0.440   6.746
 6917SOL    HW121650   4.788   0.380   6.803
 6917SOL    HW221651   4.813   0.434   6.651
 6918SOL     OW21652   1.963   3.004   3.846
 6918SOL    HW121653   1.866   2.984   3.829
 6918SOL    HW221654   2.013   2.919   3.859
 6919SOL     OW21655   1.255   6.389   3.118
 6919SOL    HW121656   1.315   6.441   3.056
 6919SOL    HW221657   1.307   6.314   3.159
 6920SOL     OW21658   4.760   6.861   4.594
 6920SOL    HW121659   4.778   6.762   4.598
 6920SOL    HW221660   4.846   6.910   4.611
 6921SOL     OW21661   0.310   6.459   3.176
 6921SOL    HW121662   0.391   6.402   3.163
 6921SOL    HW221663   0.241   6.435   3.106
 6922SOL     OW21664   1.639   5.790   6.753
 6922SOL    HW121665   1.684   5.731   6.686
 6922SOL    HW221666   1.546   5.758   6.769
 6923SOL     OW21667   4.320   6.956   3.940
 6923SOL    HW121668   4.333   6.858   3.958
 6923SOL    HW221669   4.356   6.978   3.849
 6924SOL     OW21670   6.843   5.933   1.309
 6924SOL    HW121671   6.915   5.987   1.352
 6924SOL    HW221672   6.883   5.862   1.251
 6925SOL     OW21673   6.207   5.365   3.133
 6925SOL    HW121674   6.190   5.306   3.212
 6925SOL    HW221675   6.156   5.450   3.143
 6926SOL     OW21676   3.010   4.069   5.119
 6926SOL    HW121677   2.961   4.149   5.083
 6926SOL    HW221678   3.108   4.084   5.108
 6927SOL     OW21679   4.002   3.312   0.011
 6927SOL    HW121680   4.029   3.230   6.981
 6927SOL    HW221681   4.042   3.393   6.987
 6928SOL     OW21682   6.707   6.983   6.526
 6928SOL    HW121683   6.776   6.982   6.454
 6928SOL    HW221684   6.743   0.009   6.607
 6929SOL     OW21685   3.842   5.140   0.737
 6929SOL    HW121686   3.851   5.205   0.662
 6929SOL    HW221687   3.831   5.191   0.823
 6930SOL     OW21688   1.179   0.050   3.334
 6930SOL    HW121689   1.118   0.128   3.318
 6930SOL    HW221690   1.126   6.985   3.328
 6931SOL     OW21691   1.836   0.724   1.953
 6931SOL    HW121692   1.883   0.724   2.042
 6931SOL    HW221693   1.895   0.767   1.885
 6932SOL     OW21694   2.461   2.082   0.354
 6932SOL    HW121695   2.458   2.103   0.256
 6932SOL    HW221696   2.456   1.983   0.367
 6933SOL     OW21697   2.786   6.263   6.774
 6933SOL    HW121698   2.856   6.294   6.837
 6933SOL    HW221699   2.827   6.202   6.706
 6934SOL     OW21700   5.645   4.254   6.212
 6934SOL    HW121701   5.563   4.226   6.262
 6934SOL    HW221702   5.662   4.352   6.228
 6935SOL     OW21703   4.228   5.712   3.534
 6935SOL    HW121704   4.143   5.759   3.511
 6935SOL    HW221705   4.275   5.763   3.607
 6936SOL     OW21706   1.076   4.990   1.101
 6936SOL    HW121707   1.114   5.042   1.177
 6936SOL    HW221708   0.976   4.993   1.104
 6937SOL     OW21709   4.275   6.170   6.089
 6937SOL    HW121710   4.287   6.095   6.154
 6937SOL    HW221711   4.308   6.255   6.130
 6938SOL     OW21712   5.880   1.982   5.046
 6938SOL    HW121713   5.804   1.994   5.110
 6938SOL    HW221714   5.963   2.023   5.084
 6939SOL     OW21715   0.159   5.003   2.211
 6939SOL    HW121716   0.227   4.955   2.156
 6939SOL    HW221717   0.201   5.082   2.255
 6940SOL     OW21718   4.263   0.735   4.972
 6940SOL    HW121719   4.257   0.659   4.907
 6940SOL    HW221720   4.235   0.820   4.926
 6941SOL     OW21721   3.813   3.069   3.644
 6941SOL    HW121722   3.754   3.075   3.725
 6941SOL    HW221723   3.780   2.997   3.584
 6942SOL     OW21724   6.837   1.942   0.444
 6942SOL    HW121725   6.789   1.981   0.522
 6942SOL    HW221726   6.926   1.908   0.474
 6943SOL     OW21727   5.735   6.415   0.057
 6943SOL    HW121728   5.700   6.344   7.016
 6943SOL    HW221729   5.689   6.409   0.145
 6944SOL     OW21730   1.192   6.378   6.243
 6944SOL    HW121731   1.226   6.408   6.153
 6944SOL    HW221732   1.225   6.285   6.261
 6945SOL     OW21733   4.508   2.022   5.398
 6945SOL    HW121734   4.469   1.930   5.398
 6945SOL    HW221735   4.510   2.059   5.491
 6946SOL     OW21736   5.711   3.924   3.921
 6946SOL    HW121737   5.658   3.908   3.838
 6946SOL    HW221738   5.762   4.010   3.911
 6947SOL     OW21739   3.652   0.261   3.035
 6947SOL    HW121740   3.698   0.220   3.113
 6947SOL    HW221741   3.557   0.231   3.032
 6948SOL     OW21742   3.967   2.081   4.863
 6948SOL    HW121743   4.037   2.152   4.874
 6948SOL    HW221744   3.925   2.089   4.773
 6949SOL     OW21745   4.824   0.726   2.253
 6949SOL    HW121746   4.897   0.772   2.204
 6949SOL    HW221747   4.799   0.642   2.205
 6950SOL     OW21748   2.439   1.035   3.825
 6950SOL    HW121749   2.462   1.019   3.729
 6950SOL    HW221750   2.426   1.133   3.840
 6951SOL     OW21751   5.598   5.425   5.498
 6951SOL    HW121752   5.629   5.436   5.593
 6951SOL    HW221753   5.535   5.347   5.492
 6952SOL     OW21754   0.567   5.175   4.752
 6952SOL    HW121755   0.516   5.091   4.765
 6952SOL    HW221756   0.622   5.194   4.834
 6953SOL     OW21757   5.571   2.392   5.499
 6953SOL    HW121758   5.586   2.480   5.455
 6953SOL    HW221759   5.505   2.402   5.574
 6954SOL     OW21760   0.517   5.468   2.439
 6954SOL    HW121761   0.579   5.392   2.458
 6954SOL    HW221762   0.475   5.499   2.524
 6955SOL     OW21763   6.707   6.032   3.037
 6955SOL    HW121764   6.731   6.063   3.129
 6955SOL    HW221765   6.622   6.076   3.008
 6956SOL     OW21766   3.423   4.851   0.963
 6956SOL    HW121767   3.517   4.881   0.981
 6956SOL    HW221768   3.403   4.768   1.016
 6957SOL     OW21769   0.748   3.628   0.485
 6957SOL    HW121770   0.690   3.572   0.544
 6957SOL    HW221771   0.799   3.693   0.540
 6958SOL     OW21772   2.204   3.641   6.098
 6958SOL    HW121773   2.273   3.697   6.142
 6958SOL    HW221774   2.143   3.699   6.043
 6959SOL     OW21775   3.514   1.103   3.664
 6959SOL    HW121776   3.464   1.048   3.598
 6959SOL    HW221777   3.589   1.048   3.703
 6960SOL     OW21778   6.773   4.788   0.226
 6960SOL    HW121779   6.861   4.759   0.262
 6960SOL    HW221780   6.770   4.888   0.220
 6961SOL     OW21781   6.830   1.091   3.120
 6961SOL    HW121782   6.859   1.182   3.091
 6961SOL    HW221783   6.788   1.043   3.043
 6962SOL     OW21784   3.896   3.448   0.841
 6962SOL    HW121785   3.838   3.408   0.770
 6962SOL    HW221786   3.991   3.451   0.810
 6963SOL     OW21787   5.939   5.766   2.189
 6963SOL    HW121788   5.943   5.862   2.217
 6963SOL    HW221789   6.021   5.744   2.135
 6964SOL     OW21790   3.393   6.066   4.835
 6964SOL    HW121791   3.323   6.131   4.805
 6964SOL    HW221792   3.455   6.047   4.759
 6965SOL     OW21793   6.677   3.081   5.485
 6965SOL    HW121794   6.724   3.009   5.536
 6965SOL    HW221795   6.666   3.161   5.545
 6966SOL     OW21796   4.816   2.660   3.816
 6966SOL    HW121797   4.762   2.670   3.900
 6966SOL    HW221798   4.781   2.722   3.746
 6967SOL     OW21799   1.954   2.008   6.297
 6967SOL    HW121800   2.025   2.053   6.352
 6967SOL    HW221801   1.984   1.916   6.272
 6968SOL     OW21802   4.450   6.932   2.468
 6968SOL    HW121803   4.457   6.869   2.545
 6968SOL    HW221804   4.525   6.915   2.404
 6969SOL     OW21805   2.854   1.953   1.323
 6969SOL    HW121806   2.935   2.006   1.299
 6969SOL    HW221807   2.881   1.861   1.352
 6970SOL     OW21808   4.694   3.827   0.438
 6970SOL    HW121809   4.626   3.834   0.511
 6970SOL    HW221810   4.776   3.878   0.464
 6971SOL     OW21811   5.604   0.661   2.462
 6971SOL    HW121812   5.569   0.750   2.431
 6971SOL    HW221813   5.614   0.662   2.562
 6972SOL     OW21814   5.594   4.807   4.936
 6972SOL    HW121815   5.525   4.842   5.000
 6972SOL    HW221816   5.671   4.870   4.930
 6973SOL     OW21817   1.801   4.682   3.499
 6973SOL    HW121818   1.821   4.640   3.410
 6973SOL    HW221819   1.811   4.614   3.571
 6974SOL     OW21820   3.331   4.108   4.414
 6974SOL    HW121821   3.337   4.034   4.347
 6974SOL    HW221822   3.258   4.171   4.386
 6975SOL     OW21823   3.666   1.141   5.707
 6975SOL    HW121824   3.595   1.098   5.763
 6975SOL    HW221825   3.642   1.130   5.610
 6976SOL     OW21826   1.811   5.347   0.080
 6976SOL    HW121827   1.851   5.384   0.164
 6976SOL    HW221828   1.843   5.401   0.002
 6977SOL     OW21829   4.073   2.070   2.847
 6977SOL    HW121830   3.990   2.104   2.803
 6977SOL    HW221831   4.152   2.083   2.786
 6978SOL     OW21832   6.367   0.796   2.874
 6978SOL    HW121833   6.389   0.819   2.969
 6978SOL    HW221834   6.432   0.842   2.813
 6979SOL     OW21835   0.434   4.238   3.452
 6979SOL    HW121836   0.510   4.196   3.401
 6979SOL    HW221837   0.382   4.297   3.390
 6980SOL     OW21838   3.596   1.640   4.220
 6980SOL    HW121839   3.554   1.718   4.173
 6980SOL    HW221840   3.694   1.638   4.198
 6981SOL     OW21841   2.707   4.966   6.429
 6981SOL    HW121842   2.771   4.918   6.369
 6981SOL    HW221843   2.728   5.063   6.430
 6982SOL     OW21844   0.356   6.823   4.696
 6982SOL    HW121845   0.337   6.826   4.598
 6982SOL    HW221846   0.438   6.769   4.713
 6983SOL     OW21847   6.035   0.758   4.167
 6983SOL    HW121848   5.953   0.708   4.142
 6983SOL    HW221849   6.011   0.850   4.199
 6984SOL     OW21850   2.703   1.099   6.232
 6984SOL    HW121851   2.626   1.100   6.295
 6984SOL    HW221852   2.707   1.186   6.183
 6985SOL     OW21853   4.738   5.902   2.375
 6985SOL    HW121854   4.780   5.987   2.342
 6985SOL    HW221855   4.770   5.882   2.468
 6986SOL     OW21856   2.114   7.016   4.738
 6986SOL    HW121857   2.065   7.004   4.651
 6986SOL    HW221858   2.048   0.021   4.810
 6987SOL     OW21859   6.622   3.486   6.931
 6987SOL    HW121860   6.530   3.448   6.921
 6987SOL    HW221861   6.622   3.582   6.903
 6988SOL     OW21862   5.144   1.269   5.455
 6988SOL    HW121863   5.119   1.172   5.456
 6988SOL    HW221864   5.067   1.324   5.489
 6989SOL     OW21865   1.225   2.875   4.177
 6989SOL    HW121866   1.130   2.905   4.171
 6989SOL    HW221867   1.279   2.922   4.108
 6990SOL     OW21868   3.888   3.029   0.636
 6990SOL    HW121869   3.883   3.129   0.639
 6990SOL    HW221870   3.889   2.992   0.729
 6991SOL     OW21871   4.414   4.448   5.424
 6991SOL    HW121872   4.347   4.439   5.351
 6991SOL    HW221873   4.368   4.444   5.513
 6992SOL     OW21874   5.936   5.908   5.418
 6992SOL    HW121875   5.994   5.837   5.381
 6992SOL    HW221876   5.957   5.921   5.515
 6993SOL     OW21877   0.717   6.337   3.308
 6993SOL    HW121878   0.718   6.436   3.314
 6993SOL    HW221879   0.804   6.305   3.271
 6994SOL     OW21880   1.671   2.867   0.327
 6994SOL    HW121881   1.680   2.793   0.393
 6994SOL    HW221882   1.620   2.942   0.368
 6995SOL     OW21883   0.633   5.020   3.675
 6995SOL    HW121884   0.699   5.095   3.681
 6995SOL    HW221885   0.547   5.049   3.716
 6996SOL     OW21886   2.439   6.806   5.685
 6996SOL    HW121887   2.380   6.885   5.667
 6996SOL    HW221888   2.529   6.839   5.712
 6997SOL     OW21889   5.218   0.214   4.470
 6997SOL    HW121890   5.309   0.246   4.442
 6997SOL    HW221891   5.205   0.120   4.439
 6998SOL     OW21892   1.489   2.357   3.299
 6998SOL    HW121893   1.580   2.332   3.331
 6998SOL    HW221894   1.495   2.435   3.236
 6999SOL     OW21895   4.304   1.675   6.561
 6999SOL    HW121896   4.336   1.669   6.466
 6999SOL    HW221897   4.231   1.742   6.567
 7000SOL     OW21898   6.618   6.483   1.286
 7000SOL    HW121899   6.529   6.456   1.250
 7000SOL    HW221900   6.629   6.582   1.278
 7001SOL     OW21901   2.813   1.942   5.606
 7001SOL    HW121902   2.732   1.947   5.547
 7001SOL    HW221903   2.894   1.930   5.549
 7002SOL     OW21904   2.141   5.244   2.862
 7002SOL    HW121905   2.146   5.302   2.780
 7002SOL    HW221906   2.046   5.230   2.888
 7003SOL     OW21907   2.387   6.286   0.160
 7003SOL    HW121908   2.485   6.300   0.146
 7003SOL    HW221909   2.346   6.368   0.200
 7004SOL     OW21910   1.221   5.098   0.877
 7004SOL    HW121911   1.233   5.042   0.795
 7004SOL    HW221912   1.164   5.050   0.943
 7005SOL     OW21913   5.579   6.604   5.743
 7005SOL    HW121914   5.638   6.526   5.762
 7005SOL    HW221915   5.593   6.634   5.649
 7006SOL     OW21916   4.374   4.796   4.935
 7006SOL    HW121917   4.364   4.698   4.954
 7006SOL    HW221918   4.359   4.848   5.019
 7007SOL     OW21919   5.358   5.124   2.233
 7007SOL    HW121920   5.408   5.181   2.298
 7007SOL    HW221921   5.335   5.179   2.152
 7008SOL     OW21922   1.159   4.888   4.169
 7008SOL    HW121923   1.164   4.791   4.193
 7008SOL    HW221924   1.233   4.937   4.216
 7009SOL     OW21925   0.280   4.515   2.644
 7009SOL    HW121926   0.264   4.554   2.735
 7009SOL    HW221927   0.316   4.585   2.583
 7010SOL     OW21928   4.086   4.568   6.346
 7010SOL    HW121929   4.009   4.505   6.354
 7010SOL    HW221930   4.052   4.659   6.322
 7011SOL     OW21931   2.167   1.223   4.844
 7011SOL    HW121932   2.139   1.317   4.859
 7011SOL    HW221933   2.090   1.170   4.808
 7012SOL     OW21934   1.293   1.241   1.768
 7012SOL    HW121935   1.250   1.214   1.854
 7012SOL    HW221936   1.287   1.340   1.758
 7013SOL     OW21937   1.006   1.017   2.440
 7013SOL    HW121938   0.906   1.022   2.428
 7013SOL    HW221939   1.026   0.979   2.530
 7014SOL     OW21940   2.120   5.018   1.400
 7014SOL    HW121941   2.140   5.072   1.319
 7014SOL    HW221942   2.022   5.018   1.417
 7015SOL     OW21943   4.954   2.420   2.072
 7015SOL    HW121944   4.879   2.410   2.137
 7015SOL    HW221945   4.954   2.513   2.034
 7016SOL     OW21946   3.222   4.501   0.947
 7016SOL    HW121947   3.126   4.523   0.966
 7016SOL    HW221948   3.269   4.480   1.033
 7017SOL     OW21949   4.368   1.291   3.974
 7017SOL    HW121950   4.296   1.279   4.041
 7017SOL    HW221951   4.342   1.363   3.910
 7018SOL     OW21952   0.330   4.956   3.278
 7018SOL    HW121953   0.330   5.050   3.242
 7018SOL    HW221954   0.285   4.955   3.367
 7019SOL     OW21955   1.822   6.284   1.066
 7019SOL    HW121956   1.874   6.359   1.025
 7019SOL    HW221957   1.733   6.277   1.021
 7020SOL     OW21958   0.151   6.457   6.008
 7020SOL    HW121959   0.234   6.510   5.993
 7020SOL    HW221960   0.175   6.363   6.033
 7021SOL     OW21961   3.720   0.058   5.451
 7021SOL    HW121962   3.634   0.069   5.501
 7021SOL    HW221963   3.793   0.033   5.515
 7022SOL     OW21964   5.001   5.139   6.120
 7022SOL    HW121965   4.971   5.129   6.215
 7022SOL    HW221966   4.992   5.234   6.092
 7023SOL     OW21967   6.008   4.027   3.026
 7023SOL    HW121968   6.071   3.957   3.060
 7023SOL    HW221969   6.053   4.116   3.029
 7024SOL     OW21970   0.067   6.027   1.005
 7024SOL    HW121971   0.024   6.062   1.089
 7024SOL    HW221972   0.044   6.087   0.929
 7025SOL     OW21973   2.695   0.406   6.259
 7025SOL    HW121974   2.620   0.391   6.324
 7025SOL    HW221975   2.729   0.500   6.270
 7026SOL     OW21976   3.718   1.680   0.972
 7026SOL    HW121977   3.618   1.690   0.974
 7026SOL    HW221978   3.759   1.740   1.041
 7027SOL     OW21979   4.350   6.948   4.354
 7027SOL    HW121980   4.372   6.961   4.451
 7027SOL    HW221981   4.377   6.856   4.326
 7028SOL     OW21982   3.304   6.732   4.169
 7028SOL    HW121983   3.364   6.716   4.247
 7028SOL    HW221984   3.325   6.666   4.097
 7029SOL     OW21985   3.728   0.082   4.889
 7029SOL    HW121986   3.685   0.126   4.810
 7029SOL    HW221987   3.804   0.024   4.858
 7030SOL     OW21988   2.078   3.570   3.442
 7030SOL    HW121989   1.991   3.549   3.486
 7030SOL    HW221990   2.062   3.626   3.361
 7031SOL     OW21991   1.931   6.972   5.098
 7031SOL    HW121992   1.859   6.980   5.166
 7031SOL    HW221993   1.938   6.877   5.067
 7032SOL     OW21994   6.629   2.286   2.917
 7032SOL    HW121995   6.653   2.351   2.845
 7032SOL    HW221996   6.690   2.207   2.912
 7033SOL     OW21997   6.721   0.045   4.791
 7033SOL    HW121998   6.796   0.041   4.858
 7033SOL    HW221999   6.738   6.999   4.718
 7034SOL     OW22000   6.684   5.751   2.921
 7034SOL    HW122001   6.771   5.703   2.927
 7034SOL    HW222002   6.697   5.847   2.946
 7035SOL     OW22003   6.548   5.068   2.157
 7035SOL    HW122004   6.450   5.048   2.160
 7035SOL    HW222005   6.595   5.017   2.229
 7036SOL     OW22006   6.570   4.167   1.303
 7036SOL    HW122007   6.635   4.202   1.235
 7036SOL    HW222008   6.551   4.237   1.371
 7037SOL     OW22009   0.898   0.171   0.275
 7037SOL    HW122010   0.934   0.125   0.194
 7037SOL    HW222011   0.899   0.270   0.260
 7038SOL     OW22012   1.723   3.912   4.356
 7038SOL    HW122013   1.793   3.847   4.386
 7038SOL    HW222014   1.643   3.862   4.324
 7039SOL     OW22015   4.313   1.884   6.129
 7039SOL    HW122016   4.366   1.967   6.143
 7039SOL    HW222017   4.231   1.905   6.075
 7040SOL     OW22018   4.674   2.508   6.245
 7040SOL    HW122019   4.580   2.514   6.211
 7040SOL    HW222020   4.706   2.600   6.270
 7041SOL     OW22021   2.689   1.376   2.648
 7041SOL    HW122022   2.676   1.321   2.566
 7041SOL    HW222023   2.617   1.445   2.654
 7042SOL     OW22024   1.699   0.572   6.766
 7042SOL    HW122025   1.782   0.613   6.804
 7042SOL    HW222026   1.640   0.645   6.730
 7043SOL     OW22027   1.505   2.439   2.816
 7043SOL    HW122028   1.524   2.537   2.825
 7043SOL    HW222029   1.422   2.417   2.868
 7044SOL     OW22030   4.860   6.122   2.224
 7044SOL    HW122031   4.846   6.046   2.161
 7044SOL    HW222032   4.813   6.203   2.189
 7045SOL     OW22033   5.979   5.100   1.142
 7045SOL    HW122034   6.010   5.005   1.144
 7045SOL    HW222035   6.044   5.155   1.088
 7046SOL     OW22036   2.872   0.802   4.362
 7046SOL    HW122037   2.787   0.773   4.318
 7046SOL    HW222038   2.857   0.810   4.461
 7047SOL     OW22039   2.060   1.351   3.958
 7047SOL    HW122040   2.070   1.266   3.906
 7047SOL    HW222041   1.999   1.336   4.035
 7048SOL     OW22042   6.767   6.508   0.657
 7048SOL    HW122043   6.757   6.417   0.617
 7048SOL    HW222044   6.820   6.501   0.742
 7049SOL     OW22045   1.786   1.002   0.538
 7049SOL    HW122046   1.772   0.938   0.613
 7049SOL    HW222047   1.833   1.084   0.571
 7050SOL     OW22048   4.265   3.587   5.105
 7050SOL    HW122049   4.272   3.487   5.104
 7050SOL    HW222050   4.322   3.624   5.178
 7051SOL     OW22051   6.808   6.336   2.241
 7051SOL    HW122052   6.908   6.344   2.252
 7051SOL    HW222053   6.783   6.367   2.149
 7052SOL     OW22054   6.824   1.734   3.824
 7052SOL    HW122055   6.744   1.791   3.842
 7052SOL    HW222056   6.846   1.737   3.727
 7053SOL     OW22057   6.353   4.171   5.804
 7053SOL    HW122058   6.334   4.250   5.746
 7053SOL    HW222059   6.266   4.128   5.830
 7054SOL     OW22060   6.574   0.335   1.922
 7054SOL    HW122061   6.581   0.298   1.829
 7054SOL    HW222062   6.500   0.402   1.925
 7055SOL     OW22063   3.679   6.942   5.232
 7055SOL    HW122064   3.584   6.914   5.232
 7055SOL    HW222065   3.699   6.994   5.315
 7056SOL     OW22066   5.061   5.053   4.316
 7056SOL    HW122067   5.111   4.968   4.299
 7056SOL    HW222068   4.984   5.059   4.252
 7057SOL     OW22069   0.540   6.229   3.120
 7057SOL    HW122070   0.562   6.131   3.125
 7057SOL    HW222071   0.581   6.277   3.197
 7058SOL     OW22072   6.843   5.313   5.150
 7058SOL    HW122073   6.790   5.266   5.220
 7058SOL    HW222074   6.855   5.409   5.176
 7059SOL     OW22075   2.127   0.708   2.474
 7059SOL    HW122076   2.158   0.613   2.478
 7059SOL    HW222077   2.161   0.751   2.391
 7060SOL     OW22078   3.306   0.116   1.214
 7060SOL    HW122079   3.300   0.039   1.150
 7060SOL    HW222080   3.342   0.196   1.167
 7061SOL     OW22081   0.546   0.737   2.926
 7061SOL    HW122082   0.557   0.763   2.831
 7061SOL    HW222083   0.521   0.640   2.932
 7062SOL     OW22084   6.278   1.579   5.171
 7062SOL    HW122085   6.350   1.646   5.186
 7062SOL    HW222086   6.196   1.606   5.222
 7063SOL     OW22087   2.653   0.104   1.544
 7063SOL    HW122088   2.699   0.051   1.473
 7063SOL    HW222089   2.607   0.041   1.607
 7064SOL     OW22090   4.399   2.522   0.327
 7064SOL    HW122091   4.459   2.445   0.351
 7064SOL    HW222092   4.385   2.579   0.408
 7065SOL     OW22093   4.201   4.115   1.700
 7065SOL    HW122094   4.247   4.040   1.651
 7065SOL    HW222095   4.269   4.170   1.748
 7066SOL     OW22096   3.078   6.476   0.687
 7066SOL    HW122097   3.017   6.526   0.748
 7066SOL    HW222098   3.103   6.389   0.727
 7067SOL     OW22099   0.047   4.017   4.409
 7067SOL    HW122100   0.105   4.095   4.387
 7067SOL    HW222101   0.103   3.942   4.445
 7068SOL     OW22102   1.025   0.894   2.697
 7068SOL    HW122103   1.074   0.970   2.738
 7068SOL    HW222104   1.088   0.838   2.644
 7069SOL     OW22105   1.553   3.772   4.879
 7069SOL    HW122106   1.583   3.696   4.822
 7069SOL    HW222107   1.628   3.837   4.891
 7070SOL     OW22108   5.162   6.248   4.256
 7070SOL    HW122109   5.251   6.287   4.283
 7070SOL    HW222110   5.154   6.248   4.157
 7071SOL     OW22111   1.570   6.351   5.400
 7071SOL    HW122112   1.552   6.411   5.322
 7071SOL    HW222113   1.530   6.261   5.383
 7072SOL     OW22114   6.686   6.133   6.437
 7072SOL    HW122115   6.738   6.199   6.384
 7072SOL    HW222116   6.688   6.044   6.391
 7073SOL     OW22117   1.368   1.393   6.712
 7073SOL    HW122118   1.307   1.354   6.781
 7073SOL    HW222119   1.314   1.437   6.641
 7074SOL     OW22120   3.055   2.256   0.948
 7074SOL    HW122121   3.132   2.320   0.940
 7074SOL    HW222122   3.083   2.167   0.914
 7075SOL     OW22123   1.125   5.768   3.178
 7075SOL    HW122124   1.075   5.848   3.145
 7075SOL    HW222125   1.104   5.690   3.119
 7076SOL     OW22126   3.360   2.659   6.870
 7076SOL    HW122127   3.436   2.641   6.932
 7076SOL    HW222128   3.339   2.757   6.871
 7077SOL     OW22129   1.736   4.983   5.546
 7077SOL    HW122130   1.822   5.028   5.573
 7077SOL    HW222131   1.755   4.918   5.473
 7078SOL     OW22132   6.713   0.482   3.071
 7078SOL    HW122133   6.719   0.465   2.973
 7078SOL    HW222134   6.631   0.535   3.091
 7079SOL     OW22135   5.239   5.558   5.534
 7079SOL    HW122136   5.253   5.474   5.586
 7079SOL    HW222137   5.202   5.535   5.444
 7080SOL     OW22138   5.634   0.267   4.014
 7080SOL    HW122139   5.679   0.180   3.993
 7080SOL    HW222140   5.550   0.249   4.066
 7081SOL     OW22141   3.484   1.015   5.316
 7081SOL    HW122142   3.516   0.938   5.371
 7081SOL    HW222143   3.549   1.091   5.325
 7082SOL     OW22144   5.644   1.213   6.410
 7082SOL    HW122145   5.588   1.238   6.331
 7082SOL    HW222146   5.681   1.121   6.397
 7083SOL     OW22147   3.720   6.601   5.745
 7083SOL    HW122148   3.713   6.652   5.659
 7083SOL    HW222149   3.757   6.661   5.816
 7084SOL     OW22150   6.140   6.669   0.349
 7084SOL    HW122151   6.067   6.718   0.395
 7084SOL    HW222152   6.141   6.573   0.380
 7085SOL     OW22153   2.727   2.829   0.924
 7085SOL    HW122154   2.684   2.757   0.869
 7085SOL    HW222155   2.657   2.877   0.976
 7086SOL     OW22156   6.857   0.704   6.684
 7086SOL    HW122157   6.794   0.751   6.745
 7086SOL    HW222158   6.828   0.609   6.672
 7087SOL     OW22159   1.995   2.658   4.233
 7087SOL    HW122160   2.041   2.739   4.271
 7087SOL    HW222161   1.903   2.683   4.204
 7088SOL     OW22162   0.464   2.519   5.278
 7088SOL    HW122163   0.462   2.595   5.212
 7088SOL    HW222164   0.372   2.480   5.286
 7089SOL     OW22165   2.900   2.080   0.185
 7089SOL    HW122166   2.833   2.009   0.206
 7089SOL    HW222167   2.853   2.165   0.162
 7090SOL     OW22168   2.297   2.895   4.643
 7090SOL    HW122169   2.302   2.859   4.736
 7090SOL    HW222170   2.387   2.928   4.614
 7091SOL     OW22171   0.503   6.264   0.176
 7091SOL    HW122172   0.533   6.294   0.266
 7091SOL    HW222173   0.476   6.168   0.181
 7092SOL     OW22174   3.148   3.484   6.916
 7092SOL    HW122175   3.144   3.548   6.839
 7092SOL    HW222176   3.229   3.502   6.971
 7093SOL     OW22177   3.688   2.930   4.859
 7093SOL    HW122178   3.642   3.018   4.866
 7093SOL    HW222179   3.778   2.936   4.903
 7094SOL     OW22180   1.091   0.749   6.186
 7094SOL    HW122181   1.044   0.700   6.112
 7094SOL    HW222182   1.179   0.705   6.204
 7095SOL     OW22183   0.213   3.184   6.688
 7095SOL    HW122184   0.234   3.127   6.767
 7095SOL    HW222185   0.277   3.162   6.614
 7096SOL     OW22186   5.142   1.017   2.201
 7096SOL    HW122187   5.127   1.050   2.294
 7096SOL    HW222188   5.213   1.072   2.157
 7097SOL     OW22189   0.527   0.913   1.713
 7097SOL    HW122190   0.601   0.953   1.660
 7097SOL    HW222191   0.551   0.912   1.809
 7098SOL     OW22192   1.628   6.742   5.934
 7098SOL    HW122193   1.646   6.669   5.868
 7098SOL    HW222194   1.666   6.717   6.023
 7099SOL     OW22195   0.462   0.754   6.205
 7099SOL    HW122196   0.518   0.835   6.222
 7099SOL    HW222197   0.489   0.712   6.118
 7100SOL     OW22198   5.685   2.718   1.010
 7100SOL    HW122199   5.674   2.649   0.938
 7100SOL    HW222200   5.618   2.701   1.082
 7101SOL     OW22201   1.857   0.158   4.384
 7101SOL    HW122202   1.796   0.212   4.441
 7101SOL    HW222203   1.808   0.125   4.304
 7102SOL     OW22204   4.441   2.683   0.562
 7102SOL    HW122205   4.473   2.594   0.593
 7102SOL    HW222206   4.498   2.715   0.487
 7103SOL     OW22207   3.368   6.593   6.363
 7103SOL    HW122208   3.376   6.653   6.442
 7103SOL    HW222209   3.389   6.499   6.390
 7104SOL     OW22210   1.010   1.904   2.577
 7104SOL    HW122211   1.019   1.967   2.654
 7104SOL    HW222212   1.085   1.917   2.513
 7105SOL     OW22213   2.502   4.147   5.312
 7105SOL    HW122214   2.598   4.139   5.285
 7105SOL    HW222215   2.445   4.098   5.246
 7106SOL     OW22216   3.080   2.544   5.383
 7106SOL    HW122217   2.984   2.546   5.357
 7106SOL    HW222218   3.131   2.486   5.318
 7107SOL     OW22219   2.751   0.763   6.955
 7107SOL    HW122220   2.784   0.851   6.987
 7107SOL    HW222221   2.651   0.758   6.967
 7108SOL     OW22222   4.464   6.865   1.651
 7108SOL    HW122223   4.544   6.915   1.685
 7108SOL    HW222224   4.381   6.914   1.679
 7109SOL     OW22225   3.611   6.177   6.531
 7109SOL    HW122226   3.707   6.190   6.507
 7109SOL    HW222227   3.569   6.113   6.467
 7110SOL     OW22228   3.935   4.817   3.536
 7110SOL    HW122229   3.890   4.745   3.589
 7110SOL    HW222230   3.879   4.899   3.536
 7111SOL     OW22231   1.613   2.704   3.397
 7111SOL    HW122232   1.519   2.671   3.392
 7111SOL    HW222233   1.675   2.626   3.402
 7112SOL     OW22234   1.436   6.783   2.747
 7112SOL    HW122235   1.348   6.793   2.793
 7112SOL    HW222236   1.488   6.868   2.755
 7113SOL     OW22237   3.768   4.111   4.541
 7113SOL    HW122238   3.814   4.192   4.577
 7113SOL    HW222239   3.831   4.033   4.543
 7114SOL     OW22240   4.094   0.859   1.175
 7114SOL    HW122241   4.083   0.787   1.106
 7114SOL    HW222242   4.066   0.823   1.264
 7115SOL     OW22243   4.331   2.144   1.421
 7115SOL    HW122244   4.269   2.202   1.369
 7115SOL    HW222245   4.287   2.113   1.505
 7116SOL     OW22246   6.090   3.428   2.741
 7116SOL    HW122247   6.052   3.478   2.663
 7116SOL    HW222248   6.177   3.386   2.714
 7117SOL     OW22249   6.041   6.476   1.667
 7117SOL    HW122250   5.952   6.453   1.706
 7117SOL    HW222251   6.056   6.423   1.584
 7118SOL     OW22252   6.694   3.266   1.703
 7118SOL    HW122253   6.676   3.194   1.770
 7118SOL    HW222254   6.607   3.301   1.667
 7119SOL     OW22255   6.557   1.470   3.024
 7119SOL    HW122256   6.655   1.482   3.006
 7119SOL    HW222257   6.526   1.383   2.985
 7120SOL     OW22258   5.031   0.188   3.277
 7120SOL    HW122259   4.936   0.163   3.259
 7120SOL    HW222260   5.079   0.109   3.315
 7121SOL     OW22261   3.621   6.223   1.922
 7121SOL    HW122262   3.700   6.162   1.935
 7121SOL    HW222263   3.654   6.314   1.896
 7122SOL     OW22264   6.720   0.895   6.833
 7122SOL    HW122265   6.742   0.993   6.832
 7122SOL    HW222266   6.629   0.882   6.795
 7123SOL     OW22267   2.297   4.688   1.224
 7123SOL    HW122268   2.204   4.702   1.190
 7123SOL    HW222269   2.299   4.608   1.284
 7124SOL     OW22270   0.711   5.375   1.317
 7124SOL    HW122271   0.759   5.453   1.355
 7124SOL    HW222272   0.757   5.290   1.344
 7125SOL     OW22273   6.565   6.383   2.373
 7125SOL    HW122274   6.581   6.340   2.462
 7125SOL    HW222275   6.651   6.389   2.322
 7126SOL     OW22276   0.748   4.582   0.502
 7126SOL    HW122277   0.711   4.489   0.493
 7126SOL    HW222278   0.757   4.623   0.412
 7127SOL     OW22279   3.724   6.861   4.558
 7127SOL    HW122280   3.647   6.810   4.596
 7127SOL    HW222281   3.773   6.803   4.493
 7128SOL     OW22282   2.773   4.534   1.637
 7128SOL    HW122283   2.853   4.551   1.693
 7128SOL    HW222284   2.690   4.540   1.694
 7129SOL     OW22285   2.516   1.337   1.744
 7129SOL    HW122286   2.465   1.391   1.677
 7129SOL    HW222287   2.601   1.384   1.768
 7130SOL     OW22288   2.343   5.882   2.134
 7130SOL    HW122289   2.291   5.826   2.070
 7130SOL    HW222290   2.308   5.976   2.132
 7131SOL     OW22291   2.933   1.169   3.159
 7131SOL    HW122292   2.981   1.125   3.236
 7131SOL    HW222293   2.988   1.159   3.076
 7132SOL     OW22294   3.351   4.028   3.001
 7132SOL    HW122295   3.352   4.028   2.901
 7132SOL    HW222296   3.257   4.039   3.034
 7133SOL     OW22297   5.034   4.947   2.478
 7133SOL    HW122298   5.116   4.928   2.532
 7133SOL    HW222299   5.014   5.045   2.481
 7134SOL     OW22300   5.290   3.931   3.567
 7134SOL    HW122301   5.265   4.004   3.504
 7134SOL    HW222302   5.208   3.894   3.609
 7135SOL     OW22303   0.966   1.761   5.036
 7135SOL    HW122304   1.026   1.825   5.085
 7135SOL    HW222305   0.873   1.771   5.070
 7136SOL     OW22306   2.462   1.798   0.316
 7136SOL    HW122307   2.400   1.799   0.238
 7136SOL    HW222308   2.434   1.726   0.379
 7137SOL     OW22309   4.262   0.993   4.862
 7137SOL    HW122310   4.256   1.010   4.763
 7137SOL    HW222311   4.300   1.074   4.907
 7138SOL     OW22312   2.178   4.115   0.104
 7138SOL    HW122313   2.189   4.121   0.203
 7138SOL    HW222314   2.192   4.021   0.075
 7139SOL     OW22315   3.295   2.064   0.726
 7139SOL    HW122316   3.368   2.129   0.708
 7139SOL    HW222317   3.282   2.056   0.825
 7140SOL     OW22318   6.312   3.617   5.292
 7140SOL    HW122319   6.301   3.518   5.299
 7140SOL    HW222320   6.240   3.655   5.234
 7141SOL     OW22321   2.629   6.718   0.534
 7141SOL    HW122322   2.632   6.644   0.601
 7141SOL    HW222323   2.716   6.721   0.485
 7142SOL     OW22324   3.831   6.417   4.315
 7142SOL    HW122325   3.755   6.355   4.294
 7142SOL    HW222326   3.869   6.394   4.404
 7143SOL     OW22327   1.930   3.595   4.889
 7143SOL    HW122328   1.869   3.628   4.817
 7143SOL    HW222329   1.905   3.638   4.976
 7144SOL     OW22330   0.723   2.722   4.104
 7144SOL    HW122331   0.787   2.693   4.175
 7144SOL    HW222332   0.642   2.762   4.147
 7145SOL     OW22333   4.328   0.289   6.356
 7145SOL    HW122334   4.302   0.212   6.414
 7145SOL    HW222335   4.327   0.373   6.411
 7146SOL     OW22336   2.882   4.341   0.503
 7146SOL    HW122337   2.844   4.343   0.410
 7146SOL    HW222338   2.977   4.375   0.500
 7147SOL     OW22339   0.128   0.469   4.333
 7147SOL    HW122340   0.083   0.454   4.421
 7147SOL    HW222341   0.065   0.446   4.259
 7148SOL     OW22342   1.031   1.172   0.562
 7148SOL    HW122343   0.970   1.207   0.633
 7148SOL    HW222344   0.977   1.144   0.483
 7149SOL     OW22345   6.239   1.185   3.656
 7149SOL    HW122346   6.149   1.223   3.633
 7149SOL    HW222347   6.237   1.086   3.644
 7150SOL     OW22348   5.483   3.575   6.808
 7150SOL    HW122349   5.425   3.593   6.728
 7150SOL    HW222350   5.427   3.574   6.890
 7151SOL     OW22351   2.632   6.154   1.161
 7151SOL    HW122352   2.556   6.092   1.144
 7151SOL    HW222353   2.718   6.104   1.150
 7152SOL     OW22354   1.170   2.513   4.026
 7152SOL    HW122355   1.147   2.544   4.119
 7152SOL    HW222356   1.219   2.426   4.032
 7153SOL     OW22357   3.650   1.501   3.954
 7153SOL    HW122358   3.659   1.497   3.854
 7153SOL    HW222359   3.716   1.567   3.991
 7154SOL     OW22360   4.810   6.249   4.820
 7154SOL    HW122361   4.910   6.243   4.816
 7154SOL    HW222362   4.770   6.160   4.797
 7155SOL     OW22363   3.149   0.618   1.687
 7155SOL    HW122364   3.055   0.592   1.666
 7155SOL    HW222365   3.151   0.672   1.771
 7156SOL     OW22366   0.277   5.813   4.331
 7156SOL    HW122367   0.293   5.714   4.325
 7156SOL    HW222368   0.361   5.858   4.363
 7157SOL     OW22369   5.011   4.291   1.151
 7157SOL    HW122370   4.937   4.233   1.118
 7157SOL    HW222371   5.081   4.234   1.194
 7158SOL     OW22372   5.651   6.677   4.845
 7158SOL    HW122373   5.624   6.768   4.815
 7158SOL    HW222374   5.749   6.675   4.864
 7159SOL     OW22375   0.526   5.620   0.149
 7159SOL    HW122376   0.427   5.618   0.133
 7159SOL    HW222377   0.547   5.571   0.234
 7160SOL     OW22378   6.022   0.641   2.201
 7160SOL    HW122379   5.959   0.615   2.274
 7160SOL    HW222380   6.013   0.739   2.182
 7161SOL     OW22381   3.785   3.985   3.699
 7161SOL    HW122382   3.787   4.012   3.603
 7161SOL    HW222383   3.740   4.056   3.753
 7162SOL     OW22384   2.601   4.604   3.488
 7162SOL    HW122385   2.566   4.697   3.501
 7162SOL    HW222386   2.641   4.596   3.397
 7163SOL     OW22387   2.547   0.030   3.323
 7163SOL    HW122388   2.528   0.099   3.253
 7163SOL    HW222389   2.611   6.983   3.287
 7164SOL     OW22390   2.473   1.901   3.236
 7164SOL    HW122391   2.388   1.943   3.267
 7164SOL    HW222392   2.479   1.907   3.136
 7165SOL     OW22393   5.212   0.238   1.750
 7165SOL    HW122394   5.170   0.284   1.672
 7165SOL    HW222395   5.191   0.140   1.747
 7166SOL     OW22396   5.153   5.347   2.243
 7166SOL    HW122397   5.218   5.359   2.168
 7166SOL    HW222398   5.198   5.298   2.318
 7167SOL     OW22399   4.614   2.932   5.312
 7167SOL    HW122400   4.709   2.929   5.344
 7167SOL    HW222401   4.600   2.858   5.245
 7168SOL     OW22402   1.068   1.210   4.675
 7168SOL    HW122403   1.130   1.169   4.608
 7168SOL    HW222404   1.050   1.305   4.650
 7169SOL     OW22405   1.892   2.742   6.152
 7169SOL    HW122406   1.975   2.688   6.134
 7169SOL    HW222407   1.834   2.741   6.071
 7170SOL     OW22408   6.930   5.023   4.663
 7170SOL    HW122409   6.886   4.956   4.723
 7170SOL    HW222410   7.009   4.981   4.619
 7171SOL     OW22411   3.767   2.805   5.248
 7171SOL    HW122412   3.670   2.814   5.225
 7171SOL    HW222413   3.822   2.849   5.177
 7172SOL     OW22414   1.287   6.951   1.210
 7172SOL    HW122415   1.312   0.023   1.180
 7172SOL    HW222416   1.288   6.948   1.310
 7173SOL     OW22417   5.948   6.189   5.774
 7173SOL    HW122418   5.933   6.207   5.677
 7173SOL    HW222419   5.993   6.101   5.785
 7174SOL     OW22420   0.825   5.560   0.027
 7174SOL    HW122421   0.751   5.614   0.067
 7174SOL    HW222422   0.790   5.472   7.016
 7175SOL     OW22423   6.547   3.295   4.784
 7175SOL    HW122424   6.641   3.328   4.776
 7175SOL    HW222425   6.545   3.214   4.843
 7176SOL     OW22426   6.061   3.859   1.346
 7176SOL    HW122427   6.042   3.786   1.279
 7176SOL    HW222428   6.072   3.946   1.298
 7177SOL     OW22429   1.203   6.129   1.902
 7177SOL    HW122430   1.130   6.189   1.933
 7177SOL    HW222431   1.280   6.134   1.966
 7178SOL     OW22432   0.246   2.612   6.454
 7178SOL    HW122433   0.222   2.708   6.468
 7178SOL    HW222434   0.204   2.578   6.370
 7179SOL     OW22435   2.782   4.594   6.243
 7179SOL    HW122436   2.730   4.539   6.307
 7179SOL    HW222437   2.725   4.616   6.164
 7180SOL     OW22438   0.871   6.621   2.479
 7180SOL    HW122439   0.959   6.628   2.525
 7180SOL    HW222440   0.836   6.713   2.460
 7181SOL     OW22441   5.046   0.336   2.428
 7181SOL    HW122442   5.007   0.358   2.338
 7181SOL    HW222443   5.003   0.394   2.497
 7182SOL     OW22444   2.860   3.682   5.377
 7182SOL    HW122445   2.866   3.582   5.374
 7182SOL    HW222446   2.778   3.712   5.328
 7183SOL     OW22447   1.190   5.454   3.027
 7183SOL    HW122448   1.112   5.475   3.085
 7183SOL    HW222449   1.165   5.382   2.962
 7184SOL     OW22450   1.723   6.637   3.255
 7184SOL    HW122451   1.794   6.651   3.324
 7184SOL    HW222452   1.729   6.543   3.220
 7185SOL     OW22453   3.946   2.162   6.670
 7185SOL    HW122454   3.984   2.158   6.762
 7185SOL    HW222455   3.956   2.074   6.625
 7186SOL     OW22456   0.666   6.876   4.288
 7186SOL    HW122457   0.697   6.786   4.318
 7186SOL    HW222458   0.745   6.938   4.283
 7187SOL     OW22459   2.241   5.285   1.314
 7187SOL    HW122460   2.282   5.265   1.403
 7187SOL    HW222461   2.313   5.286   1.244
 7188SOL     OW22462   5.544   0.732   1.871
 7188SOL    HW122463   5.487   0.755   1.950
 7188SOL    HW222464   5.520   0.791   1.794
 7189SOL     OW22465   6.443   0.773   4.705
 7189SOL    HW122466   6.424   0.689   4.757
 7189SOL    HW222467   6.357   0.808   4.668
 7190SOL     OW22468   4.807   5.189   3.934
 7190SOL    HW122469   4.898   5.210   3.897
 7190SOL    HW222470   4.741   5.188   3.860
 7191SOL     OW22471   1.481   2.926   2.129
 7191SOL    HW122472   1.513   2.991   2.198
 7191SOL    HW222473   1.382   2.937   2.117
 7192SOL     OW22474   4.020   5.432   5.690
 7192SOL    HW122475   4.053   5.339   5.703
 7192SOL    HW222476   4.068   5.475   5.614
 7193SOL     OW22477   4.802   1.308   3.068
 7193SOL    HW122478   4.884   1.333   3.120
 7193SOL    HW222479   4.721   1.346   3.111
 7194SOL     OW22480   3.021   1.551   1.637
 7194SOL    HW122481   3.093   1.485   1.654
 7194SOL    HW222482   3.035   1.633   1.693
 7195SOL     OW22483   0.574   5.344   1.933
 7195SOL    HW122484   0.495   5.350   1.995
 7195SOL    HW222485   0.576   5.424   1.874
 7196SOL     OW22486   3.881   3.182   1.594
 7196SOL    HW122487   3.920   3.191   1.503
 7196SOL    HW222488   3.953   3.154   1.658
 7197SOL     OW22489   1.626   1.579   5.449
 7197SOL    HW122490   1.604   1.669   5.485
 7197SOL    HW222491   1.660   1.520   5.523
 7198SOL     OW22492   1.091   5.663   6.823
 7198SOL    HW122493   1.114   5.674   6.727
 7198SOL    HW222494   1.066   5.752   6.862
 7199SOL     OW22495   6.300   6.920   2.870
 7199SOL    HW122496   6.381   6.936   2.926
 7199SOL    HW222497   6.289   6.994   2.803
 7200SOL     OW22498   2.056   1.887   1.149
 7200SOL    HW122499   2.152   1.906   1.126
 7200SOL    HW222500   2.004   1.973   1.147
 7201SOL     OW22501   2.368   4.426   3.509
 7201SOL    HW122502   2.448   4.486   3.509
 7201SOL    HW222503   2.361   4.380   3.420
 7202SOL     OW22504   3.945   0.413   6.141
 7202SOL    HW122505   3.894   0.464   6.071
 7202SOL    HW222506   3.952   0.317   6.113
 7203SOL     OW22507   6.155   0.683   6.772
 7203SOL    HW122508   6.214   0.628   6.831
 7203SOL    HW222509   6.207   0.719   6.695
 7204SOL     OW22510   5.962   1.398   2.228
 7204SOL    HW122511   5.945   1.371   2.133
 7204SOL    HW222512   5.895   1.467   2.256
 7205SOL     OW22513   2.041   4.735   1.931
 7205SOL    HW122514   2.049   4.769   2.025
 7205SOL    HW222515   2.012   4.639   1.933
 7206SOL     OW22516   5.693   1.488   1.952
 7206SOL    HW122517   5.619   1.474   1.887
 7206SOL    HW222518   5.703   1.586   1.971
 7207SOL     OW22519   4.441   0.320   1.651
 7207SOL    HW122520   4.533   0.345   1.680
 7207SOL    HW222521   4.423   0.357   1.560
 7208SOL     OW22522   2.764   6.972   4.905
 7208SOL    HW122523   2.856   6.940   4.881
 7208SOL    HW222524   2.698   6.935   4.839
 7209SOL     OW22525   3.916   3.593   4.578
 7209SOL    HW122526   3.850   3.523   4.549
 7209SOL    HW222527   3.990   3.600   4.511
 7210SOL     OW22528   4.208   0.548   4.235
 7210SOL    HW122529   4.136   0.617   4.243
 7210SOL    HW222530   4.167   0.461   4.209
 7211SOL     OW22531   1.675   5.332   2.720
 7211SOL    HW122532   1.604   5.389   2.760
 7211SOL    HW222533   1.669   5.335   2.620
 7212SOL     OW22534   5.192   6.965   4.457
 7212SOL    HW122535   5.111   6.930   4.409
 7212SOL    HW222536   5.245   6.888   4.493
 7213SOL     OW22537   5.189   0.465   5.554
 7213SOL    HW122538   5.286   0.480   5.534
 7213SOL    HW222539   5.149   0.408   5.483
 7214SOL     OW22540   0.799   4.842   4.747
 7214SOL    HW122541   0.787   4.754   4.700
 7214SOL    HW222542   0.738   4.910   4.706
 7215SOL     OW22543   0.837   3.288   3.041
 7215SOL    HW122544   0.755   3.337   3.071
 7215SOL    HW222545   0.875   3.331   2.959
 7216SOL     OW22546   2.123   1.274   1.263
 7216SOL    HW122547   2.121   1.348   1.195
 7216SOL    HW222548   2.090   1.309   1.351
 7217SOL     OW22549   0.963   3.099   2.391
 7217SOL    HW122550   0.962   3.021   2.453
 7217SOL    HW222551   0.916   3.177   2.435
 7218SOL     OW22552   6.113   2.736   5.700
 7218SOL    HW122553   6.132   2.681   5.782
 7218SOL    HW222554   6.023   2.711   5.664
 7219SOL     OW22555   3.803   1.161   1.490
 7219SOL    HW122556   3.711   1.174   1.455
 7219SOL    HW222557   3.840   1.075   1.454
 7220SOL     OW22558   6.870   0.744   2.815
 7220SOL    HW122559   6.841   0.807   2.887
 7220SOL    HW222560   6.790   0.712   2.765
 7221SOL     OW22561   5.677   5.271   5.151
 7221SOL    HW122562   5.722   5.271   5.240
 7221SOL    HW222563   5.724   5.207   5.090
 7222SOL     OW22564   6.125   6.703   2.801
 7222SOL    HW122565   6.192   6.777   2.809
 7222SOL    HW222566   6.035   6.740   2.779
 7223SOL     OW22567   3.823   0.334   5.295
 7223SOL    HW122568   3.915   0.310   5.265
 7223SOL    HW222569   3.760   0.329   5.217
 7224SOL     OW22570   4.668   0.073   4.487
 7224SOL    HW122571   4.760   0.051   4.520
 7224SOL    HW222572   4.644   0.011   4.412
 7225SOL     OW22573   2.001   7.013   0.442
 7225SOL    HW122574   1.961   6.945   0.381
 7225SOL    HW222575   1.993   0.084   0.401
 7226SOL     OW22576   5.830   6.922   0.139
 7226SOL    HW122577   5.765   6.989   0.103
 7226SOL    HW222578   5.804   6.831   0.109
 7227SOL     OW22579   6.399   2.963   6.148
 7227SOL    HW122580   6.362   2.955   6.241
 7227SOL    HW222581   6.497   2.979   6.152
 7228SOL     OW22582   1.808   0.821   2.779
 7228SOL    HW122583   1.822   0.876   2.862
 7228SOL    HW222584   1.853   0.733   2.790
 7229SOL     OW22585   0.495   0.610   4.002
 7229SOL    HW122586   0.577   0.652   4.040
 7229SOL    HW222587   0.435   0.581   4.077
 7230SOL     OW22588   5.750   4.692   2.950
 7230SOL    HW122589   5.698   4.607   2.956
 7230SOL    HW222590   5.846   4.674   2.972
 7231SOL     OW22591   5.680   1.501   6.406
 7231SOL    HW122592   5.681   1.552   6.491
 7231SOL    HW222593   5.693   1.403   6.425
 7232SOL     OW22594   3.548   4.342   0.858
 7232SOL    HW122595   3.589   4.297   0.937
 7232SOL    HW222596   3.611   4.411   0.822
 7233SOL     OW22597   0.569   2.263   5.906
 7233SOL    HW122598   0.557   2.346   5.960
 7233SOL    HW222599   0.485   2.209   5.909
 7234SOL     OW22600   5.548   1.675   2.591
 7234SOL    HW122601   5.638   1.718   2.593
 7234SOL    HW222602   5.486   1.728   2.533
 7235SOL     OW22603   6.345   2.918   4.605
 7235SOL    HW122604   6.442   2.896   4.592
 7235SOL    HW222605   6.336   3.013   4.633
 7236SOL     OW22606   3.259   1.184   3.153
 7236SOL    HW122607   3.318   1.105   3.170
 7236SOL    HW222608   3.198   1.197   3.230
 7237SOL     OW22609   6.621   5.719   6.020
 7237SOL    HW122610   6.666   5.653   5.960
 7237SOL    HW222611   6.527   5.688   6.038
 7238SOL     OW22612   0.911   1.213   1.661
 7238SOL    HW122613   0.924   1.205   1.760
 7238SOL    HW222614   0.981   1.273   1.623
 7239SOL     OW22615   4.757   1.032   2.068
 7239SOL    HW122616   4.790   1.065   2.157
 7239SOL    HW222617   4.827   0.974   2.026
 7240SOL     OW22618   2.968   3.644   0.729
 7240SOL    HW122619   2.986   3.671   0.634
 7240SOL    HW222620   2.970   3.726   0.787
 7241SOL     OW22621   3.921   0.059   5.123
 7241SOL    HW122622   3.991   0.127   5.142
 7241SOL    HW222623   3.853   0.098   5.060
 7242SOL     OW22624   4.695   4.919   0.478
 7242SOL    HW122625   4.621   4.860   0.448
 7242SOL    HW222626   4.771   4.864   0.513
 7243SOL     OW22627   0.492   5.831   0.525
 7243SOL    HW122628   0.556   5.875   0.588
 7243SOL    HW222629   0.400   5.866   0.539
 7244SOL     OW22630   5.527   1.662   0.826
 7244SOL    HW122631   5.487   1.727   0.891
 7244SOL    HW222632   5.501   1.689   0.733
 7245SOL     OW22633   6.770   2.010   4.459
 7245SOL    HW122634   6.757   1.918   4.495
 7245SOL    HW222635   6.727   2.076   4.521
 7246SOL     OW22636   0.952   5.787   5.537
 7246SOL    HW122637   0.903   5.700   5.545
 7246SOL    HW222638   0.971   5.806   5.440
 7247SOL     OW22639   3.515   5.878   2.572
 7247SOL    HW122640   3.506   5.788   2.529
 7247SOL    HW222641   3.423   5.914   2.591
 7248SOL     OW22642   3.331   0.703   4.674
 7248SOL    HW122643   3.398   0.777   4.670
 7248SOL    HW222644   3.369   0.622   4.629
 7249SOL     OW22645   6.037   4.982   6.618
 7249SOL    HW122646   6.068   5.055   6.680
 7249SOL    HW222647   6.102   4.972   6.543
 7250SOL     OW22648   3.028   4.497   6.724
 7250SOL    HW122649   2.966   4.573   6.706
 7250SOL    HW222650   3.083   4.479   6.642
 7251SOL     OW22651   5.458   0.486   5.458
 7251SOL    HW122652   5.506   0.562   5.413
 7251SOL    HW222653   5.424   0.422   5.389
 7252SOL     OW22654   4.462   3.733   5.273
 7252SOL    HW122655   4.531   3.666   5.246
 7252SOL    HW222656   4.502   3.824   5.275
 7253SOL     OW22657   5.129   5.303   1.036
 7253SOL    HW122658   5.200   5.339   0.977
 7253SOL    HW222659   5.085   5.224   0.992
 7254SOL     OW22660   5.246   6.591   5.334
 7254SOL    HW122661   5.266   6.502   5.376
 7254SOL    HW222662   5.290   6.663   5.387
 7255SOL     OW22663   3.710   3.838   1.851
 7255SOL    HW122664   3.703   3.938   1.861
 7255SOL    HW222665   3.803   3.809   1.873
 7256SOL     OW22666   4.481   4.947   3.906
 7256SOL    HW122667   4.418   4.946   3.829
 7256SOL    HW222668   4.494   4.854   3.939
 7257SOL     OW22669   6.343   3.725   3.272
 7257SOL    HW122670   6.346   3.650   3.337
 7257SOL    HW222671   6.435   3.746   3.239
 7258SOL     OW22672   2.676   6.299   5.465
 7258SOL    HW122673   2.754   6.320   5.524
 7258SOL    HW222674   2.596   6.282   5.522
 7259SOL     OW22675   1.872   5.476   6.025
 7259SOL    HW122676   1.914   5.393   5.989
 7259SOL    HW222677   1.828   5.456   6.112
 7260SOL     OW22678   4.280   2.019   2.258
 7260SOL    HW122679   4.293   2.117   2.239
 7260SOL    HW222680   4.183   2.001   2.274
 7261SOL     OW22681   1.536   4.115   1.495
 7261SOL    HW122682   1.612   4.159   1.543
 7261SOL    HW222683   1.573   4.060   1.420
 7262SOL     OW22684   6.343   1.605   5.855
 7262SOL    HW122685   6.364   1.703   5.862
 7262SOL    HW222686   6.373   1.559   5.939
 7263SOL     OW22687   5.101   6.245   1.940
 7263SOL    HW122688   5.036   6.284   1.874
 7263SOL    HW222689   5.147   6.319   1.990
 7264SOL     OW22690   1.425   6.820   4.563
 7264SOL    HW122691   1.347   6.783   4.511
 7264SOL    HW222692   1.503   6.832   4.502
 7265SOL     OW22693   4.170   3.845   6.059
 7265SOL    HW122694   4.219   3.759   6.070
 7265SOL    HW222695   4.200   3.911   6.128
 7266SOL     OW22696   4.874   1.399   1.312
 7266SOL    HW122697   4.909   1.349   1.391
 7266SOL    HW222698   4.934   1.478   1.294
 7267SOL     OW22699   6.899   2.957   4.315
 7267SOL    HW122700   6.934   2.894   4.247
 7267SOL    HW222701   6.970   2.977   4.383
 7268SOL     OW22702   3.314   0.322   0.680
 7268SOL    HW122703   3.254   0.293   0.754
 7268SOL    HW222704   3.264   0.318   0.593
 7269SOL     OW22705   1.301   6.859   2.194
 7269SOL    HW122706   1.363   6.910   2.135
 7269SOL    HW222707   1.284   6.911   2.278
 7270SOL     OW22708   3.133   1.754   2.369
 7270SOL    HW122709   3.156   1.827   2.306
 7270SOL    HW222710   3.215   1.728   2.421
 7271SOL     OW22711   6.189   4.818   4.227
 7271SOL    HW122712   6.165   4.914   4.243
 7271SOL    HW222713   6.115   4.759   4.261
 7272SOL     OW22714   6.174   1.698   1.297
 7272SOL    HW122715   6.233   1.715   1.377
 7272SOL    HW222716   6.079   1.694   1.326
 7273SOL     OW22717   5.691   6.447   6.073
 7273SOL    HW122718   5.764   6.493   6.123
 7273SOL    HW222719   5.726   6.417   5.984
 7274SOL     OW22720   6.730   4.555   4.571
 7274SOL    HW122721   6.737   4.494   4.650
 7274SOL    HW222722   6.652   4.617   4.583
 7275SOL     OW22723   5.231   6.254   1.214
 7275SOL    HW122724   5.270   6.341   1.244
 7275SOL    HW222725   5.219   6.193   1.293
 7276SOL     OW22726   2.842   1.828   4.127
 7276SOL    HW122727   2.787   1.815   4.045
 7276SOL    HW222728   2.913   1.758   4.131
 7277SOL     OW22729   5.391   1.594   3.926
 7277SOL    HW122730   5.481   1.591   3.971
 7277SOL    HW222731   5.320   1.602   3.996
 7278SOL     OW22732   2.568   1.703   3.389
 7278SOL    HW122733   2.580   1.741   3.480
 7278SOL    HW222734   2.505   1.760   3.336
 7279SOL     OW22735   4.061   4.083   1.201
 7279SOL    HW122736   3.997   4.137   1.147
 7279SOL    HW222737   4.132   4.045   1.142
 7280SOL     OW22738   6.911   2.076   5.697
 7280SOL    HW122739   7.007   2.098   5.709
 7280SOL    HW222740   6.902   1.984   5.659
 7281SOL     OW22741   3.937   5.779   2.333
 7281SOL    HW122742   3.911   5.712   2.403
 7281SOL    HW222743   3.859   5.839   2.314
 7282SOL     OW22744   6.601   4.031   2.068
 7282SOL    HW122745   6.615   4.035   2.166
 7282SOL    HW222746   6.654   4.103   2.023
 7283SOL     OW22747   4.094   5.204   3.407
 7283SOL    HW122748   4.191   5.203   3.433
 7283SOL    HW222749   4.066   5.299   3.388
 7284SOL     OW22750   0.803   1.548   2.470
 7284SOL    HW122751   0.740   1.472   2.454
 7284SOL    HW222752   0.758   1.617   2.526
 7285SOL     OW22753   4.798   3.143   1.565
 7285SOL    HW122754   4.810   3.078   1.640
 7285SOL    HW222755   4.713   3.122   1.517
 7286SOL     OW22756   6.257   1.475   3.604
 7286SOL    HW122757   6.248   1.380   3.573
 7286SOL    HW222758   6.189   1.531   3.556
 7287SOL     OW22759   3.132   1.105   3.383
 7287SOL    HW122760   3.213   1.058   3.419
 7287SOL    HW222761   3.059   1.103   3.450
 7288SOL     OW22762   2.728   1.505   1.805
 7288SOL    HW122763   2.676   1.575   1.855
 7288SOL    HW222764   2.816   1.490   1.851
 7289SOL     OW22765   6.543   2.453   1.586
 7289SOL    HW122766   6.573   2.536   1.633
 7289SOL    HW222767   6.446   2.438   1.604
 7290SOL     OW22768   3.978   1.487   4.818
 7290SOL    HW122769   3.936   1.570   4.781
 7290SOL    HW222770   3.978   1.492   4.918
 7291SOL     OW22771   2.145   0.863   0.480
 7291SOL    HW122772   2.189   0.949   0.507
 7291SOL    HW222773   2.203   0.786   0.506
 7292SOL     OW22774   2.386   0.710   2.640
 7292SOL    HW122775   2.357   0.631   2.587
 7292SOL    HW222776   2.391   0.790   2.581
 7293SOL     OW22777   6.423   1.544   4.023
 7293SOL    HW122778   6.503   1.512   4.074
 7293SOL    HW222779   6.361   1.591   4.086
 7294SOL     OW22780   3.537   6.425   2.301
 7294SOL    HW122781   3.442   6.397   2.319
 7294SOL    HW222782   3.599   6.364   2.350
 7295SOL     OW22783   5.123   4.029   1.445
 7295SOL    HW122784   5.138   4.010   1.349
 7295SOL    HW222785   5.209   4.057   1.488
 7296SOL     OW22786   4.057   5.802   1.983
 7296SOL    HW122787   4.139   5.794   1.927
 7296SOL    HW222788   4.034   5.713   2.023
 7297SOL     OW22789   4.298   6.831   0.858
 7297SOL    HW122790   4.258   6.816   0.768
 7297SOL    HW222791   4.288   6.749   0.913
 7298SOL     OW22792   4.308   5.216   0.645
 7298SOL    HW122793   4.364   5.227   0.727
 7298SOL    HW222794   4.328   5.291   0.581
 7299SOL     OW22795   0.919   2.857   5.570
 7299SOL    HW122796   0.858   2.841   5.492
 7299SOL    HW222797   0.878   2.817   5.652
 7300SOL     OW22798   0.300   5.224   2.311
 7300SOL    HW122799   0.399   5.216   2.304
 7300SOL    HW222800   0.268   5.300   2.255
 7301SOL     OW22801   4.030   2.131   6.167
 7301SOL    HW122802   3.949   2.072   6.171
 7301SOL    HW222803   4.084   2.107   6.086
 7302SOL     OW22804   5.712   2.055   6.229
 7302SOL    HW122805   5.670   2.116   6.296
 7302SOL    HW222806   5.744   1.972   6.275
 7303SOL     OW22807   3.117   1.889   1.478
 7303SOL    HW122808   3.089   1.795   1.495
 7303SOL    HW222809   3.046   1.951   1.510
 7304SOL     OW22810   2.425   5.157   0.817
 7304SOL    HW122811   2.412   5.059   0.830
 7304SOL    HW222812   2.383   5.207   0.893
 7305SOL     OW22813   6.121   1.088   6.740
 7305SOL    HW122814   6.149   1.038   6.822
 7305SOL    HW222815   6.201   1.112   6.687
 7306SOL     OW22816   1.388   3.122   1.282
 7306SOL    HW122817   1.362   3.161   1.371
 7306SOL    HW222818   1.351   3.030   1.274
 7307SOL     OW22819   1.882   0.345   1.619
 7307SOL    HW122820   1.945   0.313   1.689
 7307SOL    HW222821   1.814   0.406   1.659
 7308SOL     OW22822   3.527   1.301   2.935
 7308SOL    HW122823   3.441   1.308   2.886
 7308SOL    HW222824   3.603   1.318   2.871
 7309SOL     OW22825   1.757   5.205   3.661
 7309SOL    HW122826   1.683   5.146   3.693
 7309SOL    HW222827   1.732   5.246   3.573
 7310SOL     OW22828   2.769   2.409   6.466
 7310SOL    HW122829   2.678   2.394   6.426
 7310SOL    HW222830   2.797   2.503   6.450
 7311SOL     OW22831   0.253   6.100   5.801
 7311SOL    HW122832   0.341   6.061   5.774
 7311SOL    HW222833   0.261   6.137   5.894
 7312SOL     OW22834   6.163   2.054   3.923
 7312SOL    HW122835   6.249   2.079   3.966
 7312SOL    HW222836   6.087   2.072   3.986
 7313SOL     OW22837   2.682   0.682   2.694
 7313SOL    HW122838   2.707   0.768   2.739
 7313SOL    HW222839   2.604   0.697   2.634
 7314SOL     OW22840   1.271   4.364   5.819
 7314SOL    HW122841   1.359   4.408   5.805
 7314SOL    HW222842   1.207   4.429   5.858
 7315SOL     OW22843   2.521   5.209   2.489
 7315SOL    HW122844   2.452   5.142   2.516
 7315SOL    HW222845   2.609   5.163   2.479
 7316SOL     OW22846   3.964   1.386   1.443
 7316SOL    HW122847   3.918   1.460   1.492
 7316SOL    HW222848   3.915   1.300   1.459
 7317SOL     OW22849   4.146   2.090   0.311
 7317SOL    HW122850   4.127   2.049   0.221
 7317SOL    HW222851   4.060   2.101   0.362
 7318SOL     OW22852   4.860   6.942   0.684
 7318SOL    HW122853   4.776   6.889   0.698
 7318SOL    HW222854   4.903   6.913   0.599
 7319SOL     OW22855   5.689   6.676   0.039
 7319SOL    HW122856   5.683   6.592   0.092
 7319SOL    HW222857   5.609   6.733   0.057
 7320SOL     OW22858   0.606   2.757   0.560
 7320SOL    HW122859   0.704   2.768   0.573
 7320SOL    HW222860   0.583   2.771   0.463
 7321SOL     OW22861   2.466   1.933   6.697
 7321SOL    HW122862   2.513   2.019   6.715
 7321SOL    HW222863   2.533   1.860   6.682
 7322SOL     OW22864   1.212   3.157   3.543
 7322SOL    HW122865   1.178   3.251   3.548
 7322SOL    HW222866   1.208   3.124   3.449
 7323SOL     OW22867   1.581   2.530   0.225
 7323SOL    HW122868   1.605   2.573   0.138
 7323SOL    HW222869   1.602   2.592   0.300
 7324SOL     OW22870   4.832   4.018   3.392
 7324SOL    HW122871   4.798   4.108   3.421
 7324SOL    HW222872   4.868   3.969   3.471
 7325SOL     OW22873   3.988   1.296   6.299
 7325SOL    HW122874   4.010   1.319   6.204
 7325SOL    HW222875   4.058   1.334   6.359
 7326SOL     OW22876   3.795   0.187   0.687
 7326SOL    HW122877   3.814   0.279   0.655
 7326SOL    HW222878   3.696   0.170   0.685
 7327SOL     OW22879   1.647   4.393   3.307
 7327SOL    HW122880   1.632   4.299   3.277
 7327SOL    HW222881   1.658   4.452   3.227
 7328SOL     OW22882   4.882   5.200   5.749
 7328SOL    HW122883   4.899   5.253   5.667
 7328SOL    HW222884   4.785   5.200   5.770
 7329SOL     OW22885   2.722   3.601   0.389
 7329SOL    HW122886   2.707   3.610   0.488
 7329SOL    HW222887   2.770   3.515   0.371
 7330SOL     OW22888   2.082   2.903   0.977
 7330SOL    HW122889   2.177   2.877   0.962
 7330SOL    HW222890   2.025   2.821   0.975
 7331SOL     OW22891   5.211   1.952   2.368
 7331SOL    HW122892   5.158   2.036   2.381
 7331SOL    HW222893   5.210   1.899   2.452
 7332SOL     OW22894   3.039   6.538   6.206
 7332SOL    HW122895   3.086   6.539   6.294
 7332SOL    HW222896   3.102   6.568   6.134
 7333SOL     OW22897   0.445   0.894   1.281
 7333SOL    HW122898   0.533   0.846   1.275
 7333SOL    HW222899   0.409   0.885   1.374
 7334SOL     OW22900   1.390   5.046   4.246
 7334SOL    HW122901   1.446   4.966   4.266
 7334SOL    HW222902   1.435   5.102   4.175
 7335SOL     OW22903   0.020   3.628   2.318
 7335SOL    HW122904   0.017   3.723   2.350
 7335SOL    HW222905   6.954   3.606   2.271
 7336SOL     OW22906   2.392   6.940   1.279
 7336SOL    HW122907   2.460   6.868   1.267
 7336SOL    HW222908   2.399   7.005   1.203
 7337SOL     OW22909   3.265   0.866   3.756
 7337SOL    HW122910   3.292   0.858   3.660
 7337SOL    HW222911   3.209   0.948   3.768
 7338SOL     OW22912   5.238   3.993   1.166
 7338SOL    HW122913   5.316   3.938   1.194
 7338SOL    HW222914   5.216   3.973   1.071
 7339SOL     OW22915   0.137   6.366   5.154
 7339SOL    HW122916   0.043   6.356   5.121
 7339SOL    HW222917   0.136   6.408   5.245
 7340SOL     OW22918   3.032   6.013   0.393
 7340SOL    HW122919   3.052   5.915   0.395
 7340SOL    HW222920   3.057   6.049   0.303
 7341SOL     OW22921   6.674   6.185   5.281
 7341SOL    HW122922   6.617   6.192   5.200
 7341SOL    HW222923   6.716   6.094   5.285
 7342SOL     OW22924   1.187   5.254   1.270
 7342SOL    HW122925   1.169   5.346   1.234
 7342SOL    HW222926   1.286   5.240   1.276
 7343SOL     OW22927   5.575   2.351   2.965
 7343SOL    HW122928   5.638   2.333   3.040
 7343SOL    HW222929   5.601   2.297   2.886
 7344SOL     OW22930   2.382   1.053   0.204
 7344SOL    HW122931   2.417   0.972   0.251
 7344SOL    HW222932   2.399   1.134   0.259
 7345SOL     OW22933   2.643   6.345   0.160
 7345SOL    HW122934   2.676   6.434   0.189
 7345SOL    HW222935   2.679   6.274   0.221
 7346SOL     OW22936   3.866   5.184   1.803
 7346SOL    HW122937   3.904   5.132   1.727
 7346SOL    HW222938   3.858   5.125   1.883
 7347SOL     OW22939   6.477   2.806   2.502
 7347SOL    HW122940   6.450   2.782   2.409
 7347SOL    HW222941   6.572   2.778   2.518
 7348SOL     OW22942   0.179   1.512   4.798
 7348SOL    HW122943   0.170   1.461   4.712
 7348SOL    HW222944   0.270   1.551   4.804
 7349SOL     OW22945   3.562   1.252   0.749
 7349SOL    HW122946   3.562   1.282   0.654
 7349SOL    HW222947   3.498   1.307   0.802
 7350SOL     OW22948   2.402   1.261   2.830
 7350SOL    HW122949   2.391   1.352   2.870
 7350SOL    HW222950   2.378   1.265   2.733
 7351SOL     OW22951   4.277   5.210   0.202
 7351SOL    HW122952   4.226   5.124   0.213
 7351SOL    HW222953   4.362   5.192   0.153
 7352SOL     OW22954   6.029   0.732   3.262
 7352SOL    HW122955   6.031   0.648   3.208
 7352SOL    HW222956   6.044   0.710   3.359
 7353SOL     OW22957   5.165   2.436   4.635
 7353SOL    HW122958   5.240   2.430   4.568
 7353SOL    HW222959   5.108   2.355   4.627
 7354SOL     OW22960   6.654   4.134   4.816
 7354SOL    HW122961   6.730   4.069   4.815
 7354SOL    HW222962   6.603   4.124   4.902
 7355SOL     OW22963   0.963   5.222   1.427
 7355SOL    HW122964   0.984   5.277   1.508
 7355SOL    HW222965   1.041   5.223   1.365
 7356SOL     OW22966   0.165   2.196   6.368
 7356SOL    HW122967   0.256   2.168   6.338
 7356SOL    HW222968   0.126   2.127   6.428
 7357SOL     OW22969   0.899   1.610   0.341
 7357SOL    HW122970   0.911   1.550   0.420
 7357SOL    HW222971   0.810   1.592   0.299
 7358SOL     OW22972   3.466   0.607   3.629
 7358SOL    HW122973   3.366   0.609   3.621
 7358SOL    HW222974   3.504   0.547   3.558
 7359SOL     OW22975   3.511   3.375   3.188
 7359SOL    HW122976   3.457   3.360   3.105
 7359SOL    HW222977   3.483   3.460   3.232
 7360SOL     OW22978   0.253   3.721   5.854
 7360SOL    HW122979   0.291   3.629   5.843
 7360SOL    HW222980   0.219   3.754   5.766
 7361SOL     OW22981   4.931   6.296   1.463
 7361SOL    HW122982   4.860   6.332   1.523
 7361SOL    HW222983   4.992   6.237   1.516
 7362SOL     OW22984   1.720   6.601   6.568
 7362SOL    HW122985   1.813   6.619   6.538
 7362SOL    HW222986   1.721   6.527   6.636
 7363SOL     OW22987   5.049   3.146   6.383
 7363SOL    HW122988   5.139   3.156   6.341
 7363SOL    HW222989   5.059   3.146   6.482
 7364SOL     OW22990   5.547   0.842   1.460
 7364SOL    HW122991   5.645   0.835   1.478
 7364SOL    HW222992   5.502   0.756   1.485
 7365SOL     OW22993   3.663   0.471   1.792
 7365SOL    HW122994   3.596   0.519   1.849
 7365SOL    HW222995   3.750   0.519   1.796
 7366SOL     OW22996   1.104   5.567   0.051
 7366SOL    HW122997   1.007   5.572   0.075
 7366SOL    HW222998   1.115   5.570   6.972
 7367SOL     OW22999   4.338   3.220   0.025
 7367SOL    HW123000   4.328   3.121   0.014
 7367SOL    HW223001   4.359   3.242   0.121
 7368SOL     OW23002   2.878   3.476   3.327
 7368SOL    HW123003   2.882   3.474   3.228
 7368SOL    HW223004   2.965   3.509   3.364
 7369SOL     OW23005   5.174   2.077   6.230
 7369SOL    HW123006   5.096   2.033   6.186
 7369SOL    HW223007   5.169   2.062   6.329
 7370SOL     OW23008   1.625   5.541   1.182
 7370SOL    HW123009   1.628   5.494   1.094
 7370SOL    HW223010   1.708   5.521   1.234
 7371SOL     OW23011   2.346   5.257   3.922
 7371SOL    HW123012   2.422   5.316   3.950
 7371SOL    HW223013   2.352   5.170   3.970
 7372SOL     OW23014   2.976   6.098   5.673
 7372SOL    HW123015   3.019   6.112   5.763
 7372SOL    HW223016   2.917   6.017   5.677
 7373SOL     OW23017   4.006   0.154   1.742
 7373SOL    HW123018   3.914   0.191   1.732
 7373SOL    HW223019   4.053   0.202   1.817
 7374SOL     OW23020   2.228   3.385   6.745
 7374SOL    HW123021   2.130   3.370   6.735
 7374SOL    HW223022   2.278   3.323   6.684
 7375SOL     OW23023   1.782   6.721   2.977
 7375SOL    HW123024   1.822   6.644   2.928
 7375SOL    HW223025   1.753   6.690   3.068
 7376SOL     OW23026   3.232   4.295   5.810
 7376SOL    HW123027   3.255   4.291   5.713
 7376SOL    HW223028   3.289   4.231   5.862
 7377SOL     OW23029   5.274   4.851   2.279
 7377SOL    HW123030   5.299   4.947   2.265
 7377SOL    HW223031   5.305   4.821   2.370
 7378SOL     OW23032   6.745   2.680   5.934
 7378SOL    HW123033   6.673   2.623   5.893
 7378SOL    HW223034   6.702   2.749   5.992
 7379SOL     OW23035   4.303   1.131   0.870
 7379SOL    HW123036   4.378   1.151   0.806
 7379SOL    HW223037   4.305   1.197   0.945
 7380SOL     OW23038   6.481   2.261   5.144
 7380SOL    HW123039   6.429   2.346   5.136
 7380SOL    HW223040   6.439   2.203   5.214
 7381SOL     OW23041   5.015   2.419   6.660
 7381SOL    HW123042   5.098   2.364   6.674
 7381SOL    HW223043   5.016   2.497   6.723
 7382SOL     OW23044   0.183   5.806   3.697
 7382SOL    HW123045   0.248   5.761   3.758
 7382SOL    HW223046   0.116   5.857   3.751
 7383SOL     OW23047   6.918   5.386   3.451
 7383SOL    HW123048   6.964   5.416   3.534
 7383SOL    HW223049   6.984   5.380   3.376
 7384SOL     OW23050   6.143   1.927   1.590
 7384SOL    HW123051   6.221   1.876   1.553
 7384SOL    HW223052   6.092   1.869   1.654
 7385SOL     OW23053   5.482   0.367   1.635
 7385SOL    HW123054   5.528   0.402   1.717
 7385SOL    HW223055   5.454   0.272   1.650
 7386SOL     OW23056   0.229   2.934   5.807
 7386SOL    HW123057   0.198   2.939   5.902
 7386SOL    HW223058   0.288   3.012   5.788
 7387SOL     OW23059   4.887   5.877   3.929
 7387SOL    HW123060   4.850   5.922   3.848
 7387SOL    HW223061   4.896   5.779   3.912
 7388SOL     OW23062   5.488   4.291   4.693
 7388SOL    HW123063   5.444   4.380   4.680
 7388SOL    HW223064   5.460   4.230   4.619
 7389SOL     OW23065   0.514   4.604   4.496
 7389SOL    HW123066   0.438   4.595   4.560
 7389SOL    HW223067   0.565   4.688   4.517
 7390SOL     OW23068   2.811   0.401   5.983
 7390SOL    HW123069   2.816   0.464   5.906
 7390SOL    HW223070   2.815   0.452   6.069
 7391SOL     OW23071   6.679   4.136   0.177
 7391SOL    HW123072   6.653   4.091   0.262
 7391SOL    HW223073   6.776   4.158   0.179
 7392SOL     OW23074   2.373   4.539   3.015
 7392SOL    HW123075   2.355   4.584   3.103
 7392SOL    HW223076   2.355   4.604   2.940
 7393SOL     OW23077   0.393   3.201   0.016
 7393SOL    HW123078   0.486   3.188   0.051
 7393SOL    HW223079   0.363   3.116   6.991
 7394SOL     OW23080   2.932   3.286   6.359
 7394SOL    HW123081   2.897   3.315   6.448
 7394SOL    HW223082   2.996   3.355   6.324
 7395SOL     OW23083   1.691   6.532   0.252
 7395SOL    HW123084   1.694   6.623   0.210
 7395SOL    HW223085   1.783   6.507   0.283
 7396SOL     OW23086   0.183   6.810   1.571
 7396SOL    HW123087   0.124   6.861   1.632
 7396SOL    HW223088   0.176   6.847   1.478
 7397SOL     OW23089   5.694   4.443   4.339
 7397SOL    HW123090   5.609   4.393   4.322
 7397SOL    HW223091   5.678   4.541   4.329
 7398SOL     OW23092   4.189   6.289   3.016
 7398SOL    HW123093   4.135   6.212   2.983
 7398SOL    HW223094   4.280   6.287   2.973
 7399SOL     OW23095   5.246   4.559   4.986
 7399SOL    HW123096   5.299   4.562   4.901
 7399SOL    HW223097   5.163   4.613   4.975
 7400SOL     OW23098   2.154   5.072   6.572
 7400SOL    HW123099   2.238   5.036   6.530
 7400SOL    HW223100   2.175   5.156   6.621
 7401SOL     OW23101   5.831   1.792   4.850
 7401SOL    HW123102   5.840   1.861   4.921
 7401SOL    HW223103   5.740   1.750   4.856
 7402SOL     OW23104   2.458   6.487   4.072
 7402SOL    HW123105   2.472   6.585   4.086
 7402SOL    HW223106   2.533   6.436   4.114
 7403SOL     OW23107   2.142   3.232   1.275
 7403SOL    HW123108   2.052   3.270   1.296
 7403SOL    HW223109   2.152   3.222   1.176
 7404SOL     OW23110   1.425   1.746   2.519
 7404SOL    HW123111   1.331   1.716   2.530
 7404SOL    HW223112   1.483   1.701   2.587
 7405SOL     OW23113   3.447   5.331   6.342
 7405SOL    HW123114   3.475   5.245   6.384
 7405SOL    HW223115   3.528   5.385   6.319
 7406SOL     OW23116   0.706   6.036   1.885
 7406SOL    HW123117   0.681   5.939   1.880
 7406SOL    HW223118   0.757   6.053   1.969
 7407SOL     OW23119   2.422   0.974   5.670
 7407SOL    HW123120   2.396   1.070   5.662
 7407SOL    HW223121   2.366   0.919   5.609
 7408SOL     OW23122   0.502   3.890   5.335
 7408SOL    HW123123   0.537   3.858   5.423
 7408SOL    HW223124   0.432   3.960   5.350
 7409SOL     OW23125   3.148   6.500   5.668
 7409SOL    HW123126   3.116   6.588   5.704
 7409SOL    HW223127   3.185   6.445   5.743
 7410SOL     OW23128   5.356   4.728   6.963
 7410SOL    HW123129   5.413   4.776   6.897
 7410SOL    HW223130   5.346   4.784   0.025
 7411SOL     OW23131   5.141   5.119   5.767
 7411SOL    HW123132   5.147   5.039   5.827
 7411SOL    HW223133   5.050   5.160   5.775
 7412SOL     OW23134   1.913   1.655   6.929
 7412SOL    HW123135   2.006   1.682   6.953
 7412SOL    HW223136   1.882   1.583   6.990
 7413SOL     OW23137   0.096   3.272   4.247
 7413SOL    HW123138   0.195   3.276   4.239
 7413SOL    HW223139   0.062   3.360   4.282
 7414SOL     OW23140   6.632   5.472   2.612
 7414SOL    HW123141   6.635   5.479   2.711
 7414SOL    HW223142   6.578   5.392   2.586
 7415SOL     OW23143   2.943   1.861   2.963
 7415SOL    HW123144   2.869   1.925   2.945
 7415SOL    HW223145   2.916   1.769   2.932
 7416SOL     OW23146   5.414   0.304   3.726
 7416SOL    HW123147   5.508   0.271   3.719
 7416SOL    HW223148   5.355   0.231   3.761
 7417SOL     OW23149   0.761   6.014   1.002
 7417SOL    HW123150   0.788   6.105   1.034
 7417SOL    HW223151   0.684   5.980   1.057
 7418SOL     OW23152   0.915   3.797   0.136
 7418SOL    HW123153   0.959   3.742   0.206
 7418SOL    HW223154   0.901   3.743   0.054
 7419SOL     OW23155   5.604   1.431   5.565
 7419SOL    HW123156   5.676   1.418   5.633
 7419SOL    HW223157   5.555   1.516   5.584
 7420SOL     OW23158   6.726   5.790   2.114
 7420SOL    HW123159   6.689   5.842   2.191
 7420SOL    HW223160   6.803   5.839   2.074
 7421SOL     OW23161   3.762   2.804   1.508
 7421SOL    HW123162   3.761   2.827   1.606
 7421SOL    HW223163   3.854   2.820   1.471
 7422SOL     OW23164   0.429   2.275   1.315
 7422SOL    HW123165   0.526   2.257   1.301
 7422SOL    HW223166   0.382   2.274   1.227
 7423SOL     OW23167   1.766   5.088   0.204
 7423SOL    HW123168   1.841   5.065   0.142
 7423SOL    HW223169   1.732   5.179   0.181
 7424SOL     OW23170   5.796   0.962   4.690
 7424SOL    HW123171   5.805   1.046   4.743
 7424SOL    HW223172   5.800   0.883   4.752
 7425SOL     OW23173   4.411   0.235   5.431
 7425SOL    HW123174   4.480   0.257   5.362
 7425SOL    HW223175   4.367   0.320   5.462
 7426SOL     OW23176   1.153   1.502   0.084
 7426SOL    HW123177   1.077   1.556   0.046
 7426SOL    HW223178   1.139   1.490   0.182
 7427SOL     OW23179   4.326   5.469   5.034
 7427SOL    HW123180   4.421   5.451   5.011
 7427SOL    HW223181   4.270   5.465   4.951
 7428SOL     OW23182   3.265   1.402   5.735
 7428SOL    HW123183   3.285   1.422   5.639
 7428SOL    HW223184   3.254   1.488   5.785
 7429SOL     OW23185   6.711   0.007   4.264
 7429SOL    HW123186   6.798   0.037   4.303
 7429SOL    HW223187   6.638   0.017   4.332
 7430SOL     OW23188   0.462   5.066   4.352
 7430SOL    HW123189   0.363   5.070   4.363
 7430SOL    HW223190   0.485   5.019   4.267
 7431SOL     OW23191   0.947   4.431   2.269
 7431SOL    HW123192   0.860   4.432   2.219
 7431SOL    HW223193   1.013   4.490   2.223
 7432SOL     OW23194   1.274   6.632   4.783
 7432SOL    HW123195   1.223   6.614   4.867
 7432SOL    HW223196   1.361   6.675   4.805
 7433SOL     OW23197   6.781   6.271   1.230
 7433SOL    HW123198   6.754   6.199   1.293
 7433SOL    HW223199   6.750   6.360   1.265
 7434SOL     OW23200   4.529   0.123   6.760
 7434SOL    HW123201   4.535   0.114   6.860
 7434SOL    HW223202   4.501   0.216   6.737
 7435SOL     OW23203   1.531   5.446   0.160
 7435SOL    HW123204   1.589   5.388   0.102
 7435SOL    HW223205   1.435   5.425   0.142
 7436SOL     OW23206   4.912   3.014   0.101
 7436SOL    HW123207   4.826   3.061   0.117
 7436SOL    HW223208   4.961   3.001   0.187
 7437SOL     OW23209   6.975   5.479   5.642
 7437SOL    HW123210   6.983   5.576   5.619
 7437SOL    HW223211   6.991   5.467   5.740
 7438SOL     OW23212   6.009   4.445   1.771
 7438SOL    HW123213   5.967   4.414   1.857
 7438SOL    HW223214   6.093   4.495   1.792
 7439SOL     OW23215   1.133   5.935   3.914
 7439SOL    HW123216   1.197   5.934   3.838
 7439SOL    HW223217   1.124   5.842   3.952
 7440SOL     OW23218   0.676   1.800   3.606
 7440SOL    HW123219   0.768   1.796   3.643
 7440SOL    HW223220   0.677   1.770   3.510
 7441SOL     OW23221   5.838   0.064   3.973
 7441SOL    HW123222   5.876   0.126   3.904
 7441SOL    HW223223   5.908   0.044   4.041
 7442SOL     OW23224   2.114   0.986   6.709
 7442SOL    HW123225   2.166   1.069   6.725
 7442SOL    HW223226   2.101   0.937   6.795
 7443SOL     OW23227   6.823   1.524   0.603
 7443SOL    HW123228   6.832   1.566   0.694
 7443SOL    HW223229   6.914   1.506   0.566
 7444SOL     OW23230   0.619   2.168   5.659
 7444SOL    HW123231   0.591   2.213   5.744
 7444SOL    HW223232   0.632   2.236   5.587
 7445SOL     OW23233   5.685   2.233   2.148
 7445SOL    HW123234   5.705   2.229   2.245
 7445SOL    HW223235   5.662   2.327   2.122
 7446SOL     OW23236   6.824   3.301   1.281
 7446SOL    HW123237   6.890   3.376   1.292
 7446SOL    HW223238   6.748   3.332   1.224
 7447SOL     OW23239   6.825   3.909   6.340
 7447SOL    HW123240   6.856   3.984   6.281
 7447SOL    HW223241   6.768   3.847   6.287
 7448SOL     OW23242   6.736   6.393   6.181
 7448SOL    HW123243   6.828   6.433   6.185
 7448SOL    HW223244   6.668   6.463   6.202
 7449SOL     OW23245   4.551   0.652   1.737
 7449SOL    HW123246   4.554   0.751   1.753
 7449SOL    HW223247   4.470   0.614   1.782
 7450SOL     OW23248   3.328   0.105   2.216
 7450SOL    HW123249   3.343   0.013   2.251
 7450SOL    HW223250   3.334   0.105   2.116
 7451SOL     OW23251   1.762   1.310   2.837
 7451SOL    HW123252   1.768   1.376   2.911
 7451SOL    HW223253   1.701   1.235   2.863
 7452SOL     OW23254   1.391   6.592   4.203
 7452SOL    HW123255   1.363   6.679   4.243
 7452SOL    HW223256   1.443   6.539   4.270
 7453SOL     OW23257   5.636   5.707   5.420
 7453SOL    HW123258   5.687   5.762   5.486
 7453SOL    HW223259   5.602   5.625   5.465
 7454SOL     OW23260   0.833   2.980   0.010
 7454SOL    HW123261   0.864   3.072   0.035
 7454SOL    HW223262   0.888   2.946   6.954
 7455SOL     OW23263   5.510   1.373   0.841
 7455SOL    HW123264   5.455   1.361   0.923
 7455SOL    HW223265   5.507   1.469   0.813
 7456SOL     OW23266   1.568   2.861   5.507
 7456SOL    HW123267   1.479   2.872   5.550
 7456SOL    HW223268   1.639   2.855   5.578
 7457SOL     OW23269   6.242   0.086   6.234
 7457SOL    HW123270   6.216   0.150   6.306
 7457SOL    HW223271   6.331   0.045   6.256
 7458SOL     OW23272   2.283   0.671   0.653
 7458SOL    HW123273   2.224   0.660   0.733
 7458SOL    HW223274   2.363   0.725   0.678
 7459SOL     OW23275   4.470   0.337   4.448
 7459SOL    HW123276   4.495   0.291   4.533
 7459SOL    HW223277   4.525   0.302   4.373
 7460SOL     OW23278   0.680   5.349   6.623
 7460SOL    HW123279   0.629   5.264   6.609
 7460SOL    HW223280   0.623   5.427   6.597
 7461SOL     OW23281   4.772   0.788   4.240
 7461SOL    HW123282   4.785   0.875   4.192
 7461SOL    HW223283   4.702   0.735   4.193
 7462SOL     OW23284   1.603   1.164   2.408
 7462SOL    HW123285   1.612   1.089   2.474
 7462SOL    HW223286   1.507   1.170   2.379
 7463SOL     OW23287   3.719   4.002   2.210
 7463SOL    HW123288   3.817   3.986   2.221
 7463SOL    HW223289   3.701   4.032   2.116
 7464SOL     OW23290   4.807   6.894   6.635
 7464SOL    HW123291   4.840   6.805   6.603
 7464SOL    HW223292   4.867   6.966   6.601
 7465SOL     OW23293   3.458   1.191   2.112
 7465SOL    HW123294   3.489   1.101   2.143
 7465SOL    HW223295   3.386   1.180   2.045
 7466SOL     OW23296   0.367   0.298   6.672
 7466SOL    HW123297   0.434   0.226   6.690
 7466SOL    HW223298   0.311   0.271   6.594
 7467SOL     OW23299   5.398   1.303   1.479
 7467SOL    HW123300   5.321   1.310   1.416
 7467SOL    HW223301   5.447   1.217   1.464
 7468SOL     OW23302   6.153   3.222   4.210
 7468SOL    HW123303   6.146   3.322   4.207
 7468SOL    HW223304   6.149   3.191   4.305
 7469SOL     OW23305   6.334   1.385   1.610
 7469SOL    HW123306   6.403   1.396   1.539
 7469SOL    HW223307   6.333   1.291   1.642
 7470SOL     OW23308   0.244   2.409   2.403
 7470SOL    HW123309   0.164   2.428   2.460
 7470SOL    HW223310   0.218   2.416   2.306
 7471SOL     OW23311   5.941   4.816   5.973
 7471SOL    HW123312   5.872   4.766   6.026
 7471SOL    HW223313   6.031   4.777   5.991
 7472SOL     OW23314   3.698   5.208   3.375
 7472SOL    HW123315   3.700   5.299   3.334
 7472SOL    HW223316   3.761   5.148   3.327
 7473SOL     OW23317   0.896   3.640   4.953
 7473SOL    HW123318   0.874   3.555   5.001
 7473SOL    HW223319   0.842   3.646   4.869
 7474SOL     OW23320   4.047   1.654   2.784
 7474SOL    HW123321   3.981   1.717   2.825
 7474SOL    HW223322   4.102   1.702   2.716
 7475SOL     OW23323   4.330   1.323   0.283
 7475SOL    HW123324   4.310   1.334   0.380
 7475SOL    HW223325   4.374   1.406   0.249
 7476SOL     OW23326   3.301   6.918   5.023
 7476SOL    HW123327   3.367   6.930   4.949
 7476SOL    HW223328   3.229   6.855   4.994
 7477SOL     OW23329   4.881   3.156   3.377
 7477SOL    HW123330   4.822   3.088   3.334
 7477SOL    HW223331   4.968   3.114   3.402
 7478SOL     OW23332   1.610   4.879   1.281
 7478SOL    HW123333   1.556   4.956   1.318
 7478SOL    HW223334   1.642   4.902   1.189
 7479SOL     OW23335   4.622   0.821   6.055
 7479SOL    HW123336   4.625   0.723   6.072
 7479SOL    HW223337   4.715   0.858   6.061
 7480SOL     OW23338   6.906   4.840   1.169
 7480SOL    HW123339   6.990   4.797   1.136
 7480SOL    HW223340   6.827   4.796   1.127
 7481SOL     OW23341   6.237   5.858   0.467
 7481SOL    HW123342   6.196   5.949   0.453
 7481SOL    HW223343   6.323   5.868   0.516
 7482SOL     OW23344   4.870   0.686   3.842
 7482SOL    HW123345   4.900   0.603   3.889
 7482SOL    HW223346   4.943   0.720   3.783
 7483SOL     OW23347   3.331   0.088   5.801
 7483SOL    HW123348   3.339   0.186   5.816
 7483SOL    HW223349   3.242   0.068   5.758
 7484SOL     OW23350   3.044   0.118   2.413
 7484SOL    HW123351   3.013   0.064   2.335
 7484SOL    HW223352   3.082   0.205   2.381
 7485SOL     OW23353   1.343   6.629   5.812
 7485SOL    HW123354   1.407   6.599   5.741
 7485SOL    HW223355   1.264   6.674   5.770
 7486SOL     OW23356   1.654   0.512   5.117
 7486SOL    HW123357   1.727   0.535   5.181
 7486SOL    HW223358   1.647   0.583   5.048
 7487SOL     OW23359   3.871   5.439   3.599
 7487SOL    HW123360   3.942   5.419   3.532
 7487SOL    HW223361   3.914   5.464   3.686
 7488SOL     OW23362   3.760   0.605   5.338
 7488SOL    HW123363   3.779   0.669   5.264
 7488SOL    HW223364   3.788   0.513   5.311
 7489SOL     OW23365   6.291   3.475   3.091
 7489SOL    HW123366   6.320   3.570   3.102
 7489SOL    HW223367   6.191   3.471   3.089
 7490SOL     OW23368   5.549   1.148   2.202
 7490SOL    HW123369   5.592   1.226   2.247
 7490SOL    HW223370   5.475   1.180   2.142
 7491SOL     OW23371   6.822   6.571   7.006
 7491SOL    HW123372   6.862   6.651   0.032
 7491SOL    HW223373   6.786   6.598   6.917
 7492SOL     OW23374   2.121   2.694   3.947
 7492SOL    HW123375   2.206   2.742   3.926
 7492SOL    HW223376   2.112   2.684   4.046
 7493SOL     OW23377   5.789   4.462   0.321
 7493SOL    HW123378   5.856   4.483   0.250
 7493SOL    HW223379   5.724   4.538   0.329
 7494SOL     OW23380   4.813   1.767   1.111
 7494SOL    HW123381   4.814   1.863   1.139
 7494SOL    HW223382   4.753   1.715   1.172
 7495SOL     OW23383   0.365   1.471   2.560
 7495SOL    HW123384   0.293   1.513   2.504
 7495SOL    HW223385   0.403   1.540   2.622
 7496SOL     OW23386   1.126   4.476   5.016
 7496SOL    HW123387   1.059   4.487   4.943
 7496SOL    HW223388   1.080   4.462   5.103
 7497SOL     OW23389   2.009   5.192   2.210
 7497SOL    HW123390   2.072   5.178   2.287
 7497SOL    HW223391   2.047   5.148   2.128
 7498SOL     OW23392   4.973   1.193   4.302
 7498SOL    HW123393   4.902   1.132   4.268
 7498SOL    HW223394   5.063   1.154   4.284
 7499SOL     OW23395   4.573   5.945   3.956
 7499SOL    HW123396   4.498   5.889   3.921
 7499SOL    HW223397   4.657   5.891   3.961
 7500SOL     OW23398   5.099   4.701   1.561
 7500SOL    HW123399   5.082   4.745   1.472
 7500SOL    HW223400   5.099   4.770   1.633
 7501SOL     OW23401   0.453   4.649   3.819
 7501SOL    HW123402   0.522   4.687   3.881
 7501SOL    HW223403   0.448   4.550   3.830
 7502SOL     OW23404   2.505   1.833   4.420
 7502SOL    HW123405   2.447   1.773   4.475
 7502SOL    HW223406   2.546   1.781   4.346
 7503SOL     OW23407   2.530   2.328   6.709
 7503SOL    HW123408   2.472   2.348   6.788
 7503SOL    HW223409   2.473   2.319   6.628
 7504SOL     OW23410   4.269   5.699   4.055
 7504SOL    HW123411   4.333   5.655   3.992
 7504SOL    HW223412   4.278   5.659   4.146
 7505SOL     OW23413   1.927   1.984   4.355
 7505SOL    HW123414   1.933   1.945   4.447
 7505SOL    HW223415   1.876   2.070   4.358
 7506SOL     OW23416   3.983   1.858   3.200
 7506SOL    HW123417   3.890   1.891   3.219
 7506SOL    HW223418   3.997   1.853   3.101
 7507SOL     OW23419   1.667   6.384   6.051
 7507SOL    HW123420   1.633   6.413   6.140
 7507SOL    HW223421   1.738   6.314   6.064
 7508SOL     OW23422   4.724   6.608   4.027
 7508SOL    HW123423   4.736   6.617   3.928
 7508SOL    HW223424   4.735   6.512   4.052
 7509SOL     OW23425   4.433   3.384   5.680
 7509SOL    HW123426   4.368   3.456   5.658
 7509SOL    HW223427   4.406   3.340   5.766
 7510SOL     OW23428   3.040   3.791   4.470
 7510SOL    HW123429   3.047   3.838   4.558
 7510SOL    HW223430   3.073   3.697   4.480
 7511SOL     OW23431   1.372   0.877   2.531
 7511SOL    HW123432   1.357   0.964   2.484
 7511SOL    HW223433   1.291   0.820   2.523
 7512SOL     OW23434   2.175   3.068   1.764
 7512SOL    HW123435   2.177   3.099   1.859
 7512SOL    HW223436   2.219   3.136   1.706
 7513SOL     OW23437   0.384   3.150   6.485
 7513SOL    HW123438   0.483   3.137   6.480
 7513SOL    HW223439   0.349   3.173   6.395
 7514SOL     OW23440   2.714   5.949   2.869
 7514SOL    HW123441   2.651   5.892   2.816
 7514SOL    HW223442   2.787   5.891   2.907
 7515SOL     OW23443   6.770   4.976   3.033
 7515SOL    HW123444   6.713   4.929   2.966
 7515SOL    HW223445   6.720   5.056   3.068
 7516SOL     OW23446   1.357   0.962   3.082
 7516SOL    HW123447   1.442   0.909   3.071
 7516SOL    HW223448   1.380   1.057   3.100
 7517SOL     OW23449   0.766   5.076   1.325
 7517SOL    HW123450   0.847   5.127   1.354
 7517SOL    HW223451   0.789   5.019   1.246
 7518SOL     OW23452   5.359   5.577   2.843
 7518SOL    HW123453   5.355   5.480   2.818
 7518SOL    HW223454   5.272   5.604   2.886
 7519SOL     OW23455   1.660   6.137   3.637
 7519SOL    HW123456   1.759   6.123   3.642
 7519SOL    HW223457   1.625   6.099   3.551
 7520SOL     OW23458   2.094   0.061   4.034
 7520SOL    HW123459   2.145   7.015   4.089
 7520SOL    HW223460   2.105   0.153   4.074
 7521SOL     OW23461   5.379   3.972   6.032
 7521SOL    HW123462   5.328   3.989   5.948
 7521SOL    HW223463   5.470   4.012   6.025
 7522SOL     OW23464   2.005   0.574   2.176
 7522SOL    HW123465   2.091   0.527   2.160
 7522SOL    HW223466   1.967   0.545   2.264
 7523SOL     OW23467   5.629   0.025   6.997
 7523SOL    HW123468   5.545   7.016   6.952
 7523SOL    HW223469   5.674   0.096   6.943
 7524SOL     OW23470   5.804   1.448   4.312
 7524SOL    HW123471   5.867   1.399   4.251
 7524SOL    HW223472   5.819   1.547   4.302
 7525SOL     OW23473   1.310   6.113   0.960
 7525SOL    HW123474   1.324   6.073   0.869
 7525SOL    HW223475   1.213   6.131   0.974
 7526SOL     OW23476   3.209   2.790   5.259
 7526SOL    HW123477   3.293   2.763   5.306
 7526SOL    HW223478   3.135   2.730   5.287
 7527SOL     OW23479   5.695   4.860   2.167
 7527SOL    HW123480   5.702   4.776   2.112
 7527SOL    HW223481   5.649   4.931   2.114
 7528SOL     OW23482   6.180   3.295   5.776
 7528SOL    HW123483   6.143   3.218   5.829
 7528SOL    HW223484   6.232   3.261   5.699
 7529SOL     OW23485   3.019   0.054   5.212
 7529SOL    HW123486   3.094   0.060   5.278
 7529SOL    HW223487   3.055   0.067   5.120
 7530SOL     OW23488   6.809   3.018   2.253
 7530SOL    HW123489   6.753   2.939   2.230
 7530SOL    HW223490   6.771   3.100   2.210
 7531SOL     OW23491   3.265   1.816   3.783
 7531SOL    HW123492   3.176   1.777   3.806
 7531SOL    HW223493   3.308   1.854   3.865
 7532SOL     OW23494   4.861   4.716   2.061
 7532SOL    HW123495   4.922   4.643   2.030
 7532SOL    HW223496   4.904   4.765   2.137
 7533SOL     OW23497   3.475   7.001   4.615
 7533SOL    HW123498   3.538   6.968   4.545
 7533SOL    HW223499   3.515   0.061   4.660
 7534SOL     OW23500   5.323   0.081   4.863
 7534SOL    HW123501   5.335   0.180   4.857
 7534SOL    HW223502   5.349   0.049   4.954
 7535SOL     OW23503   3.501   4.613   6.370
 7535SOL    HW123504   3.493   4.535   6.432
 7535SOL    HW223505   3.428   4.610   6.302
 7536SOL     OW23506   4.038   6.059   4.141
 7536SOL    HW123507   4.136   6.038   4.137
 7536SOL    HW223508   3.986   5.973   4.139
 7537SOL     OW23509   1.808   4.448   5.811
 7537SOL    HW123510   1.799   4.432   5.910
 7537SOL    HW223511   1.886   4.397   5.776
 7538SOL     OW23512   3.392   3.089   3.019
 7538SOL    HW123513   3.441   3.003   3.028
 7538SOL    HW223514   3.313   3.089   3.079
 7539SOL     OW23515   1.934   2.473   3.991
 7539SOL    HW123516   1.845   2.501   4.027
 7539SOL    HW223517   1.985   2.553   3.961
 7540SOL     OW23518   1.762   1.399   0.372
 7540SOL    HW123519   1.819   1.480   0.386
 7540SOL    HW223520   1.820   1.324   0.338
 7541SOL     OW23521   0.034   2.492   5.300
 7541SOL    HW123522   0.109   2.558   5.295
 7541SOL    HW223523   6.977   2.525   5.244
 7542SOL     OW23524   1.990   0.090   6.513
 7542SOL    HW123525   1.957   0.000   6.483
 7542SOL    HW223526   2.063   0.078   6.580
 7543SOL     OW23527   3.900   2.738   0.117
 7543SOL    HW123528   3.877   2.813   0.056
 7543SOL    HW223529   3.954   2.772   0.194
 7544SOL     OW23530   1.755   1.989   2.830
 7544SOL    HW123531   1.801   2.023   2.748
 7544SOL    HW223532   1.696   2.061   2.867
 7545SOL     OW23533   5.390   6.934   3.727
 7545SOL    HW123534   5.334   7.013   3.752
 7545SOL    HW223535   5.471   6.930   3.785
 7546SOL     OW23536   5.213   0.681   6.649
 7546SOL    HW123537   5.294   0.631   6.678
 7546SOL    HW223538   5.141   0.671   6.717
 7547SOL     OW23539   3.203   6.954   0.272
 7547SOL    HW123540   3.106   6.934   0.257
 7547SOL    HW223541   3.252   6.953   0.184
 7548SOL     OW23542   1.272   3.210   1.009
 7548SOL    HW123543   1.319   3.173   1.089
 7548SOL    HW223544   1.293   3.308   1.001
 7549SOL     OW23545   5.956   2.210   2.260
 7549SOL    HW123546   6.008   2.294   2.278
 7549SOL    HW223547   5.872   2.210   2.314
 7550SOL     OW23548   1.460   5.339   1.324
 7550SOL    HW123549   1.518   5.384   1.255
 7550SOL    HW223550   1.418   5.409   1.382
 7551SOL     OW23551   4.519   3.957   6.121
 7551SOL    HW123552   4.474   4.021   6.059
 7551SOL    HW223553   4.539   4.003   6.208
 7552SOL     OW23554   3.000   5.177   3.971
 7552SOL    HW123555   2.921   5.226   3.935
 7552SOL    HW223556   2.988   5.079   3.955
 7553SOL     OW23557   4.724   4.269   6.125
 7553SOL    HW123558   4.814   4.283   6.082
 7553SOL    HW223559   4.729   4.295   6.221
 7554SOL     OW23560   6.538   1.013   0.998
 7554SOL    HW123561   6.597   1.079   1.045
 7554SOL    HW223562   6.444   1.024   1.028
 7555SOL     OW23563   0.802   5.565   5.679
 7555SOL    HW123564   0.800   5.612   5.767
 7555SOL    HW223565   0.816   5.467   5.694
 7556SOL     OW23566   6.705   3.123   4.010
 7556SOL    HW123567   6.800   3.153   4.017
 7556SOL    HW223568   6.681   3.070   4.092
 7557SOL     OW23569   4.415   3.454   6.928
 7557SOL    HW123570   4.503   3.467   6.884
 7557SOL    HW223571   4.402   3.357   6.951
 7558SOL     OW23572   1.752   3.322   3.606
 7558SOL    HW123573   1.836   3.281   3.572
 7558SOL    HW223574   1.675   3.261   3.586
 7559SOL     OW23575   0.668   5.004   0.621
 7559SOL    HW123576   0.693   4.910   0.642
 7559SOL    HW223577   0.578   5.024   0.661
 7560SOL     OW23578   4.768   6.634   5.907
 7560SOL    HW123579   4.731   6.705   5.848
 7560SOL    HW223580   4.750   6.544   5.867
 7561SOL     OW23581   0.584   3.510   0.687
 7561SOL    HW123582   0.578   3.419   0.646
 7561SOL    HW223583   0.638   3.505   0.771
 7562SOL     OW23584   5.052   5.843   5.520
 7562SOL    HW123585   5.143   5.829   5.480
 7562SOL    HW223586   5.001   5.757   5.518
 7563SOL     OW23587   2.416   1.234   2.206
 7563SOL    HW123588   2.339   1.247   2.144
 7563SOL    HW223589   2.387   1.178   2.284
 7564SOL     OW23590   5.021   6.606   4.164
 7564SOL    HW123591   5.120   6.590   4.171
 7564SOL    HW223592   4.995   6.613   4.067
 7565SOL     OW23593   4.958   4.343   0.566
 7565SOL    HW123594   4.888   4.408   0.593
 7565SOL    HW223595   5.006   4.309   0.647
 7566SOL     OW23596   1.907   5.703   5.241
 7566SOL    HW123597   1.907   5.742   5.148
 7566SOL    HW223598   1.814   5.677   5.266
 7567SOL     OW23599   2.506   3.267   6.940
 7567SOL    HW123600   2.522   3.302   6.847
 7567SOL    HW223601   2.489   3.344   7.001
 7568SOL     OW23602   4.563   4.626   3.146
 7568SOL    HW123603   4.494   4.586   3.085
 7568SOL    HW223604   4.521   4.646   3.234
 7569SOL     OW23605   3.731   0.762   1.253
 7569SOL    HW123606   3.754   0.738   1.159
 7569SOL    HW223607   3.808   0.741   1.313
 7570SOL     OW23608   5.946   4.643   4.589
 7570SOL    HW123609   6.045   4.641   4.597
 7570SOL    HW223610   5.910   4.550   4.593
 7571SOL     OW23611   4.942   3.975   1.786
 7571SOL    HW123612   4.930   3.881   1.815
 7571SOL    HW223613   4.912   4.037   1.858
 7572SOL     OW23614   1.550   1.758   4.400
 7572SOL    HW123615   1.522   1.778   4.493
 7572SOL    HW223616   1.552   1.843   4.347
 7573SOL     OW23617   2.855   5.693   5.004
 7573SOL    HW123618   2.909   5.777   4.994
 7573SOL    HW223619   2.886   5.625   4.938
 7574SOL     OW23620   5.144   5.779   2.458
 7574SOL    HW123621   5.181   5.868   2.430
 7574SOL    HW223622   5.216   5.724   2.499
 7575SOL     OW23623   4.529   2.474   4.755
 7575SOL    HW123624   4.502   2.460   4.850
 7575SOL    HW223625   4.469   2.420   4.695
 7576SOL     OW23626   6.181   3.429   1.351
 7576SOL    HW123627   6.201   3.526   1.361
 7576SOL    HW223628   6.125   3.398   1.428
 7577SOL     OW23629   4.263   0.508   4.795
 7577SOL    HW123630   4.238   0.464   4.709
 7577SOL    HW223631   4.278   0.439   4.865
 7578SOL     OW23632   2.496   5.006   4.291
 7578SOL    HW123633   2.429   4.998   4.217
 7578SOL    HW223634   2.584   5.034   4.253
 7579SOL     OW23635   4.222   1.963   3.270
 7579SOL    HW123636   4.136   1.919   3.243
 7579SOL    HW223637   4.203   2.056   3.303
 7580SOL     OW23638   2.139   3.540   2.945
 7580SOL    HW123639   2.172   3.506   3.034
 7580SOL    HW223640   2.114   3.462   2.887
 7581SOL     OW23641   6.219   0.692   1.047
 7581SOL    HW123642   6.300   0.633   1.045
 7581SOL    HW223643   6.247   0.786   1.067
 7582SOL     OW23644   2.716   1.514   1.001
 7582SOL    HW123645   2.648   1.448   1.035
 7582SOL    HW223646   2.703   1.602   1.048
 7583SOL     OW23647   6.982   3.272   2.361
 7583SOL    HW123648   7.013   3.177   2.357
 7583SOL    HW223649   0.011   3.320   2.434
 7584SOL     OW23650   2.418   1.446   1.100
 7584SOL    HW123651   2.325   1.412   1.085
 7584SOL    HW223652   2.475   1.373   1.138
 7585SOL     OW23653   1.499   5.188   6.092
 7585SOL    HW123654   1.580   5.246   6.090
 7585SOL    HW223655   1.457   5.193   6.183
 7586SOL     OW23656   2.335   1.307   1.481
 7586SOL    HW123657   2.283   1.303   1.396
 7586SOL    HW223658   2.297   1.242   1.547
 7587SOL     OW23659   2.219   1.006   5.976
 7587SOL    HW123660   2.175   1.029   6.063
 7587SOL    HW223661   2.317   0.990   5.992
 7588SOL     OW23662   0.466   4.307   1.430
 7588SOL    HW123663   0.500   4.259   1.510
 7588SOL    HW223664   0.387   4.257   1.392
 7589SOL     OW23665   5.518   6.326   0.265
 7589SOL    HW123666   5.441   6.277   0.305
 7589SOL    HW223667   5.484   6.404   0.212
 7590SOL     OW23668   2.382   0.644   6.619
 7590SOL    HW123669   2.330   0.562   6.595
 7590SOL    HW223670   2.329   0.725   6.595
 7591SOL     OW23671   6.785   5.183   0.041
 7591SOL    HW123672   6.769   5.111   0.109
 7591SOL    HW223673   6.778   5.273   0.084
 7592SOL     OW23674   5.579   5.822   0.091
 7592SOL    HW123675   5.578   5.803   7.013
 7592SOL    HW223676   5.673   5.816   0.125
 7593SOL     OW23677   5.891   3.207   6.979
 7593SOL    HW123678   5.859   3.234   6.888
 7593SOL    HW223679   5.963   3.270   7.009
 7594SOL     OW23680   1.167   6.509   3.553
 7594SOL    HW123681   1.126   6.419   3.534
 7594SOL    HW223682   1.193   6.552   3.466
 7595SOL     OW23683   6.384   2.146   0.377
 7595SOL    HW123684   6.409   2.180   0.286
 7595SOL    HW223685   6.341   2.220   0.429
 7596SOL     OW23686   4.791   4.667   1.593
 7596SOL    HW123687   4.780   4.655   1.494
 7596SOL    HW223688   4.777   4.763   1.617
 7597SOL     OW23689   3.135   5.611   1.944
 7597SOL    HW123690   3.205   5.626   1.874
 7597SOL    HW223691   3.052   5.576   1.901
 7598SOL     OW23692   6.388   0.322   3.396
 7598SOL    HW123693   6.451   0.282   3.463
 7598SOL    HW223694   6.394   0.270   3.311
 7599SOL     OW23695   6.212   1.964   2.048
 7599SOL    HW123696   6.136   2.020   2.014
 7599SOL    HW223697   6.203   1.871   2.012
 7600SOL     OW23698   2.356   2.033   1.737
 7600SOL    HW123699   2.312   2.108   1.687
 7600SOL    HW223700   2.287   1.965   1.761
 7601SOL     OW23701   1.994   6.962   4.524
 7601SOL    HW123702   1.952   0.027   4.493
 7601SOL    HW223703   2.004   6.900   4.446
 7602SOL     OW23704   2.184   3.148   4.939
 7602SOL    HW123705   2.260   3.107   4.990
 7602SOL    HW223706   2.145   3.223   4.992
 7603SOL     OW23707   0.769   0.735   2.184
 7603SOL    HW123708   0.767   0.830   2.217
 7603SOL    HW223709   0.678   0.709   2.152
 7604SOL     OW23710   4.485   6.230   6.537
 7604SOL    HW123711   4.459   6.306   6.597
 7604SOL    HW223712   4.476   6.258   6.442
 7605SOL     OW23713   5.926   4.146   5.451
 7605SOL    HW123714   5.849   4.192   5.407
 7605SOL    HW223715   5.894   4.060   5.492
 7606SOL     OW23716   6.225   1.732   2.941
 7606SOL    HW123717   6.185   1.664   3.003
 7606SOL    HW223718   6.162   1.747   2.864
 7607SOL     OW23719   5.196   6.863   6.886
 7607SOL    HW123720   5.171   6.767   6.871
 7607SOL    HW223721   5.148   6.896   6.968
 7608SOL     OW23722   3.919   3.222   3.470
 7608SOL    HW123723   3.894   3.153   3.537
 7608SOL    HW223724   3.856   3.299   3.476
 7609SOL     OW23725   1.646   2.885   4.320
 7609SOL    HW123726   1.576   2.951   4.349
 7609SOL    HW223727   1.735   2.915   4.355
 7610SOL     OW23728   5.438   0.579   1.472
 7610SOL    HW123729   5.418   0.541   1.382
 7610SOL    HW223730   5.449   0.505   1.538
 7611SOL     OW23731   1.677   1.861   1.412
 7611SOL    HW123732   1.593   1.846   1.359
 7611SOL    HW223733   1.654   1.870   1.509
 7612SOL     OW23734   4.279   1.813   2.607
 7612SOL    HW123735   4.212   1.834   2.535
 7612SOL    HW223736   4.347   1.748   2.572
 7613SOL     OW23737   5.090   1.172   2.430
 7613SOL    HW123738   5.167   1.216   2.383
 7613SOL    HW223739   5.108   1.170   2.528
 7614SOL     OW23740   3.878   1.755   0.488
 7614SOL    HW123741   3.846   1.697   0.413
 7614SOL    HW223742   3.802   1.811   0.522
 7615SOL     OW23743   3.700   5.063   5.881
 7615SOL    HW123744   3.673   5.135   5.945
 7615SOL    HW223745   3.742   4.988   5.931
 7616SOL     OW23746   6.651   4.921   3.743
 7616SOL    HW123747   6.557   4.950   3.727
 7616SOL    HW223748   6.706   4.999   3.773
 7617SOL     OW23749   3.293   5.932   2.308
 7617SOL    HW123750   3.248   6.015   2.276
 7617SOL    HW223751   3.380   5.955   2.350
 7618SOL     OW23752   1.941   2.537   0.420
 7618SOL    HW123753   1.864   2.487   0.458
 7618SOL    HW223754   2.026   2.507   0.463
 7619SOL     OW23755   5.786   3.259   5.531
 7619SOL    HW123756   5.859   3.193   5.552
 7619SOL    HW223757   5.698   3.220   5.556
 7620SOL     OW23758   3.292   6.499   1.408
 7620SOL    HW123759   3.297   6.450   1.495
 7620SOL    HW223760   3.200   6.534   1.394
 7621SOL     OW23761   2.804   1.765   1.684
 7621SOL    HW123762   2.724   1.813   1.650
 7621SOL    HW223763   2.779   1.670   1.706
 7622SOL     OW23764   4.672   2.039   0.890
 7622SOL    HW123765   4.610   2.113   0.867
 7622SOL    HW223766   4.633   1.952   0.859
 7623SOL     OW23767   5.223   0.462   5.832
 7623SOL    HW123768   5.198   0.471   5.736
 7623SOL    HW223769   5.233   0.553   5.873
 7624SOL     OW23770   6.607   0.387   4.355
 7624SOL    HW123771   6.647   0.444   4.283
 7624SOL    HW223772   6.536   0.328   4.315
 7625SOL     OW23773   4.208   6.617   1.295
 7625SOL    HW123774   4.135   6.549   1.297
 7625SOL    HW223775   4.226   6.644   1.201
 7626SOL     OW23776   1.976   4.756   5.065
 7626SOL    HW123777   1.980   4.657   5.064
 7626SOL    HW223778   2.068   4.794   5.060
 7627SOL     OW23779   0.308   2.386   0.272
 7627SOL    HW123780   0.298   2.291   0.242
 7627SOL    HW223781   0.364   2.390   0.354
 7628SOL     OW23782   3.794   2.169   0.918
 7628SOL    HW123783   3.878   2.131   0.958
 7628SOL    HW223784   3.802   2.269   0.914
 7629SOL     OW23785   6.475   5.209   3.795
 7629SOL    HW123786   6.530   5.289   3.771
 7629SOL    HW223787   6.378   5.228   3.775
 7630SOL     OW23788   6.590   0.854   2.341
 7630SOL    HW123789   6.602   0.755   2.332
 7630SOL    HW223790   6.501   0.879   2.302
 7631SOL     OW23791   0.888   2.090   3.623
 7631SOL    HW123792   0.904   2.087   3.525
 7631SOL    HW223793   0.799   2.131   3.642
 7632SOL     OW23794   4.378   1.661   6.307
 7632SOL    HW123795   4.353   1.585   6.248
 7632SOL    HW223796   4.351   1.747   6.264
 7633SOL     OW23797   5.865   4.495   6.295
 7633SOL    HW123798   5.775   4.527   6.265
 7633SOL    HW223799   5.894   4.548   6.375
 7634SOL     OW23800   0.843   1.845   2.000
 7634SOL    HW123801   0.888   1.793   2.073
 7634SOL    HW223802   0.778   1.786   1.953
 7635SOL     OW23803   2.931   5.048   6.208
 7635SOL    HW123804   2.962   5.100   6.129
 7635SOL    HW223805   2.942   5.103   6.291
 7636SOL     OW23806   1.438   0.153   4.252
 7636SOL    HW123807   1.382   0.162   4.335
 7636SOL    HW223808   1.462   0.244   4.218
 7637SOL     OW23809   1.968   5.846   4.445
 7637SOL    HW123810   1.928   5.798   4.523
 7637SOL    HW223811   2.063   5.816   4.432
 7638SOL     OW23812   4.646   4.605   1.826
 7638SOL    HW123813   4.687   4.608   1.735
 7638SOL    HW223814   4.684   4.529   1.878
 7639SOL     OW23815   0.679   2.040   4.238
 7639SOL    HW123816   0.634   2.104   4.301
 7639SOL    HW223817   0.640   1.949   4.249
 7640SOL     OW23818   2.136   2.687   6.432
 7640SOL    HW123819   2.220   2.712   6.480
 7640SOL    HW223820   2.144   2.593   6.398
 7641SOL     OW23821   6.513   2.670   3.240
 7641SOL    HW123822   6.466   2.697   3.157
 7641SOL    HW223823   6.502   2.741   3.310
 7642SOL     OW23824   2.730   2.067   2.968
 7642SOL    HW123825   2.648   2.099   2.920
 7642SOL    HW223826   2.777   2.145   3.010
 7643SOL     OW23827   4.893   3.312   3.129
 7643SOL    HW123828   4.856   3.295   3.220
 7643SOL    HW223829   4.919   3.408   3.121
 7644SOL     OW23830   6.637   3.629   3.229
 7644SOL    HW123831   6.712   3.674   3.277
 7644SOL    HW223832   6.660   3.532   3.215
 7645SOL     OW23833   4.667   3.531   6.773
 7645SOL    HW123834   4.730   3.454   6.768
 7645SOL    HW223835   4.716   3.612   6.807
 7646SOL     OW23836   0.935   1.578   1.766
 7646SOL    HW123837   0.903   1.599   1.674
 7646SOL    HW223838   1.031   1.549   1.762
 7647SOL     OW23839   1.906   4.398   1.427
 7647SOL    HW123840   1.819   4.415   1.380
 7647SOL    HW223841   1.966   4.477   1.415
 7648SOL     OW23842   4.267   0.744   2.888
 7648SOL    HW123843   4.261   0.707   2.795
 7648SOL    HW223844   4.175   0.760   2.924
 7649SOL     OW23845   2.429   0.985   1.514
 7649SOL    HW123846   2.355   1.032   1.562
 7649SOL    HW223847   2.517   1.019   1.546
 7650SOL     OW23848   5.198   4.726   2.855
 7650SOL    HW123849   5.240   4.736   2.946
 7650SOL    HW223850   5.139   4.646   2.855
 7651SOL     OW23851   4.331   1.423   6.171
 7651SOL    HW123852   4.336   1.443   6.074
 7651SOL    HW223853   4.288   1.334   6.185
 7652SOL     OW23854   0.981   3.122   2.726
 7652SOL    HW123855   0.991   3.221   2.733
 7652SOL    HW223856   0.884   3.098   2.731
 7653SOL     OW23857   3.475   2.340   1.437
 7653SOL    HW123858   3.544   2.356   1.508
 7653SOL    HW223859   3.434   2.250   1.451
 7654SOL     OW23860   4.868   3.850   3.634
 7654SOL    HW123861   4.845   3.916   3.705
 7654SOL    HW223862   4.921   3.775   3.672
 7655SOL     OW23863   4.518   6.299   5.731
 7655SOL    HW123864   4.467   6.374   5.689
 7655SOL    HW223865   4.552   6.238   5.659
 7656SOL     OW23866   1.058   6.003   4.599
 7656SOL    HW123867   1.070   6.101   4.581
 7656SOL    HW223868   0.972   5.988   4.648
 7657SOL     OW23869   4.578   1.530   4.336
 7657SOL    HW123870   4.545   1.496   4.425
 7657SOL    HW223871   4.636   1.461   4.294
 7658SOL     OW23872   4.163   0.582   6.118
 7658SOL    HW123873   4.087   0.523   6.147
 7658SOL    HW223874   4.212   0.539   6.042
 7659SOL     OW23875   5.379   0.109   0.362
 7659SOL    HW123876   5.395   0.199   0.323
 7659SOL    HW223877   5.373   0.041   0.288
 7660SOL     OW23878   6.633   4.608   4.098
 7660SOL    HW123879   6.541   4.647   4.091
 7660SOL    HW223880   6.695   4.661   4.040
 7661SOL     OW23881   5.759   3.539   3.194
 7661SOL    HW123882   5.711   3.460   3.232
 7661SOL    HW223883   5.750   3.538   3.094
 7662SOL     OW23884   6.990   5.846   1.871
 7662SOL    HW123885   6.956   5.815   1.782
 7662SOL    HW223886   0.030   5.925   1.857
 7663SOL     OW23887   0.004   5.249   6.923
 7663SOL    HW123888   6.927   5.245   6.946
 7663SOL    HW223889   0.055   5.183   6.979
 7664SOL     OW23890   2.334   5.249   4.738
 7664SOL    HW123891   2.357   5.346   4.748
 7664SOL    HW223892   2.379   5.213   4.656
 7665SOL     OW23893   2.261   6.267   4.864
 7665SOL    HW123894   2.288   6.180   4.905
 7665SOL    HW223895   2.201   6.316   4.926
 7666SOL     OW23896   1.583   1.390   1.501
 7666SOL    HW123897   1.512   1.416   1.437
 7666SOL    HW223898   1.649   1.331   1.455
 7667SOL     OW23899   4.980   5.455   6.388
 7667SOL    HW123900   5.077   5.438   6.372
 7667SOL    HW223901   4.967   5.550   6.418
 7668SOL     OW23902   2.860   3.883   1.474
 7668SOL    HW123903   2.812   3.901   1.388
 7668SOL    HW223904   2.800   3.834   1.537
 7669SOL     OW23905   4.610   6.445   4.808
 7669SOL    HW123906   4.692   6.400   4.844
 7669SOL    HW223907   4.531   6.422   4.865
 7670SOL     OW23908   2.106   4.900   0.938
 7670SOL    HW123909   2.203   4.909   0.963
 7670SOL    HW223910   2.095   4.825   0.873
 7671SOL     OW23911   5.250   2.761   4.781
 7671SOL    HW123912   5.156   2.726   4.787
 7671SOL    HW223913   5.272   2.782   4.686
 7672SOL     OW23914   5.190   0.517   2.284
 7672SOL    HW123915   5.150   0.470   2.363
 7672SOL    HW223916   5.161   0.613   2.284
 7673SOL     OW23917   0.164   4.759   0.862
 7673SOL    HW123918   0.260   4.763   0.834
 7673SOL    HW223919   0.159   4.741   0.960
 7674SOL     OW23920   6.742   0.758   5.065
 7674SOL    HW123921   6.837   0.756   5.094
 7674SOL    HW223922   6.737   0.744   4.966
 7675SOL     OW23923   4.382   0.309   3.553
 7675SOL    HW123924   4.410   0.379   3.619
 7675SOL    HW223925   4.418   0.220   3.581
 7676SOL     OW23926   1.646   6.775   1.020
 7676SOL    HW123927   1.721   6.797   0.957
 7676SOL    HW223928   1.684   6.750   1.109
 7677SOL     OW23929   2.050   2.899   2.502
 7677SOL    HW123930   1.974   2.865   2.447
 7677SOL    HW223931   2.098   2.970   2.452
 7678SOL     OW23932   5.780   0.221   6.587
 7678SOL    HW123933   5.827   0.200   6.502
 7678SOL    HW223934   5.694   0.268   6.567
 7679SOL     OW23935   0.616   4.732   5.275
 7679SOL    HW123936   0.540   4.796   5.271
 7679SOL    HW223937   0.658   4.723   5.185
 7680SOL     OW23938   4.163   2.080   6.405
 7680SOL    HW123939   4.121   1.991   6.424
 7680SOL    HW223940   4.142   2.107   6.311
 7681SOL     OW23941   2.689   1.691   6.977
 7681SOL    HW123942   2.636   1.775   6.968
 7681SOL    HW223943   2.628   1.615   6.997
 7682SOL     OW23944   3.535   0.126   0.915
 7682SOL    HW123945   3.584   0.092   0.996
 7682SOL    HW223946   3.515   0.049   0.854
 7683SOL     OW23947   5.949   1.550   3.276
 7683SOL    HW123948   5.930   1.621   3.208
 7683SOL    HW223949   6.006   1.478   3.234
 7684SOL     OW23950   4.041   1.637   5.718
 7684SOL    HW123951   3.956   1.656   5.767
 7684SOL    HW223952   4.029   1.659   5.621
 7685SOL     OW23953   3.626   3.664   0.720
 7685SOL    HW123954   3.534   3.692   0.749
 7685SOL    HW223955   3.694   3.708   0.779
 7686SOL     OW23956   3.050   0.278   4.072
 7686SOL    HW123957   3.056   0.183   4.103
 7686SOL    HW223958   3.044   0.280   3.972
 7687SOL     OW23959   4.563   5.285   5.316
 7687SOL    HW123960   4.504   5.362   5.338
 7687SOL    HW223961   4.516   5.199   5.339
 7688SOL     OW23962   6.945   0.074   4.357
 7688SOL    HW123963   6.980   0.164   4.332
 7688SOL    HW223964   6.987   0.045   4.444
 7689SOL     OW23965   4.046   6.497   4.151
 7689SOL    HW123966   4.135   6.458   4.174
 7689SOL    HW223967   3.978   6.465   4.217
 7690SOL     OW23968   7.000   6.327   3.215
 7690SOL    HW123969   0.033   6.349   3.297
 7690SOL    HW223970   0.042   6.289   3.145
 7691SOL     OW23971   5.528   4.331   5.146
 7691SOL    HW123972   5.568   4.420   5.126
 7691SOL    HW223973   5.549   4.268   5.071
 7692SOL     OW23974   1.789   6.728   1.237
 7692SOL    HW123975   1.776   6.629   1.237
 7692SOL    HW223976   1.818   6.759   1.327
 7693SOL     OW23977   5.665   0.915   6.810
 7693SOL    HW123978   5.625   0.902   6.720
 7693SOL    HW223979   5.763   0.896   6.806
 7694SOL     OW23980   6.217   5.155   4.522
 7694SOL    HW123981   6.316   5.151   4.510
 7694SOL    HW223982   6.173   5.110   4.444
 7695SOL     OW23983   3.781   0.381   6.737
 7695SOL    HW123984   3.822   0.471   6.744
 7695SOL    HW223985   3.729   0.374   6.652
 7696SOL     OW23986   0.405   3.490   5.855
 7696SOL    HW123987   0.364   3.439   5.931
 7696SOL    HW223988   0.396   3.437   5.771
 7697SOL     OW23989   4.209   1.756   1.507
 7697SOL    HW123990   4.147   1.729   1.580
 7697SOL    HW223991   4.276   1.821   1.543
 7698SOL     OW23992   0.162   3.355   5.655
 7698SOL    HW123993   0.176   3.449   5.625
 7698SOL    HW223994   0.077   3.349   5.708
 7699SOL     OW23995   2.051   4.716   6.961
 7699SOL    HW123996   2.147   4.690   6.957
 7699SOL    HW223997   1.994   4.637   6.939
 7700SOL     OW23998   5.417   6.815   5.386
 7700SOL    HW123999   5.396   6.892   5.446
 7700SOL    HW224000   5.506   6.777   5.411
 7701SOL     OW24001   6.465   2.072   5.364
 7701SOL    HW124002   6.539   2.026   5.316
 7701SOL    HW224003   6.381   2.019   5.354
 7702SOL     OW24004   2.475   6.296   5.990
 7702SOL    HW124005   2.457   6.382   6.037
 7702SOL    HW224006   2.485   6.223   6.057
 7703SOL     OW24007   0.104   2.004   6.577
 7703SOL    HW124008   0.085   1.925   6.635
 7703SOL    HW224009   0.201   2.029   6.584
 7704SOL     OW24010   4.584   4.874   7.009
 7704SOL    HW124011   4.594   4.855   6.911
 7704SOL    HW224012   4.536   4.798   0.033
 7705SOL     OW24013   3.537   5.237   5.479
 7705SOL    HW124014   3.624   5.285   5.477
 7705SOL    HW224015   3.550   5.143   5.447
 7706SOL     OW24016   6.736   0.677   5.496
 7706SOL    HW124017   6.715   0.771   5.520
 7706SOL    HW224018   6.706   0.658   5.402
 7707SOL     OW24019   0.223   5.071   5.955
 7707SOL    HW124020   0.228   5.056   5.856
 7707SOL    HW224021   0.310   5.108   5.988
 7708SOL     OW24022   4.660   6.826   5.074
 7708SOL    HW124023   4.569   6.868   5.073
 7708SOL    HW224024   4.721   6.878   5.015
 7709SOL     OW24025   3.744   1.973   1.860
 7709SOL    HW124026   3.716   2.053   1.914
 7709SOL    HW224027   3.837   1.947   1.884
 7710SOL     OW24028   3.142   2.033   6.894
 7710SOL    HW124029   3.075   1.981   6.948
 7710SOL    HW224030   3.118   2.130   6.897
 7711SOL     OW24031   5.643   6.551   6.343
 7711SOL    HW124032   5.717   6.599   6.390
 7711SOL    HW224033   5.590   6.616   6.289
 7712SOL     OW24034   4.888   5.436   1.176
 7712SOL    HW124035   4.832   5.510   1.140
 7712SOL    HW224036   4.970   5.426   1.120
 7713SOL     OW24037   1.151   4.672   6.812
 7713SOL    HW124038   1.187   4.579   6.799
 7713SOL    HW224039   1.211   4.722   6.874
 7714SOL     OW24040   5.084   4.556   3.816
 7714SOL    HW124041   5.031   4.531   3.735
 7714SOL    HW224042   5.156   4.488   3.831
 7715SOL     OW24043   4.460   1.961   1.267
 7715SOL    HW124044   4.544   2.006   1.237
 7715SOL    HW224045   4.407   2.023   1.325
 7716SOL     OW24046   4.617   2.711   3.234
 7716SOL    HW124047   4.642   2.658   3.316
 7716SOL    HW224048   4.655   2.803   3.241
 7717SOL     OW24049   3.930   0.810   6.394
 7717SOL    HW124050   3.924   0.723   6.442
 7717SOL    HW224051   3.876   0.879   6.442
 7718SOL     OW24052   2.837   5.852   3.475
 7718SOL    HW124053   2.859   5.795   3.396
 7718SOL    HW224054   2.887   5.938   3.469
 7719SOL     OW24055   6.720   1.990   5.213
 7719SOL    HW124056   6.712   1.957   5.119
 7719SOL    HW224057   6.812   2.027   5.227
 7720SOL     OW24058   5.729   5.756   1.719
 7720SOL    HW124059   5.772   5.754   1.810
 7720SOL    HW224060   5.698   5.664   1.695
 7721SOL     OW24061   1.596   4.670   2.617
 7721SOL    HW124062   1.594   4.721   2.703
 7721SOL    HW224063   1.666   4.709   2.557
 7722SOL     OW24064   0.391   5.749   4.066
 7722SOL    HW124065   0.315   5.700   4.110
 7722SOL    HW224066   0.374   5.847   4.070
 7723SOL     OW24067   6.313   3.093   0.377
 7723SOL    HW124068   6.387   3.036   0.413
 7723SOL    HW224069   6.236   3.092   0.441
 7724SOL     OW24070   1.681   4.933   1.024
 7724SOL    HW124071   1.699   4.983   0.939
 7724SOL    HW224072   1.686   4.834   1.006
 7725SOL     OW24073   5.212   3.632   4.514
 7725SOL    HW124074   5.249   3.704   4.572
 7725SOL    HW224075   5.245   3.643   4.420
 7726SOL     OW24076   6.429   3.923   3.635
 7726SOL    HW124077   6.372   3.856   3.684
 7726SOL    HW224078   6.522   3.920   3.670
 7727SOL     OW24079   6.403   2.699   1.850
 7727SOL    HW124080   6.424   2.624   1.913
 7727SOL    HW224081   6.475   2.705   1.781
 7728SOL     OW24082   2.471   2.251   2.916
 7728SOL    HW124083   2.443   2.195   2.993
 7728SOL    HW224084   2.458   2.348   2.938
 7729SOL     OW24085   5.488   2.390   0.613
 7729SOL    HW124086   5.518   2.296   0.630
 7729SOL    HW224087   5.388   2.393   0.611
 7730SOL     OW24088   4.900   0.358   2.202
 7730SOL    HW124089   4.950   0.302   2.136
 7730SOL    HW224090   4.870   0.443   2.158
 7731SOL     OW24091   6.300   1.082   6.073
 7731SOL    HW124092   6.399   1.092   6.089
 7731SOL    HW224093   6.258   1.039   6.153
 7732SOL     OW24094   4.273   4.937   0.271
 7732SOL    HW124095   4.365   4.897   0.278
 7732SOL    HW224096   4.215   4.899   0.343
 7733SOL     OW24097   3.288   0.070   1.909
 7733SOL    HW124098   3.211   0.006   1.910
 7733SOL    HW224099   3.268   0.145   1.846
 7734SOL     OW24100   1.748   1.717   2.887
 7734SOL    HW124101   1.761   1.709   2.986
 7734SOL    HW224102   1.762   1.812   2.859
 7735SOL     OW24103   4.881   4.009   0.532
 7735SOL    HW124104   4.880   4.034   0.629
 7735SOL    HW224105   4.975   3.991   0.504
 7736SOL     OW24106   6.063   4.484   6.081
 7736SOL    HW124107   6.138   4.549   6.088
 7736SOL    HW224108   5.989   4.510   6.143
 7737SOL     OW24109   5.195   1.476   0.633
 7737SOL    HW124110   5.289   1.503   0.616
 7737SOL    HW224111   5.151   1.450   0.547
 7738SOL     OW24112   2.388   4.928   6.423
 7738SOL    HW124113   2.471   4.971   6.386
 7738SOL    HW224114   2.414   4.858   6.489
 7739SOL     OW24115   6.066   3.476   1.770
 7739SOL    HW124116   5.976   3.451   1.806
 7739SOL    HW224117   6.094   3.409   1.701
 7740SOL     OW24118   0.354   6.629   3.609
 7740SOL    HW124119   0.309   6.652   3.523
 7740SOL    HW224120   0.379   6.714   3.657
 7741SOL     OW24121   2.976   5.504   4.405
 7741SOL    HW124122   2.893   5.558   4.422
 7741SOL    HW224123   2.993   5.444   4.483
 7742SOL     OW24124   6.028   1.011   3.991
 7742SOL    HW124125   6.117   0.973   4.014
 7742SOL    HW224126   5.993   0.968   3.907
 7743SOL     OW24127   4.639   2.747   2.935
 7743SOL    HW124128   4.673   2.834   2.900
 7743SOL    HW224129   4.584   2.763   3.017
 7744SOL     OW24130   0.114   0.024   5.215
 7744SOL    HW124131   0.027   0.045   5.259
 7744SOL    HW224132   0.174   0.104   5.218
 7745SOL     OW24133   5.202   3.232   5.389
 7745SOL    HW124134   5.186   3.263   5.482
 7745SOL    HW224135   5.288   3.271   5.355
 7746SOL     OW24136   1.662   0.526   0.508
 7746SOL    HW124137   1.618   0.501   0.595
 7746SOL    HW224138   1.647   0.452   0.441
 7747SOL     OW24139   5.203   5.212   1.286
 7747SOL    HW124140   5.142   5.140   1.320
 7747SOL    HW224141   5.171   5.243   1.197
 7748SOL     OW24142   3.371   3.417   6.534
 7748SOL    HW124143   3.441   3.466   6.586
 7748SOL    HW224144   3.414   3.367   6.459
 7749SOL     OW24145   5.199   3.050   6.638
 7749SOL    HW124146   5.271   3.117   6.622
 7749SOL    HW224147   5.239   2.961   6.659
 7750SOL     OW24148   5.776   4.993   2.876
 7750SOL    HW124149   5.755   5.007   2.779
 7750SOL    HW224150   5.691   4.988   2.928
 7751SOL     OW24151   6.985   2.681   1.882
 7751SOL    HW124152   7.005   2.732   1.799
 7751SOL    HW224153   6.969   2.585   1.860
 7752SOL     OW24154   4.698   2.324   3.269
 7752SOL    HW124155   4.640   2.389   3.220
 7752SOL    HW224156   4.786   2.316   3.223
 7753SOL     OW24157   3.349   1.790   4.614
 7753SOL    HW124158   3.409   1.731   4.667
 7753SOL    HW224159   3.285   1.837   4.675
 7754SOL     OW24160   5.453   6.161   2.235
 7754SOL    HW124161   5.508   6.096   2.183
 7754SOL    HW224162   5.384   6.112   2.288
 7755SOL     OW24163   0.910   4.947   4.516
 7755SOL    HW124164   0.943   4.913   4.605
 7755SOL    HW224165   0.821   4.990   4.528
 7756SOL     OW24166   2.964   5.050   2.080
 7756SOL    HW124167   2.993   5.093   1.994
 7756SOL    HW224168   2.938   4.955   2.062
 7757SOL     OW24169   0.136   4.904   2.509
 7757SOL    HW124170   0.187   4.880   2.591
 7757SOL    HW224171   0.196   4.899   2.429
 7758SOL     OW24172   1.639   1.517   5.022
 7758SOL    HW124173   1.634   1.604   5.072
 7758SOL    HW224174   1.698   1.453   5.072
 7759SOL     OW24175   3.443   2.103   1.149
 7759SOL    HW124176   3.511   2.169   1.180
 7759SOL    HW224177   3.478   2.053   1.070
 7760SOL     OW24178   4.786   3.093   0.426
 7760SOL    HW124179   4.868   3.075   0.371
 7760SOL    HW224180   4.799   3.056   0.517
 7761SOL     OW24181   4.509   5.420   3.784
 7761SOL    HW124182   4.538   5.494   3.724
 7761SOL    HW224183   4.569   5.342   3.772
 7762SOL     OW24184   5.383   1.462   2.155
 7762SOL    HW124185   5.350   1.444   2.062
 7762SOL    HW224186   5.346   1.549   2.188
 7763SOL     OW24187   2.213   0.586   4.420
 7763SOL    HW124188   2.175   0.495   4.437
 7763SOL    HW224189   2.143   0.645   4.380
 7764SOL     OW24190   2.485   4.257   5.783
 7764SOL    HW124191   2.543   4.237   5.704
 7764SOL    HW224192   2.452   4.351   5.778
 7765SOL     OW24193   5.320   3.505   4.255
 7765SOL    HW124194   5.352   3.540   4.167
 7765SOL    HW224195   5.329   3.405   4.256
 7766SOL     OW24196   6.678   3.361   6.476
 7766SOL    HW124197   6.695   3.293   6.547
 7766SOL    HW224198   6.615   3.431   6.510
 7767SOL     OW24199   3.668   0.770   4.153
 7767SOL    HW124200   3.706   0.796   4.064
 7767SOL    HW224201   3.596   0.702   4.139
 7768SOL     OW24202   4.208   5.374   3.725
 7768SOL    HW124203   4.305   5.394   3.744
 7768SOL    HW224204   4.158   5.369   3.811
 7769SOL     OW24205   3.492   2.943   5.867
 7769SOL    HW124206   3.521   3.006   5.940
 7769SOL    HW224207   3.393   2.950   5.854
 7770SOL     OW24208   1.827   3.432   4.562
 7770SOL    HW124209   1.786   3.448   4.472
 7770SOL    HW224210   1.927   3.439   4.555
 7771SOL     OW24211   2.079   3.371   6.247
 7771SOL    HW124212   2.111   3.429   6.322
 7771SOL    HW224213   2.114   3.407   6.160
 7772SOL     OW24214   5.309   6.606   2.171
 7772SOL    HW124215   5.354   6.640   2.254
 7772SOL    HW224216   5.210   6.612   2.182
 7773SOL     OW24217   2.765   6.612   7.000
 7773SOL    HW124218   2.795   6.697   6.958
 7773SOL    HW224219   2.726   6.552   6.930
 7774SOL     OW24220   5.184   1.246   2.720
 7774SOL    HW124221   5.239   1.326   2.696
 7774SOL    HW224222   5.214   1.210   2.808
 7775SOL     OW24223   2.515   2.125   0.996
 7775SOL    HW124224   2.599   2.155   1.040
 7775SOL    HW224225   2.519   2.144   0.898
 7776SOL     OW24226   2.404   1.217   4.615
 7776SOL    HW124227   2.352   1.136   4.587
 7776SOL    HW224228   2.372   1.248   4.704
 7777SOL     OW24229   6.156   5.917   3.272
 7777SOL    HW124230   6.181   6.013   3.259
 7777SOL    HW224231   6.069   5.899   3.225
 7778SOL     OW24232   6.907   4.732   2.645
 7778SOL    HW124233   6.977   4.802   2.662
 7778SOL    HW224234   6.948   4.653   2.600
 7779SOL     OW24235   4.043   6.096   2.049
 7779SOL    HW124236   4.120   6.128   1.993
 7779SOL    HW224237   4.065   6.007   2.088
 7780SOL     OW24238   5.834   6.533   5.174
 7780SOL    HW124239   5.859   6.544   5.270
 7780SOL    HW224240   5.741   6.498   5.168
 7781SOL     OW24241   1.590   3.386   0.793
 7781SOL    HW124242   1.615   3.476   0.758
 7781SOL    HW224243   1.567   3.326   0.716
 7782SOL     OW24244   5.128   3.130   4.478
 7782SOL    HW124245   5.198   3.168   4.539
 7782SOL    HW224246   5.049   3.101   4.532
 7783SOL     OW24247   1.549   6.447   4.374
 7783SOL    HW124248   1.529   6.375   4.307
 7783SOL    HW224249   1.647   6.448   4.393
 7784SOL     OW24250   1.727   2.089   1.800
 7784SOL    HW124251   1.678   2.014   1.755
 7784SOL    HW224252   1.729   2.074   1.899
 7785SOL     OW24253   6.822   6.744   3.232
 7785SOL    HW124254   6.857   6.679   3.165
 7785SOL    HW224255   6.808   6.698   3.319
 7786SOL     OW24256   4.188   1.158   5.898
 7786SOL    HW124257   4.107   1.108   5.866
 7786SOL    HW224258   4.267   1.134   5.842
 7787SOL     OW24259   2.648   2.356   1.864
 7787SOL    HW124260   2.663   2.312   1.775
 7787SOL    HW224261   2.736   2.390   1.899
 7788SOL     OW24262   0.482   4.214   1.711
 7788SOL    HW124263   0.481   4.229   1.810
 7788SOL    HW224264   0.551   4.146   1.688
 7789SOL     OW24265   3.652   1.387   6.309
 7789SOL    HW124266   3.700   1.328   6.244
 7789SOL    HW224267   3.570   1.425   6.265
 7790SOL     OW24268   4.196   5.041   1.910
 7790SOL    HW124269   4.269   4.973   1.903
 7790SOL    HW224270   4.156   5.038   2.002
 7791SOL     OW24271   3.216   5.963   2.624
 7791SOL    HW124272   3.128   5.935   2.662
 7791SOL    HW224273   3.205   5.981   2.526
 7792SOL     OW24274   1.336   1.464   2.835
 7792SOL    HW124275   1.361   1.369   2.815
 7792SOL    HW224276   1.410   1.525   2.805
 7793SOL     OW24277   5.220   0.997   0.885
 7793SOL    HW124278   5.290   1.048   0.834
 7793SOL    HW224279   5.243   0.998   0.982
 7794SOL     OW24280   0.925   6.630   3.030
 7794SOL    HW124281   0.862   6.652   3.105
 7794SOL    HW224282   0.873   6.618   2.946
 7795SOL     OW24283   3.527   4.600   0.275
 7795SOL    HW124284   3.441   4.552   0.290
 7795SOL    HW224285   3.597   4.561   0.334
 7796SOL     OW24286   3.339   2.504   0.332
 7796SOL    HW124287   3.247   2.540   0.316
 7796SOL    HW224288   3.350   2.417   0.284
 7797SOL     OW24289   0.801   5.767   3.199
 7797SOL    HW124290   0.779   5.694   3.264
 7797SOL    HW224291   0.887   5.746   3.153
 7798SOL     OW24292   1.861   2.899   0.789
 7798SOL    HW124293   1.954   2.891   0.823
 7798SOL    HW224294   1.857   2.971   0.720
 7799SOL     OW24295   3.060   5.900   3.810
 7799SOL    HW124296   3.091   5.834   3.879
 7799SOL    HW224297   3.123   5.977   3.807
 7800SOL     OW24298   0.933   0.097   2.490
 7800SOL    HW124299   0.966   0.175   2.543
 7800SOL    HW224300   1.007   0.063   2.432
 7801SOL     OW24301   1.048   2.314   1.426
 7801SOL    HW124302   0.986   2.299   1.503
 7801SOL    HW224303   1.006   2.282   1.342
 7802SOL     OW24304   0.244   3.574   3.965
 7802SOL    HW124305   0.192   3.528   3.892
 7802SOL    HW224306   0.180   3.612   4.032
 7803SOL     OW24307   2.791   2.452   5.579
 7803SOL    HW124308   2.782   2.359   5.545
 7803SOL    HW224309   2.885   2.467   5.610
 7804SOL     OW24310   3.614   1.635   5.214
 7804SOL    HW124311   3.683   1.580   5.166
 7804SOL    HW224312   3.571   1.699   5.150
 7805SOL     OW24313   5.237   2.806   0.173
 7805SOL    HW124314   5.165   2.875   0.159
 7805SOL    HW224315   5.217   2.753   0.255
 7806SOL     OW24316   6.910   1.487   6.158
 7806SOL    HW124317   6.992   1.438   6.186
 7806SOL    HW224318   6.935   1.563   6.097
 7807SOL     OW24319   2.271   5.667   5.795
 7807SOL    HW124320   2.222   5.594   5.843
 7807SOL    HW224321   2.303   5.735   5.861
 7808SOL     OW24322   6.640   3.633   3.672
 7808SOL    HW124323   6.683   3.546   3.693
 7808SOL    HW224324   6.542   3.629   3.694
 7809SOL     OW24325   4.940   5.512   2.413
 7809SOL    HW124326   4.893   5.575   2.351
 7809SOL    HW224327   5.021   5.474   2.367
 7810SOL     OW24328   2.630   6.932   6.296
 7810SOL    HW124329   2.675   6.909   6.211
 7810SOL    HW224330   2.606   6.849   6.346
 7811SOL     OW24331   1.607   5.611   2.516
 7811SOL    HW124332   1.544   5.541   2.483
 7811SOL    HW224333   1.673   5.634   2.444
 7812SOL     OW24334   3.110   0.558   5.973
 7812SOL    HW124335   3.137   0.467   5.940
 7812SOL    HW224336   3.047   0.547   6.050
 7813SOL     OW24337   5.600   0.633   0.948
 7813SOL    HW124338   5.532   0.648   0.877
 7813SOL    HW224339   5.574   0.685   1.030
 7814SOL     OW24340   6.005   2.604   2.504
 7814SOL    HW124341   5.927   2.556   2.463
 7814SOL    HW224342   5.972   2.670   2.572
 7815SOL     OW24343   5.175   5.851   4.354
 7815SOL    HW124344   5.212   5.853   4.261
 7815SOL    HW224345   5.077   5.869   4.351
 7816SOL     OW24346   0.981   1.136   5.511
 7816SOL    HW124347   0.967   1.053   5.458
 7816SOL    HW224348   0.922   1.209   5.477
 7817SOL     OW24349   3.669   2.842   0.552
 7817SOL    HW124350   3.760   2.853   0.592
 7817SOL    HW224351   3.638   2.748   0.563
 7818SOL     OW24352   5.779   0.777   3.342
 7818SOL    HW124353   5.862   0.747   3.294
 7818SOL    HW224354   5.797   0.863   3.389
 7819SOL     OW24355   1.325   3.294   4.870
 7819SOL    HW124356   1.408   3.290   4.926
 7819SOL    HW224357   1.312   3.207   4.822
 7820SOL     OW24358   1.079   0.889   5.278
 7820SOL    HW124359   1.147   0.852   5.343
 7820SOL    HW224360   1.079   0.834   5.195
 7821SOL     OW24361   3.878   6.238   6.487
 7821SOL    HW124362   3.956   6.237   6.425
 7821SOL    HW224363   3.900   6.186   6.569
 7822SOL     OW24364   0.162   1.366   5.292
 7822SOL    HW124365   0.207   1.280   5.319
 7822SOL    HW224366   0.231   1.437   5.279
 7823SOL     OW24367   2.572   3.200   5.572
 7823SOL    HW124368   2.534   3.235   5.658
 7823SOL    HW224369   2.500   3.158   5.518
 7824SOL     OW24370   5.198   3.881   2.818
 7824SOL    HW124371   5.226   3.891   2.914
 7824SOL    HW224372   5.105   3.843   2.815
 7825SOL     OW24373   3.586   3.328   2.554
 7825SOL    HW124374   3.566   3.384   2.634
 7825SOL    HW224375   3.658   3.262   2.576
 7826SOL     OW24376   0.245   0.366   1.210
 7826SOL    HW124377   0.161   0.376   1.157
 7826SOL    HW224378   0.241   0.282   1.265
 7827SOL     OW24379   4.423   3.491   0.705
 7827SOL    HW124380   4.450   3.398   0.729
 7827SOL    HW224381   4.477   3.523   0.627
 7828SOL     OW24382   0.271   5.926   0.754
 7828SOL    HW124383   0.218   5.862   0.810
 7828SOL    HW224384   0.367   5.924   0.783
 7829SOL     OW24385   4.025   3.728   3.262
 7829SOL    HW124386   4.071   3.640   3.255
 7829SOL    HW224387   4.011   3.751   3.359
 7830SOL     OW24388   5.334   3.745   0.191
 7830SOL    HW124389   5.353   3.671   0.128
 7830SOL    HW224390   5.236   3.768   0.186
 7831SOL     OW24391   1.756   2.681   6.413
 7831SOL    HW124392   1.811   2.707   6.492
 7831SOL    HW224393   1.791   2.726   6.331
 7832SOL     OW24394   2.828   2.560   5.288
 7832SOL    HW124395   2.819   2.510   5.201
 7832SOL    HW224396   2.787   2.506   5.361
 7833SOL     OW24397   0.484   0.016   1.319
 7833SOL    HW124398   0.514   0.044   1.227
 7833SOL    HW224399   0.393   0.054   1.338
 7834SOL     OW24400   6.621   0.674   1.670
 7834SOL    HW124401   6.700   0.705   1.723
 7834SOL    HW224402   6.555   0.632   1.732
 7835SOL     OW24403   2.337   2.339   4.303
 7835SOL    HW124404   2.355   2.242   4.320
 7835SOL    HW224405   2.277   2.348   4.224
 7836SOL     OW24406   2.225   0.710   0.155
 7836SOL    HW124407   2.253   0.661   0.238
 7836SOL    HW224408   2.172   0.791   0.180
 7837SOL     OW24409   5.213   6.155   2.778
 7837SOL    HW124410   5.115   6.161   2.757
 7837SOL    HW224411   5.257   6.093   2.714
 7838SOL     OW24412   3.504   6.397   4.203
 7838SOL    HW124413   3.557   6.481   4.209
 7838SOL    HW224414   3.554   6.330   4.148
 7839SOL     OW24415   0.146   4.424   3.969
 7839SOL    HW124416   0.200   4.343   3.993
 7839SOL    HW224417   0.109   4.414   3.877
 7840SOL     OW24418   4.914   3.034   5.714
 7840SOL    HW124419   4.868   2.990   5.791
 7840SOL    HW224420   4.846   3.057   5.644
 7841SOL     OW24421   1.733   1.717   6.437
 7841SOL    HW124422   1.781   1.741   6.353
 7841SOL    HW224423   1.726   1.797   6.496
 7842SOL     OW24424   3.118   0.793   1.900
 7842SOL    HW124425   3.061   0.852   1.842
 7842SOL    HW224426   3.153   0.846   1.977
 7843SOL     OW24427   0.095   3.386   1.334
 7843SOL    HW124428   0.091   3.291   1.302
 7843SOL    HW224429   0.095   3.388   1.434
 7844SOL     OW24430   3.894   1.336   4.271
 7844SOL    HW124431   3.925   1.412   4.327
 7844SOL    HW224432   3.918   1.352   4.175
 7845SOL     OW24433   1.183   1.306   4.058
 7845SOL    HW124434   1.156   1.392   4.102
 7845SOL    HW224435   1.224   1.325   3.969
 7846SOL     OW24436   3.928   6.468   1.598
 7846SOL    HW124437   3.962   6.476   1.504
 7846SOL    HW224438   3.846   6.409   1.599
 7847SOL     OW24439   0.080   0.222   0.435
 7847SOL    HW124440   0.148   0.289   0.466
 7847SOL    HW224441   0.126   0.137   0.410
 7848SOL     OW24442   4.023   4.100   0.872
 7848SOL    HW124443   3.960   4.155   0.927
 7848SOL    HW224444   4.061   4.157   0.798
 7849SOL     OW24445   5.544   3.833   4.861
 7849SOL    HW124446   5.559   3.735   4.877
 7849SOL    HW224447   5.612   3.867   4.797
 7850SOL     OW24448   0.658   1.791   4.394
 7850SOL    HW124449   0.693   1.701   4.368
 7850SOL    HW224450   0.711   1.827   4.471
 7851SOL     OW24451   4.967   6.635   0.789
 7851SOL    HW124452   5.006   6.544   0.806
 7851SOL    HW224453   5.001   6.699   0.857
 7852SOL     OW24454   2.193   6.576   7.005
 7852SOL    HW124455   2.165   6.667   6.973
 7852SOL    HW224456   2.242   6.585   0.072
 7853SOL     OW24457   1.929   2.603   0.148
 7853SOL    HW124458   1.876   2.522   0.120
 7853SOL    HW224459   1.948   2.598   0.246
 7854SOL     OW24460   3.283   3.971   2.736
 7854SOL    HW124461   3.207   4.014   2.688
 7854SOL    HW224462   3.312   3.889   2.686
 7855SOL     OW24463   4.039   6.911   5.400
 7855SOL    HW124464   4.091   6.994   5.421
 7855SOL    HW224465   3.969   6.897   5.469
 7856SOL     OW24466   3.865   3.612   6.370
 7856SOL    HW124467   3.769   3.622   6.395
 7856SOL    HW224468   3.920   3.674   6.426
 7857SOL     OW24469   0.877   2.292   4.869
 7857SOL    HW124470   0.955   2.353   4.851
 7857SOL    HW224471   0.804   2.344   4.914
 7858SOL     OW24472   5.650   4.434   2.968
 7858SOL    HW124473   5.572   4.391   2.922
 7858SOL    HW224474   5.674   4.381   3.050
 7859SOL     OW24475   0.706   5.362   6.919
 7859SOL    HW124476   0.608   5.350   6.938
 7859SOL    HW224477   0.724   5.340   6.824
 7860SOL     OW24478   3.938   6.925   1.836
 7860SOL    HW124479   4.009   6.995   1.845
 7860SOL    HW224480   3.864   6.961   1.780
 7861SOL     OW24481   5.236   3.944   0.864
 7861SOL    HW124482   5.189   3.859   0.843
 7861SOL    HW224483   5.334   3.933   0.847
 7862SOL     OW24484   2.877   4.283   1.673
 7862SOL    HW124485   2.896   4.348   1.747
 7862SOL    HW224486   2.806   4.319   1.614
 7863SOL     OW24487   5.793   5.685   2.397
 7863SOL    HW124488   5.699   5.718   2.389
 7863SOL    HW224489   5.843   5.703   2.312
 7864SOL     OW24490   0.889   5.791   4.101
 7864SOL    HW124491   0.803   5.764   4.144
 7864SOL    HW224492   0.965   5.741   4.143
 7865SOL     OW24493   3.644   1.059   3.064
 7865SOL    HW124494   3.604   1.140   3.021
 7865SOL    HW224495   3.722   1.028   3.011
 7866SOL     OW24496   2.120   2.248   4.102
 7866SOL    HW124497   2.124   2.149   4.090
 7866SOL    HW224498   2.037   2.273   4.151
 7867SOL     OW24499   5.340   3.828   2.339
 7867SOL    HW124500   5.367   3.906   2.282
 7867SOL    HW224501   5.335   3.857   2.435
 7868SOL     OW24502   5.851   0.336   0.930
 7868SOL    HW124503   5.891   0.385   1.008
 7868SOL    HW224504   5.915   0.337   0.854
 7869SOL     OW24505   6.573   1.849   3.875
 7869SOL    HW124506   6.526   1.764   3.850
 7869SOL    HW224507   6.551   1.873   3.970
 7870SOL     OW24508   0.271   6.791   2.913
 7870SOL    HW124509   0.360   6.793   2.958
 7870SOL    HW224510   0.219   6.873   2.936
 7871SOL     OW24511   5.520   3.342   3.835
 7871SOL    HW124512   5.572   3.276   3.889
 7871SOL    HW224513   5.559   3.434   3.847
 7872SOL     OW24514   6.472   3.346   4.043
 7872SOL    HW124515   6.526   3.301   3.972
 7872SOL    HW224516   6.389   3.294   4.060
 7873SOL     OW24517   6.733   5.801   4.857
 7873SOL    HW124518   6.747   5.899   4.841
 7873SOL    HW224519   6.769   5.750   4.779
 7874SOL     OW24520   6.082   1.458   0.795
 7874SOL    HW124521   6.124   1.445   0.885
 7874SOL    HW224522   6.111   1.547   0.758
 7875SOL     OW24523   4.456   3.077   0.518
 7875SOL    HW124524   4.481   3.024   0.436
 7875SOL    HW224525   4.357   3.077   0.528
 7876SOL     OW24526   0.024   0.844   5.218
 7876SOL    HW124527   0.029   0.940   5.191
 7876SOL    HW224528   0.105   0.795   5.186
 7877SOL     OW24529   6.168   2.475   2.714
 7877SOL    HW124530   6.079   2.472   2.759
 7877SOL    HW224531   6.177   2.559   2.661
 7878SOL     OW24532   4.667   3.969   1.240
 7878SOL    HW124533   4.633   3.890   1.189
 7878SOL    HW224534   4.591   4.010   1.292
 7879SOL     OW24535   5.665   0.755   5.158
 7879SOL    HW124536   5.585   0.696   5.169
 7879SOL    HW224537   5.652   0.838   5.213
 7880SOL     OW24538   1.321   6.628   6.517
 7880SOL    HW124539   1.236   6.578   6.505
 7880SOL    HW224540   1.365   6.599   6.602
 7881SOL     OW24541   0.957   5.145   3.341
 7881SOL    HW124542   1.055   5.154   3.358
 7881SOL    HW224543   0.939   5.062   3.289
 7882SOL     OW24544   0.834   4.186   2.054
 7882SOL    HW124545   0.923   4.162   2.093
 7882SOL    HW224546   0.774   4.106   2.057
 7883SOL     OW24547   3.510   2.143   3.289
 7883SOL    HW124548   3.546   2.154   3.381
 7883SOL    HW224549   3.584   2.153   3.223
 7884SOL     OW24550   0.775   3.504   4.194
 7884SOL    HW124551   0.862   3.527   4.237
 7884SOL    HW224552   0.723   3.587   4.177
 7885SOL     OW24553   5.612   4.875   3.089
 7885SOL    HW124554   5.659   4.944   3.143
 7885SOL    HW224555   5.680   4.817   3.043
 7886SOL     OW24556   4.873   3.272   2.859
 7886SOL    HW124557   4.868   3.278   2.959
 7886SOL    HW224558   4.893   3.362   2.821
 7887SOL     OW24559   2.137   2.547   1.521
 7887SOL    HW124560   2.156   2.621   1.585
 7887SOL    HW224561   2.158   2.576   1.428
 7888SOL     OW24562   6.131   0.827   5.062
 7888SOL    HW124563   6.067   0.785   4.998
 7888SOL    HW224564   6.086   0.843   5.149
 7889SOL     OW24565   5.474   5.105   6.875
 7889SOL    HW124566   5.501   5.110   6.971
 7889SOL    HW224567   5.388   5.155   6.862
 7890SOL     OW24568   2.112   3.149   4.034
 7890SOL    HW124569   2.082   3.098   3.953
 7890SOL    HW224570   2.171   3.091   4.090
 7891SOL     OW24571   6.498   2.013   4.363
 7891SOL    HW124572   6.425   2.006   4.431
 7891SOL    HW224573   6.585   2.031   4.409
 7892SOL     OW24574   0.828   1.489   5.209
 7892SOL    HW124575   0.785   1.507   5.121
 7892SOL    HW224576   0.863   1.574   5.248
 7893SOL     OW24577   5.419   0.373   0.200
 7893SOL    HW124578   5.394   0.466   0.227
 7893SOL    HW224579   5.508   0.374   0.154
 7894SOL     OW24580   3.450   1.336   6.519
 7894SOL    HW124581   3.532   1.290   6.485
 7894SOL    HW224582   3.369   1.282   6.496
 7895SOL     OW24583   6.062   6.864   3.115
 7895SOL    HW124584   6.099   6.831   3.028
 7895SOL    HW224585   6.124   6.838   3.190
 7896SOL     OW24586   2.627   2.584   0.428
 7896SOL    HW124587   2.536   2.626   0.428
 7896SOL    HW224588   2.618   2.485   0.416
 7897SOL     OW24589   2.923   2.668   0.767
 7897SOL    HW124590   2.931   2.687   0.670
 7897SOL    HW224591   2.855   2.728   0.808
 7898SOL     OW24592   5.448   6.695   3.498
 7898SOL    HW124593   5.467   6.789   3.526
 7898SOL    HW224594   5.372   6.694   3.433
 7899SOL     OW24595   6.254   4.195   4.463
 7899SOL    HW124596   6.346   4.164   4.489
 7899SOL    HW224597   6.210   4.126   4.406
 7900SOL     OW24598   0.710   3.842   1.018
 7900SOL    HW124599   0.663   3.908   1.076
 7900SOL    HW224600   0.791   3.807   1.067
 7901SOL     OW24601   0.863   1.786   6.698
 7901SOL    HW124602   0.954   1.795   6.740
 7901SOL    HW224603   0.861   1.838   6.613
 7902SOL     OW24604   1.517   0.215   2.516
 7902SOL    HW124605   1.515   0.304   2.561
 7902SOL    HW224606   1.598   0.164   2.544
 7903SOL     OW24607   2.474   1.873   5.109
 7903SOL    HW124608   2.458   1.929   5.028
 7903SOL    HW224609   2.570   1.845   5.112
 7904SOL     OW24610   4.674   1.907   3.016
 7904SOL    HW124611   4.769   1.878   3.007
 7904SOL    HW224612   4.616   1.826   3.029
 7905SOL     OW24613   5.236   1.583   1.158
 7905SOL    HW124614   5.234   1.672   1.112
 7905SOL    HW224615   5.143   1.545   1.162
 7906SOL     OW24616   1.494   4.732   0.428
 7906SOL    HW124617   1.516   4.668   0.501
 7906SOL    HW224618   1.473   4.822   0.467
 7907SOL     OW24619   6.314   6.728   2.441
 7907SOL    HW124620   6.272   6.646   2.402
 7907SOL    HW224621   6.244   6.784   2.485
 7908SOL     OW24622   1.298   6.901   6.742
 7908SOL    HW124623   1.355   6.957   6.683
 7908SOL    HW224624   1.317   6.804   6.725
 7909SOL     OW24625   5.757   3.919   2.203
 7909SOL    HW124626   5.814   3.932   2.122
 7909SOL    HW224627   5.661   3.912   2.176
 7910SOL     OW24628   0.816   3.823   6.562
 7910SOL    HW124629   0.742   3.882   6.530
 7910SOL    HW224630   0.877   3.875   6.622
 7911SOL     OW24631   6.909   4.155   6.195
 7911SOL    HW124632   6.954   4.227   6.249
 7911SOL    HW224633   6.841   4.197   6.135
 7912SOL     OW24634   6.150   5.255   0.980
 7912SOL    HW124635   6.229   5.248   1.041
 7912SOL    HW224636   6.156   5.341   0.929
 7913SOL     OW24637   1.117   4.967   0.645
 7913SOL    HW124638   1.108   5.066   0.656
 7913SOL    HW224639   1.064   4.937   0.565
 7914SOL     OW24640   0.855   6.661   5.289
 7914SOL    HW124641   0.848   6.718   5.371
 7914SOL    HW224642   0.795   6.697   5.218
 7915SOL     OW24643   3.597   5.288   3.005
 7915SOL    HW124644   3.584   5.299   3.103
 7915SOL    HW224645   3.526   5.337   2.956
 7916SOL     OW24646   0.986   0.563   4.256
 7916SOL    HW124647   0.923   0.515   4.195
 7916SOL    HW224648   1.050   0.618   4.202
 7917SOL     OW24649   4.104   2.312   1.373
 7917SOL    HW124650   4.102   2.354   1.464
 7917SOL    HW224651   4.127   2.382   1.305
 7918SOL     OW24652   1.941   2.200   3.855
 7918SOL    HW124653   1.978   2.234   3.942
 7918SOL    HW224654   2.015   2.195   3.787
 7919SOL     OW24655   1.517   6.104   5.308
 7919SOL    HW124656   1.587   6.123   5.239
 7919SOL    HW224657   1.439   6.059   5.265
 7920SOL     OW24658   5.232   0.153   1.368
 7920SOL    HW124659   5.207   0.249   1.381
 7920SOL    HW224660   5.152   0.101   1.340
 7921SOL     OW24661   5.494   2.636   1.178
 7921SOL    HW124662   5.474   2.578   1.257
 7921SOL    HW224663   5.409   2.652   1.127
 7922SOL     OW24664   2.651   6.798   1.607
 7922SOL    HW124665   2.563   6.846   1.615
 7922SOL    HW224666   2.689   6.784   1.698
 7923SOL     OW24667   4.931   1.778   6.839
 7923SOL    HW124668   4.878   1.844   6.893
 7923SOL    HW224669   5.007   1.743   6.893
 7924SOL     OW24670   6.139   6.425   0.468
 7924SOL    HW124671   6.187   6.408   0.554
 7924SOL    HW224672   6.059   6.365   0.462
 7925SOL     OW24673   1.562   5.238   6.464
 7925SOL    HW124674   1.555   5.301   6.542
 7925SOL    HW224675   1.619   5.160   6.489
 7926SOL     OW24676   5.054   6.006   6.798
 7926SOL    HW124677   5.135   6.024   6.742
 7926SOL    HW224678   4.993   5.942   6.750
 7927SOL     OW24679   3.909   0.010   2.480
 7927SOL    HW124680   3.912   0.105   2.447
 7927SOL    HW224681   3.990   7.012   2.535
 7928SOL     OW24682   5.868   2.270   3.076
 7928SOL    HW124683   5.955   2.262   3.125
 7928SOL    HW224684   5.880   2.239   2.981
 7929SOL     OW24685   4.551   4.573   6.306
 7929SOL    HW124686   4.484   4.550   6.377
 7929SOL    HW224687   4.635   4.605   6.350
 7930SOL     OW24688   4.287   6.610   6.420
 7930SOL    HW124689   4.198   6.619   6.463
 7930SOL    HW224690   4.327   6.701   6.407
 7931SOL     OW24691   3.862   2.126   1.275
 7931SOL    HW124692   3.882   2.043   1.328
 7931SOL    HW224693   3.926   2.198   1.302
 7932SOL     OW24694   1.448   3.419   1.567
 7932SOL    HW124695   1.544   3.425   1.595
 7932SOL    HW224696   1.389   3.433   1.646
 7933SOL     OW24697   0.961   1.873   0.284
 7933SOL    HW124698   0.964   1.784   0.331
 7933SOL    HW224699   1.046   1.886   0.233
 7934SOL     OW24700   0.965   5.735   1.213
 7934SOL    HW124701   0.905   5.713   1.291
 7934SOL    HW224702   1.029   5.807   1.240
 7935SOL     OW24703   5.273   2.914   3.162
 7935SOL    HW124704   5.183   2.958   3.166
 7935SOL    HW224705   5.331   2.963   3.097
 7936SOL     OW24706   3.197   5.754   3.505
 7936SOL    HW124707   3.150   5.822   3.561
 7936SOL    HW224708   3.195   5.782   3.409
 7937SOL     OW24709   3.450   1.048   7.005
 7937SOL    HW124710   3.528   1.035   6.944
 7937SOL    HW224711   3.453   1.140   0.024
 7938SOL     OW24712   3.126   6.817   3.950
 7938SOL    HW124713   3.107   6.768   3.865
 7938SOL    HW224714   3.216   6.790   3.985
 7939SOL     OW24715   0.853   0.933   3.198
 7939SOL    HW124716   0.884   0.982   3.280
 7939SOL    HW224717   0.886   0.981   3.116
 7940SOL     OW24718   5.609   1.559   4.077
 7940SOL    HW124719   5.592   1.656   4.090
 7940SOL    HW224720   5.545   1.506   4.132
 7941SOL     OW24721   3.658   0.384   0.921
 7941SOL    HW124722   3.593   0.311   0.945
 7941SOL    HW224723   3.714   0.355   0.843
 7942SOL     OW24724   1.001   4.744   0.508
 7942SOL    HW124725   0.988   4.763   0.605
 7942SOL    HW224726   1.046   4.656   0.497
 7943SOL     OW24727   1.475   5.986   6.037
 7943SOL    HW124728   1.552   5.982   6.101
 7943SOL    HW224729   1.475   6.074   5.989
 7944SOL     OW24730   1.268   2.742   1.557
 7944SOL    HW124731   1.348   2.692   1.590
 7944SOL    HW224732   1.191   2.679   1.549
 7945SOL     OW24733   6.401   4.056   3.378
 7945SOL    HW124734   6.440   4.009   3.299
 7945SOL    HW224735   6.418   4.002   3.460
 7946SOL     OW24736   4.505   1.080   6.569
 7946SOL    HW124737   4.487   0.985   6.545
 7946SOL    HW224738   4.558   1.123   6.495
 7947SOL     OW24739   0.177   4.035   6.812
 7947SOL    HW124740   0.155   3.988   6.897
 7947SOL    HW224741   0.146   4.130   6.818
 7948SOL     OW24742   2.036   5.478   3.031
 7948SOL    HW124743   2.073   5.393   2.993
 7948SOL    HW224744   2.049   5.552   2.966
 7949SOL     OW24745   2.923   6.059   6.628
 7949SOL    HW124746   2.996   6.070   6.696
 7949SOL    HW224747   2.951   6.100   6.541
 7950SOL     OW24748   6.098   4.465   5.254
 7950SOL    HW124749   6.019   4.486   5.311
 7950SOL    HW224750   6.083   4.500   5.162
 7951SOL     OW24751   4.336   5.821   2.129
 7951SOL    HW124752   4.285   5.857   2.050
 7951SOL    HW224753   4.292   5.736   2.160
 7952SOL     OW24754   6.146   3.952   5.729
 7952SOL    HW124755   6.235   3.944   5.683
 7952SOL    HW224756   6.140   3.885   5.803
 7953SOL     OW24757   1.525   6.675   0.553
 7953SOL    HW124758   1.597   6.634   0.609
 7953SOL    HW224759   1.491   6.607   0.487
 7954SOL     OW24760   3.945   3.941   6.633
 7954SOL    HW124761   4.011   3.980   6.697
 7954SOL    HW224762   3.863   3.914   6.683
 7955SOL     OW24763   2.134   1.448   6.445
 7955SOL    HW124764   2.077   1.439   6.527
 7955SOL    HW224765   2.214   1.389   6.453
 7956SOL     OW24766   6.807   5.839   0.362
 7956SOL    HW124767   6.713   5.808   0.350
 7956SOL    HW224768   6.833   5.828   0.458
 7957SOL     OW24769   5.128   1.392   5.860
 7957SOL    HW124770   5.210   1.350   5.822
 7957SOL    HW224771   5.111   1.356   5.951
 7958SOL     OW24772   5.641   2.708   0.417
 7958SOL    HW124773   5.687   2.770   0.352
 7958SOL    HW224774   5.709   2.652   0.463
 7959SOL     OW24775   6.180   2.123   6.970
 7959SOL    HW124776   6.221   2.043   6.927
 7959SOL    HW224777   6.082   2.123   6.955
 7960SOL     OW24778   0.752   1.523   5.688
 7960SOL    HW124779   0.665   1.525   5.639
 7960SOL    HW224780   0.823   1.487   5.627
 7961SOL     OW24781   6.162   6.550   0.094
 7961SOL    HW124782   6.160   6.588   0.186
 7961SOL    HW224783   6.116   6.613   0.031
 7962SOL     OW24784   5.784   6.972   5.252
 7962SOL    HW124785   5.694   6.936   5.229
 7962SOL    HW224786   5.830   6.910   5.316
 7963SOL     OW24787   6.383   6.994   4.021
 7963SOL    HW124788   6.460   0.037   4.036
 7963SOL    HW224789   6.405   6.932   3.946
 7964SOL     OW24790   6.025   3.947   1.743
 7964SOL    HW124791   6.088   3.870   1.750
 7964SOL    HW224792   5.981   3.946   1.653
 7965SOL     OW24793   4.126   2.467   6.099
 7965SOL    HW124794   4.090   2.418   6.179
 7965SOL    HW224795   4.206   2.520   6.126
 7966SOL     OW24796   4.990   3.786   4.953
 7966SOL    HW124797   4.953   3.803   4.862
 7966SOL    HW224798   4.944   3.706   4.993
 7967SOL     OW24799   1.486   4.642   1.272
 7967SOL    HW124800   1.520   4.733   1.292
 7967SOL    HW224801   1.484   4.629   1.172
 7968SOL     OW24802   0.019   2.772   4.740
 7968SOL    HW124803   0.030   2.686   4.689
 7968SOL    HW224804   0.013   2.752   4.837
 7969SOL     OW24805   3.703   5.655   6.603
 7969SOL    HW124806   3.720   5.601   6.521
 7969SOL    HW224807   3.619   5.623   6.647
 7970SOL     OW24808   6.484   2.562   3.752
 7970SOL    HW124809   6.518   2.547   3.845
 7970SOL    HW224810   6.389   2.532   3.746
 7971SOL     OW24811   2.864   1.370   6.720
 7971SOL    HW124812   2.883   1.469   6.715
 7971SOL    HW224813   2.948   1.319   6.704
 7972SOL     OW24814   3.679   4.103   4.272
 7972SOL    HW124815   3.698   4.140   4.363
 7972SOL    HW224816   3.650   4.008   4.281
 7973SOL     OW24817   5.686   4.198   2.458
 7973SOL    HW124818   5.707   4.147   2.374
 7973SOL    HW224819   5.668   4.134   2.532
 7974SOL     OW24820   0.198   2.701   5.348
 7974SOL    HW124821   0.174   2.756   5.428
 7974SOL    HW224822   0.294   2.716   5.324
 7975SOL     OW24823   5.956   0.342   1.221
 7975SOL    HW124824   5.975   0.440   1.217
 7975SOL    HW224825   5.987   0.305   1.309
 7976SOL     OW24826   0.669   0.824   1.036
 7976SOL    HW124827   0.599   0.794   0.971
 7976SOL    HW224828   0.662   0.922   1.050
 7977SOL     OW24829   5.416   6.059   4.101
 7977SOL    HW124830   5.415   6.058   4.201
 7977SOL    HW224831   5.340   6.114   4.068
 7978SOL     OW24832   0.060   4.495   1.560
 7978SOL    HW124833   0.028   4.589   1.573
 7978SOL    HW224834   0.011   4.453   1.484
 7979SOL     OW24835   1.962   2.400   4.284
 7979SOL    HW124836   1.954   2.494   4.253
 7979SOL    HW224837   2.023   2.395   4.363
 7980SOL     OW24838   3.958   5.789   0.754
 7980SOL    HW124839   4.020   5.830   0.687
 7980SOL    HW224840   3.981   5.692   0.764
 7981SOL     OW24841   1.581   4.323   3.561
 7981SOL    HW124842   1.594   4.374   3.476
 7981SOL    HW224843   1.669   4.287   3.592
 7982SOL     OW24844   6.690   0.856   5.924
 7982SOL    HW124845   6.595   0.823   5.919
 7982SOL    HW224846   6.708   0.918   5.847
 7983SOL     OW24847   4.569   1.077   1.669
 7983SOL    HW124848   4.552   1.014   1.745
 7983SOL    HW224849   4.490   1.137   1.659
 7984SOL     OW24850   0.412   2.323   2.713
 7984SOL    HW124851   0.317   2.318   2.682
 7984SOL    HW224852   0.473   2.304   2.637
 7985SOL     OW24853   3.273   2.980   5.036
 7985SOL    HW124854   3.285   2.901   5.095
 7985SOL    HW224855   3.243   3.059   5.090
 7986SOL     OW24856   3.899   0.950   4.232
 7986SOL    HW124857   3.837   0.887   4.185
 7986SOL    HW224858   3.894   1.040   4.188
 7987SOL     OW24859   0.700   3.433   0.118
 7987SOL    HW124860   0.767   3.397   0.184
 7987SOL    HW224861   0.626   3.367   0.107
 7988SOL     OW24862   6.840   1.254   2.372
 7988SOL    HW124863   6.801   1.327   2.428
 7988SOL    HW224864   6.937   1.270   2.359
 7989SOL     OW24865   0.209   4.242   1.373
 7989SOL    HW124866   0.130   4.210   1.426
 7989SOL    HW224867   0.179   4.312   1.309
 7990SOL     OW24868   4.944   6.083   5.415
 7990SOL    HW124869   4.973   5.989   5.435
 7990SOL    HW224870   4.899   6.086   5.326
 7991SOL     OW24871   5.946   0.922   5.229
 7991SOL    HW124872   5.974   1.003   5.280
 7991SOL    HW224873   5.850   0.902   5.249
 7992SOL     OW24874   2.326   6.838   6.844
 7992SOL    HW124875   2.339   6.881   6.754
 7992SOL    HW224876   2.239   6.868   6.883
 7993SOL     OW24877   6.204   5.594   1.078
 7993SOL    HW124878   6.248   5.648   1.006
 7993SOL    HW224879   6.110   5.572   1.051
 7994SOL     OW24880   6.284   0.011   4.299
 7994SOL    HW124881   6.277   0.111   4.289
 7994SOL    HW224882   6.333   6.994   4.221
 7995SOL     OW24883   1.004   5.326   1.688
 7995SOL    HW124884   0.964   5.256   1.748
 7995SOL    HW224885   0.954   5.412   1.699
 7996SOL     OW24886   2.917   6.924   3.406
 7996SOL    HW124887   2.901   6.857   3.478
 7996SOL    HW224888   2.945   6.878   3.322
 7997SOL     OW24889   2.099   1.523   6.155
 7997SOL    HW124890   2.101   1.623   6.155
 7997SOL    HW224891   2.075   1.490   6.246
 7998SOL     OW24892   2.633   1.033   0.448
 7998SOL    HW124893   2.718   1.043   0.500
 7998SOL    HW224894   2.633   0.945   0.400
 7999SOL     OW24895   1.069   0.525   4.758
 7999SOL    HW124896   1.044   0.613   4.720
 7999SOL    HW224897   1.167   0.508   4.742
 8000SOL     OW24898   4.194   5.487   0.163
 8000SOL    HW124899   4.149   5.512   0.249
 8000SOL    HW224900   4.214   5.389   0.163
 8001SOL     OW24901   4.401   5.241   1.071
 8001SOL    HW124902   4.364   5.159   1.114
 8001SOL    HW224903   4.345   5.321   1.096
 8002SOL     OW24904   1.011   0.266   4.658
 8002SOL    HW124905   0.972   0.195   4.715
 8002SOL    HW224906   1.003   0.355   4.704
 8003SOL     OW24907   2.551   5.776   1.949
 8003SOL    HW124908   2.588   5.696   1.996
 8003SOL    HW224909   2.483   5.820   2.007
 8004SOL     OW24910   1.430   3.069   3.695
 8004SOL    HW124911   1.433   2.970   3.708
 8004SOL    HW224912   1.343   3.095   3.654
 8005SOL     OW24913   2.448   0.816   2.932
 8005SOL    HW124914   2.490   0.773   2.852
 8005SOL    HW224915   2.396   0.896   2.904
 8006SOL     OW24916   3.958   4.215   5.607
 8006SOL    HW124917   4.039   4.157   5.603
 8006SOL    HW224918   3.886   4.177   5.549
 8007SOL     OW24919   0.168   0.385   0.799
 8007SOL    HW124920   0.187   0.288   0.783
 8007SOL    HW224921   0.241   0.440   0.759
 8008SOL     OW24922   4.983   5.852   0.420
 8008SOL    HW124923   4.979   5.785   0.494
 8008SOL    HW224924   5.027   5.811   0.340
 8009SOL     OW24925   5.930   0.817   6.880
 8009SOL    HW124926   5.986   0.760   6.819
 8009SOL    HW224927   5.990   0.877   6.934
 8010SOL     OW24928   2.800   0.084   5.526
 8010SOL    HW124929   2.899   0.098   5.532
 8010SOL    HW224930   2.753   0.168   5.555
 8011SOL     OW24931   3.825   2.160   3.191
 8011SOL    HW124932   3.902   2.194   3.137
 8011SOL    HW224933   3.850   2.160   3.288
 8012SOL     OW24934   6.022   1.630   4.675
 8012SOL    HW124935   6.092   1.560   4.679
 8012SOL    HW224936   5.983   1.645   4.766
 8013SOL     OW24937   3.414   1.475   2.569
 8013SOL    HW124938   3.448   1.561   2.531
 8013SOL    HW224939   3.401   1.409   2.494
 8014SOL     OW24940   2.120   2.432   2.633
 8014SOL    HW124941   2.054   2.447   2.559
 8014SOL    HW224942   2.149   2.521   2.670
 8015SOL     OW24943   3.506   6.929   4.873
 8015SOL    HW124944   3.587   6.981   4.901
 8015SOL    HW224945   3.496   6.934   4.774
 8016SOL     OW24946   3.581   2.231   5.217
 8016SOL    HW124947   3.632   2.298   5.271
 8016SOL    HW224948   3.640   2.194   5.145
 8017SOL     OW24949   6.704   5.486   0.893
 8017SOL    HW124950   6.690   5.475   0.991
 8017SOL    HW224951   6.638   5.552   0.857
 8018SOL     OW24952   4.195   2.389   6.633
 8018SOL    HW124953   4.144   2.325   6.576
 8018SOL    HW224954   4.201   2.352   6.727
 8019SOL     OW24955   2.497   3.508   0.900
 8019SOL    HW124956   2.586   3.471   0.930
 8019SOL    HW224957   2.427   3.438   0.914
 8020SOL     OW24958   1.023   0.885   5.677
 8020SOL    HW124959   1.108   0.832   5.676
 8020SOL    HW224960   0.975   0.870   5.763
 8021SOL     OW24961   1.376   2.897   0.532
 8021SOL    HW124962   1.460   2.882   0.584
 8021SOL    HW224963   1.297   2.884   0.592
 8022SOL     OW24964   4.206   0.913   1.846
 8022SOL    HW124965   4.159   0.835   1.804
 8022SOL    HW224966   4.153   0.996   1.832
 8023SOL     OW24967   4.774   6.093   1.304
 8023SOL    HW124968   4.841   6.152   1.351
 8023SOL    HW224969   4.687   6.097   1.353
 8024SOL     OW24970   2.695   1.259   6.506
 8024SOL    HW124971   2.790   1.228   6.513
 8024SOL    HW224972   2.692   1.359   6.518
 8025SOL     OW24973   1.367   5.884   1.694
 8025SOL    HW124974   1.315   5.969   1.691
 8025SOL    HW224975   1.460   5.901   1.661
 8026SOL     OW24976   0.374   6.045   6.291
 8026SOL    HW124977   0.358   6.127   6.346
 8026SOL    HW224978   0.368   5.965   6.350
 8027SOL     OW24979   3.580   0.496   0.029
 8027SOL    HW124980   3.513   0.488   0.103
 8027SOL    HW224981   3.534   0.532   6.967
 8028SOL     OW24982   3.209   5.806   5.190
 8028SOL    HW124983   3.119   5.849   5.182
 8028SOL    HW224984   3.263   5.825   5.108
 8029SOL     OW24985   0.586   7.005   0.955
 8029SOL    HW124986   0.643   0.006   0.876
 8029SOL    HW224987   0.500   6.964   0.924
 8030SOL     OW24988   0.674   4.443   1.079
 8030SOL    HW124989   0.652   4.427   1.175
 8030SOL    HW224990   0.591   4.437   1.024
 8031SOL     OW24991   0.341   0.219   3.067
 8031SOL    HW124992   0.430   0.178   3.044
 8031SOL    HW224993   0.328   0.216   3.166
 8032SOL     OW24994   0.125   3.058   1.565
 8032SOL    HW124995   0.217   3.095   1.552
 8032SOL    HW224996   0.063   3.131   1.594
 8033SOL     OW24997   4.408   4.010   1.335
 8033SOL    HW124998   4.354   4.083   1.293
 8033SOL    HW224999   4.364   3.980   1.420
 8034SOL     OW25000   6.569   0.094   6.153
 8034SOL    HW125001   6.564   0.157   6.231
 8034SOL    HW225002   6.551   0.144   6.068
 8035SOL     OW25003   5.885   0.925   3.753
 8035SOL    HW125004   5.808   0.861   3.744
 8035SOL    HW225005   5.869   1.005   3.695
 8036SOL     OW25006   5.010   2.828   3.989
 8036SOL    HW125007   4.941   2.893   3.955
 8036SOL    HW225008   5.004   2.744   3.934
 8037SOL     OW25009   2.018   1.502   5.892
 8037SOL    HW125010   2.062   1.496   5.982
 8037SOL    HW225011   1.941   1.439   5.888
 8038SOL     OW25012   6.727   5.385   2.182
 8038SOL    HW125013   6.749   5.443   2.104
 8038SOL    HW225014   6.628   5.367   2.183
 8039SOL     OW25015   1.231   2.439   5.196
 8039SOL    HW125016   1.305   2.413   5.134
 8039SOL    HW225017   1.144   2.408   5.158
 8040SOL     OW25018   1.248   5.428   6.671
 8040SOL    HW125019   1.208   5.436   6.580
 8040SOL    HW225020   1.255   5.331   6.696
 8041SOL     OW25021   3.268   1.405   2.773
 8041SOL    HW125022   3.218   1.327   2.736
 8041SOL    HW225023   3.323   1.447   2.700
 8042SOL     OW25024   4.323   3.919   5.776
 8042SOL    HW125025   4.325   3.994   5.843
 8042SOL    HW225026   4.298   3.834   5.822
 8043SOL     OW25027   5.483   5.893   6.327
 8043SOL    HW125028   5.513   5.802   6.297
 8043SOL    HW225029   5.555   5.934   6.384
 8044SOL     OW25030   2.792   3.389   1.513
 8044SOL    HW125031   2.779   3.290   1.522
 8044SOL    HW225032   2.721   3.426   1.454
 8045SOL     OW25033   6.926   2.801   3.878
 8045SOL    HW125034   6.964   2.832   3.965
 8045SOL    HW225035   6.922   2.878   3.814
 8046SOL     OW25036   6.836   4.599   2.143
 8046SOL    HW125037   6.857   4.673   2.206
 8046SOL    HW225038   6.856   4.628   2.049
 8047SOL     OW25039   3.339   6.017   6.804
 8047SOL    HW125040   3.335   5.949   6.730
 8047SOL    HW225041   3.429   6.061   6.805
 8048SOL     OW25042   3.617   2.433   5.951
 8048SOL    HW125043   3.588   2.419   5.856
 8048SOL    HW225044   3.681   2.360   5.977
 8049SOL     OW25045   1.737   1.857   0.658
 8049SOL    HW125046   1.770   1.854   0.752
 8049SOL    HW225047   1.664   1.790   0.646
 8050SOL     OW25048   0.761   4.657   5.506
 8050SOL    HW125049   0.853   4.651   5.467
 8050SOL    HW225050   0.702   4.707   5.443
 8051SOL     OW25051   4.281   0.371   3.297
 8051SOL    HW125052   4.358   0.370   3.233
 8051SOL    HW225053   4.314   0.354   3.389
 8052SOL     OW25054   2.971   1.892   2.540
 8052SOL    HW125055   3.026   1.827   2.488
 8052SOL    HW225056   2.874   1.869   2.531
 8053SOL     OW25057   2.124   2.388   6.307
 8053SOL    HW125058   2.156   2.402   6.213
 8053SOL    HW225059   2.026   2.369   6.307
 8054SOL     OW25060   4.962   3.263   5.231
 8054SOL    HW125061   5.049   3.253   5.281
 8054SOL    HW225062   4.972   3.222   5.141
 8055SOL     OW25063   6.110   0.563   0.159
 8055SOL    HW125064   6.033   0.501   0.174
 8055SOL    HW225065   6.091   0.650   0.205
 8056SOL     OW25066   2.352   0.750   3.874
 8056SOL    HW125067   2.340   0.668   3.930
 8056SOL    HW225068   2.263   0.784   3.844
 8057SOL     OW25069   3.063   2.238   1.773
 8057SOL    HW125070   3.023   2.281   1.854
 8057SOL    HW225071   3.021   2.277   1.691
 8058SOL     OW25072   3.695   6.165   1.561
 8058SOL    HW125073   3.671   6.259   1.583
 8058SOL    HW225074   3.637   6.132   1.486
 8059SOL     OW25075   2.974   2.286   5.821
 8059SOL    HW125076   2.879   2.257   5.808
 8059SOL    HW225077   2.999   2.350   5.748
 8060SOL     OW25078   6.344   1.055   6.527
 8060SOL    HW125079   6.376   1.142   6.567
 8060SOL    HW225080   6.423   0.999   6.502
 8061SOL     OW25081   0.076   0.615   2.761
 8061SOL    HW125082   7.007   0.650   2.790
 8061SOL    HW225083   0.111   0.551   2.828
 8062SOL     OW25084   4.039   5.629   5.454
 8062SOL    HW125085   4.107   5.682   5.404
 8062SOL    HW225086   3.997   5.686   5.524
 8063SOL     OW25087   2.748   4.817   3.077
 8063SOL    HW125088   2.707   4.879   3.010
 8063SOL    HW225089   2.834   4.856   3.110
 8064SOL     OW25090   6.548   1.777   0.798
 8064SOL    HW125091   6.621   1.836   0.763
 8064SOL    HW225092   6.519   1.714   0.726
 8065SOL     OW25093   4.171   6.186   6.525
 8065SOL    HW125094   4.271   6.184   6.529
 8065SOL    HW225095   4.141   6.174   6.430
 8066SOL     OW25096   0.630   6.694   5.962
 8066SOL    HW125097   0.651   6.599   5.984
 8066SOL    HW225098   0.531   6.709   5.967
 8067SOL     OW25099   5.483   1.791   3.498
 8067SOL    HW125100   5.540   1.831   3.426
 8067SOL    HW225101   5.509   1.831   3.586
 8068SOL     OW25102   5.497   3.742   1.526
 8068SOL    HW125103   5.572   3.787   1.477
 8068SOL    HW225104   5.505   3.643   1.516
 8069SOL     OW25105   1.726   4.275   2.699
 8069SOL    HW125106   1.764   4.226   2.778
 8069SOL    HW225107   1.656   4.339   2.730
 8070SOL     OW25108   4.936   4.770   0.637
 8070SOL    HW125109   4.972   4.701   0.700
 8070SOL    HW225110   4.907   4.726   0.553
 8071SOL     OW25111   2.323   6.921   6.226
 8071SOL    HW125112   2.422   6.913   6.236
 8071SOL    HW225113   2.297   6.903   6.131
 8072SOL     OW25114   2.045   1.791   5.051
 8072SOL    HW125115   2.021   1.865   4.990
 8072SOL    HW225116   1.987   1.793   5.132
 8073SOL     OW25117   4.879   0.599   6.491
 8073SOL    HW125118   4.911   0.634   6.579
 8073SOL    HW225119   4.871   0.674   6.426
 8074SOL     OW25120   1.476   0.704   6.644
 8074SOL    HW125121   1.459   0.797   6.675
 8074SOL    HW225122   1.413   0.641   6.690
 8075SOL     OW25123   6.920   6.569   1.426
 8075SOL    HW125124   6.990   6.514   1.381
 8075SOL    HW225125   6.943   6.666   1.418
 8076SOL     OW25126   6.999   6.641   0.385
 8076SOL    HW125127   7.017   6.659   0.482
 8076SOL    HW225128   6.992   6.543   0.371
 8077SOL     OW25129   4.864   4.641   0.408
 8077SOL    HW125130   4.952   4.643   0.360
 8077SOL    HW225131   4.791   4.626   0.341
 8078SOL     OW25132   0.234   0.985   1.157
 8078SOL    HW125133   0.166   0.925   1.199
 8078SOL    HW225134   0.319   0.982   1.210
 8079SOL     OW25135   2.112   1.115   6.206
 8079SOL    HW125136   2.148   1.076   6.292
 8079SOL    HW225137   2.017   1.143   6.220
 8080SOL     OW25138   0.684   3.038   3.046
 8080SOL    HW125139   0.718   3.132   3.037
 8080SOL    HW225140   0.585   3.041   3.065
 8081SOL     OW25141   5.937   6.955   5.017
 8081SOL    HW125142   5.926   0.016   4.960
 8081SOL    HW225143   5.858   6.947   5.079
 8082SOL     OW25144   4.017   1.410   3.731
 8082SOL    HW125145   4.035   1.380   3.637
 8082SOL    HW225146   4.050   1.341   3.795
 8083SOL     OW25147   5.992   2.082   4.750
 8083SOL    HW125148   6.034   2.012   4.693
 8083SOL    HW225149   5.983   2.048   4.844
 8084SOL     OW25150   4.042   1.345   6.021
 8084SOL    HW125151   4.087   1.430   5.992
 8084SOL    HW225152   4.070   1.270   5.961
 8085SOL     OW25153   1.711   6.238   4.569
 8085SOL    HW125154   1.749   6.228   4.477
 8085SOL    HW225155   1.785   6.234   4.636
 8086SOL     OW25156   6.932   0.651   2.387
 8086SOL    HW125157   6.927   0.740   2.340
 8086SOL    HW225158   6.862   0.647   2.458
 8087SOL     OW25159   0.909   0.433   0.162
 8087SOL    HW125160   0.890   0.527   0.134
 8087SOL    HW225161   0.986   0.397   0.110
 8088SOL     OW25162   6.617   0.341   5.076
 8088SOL    HW125163   6.584   0.407   5.143
 8088SOL    HW225164   6.716   0.328   5.088
 8089SOL     OW25165   6.388   2.148   6.175
 8089SOL    HW125166   6.289   2.148   6.169
 8089SOL    HW225167   6.422   2.242   6.183
 8090SOL     OW25168   4.252   2.115   5.295
 8090SOL    HW125169   4.337   2.099   5.345
 8090SOL    HW225170   4.209   2.027   5.276
 8091SOL     OW25171   1.204   4.799   3.910
 8091SOL    HW125172   1.298   4.782   3.883
 8091SOL    HW225173   1.202   4.840   4.001
 8092SOL     OW25174   5.067   1.806   6.201
 8092SOL    HW125175   5.043   1.770   6.111
 8092SOL    HW225176   4.995   1.783   6.266
 8093SOL     OW25177   3.401   6.015   3.042
 8093SOL    HW125178   3.342   6.030   2.962
 8093SOL    HW225179   3.391   6.091   3.106
 8094SOL     OW25180   2.141   4.004   4.151
 8094SOL    HW125181   2.127   3.916   4.106
 8094SOL    HW225182   2.118   3.995   4.248
 8095SOL     OW25183   1.177   4.677   5.216
 8095SOL    HW125184   1.141   4.768   5.196
 8095SOL    HW225185   1.156   4.614   5.141
 8096SOL     OW25186   0.849   5.869   0.349
 8096SOL    HW125187   0.787   5.861   0.271
 8096SOL    HW225188   0.833   5.956   0.395
 8097SOL     OW25189   4.504   6.383   6.930
 8097SOL    HW125190   4.513   6.483   6.934
 8097SOL    HW225191   4.584   6.341   6.974
 8098SOL     OW25192   1.712   5.940   4.868
 8098SOL    HW125193   1.659   6.015   4.908
 8098SOL    HW225194   1.655   5.890   4.804
 8099SOL     OW25195   1.895   4.269   2.479
 8099SOL    HW125196   1.807   4.275   2.526
 8099SOL    HW225197   1.934   4.178   2.492
 8100SOL     OW25198   0.090   1.132   6.771
 8100SOL    HW125199   0.074   1.161   6.677
 8100SOL    HW225200   0.013   1.159   6.829
 8101SOL     OW25201   3.489   5.558   0.421
 8101SOL    HW125202   3.494   5.469   0.375
 8101SOL    HW225203   3.400   5.599   0.403
 8102SOL     OW25204   1.259   3.886   4.848
 8102SOL    HW125205   1.350   3.854   4.876
 8102SOL    HW225206   1.250   3.878   4.749
 8103SOL     OW25207   3.236   1.171   1.963
 8103SOL    HW125208   3.149   1.149   2.007
 8103SOL    HW225209   3.244   1.117   1.879
 8104SOL     OW25210   1.911   5.793   0.641
 8104SOL    HW125211   1.940   5.828   0.552
 8104SOL    HW225212   1.907   5.869   0.706
 8105SOL     OW25213   6.971   0.102   3.550
 8105SOL    HW125214   0.010   0.023   3.568
 8105SOL    HW225215   7.010   0.156   3.475
 8106SOL     OW25216   1.948   0.173   6.078
 8106SOL    HW125217   2.018   0.154   6.147
 8106SOL    HW225218   1.955   0.269   6.050
 8107SOL     OW25219   1.488   6.213   6.431
 8107SOL    HW125220   1.528   6.168   6.511
 8107SOL    HW225221   1.394   6.179   6.418
 8108SOL     OW25222   1.591   1.495   6.886
 8108SOL    HW125223   1.504   1.526   6.847
 8108SOL    HW225224   1.657   1.480   6.813
 8109SOL     OW25225   6.119   3.296   1.120
 8109SOL    HW125226   6.113   3.199   1.141
 8109SOL    HW225227   6.119   3.348   1.206
 8110SOL     OW25228   3.626   4.885   1.245
 8110SOL    HW125229   3.551   4.829   1.280
 8110SOL    HW225230   3.632   4.874   1.146
 8111SOL     OW25231   6.294   1.151   2.385
 8111SOL    HW125232   6.265   1.181   2.475
 8111SOL    HW225233   6.365   1.212   2.350
 8112SOL     OW25234   1.585   4.279   6.294
 8112SOL    HW125235   1.621   4.187   6.281
 8112SOL    HW225236   1.488   4.274   6.318
 8113SOL     OW25237   5.396   3.712   5.950
 8113SOL    HW125238   5.439   3.736   5.863
 8113SOL    HW225239   5.386   3.794   6.007
 8114SOL     OW25240   1.399   4.167   2.038
 8114SOL    HW125241   1.420   4.085   2.092
 8114SOL    HW225242   1.308   4.201   2.064
 8115SOL     OW25243   2.966   1.708   5.774
 8115SOL    HW125244   2.915   1.780   5.726
 8115SOL    HW225245   3.063   1.715   5.750
 8116SOL     OW25246   3.899   3.288   1.085
 8116SOL    HW125247   3.929   3.368   1.033
 8116SOL    HW225248   3.828   3.240   1.034
 8117SOL     OW25249   2.304   6.954   3.798
 8117SOL    HW125250   2.218   6.999   3.821
 8117SOL    HW225251   2.309   6.939   3.700
 8118SOL     OW25252   6.516   2.929   0.427
 8118SOL    HW125253   6.562   2.899   0.344
 8118SOL    HW225254   6.563   2.892   0.507
 8119SOL     OW25255   5.904   6.305   0.505
 8119SOL    HW125256   5.876   6.209   0.493
 8119SOL    HW225257   5.837   6.365   0.461
 8120SOL     OW25258   2.507   7.004   1.747
 8120SOL    HW125259   2.530   0.031   1.833
 8120SOL    HW225260   2.411   0.002   1.725
 8121SOL     OW25261   0.583   3.306   2.425
 8121SOL    HW125262   0.598   3.238   2.353
 8121SOL    HW225263   0.496   3.288   2.470
 8122SOL     OW25264   0.473   5.091   0.988
 8122SOL    HW125265   0.483   5.015   1.051
 8122SOL    HW225266   0.540   5.162   1.009
 8123SOL     OW25267   0.100   1.596   6.456
 8123SOL    HW125268   0.008   1.632   6.471
 8123SOL    HW225269   0.146   1.586   6.545
 8124SOL     OW25270   5.239   5.294   4.888
 8124SOL    HW125271   5.272   5.293   4.794
 8124SOL    HW225272   5.186   5.211   4.906
 8125SOL     OW25273   2.026   5.928   2.991
 8125SOL    HW125274   2.124   5.950   2.998
 8125SOL    HW225275   1.973   5.999   3.038
 8126SOL     OW25276   3.739   4.960   4.554
 8126SOL    HW125277   3.801   4.935   4.479
 8126SOL    HW225278   3.729   4.883   4.617
 8127SOL     OW25279   3.903   2.466   0.024
 8127SOL    HW125280   3.908   2.564   0.047
 8127SOL    HW225281   3.996   2.429   0.019
 8128SOL     OW25282   3.513   3.188   1.552
 8128SOL    HW125283   3.560   3.133   1.482
 8128SOL    HW225284   3.554   3.279   1.555
 8129SOL     OW25285   1.835   2.611   2.031
 8129SOL    HW125286   1.836   2.529   2.089
 8129SOL    HW225287   1.893   2.681   2.073
 8130SOL     OW25288   0.532   5.573   6.585
 8130SOL    HW125289   0.599   5.625   6.637
 8130SOL    HW225290   0.540   5.596   6.488
 8131SOL     OW25291   1.789   3.699   6.784
 8131SOL    HW125292   1.716   3.631   6.791
 8131SOL    HW225293   1.847   3.694   6.865
 8132SOL     OW25294   0.593   0.339   5.285
 8132SOL    HW125295   0.503   0.310   5.316
 8132SOL    HW225296   0.648   0.367   5.364
 8133SOL     OW25297   3.695   4.981   0.581
 8133SOL    HW125298   3.772   5.020   0.631
 8133SOL    HW225299   3.650   5.052   0.527
 8134SOL     OW25300   5.965   1.691   5.829
 8134SOL    HW125301   5.866   1.685   5.819
 8134SOL    HW225302   5.997   1.618   5.889
 8135SOL     OW25303   2.797   6.780   1.851
 8135SOL    HW125304   2.732   6.722   1.901
 8135SOL    HW225305   2.871   6.724   1.815
 8136SOL     OW25306   5.101   4.528   1.986
 8136SOL    HW125307   5.088   4.481   1.899
 8136SOL    HW225308   5.187   4.578   1.984
 8137SOL     OW25309   4.015   1.329   5.079
 8137SOL    HW125310   4.011   1.276   4.994
 8137SOL    HW225311   4.052   1.272   5.152
 8138SOL     OW25312   5.184   0.855   1.940
 8138SOL    HW125313   5.239   0.899   1.869
 8138SOL    HW225314   5.235   0.854   2.026
 8139SOL     OW25315   0.399   2.020   3.082
 8139SOL    HW125316   0.416   2.118   3.073
 8139SOL    HW225317   0.303   2.005   3.104
 8140SOL     OW25318   4.245   0.885   3.169
 8140SOL    HW125319   4.264   0.793   3.202
 8140SOL    HW225320   4.195   0.880   3.082
 8141SOL     OW25321   5.086   5.063   4.952
 8141SOL    HW125322   5.056   5.044   5.046
 8141SOL    HW225323   5.020   5.024   4.888
 8142SOL     OW25324   6.957   6.072   0.348
 8142SOL    HW125325   0.020   6.046   0.398
 8142SOL    HW225326   6.884   6.007   0.370
 8143SOL     OW25327   6.404   3.548   4.849
 8143SOL    HW125328   6.306   3.532   4.837
 8143SOL    HW225329   6.452   3.461   4.840
 8144SOL     OW25330   5.583   0.052   6.163
 8144SOL    HW125331   5.489   0.036   6.132
 8144SOL    HW225332   5.612   0.144   6.135
 8145SOL     OW25333   5.547   6.396   2.794
 8145SOL    HW125334   5.481   6.398   2.869
 8145SOL    HW225335   5.511   6.446   2.716
 8146SOL     OW25336   3.062   0.831   4.078
 8146SOL    HW125337   3.057   0.919   4.031
 8146SOL    HW225338   2.970   0.803   4.104
 8147SOL     OW25339   4.689   0.658   3.518
 8147SOL    HW125340   4.767   0.663   3.579
 8147SOL    HW225341   4.701   0.722   3.442
 8148SOL     OW25342   5.092   4.196   3.804
 8148SOL    HW125343   5.161   4.252   3.848
 8148SOL    HW225344   5.090   4.215   3.706
 8149SOL     OW25345   4.193   4.678   3.489
 8149SOL    HW125346   4.242   4.652   3.573
 8149SOL    HW225347   4.116   4.736   3.513
 8150SOL     OW25348   0.805   5.632   1.426
 8150SOL    HW125349   0.754   5.578   1.493
 8150SOL    HW225350   0.851   5.708   1.472
 8151SOL     OW25351   1.299   1.576   5.252
 8151SOL    HW125352   1.281   1.545   5.346
 8151SOL    HW225353   1.312   1.496   5.193
 8152SOL     OW25354   1.619   1.304   3.214
 8152SOL    HW125355   1.697   1.360   3.185
 8152SOL    HW225356   1.649   1.240   3.285
 8153SOL     OW25357   1.681   6.921   0.555
 8153SOL    HW125358   1.666   6.961   0.465
 8153SOL    HW225359   1.648   6.826   0.554
 8154SOL     OW25360   2.253   0.021   3.539
 8154SOL    HW125361   2.161   0.051   3.513
 8154SOL    HW225362   2.301   7.009   3.457
 8155SOL     OW25363   3.155   3.208   3.471
 8155SOL    HW125364   3.245   3.251   3.476
 8155SOL    HW225365   3.122   3.213   3.377
 8156SOL     OW25366   6.418   0.203   5.902
 8156SOL    HW125367   6.365   0.232   5.983
 8156SOL    HW225368   6.384   0.251   5.821
 8157SOL     OW25369   5.977   2.970   6.961
 8157SOL    HW125370   5.952   3.062   6.989
 8157SOL    HW225371   5.930   2.947   6.876
 8158SOL     OW25372   2.113   5.408   2.074
 8158SOL    HW125373   2.083   5.371   1.986
 8158SOL    HW225374   2.066   5.359   2.148
 8159SOL     OW25375   1.466   5.617   1.821
 8159SOL    HW125376   1.390   5.582   1.877
 8159SOL    HW225377   1.438   5.703   1.778
 8160SOL     OW25378   4.360   2.377   1.854
 8160SOL    HW125379   4.413   2.420   1.927
 8160SOL    HW225380   4.420   2.355   1.777
 8161SOL     OW25381   4.407   1.897   0.910
 8161SOL    HW125382   4.350   1.842   0.849
 8161SOL    HW225383   4.352   1.928   0.988
 8162SOL     OW25384   6.425   0.667   1.325
 8162SOL    HW125385   6.394   0.697   1.235
 8162SOL    HW225386   6.348   0.669   1.389
 8163SOL     OW25387   2.329   3.920   5.414
 8163SOL    HW125388   2.356   3.920   5.318
 8163SOL    HW225389   2.399   3.874   5.468
 8164SOL     OW25390   4.654   2.037   1.735
 8164SOL    HW125391   4.665   1.942   1.765
 8164SOL    HW225392   4.712   2.096   1.791
 8165SOL     OW25393   2.222   4.805   1.515
 8165SOL    HW125394   2.288   4.756   1.458
 8165SOL    HW225395   2.200   4.892   1.472
 8166SOL     OW25396   2.880   6.791   1.466
 8166SOL    HW125397   2.955   6.823   1.524
 8166SOL    HW225398   2.795   6.791   1.519
 8167SOL     OW25399   5.003   3.522   4.247
 8167SOL    HW125400   5.102   3.510   4.256
 8167SOL    HW225401   4.966   3.562   4.331
 8168SOL     OW25402   3.251   1.586   3.004
 8168SOL    HW125403   3.296   1.674   2.996
 8168SOL    HW225404   3.270   1.531   2.922
 8169SOL     OW25405   4.996   4.260   5.927
 8169SOL    HW125406   4.976   4.257   5.829
 8169SOL    HW225407   4.999   4.167   5.963
 8170SOL     OW25408   0.432   5.107   3.856
 8170SOL    HW125409   0.397   5.172   3.788
 8170SOL    HW225410   0.461   5.157   3.937
 8171SOL     OW25411   1.471   1.207   5.582
 8171SOL    HW125412   1.393   1.164   5.537
 8171SOL    HW225413   1.494   1.156   5.665
 8172SOL     OW25414   0.174   6.486   1.310
 8172SOL    HW125415   0.237   6.423   1.263
 8172SOL    HW225416   0.146   6.558   1.248
 8173SOL     OW25417   4.980   3.078   6.779
 8173SOL    HW125418   5.072   3.064   6.741
 8173SOL    HW225419   4.985   3.073   6.879
 8174SOL     OW25420   5.358   0.306   2.224
 8174SOL    HW125421   5.353   0.306   2.124
 8174SOL    HW225422   5.290   0.368   2.261
 8175SOL     OW25423   1.409   3.533   5.659
 8175SOL    HW125424   1.326   3.569   5.702
 8175SOL    HW225425   1.480   3.603   5.661
 8176SOL     OW25426   3.846   5.604   3.106
 8176SOL    HW125427   3.887   5.520   3.071
 8176SOL    HW225428   3.794   5.649   3.033
 8177SOL     OW25429   1.526   0.011   6.308
 8177SOL    HW125430   1.617   0.051   6.301
 8177SOL    HW225431   1.532   6.931   6.301
 8178SOL     OW25432   1.880   6.238   6.203
 8178SOL    HW125433   1.948   6.240   6.276
 8178SOL    HW225434   1.886   6.151   6.154
 8179SOL     OW25435   3.282   0.607   0.387
 8179SOL    HW125436   3.305   0.664   0.308
 8179SOL    HW225437   3.323   0.646   0.470
 8180SOL     OW25438   4.605   5.469   5.095
 8180SOL    HW125439   4.601   5.391   5.158
 8180SOL    HW225440   4.695   5.473   5.053
 8181SOL     OW25441   2.774   2.247   2.461
 8181SOL    HW125442   2.708   2.292   2.521
 8181SOL    HW225443   2.748   2.263   2.366
 8182SOL     OW25444   3.987   2.113   5.583
 8182SOL    HW125445   4.008   2.203   5.547
 8182SOL    HW225446   3.901   2.080   5.543
 8183SOL     OW25447   1.503   3.197   4.165
 8183SOL    HW125448   1.496   3.157   4.257
 8183SOL    HW225449   1.561   3.278   4.169
 8184SOL     OW25450   6.126   5.693   5.639
 8184SOL    HW125451   6.163   5.772   5.687
 8184SOL    HW225452   6.168   5.685   5.548
 8185SOL     OW25453   1.565   1.587   2.721
 8185SOL    HW125454   1.622   1.646   2.779
 8185SOL    HW225455   1.623   1.519   2.676
 8186SOL     OW25456   3.753   4.499   5.813
 8186SOL    HW125457   3.834   4.556   5.827
 8186SOL    HW225458   3.745   4.476   5.716
 8187SOL     OW25459   1.866   1.204   6.223
 8187SOL    HW125460   1.799   1.246   6.162
 8187SOL    HW225461   1.847   1.231   6.317
 8188SOL     OW25462   5.915   3.118   2.708
 8188SOL    HW125463   5.905   3.207   2.663
 8188SOL    HW225464   5.828   3.068   2.703
 8189SOL     OW25465   6.474   4.691   2.668
 8189SOL    HW125466   6.421   4.761   2.715
 8189SOL    HW225467   6.434   4.673   2.578
 8190SOL     OW25468   5.484   3.443   2.784
 8190SOL    HW125469   5.557   3.481   2.727
 8190SOL    HW225470   5.440   3.367   2.737
 8191SOL     OW25471   0.063   5.127   1.712
 8191SOL    HW125472   7.013   5.060   1.734
 8191SOL    HW225473   0.022   5.218   1.705
 8192SOL     OW25474   1.974   3.973   1.230
 8192SOL    HW125475   1.996   3.906   1.159
 8192SOL    HW225476   1.904   3.936   1.291
 8193SOL     OW25477   3.581   0.003   5.699
 8193SOL    HW125478   3.630   6.999   5.782
 8193SOL    HW225479   3.484   0.017   5.720
 8194SOL     OW25480   1.786   0.443   1.160
 8194SOL    HW125481   1.832   0.380   1.222
 8194SOL    HW225482   1.717   0.393   1.107
 8195SOL     OW25483   6.124   0.602   0.799
 8195SOL    HW125484   6.168   0.636   0.882
 8195SOL    HW225485   6.036   0.648   0.786
 8196SOL     OW25486   2.044   0.370   6.791
 8196SOL    HW125487   1.973   0.364   6.721
 8196SOL    HW225488   2.048   0.462   6.828
 8197SOL     OW25489   0.770   6.990   0.737
 8197SOL    HW125490   0.759   7.000   0.638
 8197SOL    HW225491   0.764   6.894   0.761
 8198SOL     OW25492   3.815   6.512   2.932
 8198SOL    HW125493   3.785   6.546   2.843
 8198SOL    HW225494   3.858   6.422   2.921
 8199SOL     OW25495   5.934   4.346   0.527
 8199SOL    HW125496   5.888   4.276   0.581
 8199SOL    HW225497   5.876   4.371   0.449
 8200SOL     OW25498   4.565   3.115   1.402
 8200SOL    HW125499   4.607   3.173   1.332
 8200SOL    HW225500   4.507   3.046   1.358
 8201SOL     OW25501   6.218   1.175   4.648
 8201SOL    HW125502   6.267   1.204   4.566
 8201SOL    HW225503   6.120   1.165   4.627
 8202SOL     OW25504   1.660   4.159   4.216
 8202SOL    HW125505   1.704   4.091   4.275
 8202SOL    HW225506   1.729   4.222   4.181
 8203SOL     OW25507   6.197   3.859   0.637
 8203SOL    HW125508   6.149   3.925   0.580
 8203SOL    HW225509   6.134   3.787   0.666
 8204SOL     OW25510   3.699   0.574   0.379
 8204SOL    HW125511   3.631   0.518   0.331
 8204SOL    HW225512   3.690   0.669   0.350
 8205SOL     OW25513   5.654   5.647   3.136
 8205SOL    HW125514   5.683   5.646   3.041
 8205SOL    HW225515   5.624   5.555   3.162
 8206SOL     OW25516   3.840   2.110   4.628
 8206SOL    HW125517   3.751   2.065   4.633
 8206SOL    HW225518   3.847   2.163   4.543
 8207SOL     OW25519   2.628   5.844   6.942
 8207SOL    HW125520   2.691   5.905   6.990
 8207SOL    HW225521   2.669   5.813   6.857
 8208SOL     OW25522   1.156   5.409   6.399
 8208SOL    HW125523   1.195   5.317   6.397
 8208SOL    HW225524   1.057   5.403   6.394
 8209SOL     OW25525   0.914   5.869   5.275
 8209SOL    HW125526   0.870   5.956   5.251
 8209SOL    HW225527   0.861   5.793   5.236
 8210SOL     OW25528   2.846   1.504   0.118
 8210SOL    HW125529   2.788   1.517   0.198
 8210SOL    HW225530   2.792   1.516   0.034
 8211SOL     OW25531   2.890   3.523   4.582
 8211SOL    HW125532   2.990   3.535   4.587
 8211SOL    HW225533   2.847   3.575   4.655
 8212SOL     OW25534   3.725   6.411   0.911
 8212SOL    HW125535   3.783   6.330   0.921
 8212SOL    HW225536   3.730   6.444   0.817
 8213SOL     OW25537   4.393   4.480   1.759
 8213SOL    HW125538   4.381   4.389   1.798
 8213SOL    HW225539   4.482   4.517   1.787
 8214SOL     OW25540   4.031   5.154   3.746
 8214SOL    HW125541   4.117   5.195   3.714
 8214SOL    HW225542   3.977   5.126   3.667
 8215SOL     OW25543   2.414   6.032   6.394
 8215SOL    HW125544   2.357   6.105   6.357
 8215SOL    HW225545   2.463   6.066   6.475
 8216SOL     OW25546   5.604   4.915   1.455
 8216SOL    HW125547   5.571   4.989   1.396
 8216SOL    HW225548   5.560   4.829   1.428
 8217SOL     OW25549   2.721   6.432   3.831
 8217SOL    HW125550   2.743   6.529   3.817
 8217SOL    HW225551   2.637   6.425   3.885
 8218SOL     OW25552   1.902   5.801   4.989
 8218SOL    HW125553   1.970   5.873   5.000
 8218SOL    HW225554   1.816   5.840   4.958
 8219SOL     OW25555   4.291   3.351   1.708
 8219SOL    HW125556   4.238   3.338   1.792
 8219SOL    HW225557   4.351   3.273   1.694
 8220SOL     OW25558   3.275   3.908   4.875
 8220SOL    HW125559   3.289   3.973   4.949
 8220SOL    HW225560   3.177   3.898   4.856
 8221SOL     OW25561   6.004   3.869   3.507
 8221SOL    HW125562   6.087   3.921   3.529
 8221SOL    HW225563   6.010   3.837   3.413
 8222SOL     OW25564   6.563   2.718   0.154
 8222SOL    HW125565   6.605   2.710   0.244
 8222SOL    HW225566   6.610   2.656   0.090
 8223SOL     OW25567   2.624   6.499   6.232
 8223SOL    HW125568   2.693   6.542   6.174
 8223SOL    HW225569   2.660   6.413   6.268
 8224SOL     OW25570   5.106   1.153   0.161
 8224SOL    HW125571   5.041   1.205   0.216
 8224SOL    HW225572   5.062   1.069   0.129
 8225SOL     OW25573   5.945   2.335   6.476
 8225SOL    HW125574   5.865   2.361   6.530
 8225SOL    HW225575   6.027   2.344   6.532
 8226SOL     OW25576   3.943   0.690   0.271
 8226SOL    HW125577   4.010   0.739   0.328
 8226SOL    HW225578   3.886   0.632   0.330
 8227SOL     OW25579   4.293   2.229   2.532
 8227SOL    HW125580   4.339   2.169   2.598
 8227SOL    HW225581   4.194   2.216   2.539
 8228SOL     OW25582   2.815   6.902   4.484
 8228SOL    HW125583   2.753   6.937   4.414
 8228SOL    HW225584   2.815   6.802   4.483
 8229SOL     OW25585   4.501   4.390   0.890
 8229SOL    HW125586   4.525   4.379   0.986
 8229SOL    HW225587   4.435   4.319   0.864
 8230SOL     OW25588   6.122   0.231   6.009
 8230SOL    HW125589   6.129   0.324   6.044
 8230SOL    HW225590   6.180   0.170   6.065
 8231SOL     OW25591   3.074   0.960   2.375
 8231SOL    HW125592   2.990   0.906   2.377
 8231SOL    HW225593   3.051   1.056   2.358
 8232SOL     OW25594   3.865   5.717   3.510
 8232SOL    HW125595   3.870   5.619   3.491
 8232SOL    HW225596   3.829   5.765   3.429
 8233SOL     OW25597   2.187   0.907   6.409
 8233SOL    HW125598   2.117   0.835   6.398
 8233SOL    HW225599   2.189   0.936   6.504
 8234SOL     OW25600   1.425   2.513   0.755
 8234SOL    HW125601   1.384   2.429   0.791
 8234SOL    HW225602   1.473   2.561   0.828
 8235SOL     OW25603   1.018   1.261   1.269
 8235SOL    HW125604   1.052   1.179   1.315
 8235SOL    HW225605   1.090   1.301   1.213
 8236SOL     OW25606   0.858   0.339   2.077
 8236SOL    HW125607   0.819   0.419   2.032
 8236SOL    HW225608   0.800   0.259   2.059
 8237SOL     OW25609   3.729   4.487   5.532
 8237SOL    HW125610   3.796   4.487   5.457
 8237SOL    HW225611   3.673   4.404   5.526
 8238SOL     OW25612   0.599   5.322   1.038
 8238SOL    HW125613   0.642   5.339   1.127
 8238SOL    HW225614   0.643   5.379   0.969
 8239SOL     OW25615   2.931   1.268   6.131
 8239SOL    HW125616   2.951   1.365   6.114
 8239SOL    HW225617   2.890   1.227   6.050
 8240SOL     OW25618   3.912   3.007   4.191
 8240SOL    HW125619   3.978   2.943   4.151
 8240SOL    HW225620   3.896   2.984   4.287
 8241SOL     OW25621   1.855   3.389   5.882
 8241SOL    HW125622   1.777   3.451   5.881
 8241SOL    HW225623   1.931   3.432   5.931
 8242SOL     OW25624   0.573   3.061   2.271
 8242SOL    HW125625   0.619   3.010   2.344
 8242SOL    HW225626   0.495   3.007   2.238
 8243SOL     OW25627   0.972   6.143   3.831
 8243SOL    HW125628   0.953   6.215   3.897
 8243SOL    HW225629   1.025   6.070   3.875
 8244SOL     OW25630   6.750   1.198   3.370
 8244SOL    HW125631   6.779   1.149   3.287
 8244SOL    HW225632   6.739   1.132   3.445
 8245SOL     OW25633   5.018   2.820   2.837
 8245SOL    HW125634   5.080   2.778   2.902
 8245SOL    HW225635   4.996   2.754   2.765
 8246SOL     OW25636   1.731   5.093   6.764
 8246SOL    HW125637   1.634   5.067   6.771
 8246SOL    HW225638   1.788   5.011   6.770
 8247SOL     OW25639   2.609   5.453   3.534
 8247SOL    HW125640   2.682   5.416   3.591
 8247SOL    HW225641   2.534   5.387   3.527
 8248SOL     OW25642   6.519   5.862   3.893
 8248SOL    HW125643   6.612   5.859   3.856
 8248SOL    HW225644   6.522   5.878   3.991
 8249SOL     OW25645   3.675   1.009   6.876
 8249SOL    HW125646   3.696   0.941   6.947
 8249SOL    HW225647   3.738   1.086   6.883
 8250SOL     OW25648   0.837   2.082   6.700
 8250SOL    HW125649   0.755   2.026   6.682
 8250SOL    HW225650   0.887   2.043   6.777
 8251SOL     OW25651   0.508   2.171   5.155
 8251SOL    HW125652   0.450   2.239   5.109
 8251SOL    HW225653   0.603   2.187   5.131
 8252SOL     OW25654   0.780   2.358   6.893
 8252SOL    HW125655   0.752   2.373   6.798
 8252SOL    HW225656   0.721   2.410   6.954
 8253SOL     OW25657   5.182   4.860   6.584
 8253SOL    HW125658   5.247   4.930   6.555
 8253SOL    HW225659   5.123   4.897   6.656
 8254SOL     OW25660   6.564   5.544   0.226
 8254SOL    HW125661   6.498   5.515   0.157
 8254SOL    HW225662   6.552   5.642   0.245
 8255SOL     OW25663   2.253   0.221   5.733
 8255SOL    HW125664   2.210   0.300   5.778
 8255SOL    HW225665   2.322   0.253   5.668
 8256SOL     OW25666   1.045   5.905   4.347
 8256SOL    HW125667   1.040   5.922   4.446
 8256SOL    HW225668   1.001   5.979   4.298
 8257SOL     OW25669   5.091   3.810   3.360
 8257SOL    HW125670   5.054   3.726   3.399
 8257SOL    HW225671   5.072   3.886   3.423
 8258SOL     OW25672   0.693   2.693   3.619
 8258SOL    HW125673   0.708   2.755   3.542
 8258SOL    HW225674   0.664   2.604   3.585
 8259SOL     OW25675   5.576   2.220   4.533
 8259SOL    HW125676   5.649   2.288   4.534
 8259SOL    HW225677   5.611   2.134   4.571
 8260SOL     OW25678   5.054   3.042   0.891
 8260SOL    HW125679   5.083   3.053   0.986
 8260SOL    HW225680   5.132   3.057   0.831
 8261SOL     OW25681   5.904   1.151   2.659
 8261SOL    HW125682   5.988   1.098   2.646
 8261SOL    HW225683   5.886   1.162   2.757
 8262SOL     OW25684   5.061   4.013   2.119
 8262SOL    HW125685   5.069   3.995   2.217
 8262SOL    HW225686   5.147   4.049   2.084
 8263SOL     OW25687   0.001   1.711   6.044
 8263SOL    HW125688   6.945   1.764   6.081
 8263SOL    HW225689   0.018   1.739   5.949
 8264SOL     OW25690   3.158   0.363   2.347
 8264SOL    HW125691   3.201   0.350   2.258
 8264SOL    HW225692   3.228   0.376   2.417
 8265SOL     OW25693   4.761   5.561   0.411
 8265SOL    HW125694   4.748   5.641   0.470
 8265SOL    HW225695   4.673   5.532   0.374
 8266SOL     OW25696   3.690   0.770   3.594
 8266SOL    HW125697   3.757   0.695   3.595
 8266SOL    HW225698   3.599   0.733   3.613
 8267SOL     OW25699   2.123   2.966   3.043
 8267SOL    HW125700   2.051   2.906   3.080
 8267SOL    HW225701   2.109   2.977   2.944
 8268SOL     OW25702   3.334   4.496   6.652
 8268SOL    HW125703   3.361   4.551   6.731
 8268SOL    HW225704   3.286   4.554   6.585
 8269SOL     OW25705   6.247   2.436   5.135
 8269SOL    HW125706   6.200   2.521   5.158
 8269SOL    HW225707   6.195   2.358   5.170
 8270SOL     OW25708   4.545   5.365   6.853
 8270SOL    HW125709   4.455   5.399   6.879
 8270SOL    HW225710   4.585   5.426   6.784
 8271SOL     OW25711   3.309   6.886   5.971
 8271SOL    HW125712   3.295   6.959   5.904
 8271SOL    HW225713   3.251   6.903   6.051
 8272SOL     OW25714   1.028   0.402   2.262
 8272SOL    HW125715   0.962   0.375   2.193
 8272SOL    HW225716   0.995   0.485   2.309
 8273SOL     OW25717   4.122   0.737   6.618
 8273SOL    HW125718   4.206   0.727   6.672
 8273SOL    HW225719   4.045   0.697   6.668
 8274SOL     OW25720   5.438   5.994   5.524
 8274SOL    HW125721   5.396   6.026   5.609
 8274SOL    HW225722   5.525   5.949   5.545
 8275SOL     OW25723   5.179   1.099   4.835
 8275SOL    HW125724   5.225   1.186   4.853
 8275SOL    HW225725   5.186   1.040   4.915
 8276SOL     OW25726   6.360   1.976   6.808
 8276SOL    HW125727   6.315   1.890   6.781
 8276SOL    HW225728   6.368   2.036   6.729
 8277SOL     OW25729   1.261   6.605   0.853
 8277SOL    HW125730   1.293   6.669   0.784
 8277SOL    HW225731   1.266   6.647   0.943
 8278SOL     OW25732   2.452   1.036   1.259
 8278SOL    HW125733   2.453   1.014   1.356
 8278SOL    HW225734   2.358   1.053   1.229
 8279SOL     OW25735   4.182   5.956   5.796
 8279SOL    HW125736   4.178   5.948   5.697
 8279SOL    HW225737   4.237   5.882   5.834
 8280SOL     OW25738   5.192   3.900   6.974
 8280SOL    HW125739   5.134   3.921   0.032
 8280SOL    HW225740   5.281   3.944   6.985
 8281SOL     OW25741   2.608   5.772   6.433
 8281SOL    HW125742   2.585   5.692   6.377
 8281SOL    HW225743   2.530   5.835   6.433
 8282SOL     OW25744   3.041   3.064   1.983
 8282SOL    HW125745   3.043   3.076   1.884
 8282SOL    HW225746   3.080   2.975   2.007
 8283SOL     OW25747   0.280   0.356   3.627
 8283SOL    HW125748   0.331   0.278   3.662
 8283SOL    HW225749   0.338   0.408   3.565
 8284SOL     OW25750   4.624   1.448   1.573
 8284SOL    HW125751   4.585   1.367   1.527
 8284SOL    HW225752   4.555   1.487   1.634
 8285SOL     OW25753   1.185   4.186   0.295
 8285SOL    HW125754   1.146   4.107   0.247
 8285SOL    HW225755   1.228   4.247   0.228
 8286SOL     OW25756   6.336   2.597   6.092
 8286SOL    HW125757   6.361   2.660   6.019
 8286SOL    HW225758   6.289   2.646   6.165
 8287SOL     OW25759   1.864   1.456   3.526
 8287SOL    HW125760   1.825   1.379   3.575
 8287SOL    HW225761   1.931   1.423   3.459
 8288SOL     OW25762   1.713   0.330   2.823
 8288SOL    HW125763   1.654   0.381   2.760
 8288SOL    HW225764   1.658   0.281   2.890
 8289SOL     OW25765   5.681   0.339   0.073
 8289SOL    HW125766   5.711   0.300   7.006
 8289SOL    HW225767   5.695   0.271   0.146
 8290SOL     OW25768   4.644   2.626   1.808
 8290SOL    HW125769   4.665   2.630   1.906
 8290SOL    HW225770   4.569   2.690   1.788
 8291SOL     OW25771   4.747   6.119   6.434
 8291SOL    HW125772   4.826   6.063   6.460
 8291SOL    HW225773   4.663   6.074   6.466
 8292SOL     OW25774   0.430   2.897   5.505
 8292SOL    HW125775   0.416   2.829   5.577
 8292SOL    HW225776   0.484   2.973   5.542
 8293SOL     OW25777   2.582   5.496   4.252
 8293SOL    HW125778   2.599   5.595   4.254
 8293SOL    HW225779   2.588   5.459   4.345
 8294SOL     OW25780   5.233   3.583   5.478
 8294SOL    HW125781   5.203   3.557   5.570
 8294SOL    HW225782   5.159   3.565   5.413
 8295SOL     OW25783   4.615   5.101   2.682
 8295SOL    HW125784   4.673   5.033   2.637
 8295SOL    HW225785   4.535   5.055   2.721
 8296SOL     OW25786   3.673   6.934   2.374
 8296SOL    HW125787   3.664   6.965   2.279
 8296SOL    HW225788   3.760   6.964   2.411
 8297SOL     OW25789   5.337   4.454   2.304
 8297SOL    HW125790   5.264   4.489   2.363
 8297SOL    HW225791   5.415   4.517   2.307
 8298SOL     OW25792   6.896   0.037   0.520
 8298SOL    HW125793   6.968   0.106   0.530
 8298SOL    HW225794   6.911   7.006   0.435
 8299SOL     OW25795   1.138   3.291   6.889
 8299SOL    HW125796   1.227   3.261   6.924
 8299SOL    HW225797   1.137   3.391   6.883
 8300SOL     OW25798   6.167   5.100   4.010
 8300SOL    HW125799   6.164   5.185   4.063
 8300SOL    HW225800   6.257   5.057   4.022
 8301SOL     OW25801   6.158   6.101   0.369
 8301SOL    HW125802   6.089   6.162   0.329
 8301SOL    HW225803   6.247   6.147   0.368
 8302SOL     OW25804   4.015   6.723   5.010
 8302SOL    HW125805   3.969   6.762   4.930
 8302SOL    HW225806   4.076   6.650   4.981
 8303SOL     OW25807   0.324   5.213   3.168
 8303SOL    HW125808   0.358   5.276   3.237
 8303SOL    HW225809   0.380   5.219   3.086
 8304SOL     OW25810   6.129   3.152   3.577
 8304SOL    HW125811   6.188   3.164   3.497
 8304SOL    HW225812   6.185   3.130   3.657
 8305SOL     OW25813   5.085   0.130   5.985
 8305SOL    HW125814   5.082   0.163   6.080
 8305SOL    HW225815   5.039   0.042   5.979
 8306SOL     OW25816   6.285   0.907   4.005
 8306SOL    HW125817   6.329   0.829   3.960
 8306SOL    HW225818   6.352   0.979   4.018
 8307SOL     OW25819   1.435   3.658   3.377
 8307SOL    HW125820   1.503   3.608   3.323
 8307SOL    HW225821   1.406   3.603   3.454
 8308SOL     OW25822   1.305   5.254   0.589
 8308SOL    HW125823   1.205   5.245   0.589
 8308SOL    HW225824   1.330   5.343   0.551
 8309SOL     OW25825   6.408   5.299   4.308
 8309SOL    HW125826   6.452   5.349   4.383
 8309SOL    HW225827   6.314   5.333   4.296
 8310SOL     OW25828   2.448   6.991   2.907
 8310SOL    HW125829   2.428   6.893   2.918
 8310SOL    HW225830   2.499   0.003   2.987
 8311SOL     OW25831   4.225   5.740   3.021
 8311SOL    HW125832   4.279   5.664   2.985
 8311SOL    HW225833   4.182   5.789   2.945
 8312SOL     OW25834   5.826   1.703   0.499
 8312SOL    HW125835   5.825   1.607   0.473
 8312SOL    HW225836   5.876   1.715   0.585
 8313SOL     OW25837   5.844   2.174   6.032
 8313SOL    HW125838   5.808   2.264   6.009
 8313SOL    HW225839   5.783   2.129   6.096
 8314SOL     OW25840   4.695   6.118   4.511
 8314SOL    HW125841   4.693   6.046   4.443
 8314SOL    HW225842   4.768   6.183   4.489
 8315SOL     OW25843   3.248   3.187   5.202
 8315SOL    HW125844   3.198   3.171   5.288
 8315SOL    HW225845   3.346   3.179   5.219
 8316SOL     OW25846   2.397   1.513   5.419
 8316SOL    HW125847   2.360   1.420   5.414
 8316SOL    HW225848   2.330   1.573   5.461
 8317SOL     OW25849   1.338   1.984   4.167
 8317SOL    HW125850   1.275   1.943   4.233
 8317SOL    HW225851   1.286   2.040   4.103
 8318SOL     OW25852   4.163   6.694   6.173
 8318SOL    HW125853   4.259   6.700   6.143
 8318SOL    HW225854   4.158   6.712   6.271
 8319SOL     OW25855   1.589   5.466   5.901
 8319SOL    HW125856   1.516   5.495   5.964
 8319SOL    HW225857   1.678   5.495   5.937
 8320SOL     OW25858   3.709   3.777   5.399
 8320SOL    HW125859   3.759   3.726   5.468
 8320SOL    HW225860   3.623   3.729   5.377
 8321SOL     OW25861   0.912   0.746   1.100
 8321SOL    HW125862   0.829   0.781   1.056
 8321SOL    HW225863   0.900   0.649   1.120
 8322SOL     OW25864   1.248   0.494   1.198
 8322SOL    HW125865   1.342   0.471   1.175
 8322SOL    HW225866   1.203   0.533   1.117
 8323SOL     OW25867   5.825   4.395   6.727
 8323SOL    HW125868   5.836   4.385   6.628
 8323SOL    HW225869   5.804   4.307   6.768
 8324SOL     OW25870   5.550   6.874   0.471
 8324SOL    HW125871   5.461   6.914   0.448
 8324SOL    HW225872   5.543   6.775   0.475
 8325SOL     OW25873   1.510   6.796   4.833
 8325SOL    HW125874   1.606   6.820   4.823
 8325SOL    HW225875   1.464   6.804   4.745
 8326SOL     OW25876   2.348   2.777   6.581
 8326SOL    HW125877   2.330   2.848   6.648
 8326SOL    HW225878   2.412   2.710   6.619
 8327SOL     OW25879   0.449   6.112   4.813
 8327SOL    HW125880   0.448   6.022   4.857
 8327SOL    HW225881   0.410   6.180   4.875
 8328SOL     OW25882   1.418   6.287   0.599
 8328SOL    HW125883   1.485   6.294   0.672
 8328SOL    HW225884   1.455   6.328   0.515
 8329SOL     OW25885   1.762   2.605   4.925
 8329SOL    HW125886   1.787   2.596   4.829
 8329SOL    HW225887   1.785   2.697   4.957
 8330SOL     OW25888   2.968   6.453   7.001
 8330SOL    HW125889   2.875   6.489   7.010
 8330SOL    HW225890   3.026   6.492   0.053
 8331SOL     OW25891   2.555   1.907   6.302
 8331SOL    HW125892   2.599   1.935   6.217
 8331SOL    HW225893   2.623   1.906   6.376
 8332SOL     OW25894   6.234   4.217   1.347
 8332SOL    HW125895   6.321   4.260   1.323
 8332SOL    HW225896   6.195   4.264   1.426
 8333SOL     OW25897   2.177   4.367   6.730
 8333SOL    HW125898   2.228   4.430   6.788
 8333SOL    HW225899   2.139   4.417   6.652
 8334SOL     OW25900   3.361   2.312   5.358
 8334SOL    HW125901   3.280   2.335   5.304
 8334SOL    HW225902   3.433   2.280   5.297
 8335SOL     OW25903   5.351   4.757   5.569
 8335SOL    HW125904   5.346   4.801   5.480
 8335SOL    HW225905   5.419   4.683   5.566
 8336SOL     OW25906   1.399   3.454   3.578
 8336SOL    HW125907   1.310   3.432   3.620
 8336SOL    HW225908   1.472   3.426   3.639
 8337SOL     OW25909   6.417   0.723   4.242
 8337SOL    HW125910   6.359   0.748   4.164
 8337SOL    HW225911   6.362   0.720   4.325
 8338SOL     OW25912   2.440   5.315   1.115
 8338SOL    HW125913   2.518   5.253   1.126
 8338SOL    HW225914   2.457   5.375   1.036
 8339SOL     OW25915   6.056   0.143   1.731
 8339SOL    HW125916   6.143   0.095   1.747
 8339SOL    HW225917   6.017   0.112   1.645
 8340SOL     OW25918   6.158   2.687   6.433
 8340SOL    HW125919   6.119   2.600   6.404
 8340SOL    HW225920   6.154   2.753   6.357
 8341SOL     OW25921   3.790   1.502   0.728
 8341SOL    HW125922   3.778   1.405   0.750
 8341SOL    HW225923   3.756   1.557   0.803
 8342SOL     OW25924   4.085   0.412   0.413
 8342SOL    HW125925   4.064   0.324   0.455
 8342SOL    HW225926   4.072   0.407   0.314
 8343SOL     OW25927   5.345   4.772   3.104
 8343SOL    HW125928   5.433   4.817   3.093
 8343SOL    HW225929   5.308   4.790   3.195
 8344SOL     OW25930   1.117   4.926   5.821
 8344SOL    HW125931   1.188   4.948   5.754
 8344SOL    HW225932   1.093   4.829   5.814
 8345SOL     OW25933   5.953   0.233   3.799
 8345SOL    HW125934   5.943   0.300   3.872
 8345SOL    HW225935   5.991   0.278   3.717
 8346SOL     OW25936   5.630   3.481   4.285
 8346SOL    HW125937   5.609   3.383   4.277
 8346SOL    HW225938   5.547   3.532   4.304
 8347SOL     OW25939   2.314   1.933   5.984
 8347SOL    HW125940   2.336   1.836   5.974
 8347SOL    HW225941   2.382   1.988   5.936
 8348SOL     OW25942   2.840   5.818   1.863
 8348SOL    HW125943   2.831   5.903   1.811
 8348SOL    HW225944   2.754   5.799   1.911
 8349SOL     OW25945   5.329   6.345   2.063
 8349SOL    HW125946   5.377   6.278   2.120
 8349SOL    HW225947   5.336   6.436   2.104
 8350SOL     OW25948   1.285   0.608   0.369
 8350SOL    HW125949   1.350   0.645   0.303
 8350SOL    HW225950   1.272   0.510   0.351
 8351SOL     OW25951   0.045   2.110   3.046
 8351SOL    HW125952   0.124   2.123   2.985
 8351SOL    HW225953   0.074   2.068   3.131
 8352SOL     OW25954   2.580   6.234   0.524
 8352SOL    HW125955   2.678   6.220   0.536
 8352SOL    HW225956   2.535   6.144   0.519
 8353SOL     OW25957   0.663   5.751   1.782
 8353SOL    HW125958   0.749   5.703   1.792
 8353SOL    HW225959   0.587   5.689   1.801
 8354SOL     OW25960   3.805   1.139   3.273
 8354SOL    HW125961   3.744   1.115   3.197
 8354SOL    HW225962   3.842   1.231   3.258
 8355SOL     OW25963   3.290   5.619   6.440
 8355SOL    HW125964   3.215   5.632   6.375
 8355SOL    HW225965   3.363   5.567   6.397
 8356SOL     OW25966   2.837   4.639   0.714
 8356SOL    HW125967   2.794   4.548   0.719
 8356SOL    HW225968   2.817   4.690   0.798
 8357SOL     OW25969   4.965   6.769   5.626
 8357SOL    HW125970   4.996   6.738   5.716
 8357SOL    HW225971   4.935   6.864   5.632
 8358SOL     OW25972   1.255   0.733   5.727
 8358SOL    HW125973   1.285   0.699   5.816
 8358SOL    HW225974   1.333   0.767   5.676
 8359SOL     OW25975   4.221   1.904   5.653
 8359SOL    HW125976   4.157   1.944   5.587
 8359SOL    HW225977   4.262   1.821   5.614
 8360SOL     OW25978   4.439   0.220   1.095
 8360SOL    HW125979   4.503   0.190   1.025
 8360SOL    HW225980   4.388   0.299   1.061
 8361SOL     OW25981   4.768   1.978   6.962
 8361SOL    HW125982   4.677   1.948   6.933
 8361SOL    HW225983   4.765   2.007   0.038
 8362SOL     OW25984   6.682   3.998   1.486
 8362SOL    HW125985   6.616   3.933   1.523
 8362SOL    HW225986   6.654   4.027   1.395
 8363SOL     OW25987   1.718   2.496   1.410
 8363SOL    HW125988   1.772   2.575   1.440
 8363SOL    HW225989   1.725   2.424   1.479
 8364SOL     OW25990   0.300   2.043   4.291
 8364SOL    HW125991   0.336   2.120   4.343
 8364SOL    HW225992   0.200   2.045   4.295
 8365SOL     OW25993   1.735   2.548   1.784
 8365SOL    HW125994   1.786   2.574   1.866
 8365SOL    HW225995   1.739   2.449   1.772
 8366SOL     OW25996   5.366   4.857   2.014
 8366SOL    HW125997   5.356   4.835   2.111
 8366SOL    HW225998   5.420   4.941   2.005
 8367SOL     OW25999   2.127   4.445   3.823
 8367SOL    HW126000   2.226   4.437   3.809
 8367SOL    HW226001   2.109   4.504   3.902
 8368SOL     OW26002   5.640   5.846   5.644
 8368SOL    HW126003   5.707   5.870   5.714
 8368SOL    HW226004   5.570   5.787   5.684
 8369SOL     OW26005   2.218   6.860   0.480
 8369SOL    HW126006   2.154   6.930   0.449
 8369SOL    HW226007   2.304   6.903   0.507
 8370SOL     OW26008   2.781   3.454   0.875
 8370SOL    HW126009   2.776   3.447   0.975
 8370SOL    HW226010   2.854   3.517   0.850
 8371SOL     OW26011   2.432   3.489   6.188
 8371SOL    HW126012   2.496   3.552   6.144
 8371SOL    HW226013   2.338   3.517   6.166
 8372SOL     OW26014   1.566   6.192   0.971
 8372SOL    HW126015   1.592   6.140   0.889
 8372SOL    HW226016   1.472   6.169   0.996
 8373SOL     OW26017   6.451   1.624   3.782
 8373SOL    HW126018   6.443   1.573   3.868
 8373SOL    HW226019   6.411   1.570   3.708
 8374SOL     OW26020   0.001   0.922   4.059
 8374SOL    HW126021   6.946   0.895   3.998
 8374SOL    HW226022   0.076   0.961   4.005
 8375SOL     OW26023   2.080   1.517   5.267
 8375SOL    HW126024   2.109   1.581   5.195
 8375SOL    HW226025   1.982   1.498   5.257
 8376SOL     OW26026   0.921   1.966   4.140
 8376SOL    HW126027   0.824   1.974   4.164
 8376SOL    HW226028   0.948   2.045   4.086
 8377SOL     OW26029   4.022   5.537   6.663
 8377SOL    HW126030   3.980   5.451   6.635
 8377SOL    HW226031   4.037   5.594   6.583
 8378SOL     OW26032   4.519   6.101   4.971
 8378SOL    HW126033   4.498   6.027   5.035
 8378SOL    HW226034   4.579   6.067   4.899
 8379SOL     OW26035   5.725   1.756   1.795
 8379SOL    HW126036   5.667   1.740   1.715
 8379SOL    HW226037   5.689   1.834   1.847
 8380SOL     OW26038   0.276   6.047   1.170
 8380SOL    HW126039   0.270   6.145   1.153
 8380SOL    HW226040   0.201   6.001   1.123
 8381SOL     OW26041   0.767   1.708   2.859
 8381SOL    HW126042   0.752   1.758   2.774
 8381SOL    HW226043   0.770   1.772   2.935
 8382SOL     OW26044   1.163   0.244   1.233
 8382SOL    HW126045   1.163   0.201   1.323
 8382SOL    HW226046   1.207   0.334   1.238
 8383SOL     OW26047   2.937   7.004   6.092
 8383SOL    HW126048   2.901   0.063   6.141
 8383SOL    HW226049   2.862   6.940   6.073
 8384SOL     OW26050   0.728   3.468   2.856
 8384SOL    HW126051   0.808   3.476   2.797
 8384SOL    HW226052   0.645   3.474   2.801
 8385SOL     OW26053   4.148   2.418   1.631
 8385SOL    HW126054   4.221   2.418   1.699
 8385SOL    HW226055   4.071   2.364   1.664
 8386SOL     OW26056   2.490   5.864   1.698
 8386SOL    HW126057   2.548   5.855   1.617
 8386SOL    HW226058   2.524   5.803   1.770
 8387SOL     OW26059   0.938   1.716   3.703
 8387SOL    HW126060   1.009   1.726   3.772
 8387SOL    HW226061   0.893   1.628   3.714
 8388SOL     OW26062   4.121   5.500   0.681
 8388SOL    HW126063   4.055   5.429   0.707
 8388SOL    HW226064   4.203   5.491   0.737
 8389SOL     OW26065   0.540   2.776   4.323
 8389SOL    HW126066   0.578   2.757   4.414
 8389SOL    HW226067   0.440   2.781   4.329
 8390SOL     OW26068   2.694   6.891   5.742
 8390SOL    HW126069   2.741   6.979   5.741
 8390SOL    HW226070   2.753   6.822   5.700
 8391SOL     OW26071   5.448   5.767   1.029
 8391SOL    HW126072   5.467   5.721   1.116
 8391SOL    HW226073   5.351   5.793   1.026
 8392SOL     OW26074   4.872   6.615   6.816
 8392SOL    HW126075   4.935   6.585   6.887
 8392SOL    HW226076   4.923   6.631   6.731
 8393SOL     OW26077   0.230   4.862   2.740
 8393SOL    HW126078   0.258   4.780   2.791
 8393SOL    HW226079   0.179   4.923   2.800
 8394SOL     OW26080   0.995   1.591   2.780
 8394SOL    HW126081   0.902   1.624   2.765
 8394SOL    HW226082   1.019   1.601   2.876
 8395SOL     OW26083   0.692   6.320   5.621
 8395SOL    HW126084   0.616   6.360   5.569
 8395SOL    HW226085   0.746   6.261   5.561
 8396SOL     OW26086   4.361   2.634   1.350
 8396SOL    HW126087   4.378   2.732   1.349
 8396SOL    HW226088   4.303   2.611   1.428
 8397SOL     OW26089   2.286   4.946   3.701
 8397SOL    HW126090   2.337   5.014   3.753
 8397SOL    HW226091   2.296   4.856   3.744
 8398SOL     OW26092   5.775   1.354   0.071
 8398SOL    HW126093   5.796   1.407   0.154
 8398SOL    HW226094   5.718   1.276   0.095
 8399SOL     OW26095   5.825   5.849   0.222
 8399SOL    HW126096   5.900   5.904   0.185
 8399SOL    HW226097   5.824   5.858   0.322
 8400SOL     OW26098   5.803   6.968   4.669
 8400SOL    HW126099   5.748   6.976   4.585
 8400SOL    HW226100   5.900   6.970   4.645
 8401SOL     OW26101   2.594   4.292   6.062
 8401SOL    HW126102   2.691   4.312   6.054
 8401SOL    HW226103   2.550   4.302   5.973
 8402SOL     OW26104   4.824   1.206   6.046
 8402SOL    HW126105   4.877   1.280   6.088
 8402SOL    HW226106   4.727   1.230   6.048
 8403SOL     OW26107   1.000   2.050   4.955
 8403SOL    HW126108   0.980   2.020   5.049
 8403SOL    HW226109   0.942   2.129   4.933
 8404SOL     OW26110   4.769   5.163   5.434
 8404SOL    HW126111   4.850   5.210   5.468
 8404SOL    HW226112   4.707   5.230   5.392
 8405SOL     OW26113   1.154   2.681   4.649
 8405SOL    HW126114   1.212   2.723   4.578
 8405SOL    HW226115   1.209   2.662   4.730
 8406SOL     OW26116   5.184   3.730   1.426
 8406SOL    HW126117   5.255   3.741   1.496
 8406SOL    HW226118   5.097   3.765   1.462
 8407SOL     OW26119   4.826   3.191   2.549
 8407SOL    HW126120   4.907   3.137   2.525
 8407SOL    HW226121   4.827   3.212   2.646
 8408SOL     OW26122   4.996   3.777   4.126
 8408SOL    HW126123   4.917   3.833   4.103
 8408SOL    HW226124   4.965   3.691   4.166
 8409SOL     OW26125   0.572   1.752   3.948
 8409SOL    HW126126   0.636   1.823   3.920
 8409SOL    HW226127   0.479   1.790   3.954
 8410SOL     OW26128   2.243   6.566   2.570
 8410SOL    HW126129   2.180   6.578   2.646
 8410SOL    HW226130   2.312   6.498   2.594
 8411SOL     OW26131   2.010   2.792   3.466
 8411SOL    HW126132   1.954   2.788   3.549
 8411SOL    HW226133   1.953   2.772   3.387
 8412SOL     OW26134   5.805   3.175   2.448
 8412SOL    HW126135   5.728   3.144   2.393
 8412SOL    HW226136   5.874   3.103   2.453
 8413SOL     OW26137   2.310   4.491   1.391
 8413SOL    HW126138   2.341   4.503   1.485
 8413SOL    HW226139   2.276   4.397   1.378
 8414SOL     OW26140   5.631   6.862   2.608
 8414SOL    HW126141   5.590   6.879   2.698
 8414SOL    HW226142   5.608   6.769   2.578
 8415SOL     OW26143   6.215   3.717   1.755
 8415SOL    HW126144   6.239   3.762   1.842
 8415SOL    HW226145   6.141   3.652   1.770
 8416SOL     OW26146   4.599   4.532   2.230
 8416SOL    HW126147   4.531   4.546   2.158
 8416SOL    HW226148   4.686   4.506   2.189
 8417SOL     OW26149   2.561   5.553   6.262
 8417SOL    HW126150   2.658   5.532   6.256
 8417SOL    HW226151   2.524   5.569   6.171
 8418SOL     OW26152   6.027   5.815   2.842
 8418SOL    HW126153   6.059   5.733   2.795
 8418SOL    HW226154   5.932   5.833   2.817
 8419SOL     OW26155   4.548   0.255   4.143
 8419SOL    HW126156   4.620   0.190   4.168
 8419SOL    HW226157   4.464   0.204   4.121
 8420SOL     OW26158   3.595   2.077   5.715
 8420SOL    HW126159   3.599   2.081   5.815
 8420SOL    HW226160   3.665   2.013   5.682
 8421SOL     OW26161   1.194   6.586   1.306
 8421SOL    HW126162   1.111   6.617   1.354
 8421SOL    HW226163   1.274   6.609   1.360
 8422SOL     OW26164   4.193   6.736   1.542
 8422SOL    HW126165   4.149   6.826   1.535
 8422SOL    HW226166   4.192   6.692   1.452
 8423SOL     OW26167   1.705   3.823   1.585
 8423SOL    HW126168   1.652   3.742   1.605
 8423SOL    HW226169   1.683   3.855   1.492
 8424SOL     OW26170   3.006   2.183   2.267
 8424SOL    HW126171   3.002   2.215   2.173
 8424SOL    HW226172   2.938   2.232   2.322
 8425SOL     OW26173   6.361   4.731   6.794
 8425SOL    HW126174   6.424   4.805   6.816
 8425SOL    HW226175   6.379   4.653   6.853
 8426SOL     OW26176   4.029   3.799   2.584
 8426SOL    HW126177   4.048   3.724   2.521
 8426SOL    HW226178   4.083   3.787   2.667
 8427SOL     OW26179   2.366   2.347   6.505
 8427SOL    HW126180   2.283   2.371   6.455
 8427SOL    HW226181   2.441   2.332   6.441
 8428SOL     OW26182   6.231   4.608   1.813
 8428SOL    HW126183   6.272   4.617   1.722
 8428SOL    HW226184   6.213   4.698   1.851
 8429SOL     OW26185   2.134   6.710   3.072
 8429SOL    HW126186   2.232   6.689   3.077
 8429SOL    HW226187   2.081   6.633   3.109
 8430SOL     OW26188   5.298   4.252   2.993
 8430SOL    HW126189   5.298   4.333   3.051
 8430SOL    HW226190   5.382   4.200   3.007
 8431SOL     OW26191   2.694   3.797   1.658
 8431SOL    HW126192   2.715   3.752   1.744
 8431SOL    HW226193   2.609   3.850   1.667
 8432SOL     OW26194   4.537   6.957   0.528
 8432SOL    HW126195   4.588   6.920   0.606
 8432SOL    HW226196   4.536   0.037   0.534
 8433SOL     OW26197   1.491   1.780   4.655
 8433SOL    HW126198   1.535   1.834   4.727
 8433SOL    HW226199   1.452   1.697   4.695
 8434SOL     OW26200   5.341   6.300   6.632
 8434SOL    HW126201   5.379   6.302   6.539
 8434SOL    HW226202   5.405   6.343   6.695
 8435SOL     OW26203   5.234   2.784   1.549
 8435SOL    HW126204   5.222   2.881   1.530
 8435SOL    HW226205   5.243   2.734   1.463
 8436SOL     OW26206   3.157   4.248   1.596
 8436SOL    HW126207   3.183   4.185   1.668
 8436SOL    HW226208   3.079   4.303   1.626
 8437SOL     OW26209   6.873   1.862   0.998
 8437SOL    HW126210   6.962   1.905   0.982
 8437SOL    HW226211   6.817   1.922   1.054
 8438SOL     OW26212   1.966   6.496   0.954
 8438SOL    HW126213   2.003   6.477   0.862
 8438SOL    HW226214   2.000   6.585   0.985
 8439SOL     OW26215   6.116   0.053   2.257
 8439SOL    HW126216   6.205   0.078   2.220
 8439SOL    HW226217   6.063   0.003   2.189
 8440SOL     OW26218   6.942   2.045   3.928
 8440SOL    HW126219   6.876   2.082   3.994
 8440SOL    HW226220   6.902   2.045   3.837
 8441SOL     OW26221   4.434   5.003   1.431
 8441SOL    HW126222   4.519   4.960   1.399
 8441SOL    HW226223   4.451   5.101   1.446
 8442SOL     OW26224   1.957   3.584   0.203
 8442SOL    HW126225   2.002   3.587   0.292
 8442SOL    HW226226   1.919   3.492   0.187
 8443SOL     OW26227   0.770   1.974   2.299
 8443SOL    HW126228   0.687   1.928   2.331
 8443SOL    HW226229   0.833   1.906   2.262
 8444SOL     OW26230   4.492   0.748   2.324
 8444SOL    HW126231   4.575   0.729   2.376
 8444SOL    HW226232   4.516   0.792   2.237
 8445SOL     OW26233   4.266   5.586   1.547
 8445SOL    HW126234   4.303   5.551   1.634
 8445SOL    HW226235   4.308   5.674   1.527
 8446SOL     OW26236   7.011   4.321   3.246
 8446SOL    HW126237   0.017   4.231   3.209
 8446SOL    HW226238   6.957   4.308   3.329
 8447SOL     OW26239   4.678   3.283   1.216
 8447SOL    HW126240   4.626   3.305   1.133
 8447SOL    HW226241   4.761   3.233   1.190
 8448SOL     OW26242   1.483   2.501   5.571
 8448SOL    HW126243   1.478   2.546   5.482
 8448SOL    HW226244   1.480   2.402   5.558
 8449SOL     OW26245   1.302   1.807   5.077
 8449SOL    HW126246   1.255   1.735   5.127
 8449SOL    HW226247   1.360   1.859   5.139
 8450SOL     OW26248   2.375   5.506   1.822
 8450SOL    HW126249   2.400   5.463   1.735
 8450SOL    HW226250   2.422   5.459   1.897
 8451SOL     OW26251   4.129   3.212   0.245
 8451SOL    HW126252   4.079   3.128   0.263
 8451SOL    HW226253   4.093   3.257   0.164
 8452SOL     OW26254   6.919   5.360   1.018
 8452SOL    HW126255   6.860   5.396   0.945
 8452SOL    HW226256   6.907   5.261   1.024
 8453SOL     OW26257   6.916   5.054   5.378
 8453SOL    HW126258   6.878   5.100   5.458
 8453SOL    HW226259   6.846   4.997   5.336
 8454SOL     OW26260   1.914   6.235   5.001
 8454SOL    HW126261   1.945   6.151   4.955
 8454SOL    HW226262   1.994   6.291   5.023
 8455SOL     OW26263   6.187   2.745   0.581
 8455SOL    HW126264   6.116   2.675   0.587
 8455SOL    HW226265   6.204   2.767   0.485
 8456SOL     OW26266   5.463   5.810   3.257
 8456SOL    HW126267   5.538   5.750   3.230
 8456SOL    HW226268   5.484   5.904   3.230
 8457SOL     OW26269   6.126   6.214   6.700
 8457SOL    HW126270   6.195   6.236   6.632
 8457SOL    HW226271   6.069   6.294   6.717
 8458SOL     OW26272   1.492   1.729   1.177
 8458SOL    HW126273   1.483   1.765   1.084
 8458SOL    HW226274   1.466   1.799   1.242
 8459SOL     OW26275   2.710   5.594   2.085
 8459SOL    HW126276   2.684   5.551   2.172
 8459SOL    HW226277   2.803   5.629   2.092
 8460SOL     OW26278   4.002   1.123   0.508
 8460SOL    HW126279   4.013   1.160   0.601
 8460SOL    HW226280   3.910   1.085   0.498
 8461SOL     OW26281   4.769   3.958   2.819
 8461SOL    HW126282   4.790   3.952   2.917
 8461SOL    HW226283   4.835   3.904   2.767
 8462SOL     OW26284   2.522   4.276   0.357
 8462SOL    HW126285   2.592   4.207   0.374
 8462SOL    HW226286   2.543   4.325   0.272
 8463SOL     OW26287   6.468   0.685   0.216
 8463SOL    HW126288   6.515   0.651   0.134
 8463SOL    HW226289   6.413   0.765   0.193
 8464SOL     OW26290   6.648   4.169   6.335
 8464SOL    HW126291   6.681   4.219   6.255
 8464SOL    HW226292   6.726   4.143   6.393
 8465SOL     OW26293   4.420   3.217   0.774
 8465SOL    HW126294   4.321   3.211   0.762
 8465SOL    HW226295   4.466   3.184   0.691
 8466SOL     OW26296   6.957   1.123   5.849
 8466SOL    HW126297   6.989   1.071   5.929
 8466SOL    HW226298   6.857   1.128   5.850
 8467SOL     OW26299   3.575   1.584   0.247
 8467SOL    HW126300   3.561   1.678   0.215
 8467SOL    HW226301   3.618   1.586   0.338
 8468SOL     OW26302   5.485   3.270   6.835
 8468SOL    HW126303   5.502   3.368   6.837
 8468SOL    HW226304   5.549   3.224   6.896
 8469SOL     OW26305   4.034   3.316   5.583
 8469SOL    HW126306   4.005   3.295   5.677
 8469SOL    HW226307   4.104   3.250   5.555
 8470SOL     OW26308   1.828   5.194   1.736
 8470SOL    HW126309   1.785   5.170   1.823
 8470SOL    HW226310   1.790   5.136   1.664
 8471SOL     OW26311   3.872   1.772   4.212
 8471SOL    HW126312   3.937   1.700   4.187
 8471SOL    HW226313   3.898   1.811   4.301
 8472SOL     OW26314   6.415   1.799   6.161
 8472SOL    HW126315   6.475   1.876   6.187
 8472SOL    HW226316   6.363   1.770   6.241
 8473SOL     OW26317   5.137   4.653   0.296
 8473SOL    HW126318   5.081   4.620   0.220
 8473SOL    HW226319   5.127   4.752   0.305
 8474SOL     OW26320   3.869   4.057   4.073
 8474SOL    HW126321   3.808   4.065   3.994
 8474SOL    HW226322   3.821   4.082   4.156
 8475SOL     OW26323   6.315   2.416   3.085
 8475SOL    HW126324   6.338   2.377   3.175
 8475SOL    HW226325   6.396   2.413   3.027
 8476SOL     OW26326   6.295   1.108   1.644
 8476SOL    HW126327   6.239   1.111   1.561
 8476SOL    HW226328   6.258   1.041   1.708
 8477SOL     OW26329   5.724   6.906   1.778
 8477SOL    HW126330   5.677   6.977   1.831
 8477SOL    HW226331   5.765   6.948   1.697
 8478SOL     OW26332   0.130   0.339   5.630
 8478SOL    HW126333   0.093   0.250   5.603
 8478SOL    HW226334   0.056   0.406   5.637
 8479SOL     OW26335   1.099   3.115   0.528
 8479SOL    HW126336   1.076   3.091   0.434
 8479SOL    HW226337   1.180   3.174   0.528
 8480SOL     OW26338   4.264   3.592   0.330
 8480SOL    HW126339   4.287   3.496   0.351
 8480SOL    HW226340   4.275   3.647   0.413
 8481SOL     OW26341   4.328   2.291   3.166
 8481SOL    HW126342   4.364   2.383   3.154
 8481SOL    HW226343   4.403   2.225   3.166
 8482SOL     OW26344   4.621   0.992   0.547
 8482SOL    HW126345   4.543   0.950   0.595
 8482SOL    HW226346   4.587   1.043   0.468
 8483SOL     OW26347   3.708   5.018   2.996
 8483SOL    HW126348   3.674   5.112   3.004
 8483SOL    HW226349   3.773   5.013   2.921
 8484SOL     OW26350   4.997   5.946   5.004
 8484SOL    HW126351   5.084   5.987   5.030
 8484SOL    HW226352   4.987   5.949   4.904
 8485SOL     OW26353   3.549   2.181   0.166
 8485SOL    HW126354   3.631   2.127   0.149
 8485SOL    HW226355   3.539   2.198   0.264
 8486SOL     OW26356   6.072   2.280   3.497
 8486SOL    HW126357   6.148   2.278   3.562
 8486SOL    HW226358   6.061   2.190   3.455
 8487SOL     OW26359   6.871   1.707   6.522
 8487SOL    HW126360   6.818   1.708   6.606
 8487SOL    HW226361   6.820   1.657   6.451
 8488SOL     OW26362   4.822   5.335   2.121
 8488SOL    HW126363   4.921   5.332   2.135
 8488SOL    HW226364   4.788   5.426   2.146
 8489SOL     OW26365   6.187   2.151   1.802
 8489SOL    HW126366   6.140   2.085   1.743
 8489SOL    HW226367   6.121   2.196   1.862
 8490SOL     OW26368   3.296   0.439   6.727
 8490SOL    HW126369   3.214   0.464   6.676
 8490SOL    HW226370   3.336   0.520   6.769
 8491SOL     OW26371   3.037   5.734   1.549
 8491SOL    HW126372   2.971   5.781   1.607
 8491SOL    HW226373   3.124   5.724   1.598
 8492SOL     OW26374   6.189   6.661   4.809
 8492SOL    HW126375   6.168   6.756   4.785
 8492SOL    HW226376   6.180   6.649   4.908
 8493SOL     OW26377   5.346   1.263   6.516
 8493SOL    HW126378   5.432   1.215   6.528
 8493SOL    HW226379   5.361   1.362   6.524
 8494SOL     OW26380   6.430   4.292   2.396
 8494SOL    HW126381   6.459   4.248   2.481
 8494SOL    HW226382   6.511   4.313   2.341
 8495SOL     OW26383   5.995   5.175   5.944
 8495SOL    HW126384   6.047   5.136   5.868
 8495SOL    HW226385   5.978   5.105   6.013
 8496SOL     OW26386   4.994   2.788   2.121
 8496SOL    HW126387   4.988   2.870   2.177
 8496SOL    HW226388   4.910   2.776   2.069
 8497SOL     OW26389   6.561   0.737   3.438
 8497SOL    HW126390   6.518   0.684   3.365
 8497SOL    HW226391   6.641   0.784   3.402
 8498SOL     OW26392   4.963   0.456   3.920
 8498SOL    HW126393   4.973   0.400   4.003
 8498SOL    HW226394   5.018   0.416   3.847
 8499SOL     OW26395   5.901   6.773   5.387
 8499SOL    HW126396   5.920   6.807   5.479
 8499SOL    HW226397   5.987   6.743   5.344
 8500SOL     OW26398   1.307   0.776   6.413
 8500SOL    HW126399   1.368   0.750   6.488
 8500SOL    HW226400   1.213   0.778   6.447
 8501SOL     OW26401   2.337   1.142   6.769
 8501SOL    HW126402   2.351   1.072   6.840
 8501SOL    HW226403   2.327   1.231   6.812
 8502SOL     OW26404   0.356   3.884   6.682
 8502SOL    HW126405   0.329   3.797   6.641
 8502SOL    HW226406   0.275   3.933   6.714
 8503SOL     OW26407   4.970   1.579   4.852
 8503SOL    HW126408   5.059   1.535   4.848
 8503SOL    HW226409   4.981   1.678   4.863
 8504SOL     OW26410   1.565   0.475   2.650
 8504SOL    HW126411   1.580   0.513   2.558
 8504SOL    HW226412   1.493   0.526   2.696
 8505SOL     OW26413   5.649   3.017   2.682
 8505SOL    HW126414   5.601   2.948   2.736
 8505SOL    HW226415   5.603   3.029   2.594
 8506SOL     OW26416   2.070   0.694   6.119
 8506SOL    HW126417   2.006   0.698   6.042
 8506SOL    HW226418   2.152   0.747   6.097
 8507SOL     OW26419   3.092   6.352   5.317
 8507SOL    HW126420   2.997   6.322   5.309
 8507SOL    HW226421   3.143   6.287   5.373
 8508SOL     OW26422   3.079   1.427   6.995
 8508SOL    HW126423   2.988   1.456   0.006
 8508SOL    HW226424   3.125   1.504   6.952
 8509SOL     OW26425   5.686   1.957   2.724
 8509SOL    HW126426   5.695   1.935   2.627
 8509SOL    HW226427   5.615   2.026   2.737
 8510SOL     OW26428   0.266   1.863   4.632
 8510SOL    HW126429   0.223   1.788   4.582
 8510SOL    HW226430   0.213   1.947   4.617
 8511SOL     OW26431   5.492   1.738   2.925
 8511SOL    HW126432   5.554   1.797   2.979
 8511SOL    HW226433   5.542   1.699   2.848
 8512SOL     OW26434   2.196   6.635   5.784
 8512SOL    HW126435   2.280   6.689   5.776
 8512SOL    HW226436   2.202   6.555   5.724
 8513SOL     OW26437   5.262   6.189   0.311
 8513SOL    HW126438   5.167   6.158   0.310
 8513SOL    HW226439   5.311   6.152   0.232
 8514SOL     OW26440   3.375   6.459   3.549
 8514SOL    HW126441   3.434   6.476   3.627
 8514SOL    HW226442   3.365   6.543   3.495
 8515SOL     OW26443   5.637   2.186   0.729
 8515SOL    HW126444   5.645   2.204   0.827
 8515SOL    HW226445   5.628   2.087   0.714
 8516SOL     OW26446   6.857   2.018   1.904
 8516SOL    HW126447   6.843   1.951   1.978
 8516SOL    HW226448   6.847   1.972   1.816
 8517SOL     OW26449   1.341   3.826   0.220
 8517SOL    HW126450   1.319   3.795   0.128
 8517SOL    HW226451   1.273   3.892   0.251
 8518SOL     OW26452   3.051   5.747   0.499
 8518SOL    HW126453   2.959   5.758   0.537
 8518SOL    HW226454   3.075   5.649   0.499
 8519SOL     OW26455   2.647   6.064   3.168
 8519SOL    HW126456   2.569   6.126   3.158
 8519SOL    HW226457   2.614   5.969   3.163
 8520SOL     OW26458   3.449   0.248   6.622
 8520SOL    HW126459   3.527   0.283   6.570
 8520SOL    HW226460   3.388   0.323   6.646
 8521SOL     OW26461   1.148   0.649   1.404
 8521SOL    HW126462   1.109   0.733   1.368
 8521SOL    HW226463   1.195   0.600   1.330
 8522SOL     OW26464   2.226   6.165   4.611
 8522SOL    HW126465   2.243   6.209   4.699
 8522SOL    HW226466   2.307   6.175   4.553
 8523SOL     OW26467   1.280   6.681   0.285
 8523SOL    HW126468   1.180   6.678   0.285
 8523SOL    HW226469   1.310   6.775   0.274
 8524SOL     OW26470   1.972   1.585   6.672
 8524SOL    HW126471   1.977   1.627   6.763
 8524SOL    HW226472   1.931   1.650   6.608
 8525SOL     OW26473   5.166   3.398   3.554
 8525SOL    HW126474   5.078   3.355   3.530
 8525SOL    HW226475   5.236   3.365   3.491
 8526SOL     OW26476   1.713   3.335   2.698
 8526SOL    HW126477   1.793   3.323   2.638
 8526SOL    HW226478   1.632   3.349   2.642
 8527SOL     OW26479   4.067   0.615   3.936
 8527SOL    HW126480   4.012   0.575   4.009
 8527SOL    HW226481   4.104   0.703   3.965
 8528SOL     OW26482   5.183   2.015   0.004
 8528SOL    HW126483   5.129   2.059   0.077
 8528SOL    HW226484   5.143   2.038   6.935
 8529SOL     OW26485   6.887   5.216   6.351
 8529SOL    HW126486   6.971   5.166   6.370
 8529SOL    HW226487   6.884   5.298   6.408
 8530SOL     OW26488   1.755   4.073   6.258
 8530SOL    HW126489   1.765   4.021   6.173
 8530SOL    HW226490   1.836   4.060   6.316
 8531SOL     OW26491   3.857   4.961   1.960
 8531SOL    HW126492   3.770   4.933   2.000
 8531SOL    HW226493   3.925   4.972   2.032
 8532SOL     OW26494   1.254   4.046   6.951
 8532SOL    HW126495   1.339   4.096   6.933
 8532SOL    HW226496   1.233   3.986   6.874
 8533SOL     OW26497   4.060   6.520   5.991
 8533SOL    HW126498   4.128   6.472   5.937
 8533SOL    HW226499   4.106   6.581   6.056
 8534SOL     OW26500   1.597   2.714   2.239
 8534SOL    HW126501   1.558   2.790   2.187
 8534SOL    HW226502   1.608   2.635   2.179
 8535SOL     OW26503   6.549   3.036   4.892
 8535SOL    HW126504   6.639   3.002   4.920
 8535SOL    HW226505   6.479   2.972   4.922
 8536SOL     OW26506   6.855   1.470   4.862
 8536SOL    HW126507   6.758   1.446   4.873
 8536SOL    HW226508   6.906   1.439   4.943
 8537SOL     OW26509   5.330   6.748   2.989
 8537SOL    HW126510   5.296   6.818   2.926
 8537SOL    HW226511   5.293   6.659   2.963
 8538SOL     OW26512   5.501   0.985   5.687
 8538SOL    HW126513   5.473   0.950   5.776
 8538SOL    HW226514   5.515   0.909   5.623
 8539SOL     OW26515   0.209   2.836   3.026
 8539SOL    HW126516   0.258   2.804   3.107
 8539SOL    HW226517   0.111   2.843   3.046
 8540SOL     OW26518   3.933   6.757   6.799
 8540SOL    HW126519   3.925   6.703   6.883
 8540SOL    HW226520   3.952   6.695   6.722
 8541SOL     OW26521   3.254   6.434   5.101
 8541SOL    HW126522   3.279   6.523   5.139
 8541SOL    HW226523   3.206   6.380   5.169
 8542SOL     OW26524   0.982   5.006   5.592
 8542SOL    HW126525   1.078   5.002   5.565
 8542SOL    HW226526   0.972   4.971   5.685
 8543SOL     OW26527   2.561   2.602   5.593
 8543SOL    HW126528   2.649   2.555   5.587
 8543SOL    HW226529   2.513   2.572   5.675
 8544SOL     OW26530   5.105   5.089   5.464
 8544SOL    HW126531   5.181   5.138   5.420
 8544SOL    HW226532   5.111   5.101   5.563
 8545SOL     OW26533   2.152   6.697   6.557
 8545SOL    HW126534   2.080   6.729   6.619
 8545SOL    HW226535   2.117   6.693   6.464
 8546SOL     OW26536   4.420   1.065   2.944
 8546SOL    HW126537   4.478   1.145   2.927
 8546SOL    HW226538   4.475   0.982   2.934
 8547SOL     OW26539   5.440   6.530   6.083
 8547SOL    HW126540   5.454   6.620   6.123
 8547SOL    HW226541   5.527   6.480   6.081
 8548SOL     OW26542   0.571   4.304   4.699
 8548SOL    HW126543   0.624   4.242   4.756
 8548SOL    HW226544   0.629   4.343   4.627
 8549SOL     OW26545   0.955   0.080   3.945
 8549SOL    HW126546   0.940   0.035   4.033
 8549SOL    HW226547   0.866   0.097   3.901
 8550SOL     OW26548   6.957   5.022   5.758
 8550SOL    HW126549   6.879   4.975   5.798
 8550SOL    HW226550   6.925   5.088   5.690
 8551SOL     OW26551   3.378   0.226   5.076
 8551SOL    HW126552   3.310   0.154   5.062
 8551SOL    HW226553   3.341   0.295   5.138
 8552SOL     OW26554   2.984   1.521   1.929
 8552SOL    HW126555   3.063   1.469   1.896
 8552SOL    HW226556   3.007   1.618   1.932
 8553SOL     OW26557   4.959   3.680   0.539
 8553SOL    HW126558   4.918   3.708   0.627
 8553SOL    HW226559   4.888   3.681   0.468
 8554SOL     OW26560   1.697   0.780   0.381
 8554SOL    HW126561   1.700   0.868   0.428
 8554SOL    HW226562   1.678   0.707   0.447
 8555SOL     OW26563   4.446   1.840   3.798
 8555SOL    HW126564   4.407   1.813   3.710
 8555SOL    HW226565   4.373   1.874   3.857
 8556SOL     OW26566   0.590   5.400   5.941
 8556SOL    HW126567   0.570   5.498   5.934
 8556SOL    HW226568   0.572   5.356   5.853
 8557SOL     OW26569   7.005   0.277   6.707
 8557SOL    HW126570   0.041   0.288   6.790
 8557SOL    HW226571   0.043   0.291   6.626
 8558SOL     OW26572   3.041   5.422   4.141
 8558SOL    HW126573   3.090   5.336   4.154
 8558SOL    HW226574   3.030   5.468   4.230
 8559SOL     OW26575   1.512   4.094   2.453
 8559SOL    HW126576   1.584   4.133   2.396
 8559SOL    HW226577   1.542   4.092   2.549
 8560SOL     OW26578   2.893   3.962   0.582
 8560SOL    HW126579   2.951   4.025   0.530
 8560SOL    HW226580   2.937   3.941   0.669
 8561SOL     OW26581   3.608   0.769   2.818
 8561SOL    HW126582   3.541   0.703   2.784
 8561SOL    HW226583   3.605   0.770   2.918
 8562SOL     OW26584   5.044   2.598   6.867
 8562SOL    HW126585   5.104   2.571   6.942
 8562SOL    HW226586   4.999   2.684   6.889
 8563SOL     OW26587   3.025   5.179   2.354
 8563SOL    HW126588   3.014   5.161   2.256
 8563SOL    HW226589   3.072   5.267   2.366
 8564SOL     OW26590   4.083   6.802   0.652
 8564SOL    HW126591   4.002   6.859   0.666
 8564SOL    HW226592   4.056   6.713   0.616
 8565SOL     OW26593   1.148   4.729   1.446
 8565SOL    HW126594   1.126   4.740   1.350
 8565SOL    HW226595   1.174   4.817   1.485
 8566SOL     OW26596   3.364   0.642   2.374
 8566SOL    HW126597   3.455   0.650   2.415
 8566SOL    HW226598   3.300   0.701   2.424
 8567SOL     OW26599   1.455   2.202   2.108
 8567SOL    HW126600   1.538   2.147   2.106
 8567SOL    HW226601   1.476   2.297   2.085
 8568SOL     OW26602   6.278   0.715   6.280
 8568SOL    HW126603   6.377   0.701   6.277
 8568SOL    HW226604   6.249   0.761   6.197
 8569SOL     OW26605   4.899   2.325   0.370
 8569SOL    HW126606   4.883   2.250   0.433
 8569SOL    HW226607   4.862   2.302   0.280
 8570SOL     OW26608   2.493   2.197   2.040
 8570SOL    HW126609   2.571   2.216   1.981
 8570SOL    HW226610   2.408   2.218   1.991
 8571SOL     OW26611   2.135   0.408   2.856
 8571SOL    HW126612   2.223   0.368   2.829
 8571SOL    HW226613   2.117   0.388   2.952
 8572SOL     OW26614   2.914   4.142   5.655
 8572SOL    HW126615   3.007   4.110   5.641
 8572SOL    HW226616   2.915   4.238   5.683
 8573SOL     OW26617   2.563   6.102   6.613
 8573SOL    HW126618   2.609   6.078   6.698
 8573SOL    HW226619   2.541   6.199   6.613
 8574SOL     OW26620   5.079   0.989   5.445
 8574SOL    HW126621   4.997   1.040   5.473
 8574SOL    HW226622   5.071   0.894   5.476
 8575SOL     OW26623   3.354   6.039   4.010
 8575SOL    HW126624   3.360   6.117   3.947
 8575SOL    HW226625   3.326   6.070   4.100
 8576SOL     OW26626   1.791   4.700   4.198
 8576SOL    HW126627   1.772   4.613   4.152
 8576SOL    HW226628   1.879   4.695   4.244
 8577SOL     OW26629   1.513   1.098   0.610
 8577SOL    HW126630   1.601   1.076   0.569
 8577SOL    HW226631   1.482   1.020   0.665
 8578SOL     OW26632   1.227   0.066   6.922
 8578SOL    HW126633   1.230   0.162   6.893
 8578SOL    HW226634   1.254   0.007   6.847
 8579SOL     OW26635   2.890   6.959   2.580
 8579SOL    HW126636   2.795   6.971   2.608
 8579SOL    HW226637   2.926   0.027   2.548
 8580SOL     OW26638   1.486   0.603   1.976
 8580SOL    HW126639   1.411   0.557   1.930
 8580SOL    HW226640   1.450   0.671   2.041
 8581SOL     OW26641   3.347   4.435   1.175
 8581SOL    HW126642   3.398   4.350   1.164
 8581SOL    HW226643   3.321   4.447   1.270
 8582SOL     OW26644   3.919   5.401   5.345
 8582SOL    HW126645   3.863   5.425   5.265
 8582SOL    HW226646   3.958   5.485   5.384
 8583SOL     OW26647   3.560   6.795   3.016
 8583SOL    HW126648   3.643   6.765   2.971
 8583SOL    HW226649   3.510   6.857   2.957
 8584SOL     OW26650   6.216   1.538   4.442
 8584SOL    HW126651   6.248   1.443   4.448
 8584SOL    HW226652   6.294   1.598   4.427
 8585SOL     OW26653   5.405   2.857   2.776
 8585SOL    HW126654   5.388   2.827   2.683
 8585SOL    HW226655   5.464   2.791   2.823
 8586SOL     OW26656   6.605   5.875   6.328
 8586SOL    HW126657   6.676   5.854   6.261
 8586SOL    HW226658   6.633   5.842   6.418
 8587SOL     OW26659   0.051   2.125   0.261
 8587SOL    HW126660   6.996   2.186   0.289
 8587SOL    HW226661   0.016   2.058   0.195
 8588SOL     OW26662   2.760   0.339   5.556
 8588SOL    HW126663   2.820   0.391   5.616
 8588SOL    HW226664   2.805   0.324   5.468
 8589SOL     OW26665   5.818   2.859   0.236
 8589SOL    HW126666   5.763   2.831   0.158
 8589SOL    HW226667   5.879   2.934   0.208
 8590SOL     OW26668   0.253   1.093   4.173
 8590SOL    HW126669   0.340   1.098   4.124
 8590SOL    HW226670   0.264   1.034   4.253
 8591SOL     OW26671   6.497   4.663   5.856
 8591SOL    HW126672   6.491   4.599   5.933
 8591SOL    HW226673   6.509   4.611   5.771
 8592SOL     OW26674   0.334   1.969   4.042
 8592SOL    HW126675   0.332   1.951   4.140
 8592SOL    HW226676   0.351   2.066   4.026
 8593SOL     OW26677   5.596   1.477   6.866
 8593SOL    HW126678   5.658   1.419   6.919
 8593SOL    HW226679   5.600   1.450   6.770
 8594SOL     OW26680   6.208   3.605   6.598
 8594SOL    HW126681   6.230   3.532   6.533
 8594SOL    HW226682   6.227   3.693   6.557
 8595SOL     OW26683   5.709   6.521   3.113
 8595SOL    HW126684   5.769   6.551   3.187
 8595SOL    HW226685   5.764   6.501   3.032
 8596SOL     OW26686   0.598   1.462   3.932
 8596SOL    HW126687   0.612   1.558   3.909
 8596SOL    HW226688   0.569   1.455   4.027
 8597SOL     OW26689   6.021   3.056   5.846
 8597SOL    HW126690   5.951   2.995   5.884
 8597SOL    HW226691   6.110   3.032   5.885
 8598SOL     OW26692   6.268   0.389   5.068
 8598SOL    HW126693   6.234   0.483   5.075
 8598SOL    HW226694   6.218   0.331   5.131
 8599SOL     OW26695   6.780   3.688   4.025
 8599SOL    HW126696   6.821   3.683   4.116
 8599SOL    HW226697   6.826   3.624   3.964
 8600SOL     OW26698   4.659   2.348   0.921
 8600SOL    HW126699   4.692   2.431   0.968
 8600SOL    HW226700   4.736   2.303   0.876
 8601SOL     OW26701   6.359   6.299   3.624
 8601SOL    HW126702   6.270   6.254   3.628
 8601SOL    HW226703   6.375   6.333   3.531
 8602SOL     OW26704   1.909   6.513   6.184
 8602SOL    HW126705   1.934   6.535   6.090
 8602SOL    HW226706   1.894   6.414   6.191
 8603SOL     OW26707   1.149   0.318   0.014
 8603SOL    HW126708   1.206   0.360   6.963
 8603SOL    HW226709   1.133   0.222   7.011
 8604SOL     OW26710   1.532   4.855   5.915
 8604SOL    HW126711   1.471   4.777   5.915
 8604SOL    HW226712   1.481   4.938   5.893
 8605SOL     OW26713   0.202   5.071   4.385
 8605SOL    HW126714   0.174   5.037   4.295
 8605SOL    HW226715   0.176   5.005   4.455
 8606SOL     OW26716   1.855   2.193   0.311
 8606SOL    HW126717   1.939   2.217   0.358
 8606SOL    HW226718   1.778   2.196   0.374
 8607SOL     OW26719   1.824   3.728   1.267
 8607SOL    HW126720   1.819   3.632   1.295
 8607SOL    HW226721   1.869   3.734   1.178
 8608SOL     OW26722   1.851   6.375   2.618
 8608SOL    HW126723   1.753   6.356   2.621
 8608SOL    HW226724   1.867   6.470   2.643
 8609SOL     OW26725   3.872   1.667   4.616
 8609SOL    HW126726   3.783   1.694   4.578
 8609SOL    HW226727   3.926   1.749   4.636
 8610SOL     OW26728   0.319   6.072   3.310
 8610SOL    HW126729   0.341   6.169   3.316
 8610SOL    HW226730   0.308   6.047   3.214
 8611SOL     OW26731   2.350   1.089   4.986
 8611SOL    HW126732   2.279   1.144   4.941
 8611SOL    HW226733   2.436   1.140   4.985
 8612SOL     OW26734   3.250   2.920   4.215
 8612SOL    HW126735   3.197   2.888   4.293
 8612SOL    HW226736   3.336   2.961   4.248
 8613SOL     OW26737   4.015   3.213   2.791
 8613SOL    HW126738   4.043   3.233   2.697
 8613SOL    HW226739   4.036   3.291   2.849
 8614SOL     OW26740   0.867   2.469   3.295
 8614SOL    HW126741   0.782   2.416   3.292
 8614SOL    HW226742   0.880   2.507   3.386
 8615SOL     OW26743   3.339   1.684   5.084
 8615SOL    HW126744   3.358   1.601   5.031
 8615SOL    HW226745   3.422   1.740   5.089
 8616SOL     OW26746   5.382   4.202   3.680
 8616SOL    HW126747   5.474   4.185   3.646
 8616SOL    HW226748   5.334   4.115   3.694
 8617SOL     OW26749   2.223   0.355   3.680
 8617SOL    HW126750   2.317   0.321   3.684
 8617SOL    HW226751   2.159   0.280   3.695
 8618SOL     OW26752   5.375   4.175   1.453
 8618SOL    HW126753   5.395   4.259   1.403
 8618SOL    HW226754   5.369   4.194   1.551
 8619SOL     OW26755   5.343   5.190   0.818
 8619SOL    HW126756   5.385   5.103   0.792
 8619SOL    HW226757   5.392   5.228   0.896
 8620SOL     OW26758   2.136   0.323   4.416
 8620SOL    HW126759   2.207   0.294   4.480
 8620SOL    HW226760   2.046   0.313   4.460
 8621SOL     OW26761   5.234   3.454   1.471
 8621SOL    HW126762   5.204   3.547   1.452
 8621SOL    HW226763   5.160   3.404   1.517
 8622SOL     OW26764   0.079   5.251   2.502
 8622SOL    HW126765   0.143   5.225   2.430
 8622SOL    HW226766   0.000   5.298   2.461
 8623SOL     OW26767   1.599   2.794   3.934
 8623SOL    HW126768   1.680   2.776   3.878
 8623SOL    HW226769   1.623   2.856   4.009
 8624SOL     OW26770   3.615   3.668   4.862
 8624SOL    HW126771   3.516   3.675   4.876
 8624SOL    HW226772   3.662   3.702   4.943
 8625SOL     OW26773   3.520   2.843   5.174
 8625SOL    HW126774   3.467   2.827   5.091
 8625SOL    HW226775   3.474   2.801   5.252
 8626SOL     OW26776   3.880   2.568   1.175
 8626SOL    HW126777   3.976   2.564   1.203
 8626SOL    HW226778   3.823   2.527   1.246
 8627SOL     OW26779   2.165   1.641   2.479
 8627SOL    HW126780   2.136   1.589   2.559
 8627SOL    HW226781   2.096   1.633   2.407
 8628SOL     OW26782   1.148   6.517   0.613
 8628SOL    HW126783   1.205   6.471   0.545
 8628SOL    HW226784   1.205   6.556   0.685
 8629SOL     OW26785   0.529   6.600   4.669
 8629SOL    HW126786   0.617   6.565   4.702
 8629SOL    HW226787   0.484   6.530   4.614
 8630SOL     OW26788   4.718   2.734   2.080
 8630SOL    HW126789   4.664   2.718   2.162
 8630SOL    HW226790   4.735   2.832   2.070
 8631SOL     OW26791   2.579   6.064   6.121
 8631SOL    HW126792   2.660   6.029   6.074
 8631SOL    HW226793   2.541   5.992   6.180
 8632SOL     OW26794   5.658   5.880   4.162
 8632SOL    HW126795   5.614   5.957   4.116
 8632SOL    HW226796   5.697   5.910   4.249
 8633SOL     OW26797   6.086   3.748   5.141
 8633SOL    HW126798   6.060   3.787   5.053
 8633SOL    HW226799   6.004   3.729   5.195
 8634SOL     OW26800   5.181   4.142   0.176
 8634SOL    HW126801   5.154   4.049   0.201
 8634SOL    HW226802   5.123   4.207   0.226
 8635SOL     OW26803   5.542   2.597   6.850
 8635SOL    HW126804   5.603   2.616   6.774
 8635SOL    HW226805   5.447   2.605   6.821
 8636SOL     OW26806   4.731   6.398   1.655
 8636SOL    HW126807   4.699   6.488   1.623
 8636SOL    HW226808   4.805   6.411   1.721
 8637SOL     OW26809   2.082   1.793   6.085
 8637SOL    HW126810   2.171   1.839   6.086
 8637SOL    HW226811   2.043   1.798   5.993
 8638SOL     OW26812   4.833   2.811   3.580
 8638SOL    HW126813   4.916   2.804   3.525
 8638SOL    HW226814   4.831   2.901   3.625
 8639SOL     OW26815   3.966   3.617   0.077
 8639SOL    HW126816   4.007   3.677   0.146
 8639SOL    HW226817   4.036   3.588   0.012
 8640SOL     OW26818   3.150   3.135   0.878
 8640SOL    HW126819   3.090   3.080   0.818
 8640SOL    HW226820   3.230   3.081   0.903
 8641SOL     OW26821   4.092   4.949   2.140
 8641SOL    HW126822   4.185   4.917   2.160
 8641SOL    HW226823   4.036   4.939   2.222
 8642SOL     OW26824   1.022   6.036   3.115
 8642SOL    HW126825   0.949   6.098   3.086
 8642SOL    HW226826   1.101   6.047   3.055
 8643SOL     OW26827   3.803   6.890   0.723
 8643SOL    HW126828   3.840   6.954   0.789
 8643SOL    HW226829   3.703   6.899   0.719
 8644SOL     OW26830   6.122   2.569   5.928
 8644SOL    HW126831   6.040   2.567   5.986
 8644SOL    HW226832   6.202   2.546   5.983
 8645SOL     OW26833   5.962   5.553   3.109
 8645SOL    HW126834   5.996   5.646   3.121
 8645SOL    HW226835   5.954   5.533   3.011
 8646SOL     OW26836   6.543   2.519   4.782
 8646SOL    HW126837   6.564   2.436   4.835
 8646SOL    HW226838   6.463   2.564   4.821
 8647SOL     OW26839   2.228   5.671   1.674
 8647SOL    HW126840   2.162   5.626   1.614
 8647SOL    HW226841   2.281   5.601   1.723
 8648SOL     OW26842   5.054   5.003   0.688
 8648SOL    HW126843   5.023   5.048   0.604
 8648SOL    HW226844   5.038   4.905   0.681
 8649SOL     OW26845   5.456   1.045   1.326
 8649SOL    HW126846   5.495   0.968   1.376
 8649SOL    HW226847   5.530   1.102   1.288
 8650SOL     OW26848   2.258   6.829   5.296
 8650SOL    HW126849   2.188   6.773   5.340
 8650SOL    HW226850   2.275   6.911   5.352
 8651SOL     OW26851   4.042   2.663   1.606
 8651SOL    HW126852   3.953   2.633   1.572
 8651SOL    HW226853   4.100   2.583   1.620
 8652SOL     OW26854   0.714   2.743   3.340
 8652SOL    HW126855   0.680   2.655   3.374
 8652SOL    HW226856   0.717   2.740   3.240
 8653SOL     OW26857   6.328   1.699   6.433
 8653SOL    HW126858   6.394   1.727   6.503
 8653SOL    HW226859   6.247   1.659   6.477
 8654SOL     OW26860   0.497   4.313   2.451
 8654SOL    HW126861   0.426   4.324   2.521
 8654SOL    HW226862   0.483   4.227   2.402
 8655SOL     OW26863   0.369   0.189   4.599
 8655SOL    HW126864   0.412   0.190   4.690
 8655SOL    HW226865   0.401   0.109   4.549
 8656SOL     OW26866   5.381   6.714   1.339
 8656SOL    HW126867   5.289   6.676   1.334
 8656SOL    HW226868   5.388   6.775   1.418
 8657SOL     OW26869   3.624   1.817   3.936
 8657SOL    HW126870   3.553   1.877   3.899
 8657SOL    HW226871   3.706   1.871   3.956
 8658SOL     OW26872   5.377   4.438   1.356
 8658SOL    HW126873   5.285   4.412   1.328
 8658SOL    HW226874   5.373   4.505   1.429
 8659SOL     OW26875   3.236   0.902   2.139
 8659SOL    HW126876   3.334   0.917   2.124
 8659SOL    HW226877   3.214   0.916   2.235
 8660SOL     OW26878   0.310   4.799   2.035
 8660SOL    HW126879   0.271   4.865   1.971
 8660SOL    HW226880   0.309   4.708   1.994
 8661SOL     OW26881   6.774   3.444   2.362
 8661SOL    HW126882   6.791   3.519   2.426
 8661SOL    HW226883   6.855   3.386   2.355
 8662SOL     OW26884   1.830   3.116   3.148
 8662SOL    HW126885   1.882   3.153   3.224
 8662SOL    HW226886   1.803   3.190   3.086
 8663SOL     OW26887   3.812   5.313   2.608
 8663SOL    HW126888   3.887   5.310   2.542
 8663SOL    HW226889   3.756   5.394   2.590
 8664SOL     OW26890   4.146   5.967   3.336
 8664SOL    HW126891   4.090   6.033   3.286
 8664SOL    HW226892   4.124   5.875   3.305
 8665SOL     OW26893   5.273   3.525   6.569
 8665SOL    HW126894   5.276   3.584   6.488
 8665SOL    HW226895   5.226   3.572   6.643
 8666SOL     OW26896   4.405   6.762   2.677
 8666SOL    HW126897   4.308   6.753   2.697
 8666SOL    HW226898   4.457   6.759   2.762
 8667SOL     OW26899   5.171   2.047   2.790
 8667SOL    HW126900   5.085   2.093   2.768
 8667SOL    HW226901   5.229   2.108   2.844
 8668SOL     OW26902   4.834   2.370   5.148
 8668SOL    HW126903   4.841   2.377   5.248
 8668SOL    HW226904   4.844   2.274   5.121
 8669SOL     OW26905   6.268   6.423   6.228
 8669SOL    HW126906   6.278   6.357   6.303
 8669SOL    HW226907   6.342   6.490   6.234
 8670SOL     OW26908   6.517   4.895   5.359
 8670SOL    HW126909   6.487   4.802   5.335
 8670SOL    HW226910   6.617   4.897   5.366
 8671SOL     OW26911   0.410   3.054   3.070
 8671SOL    HW126912   0.399   3.125   3.000
 8671SOL    HW226913   0.337   2.987   3.062
 8672SOL     OW26914   6.934   0.898   2.258
 8672SOL    HW126915   0.001   0.944   2.274
 8672SOL    HW226916   6.871   0.961   2.211
 8673SOL     OW26917   1.306   2.346   1.148
 8673SOL    HW126918   1.406   2.348   1.143
 8673SOL    HW226919   1.273   2.426   1.197
 8674SOL     OW26920   6.977   3.787   3.128
 8674SOL    HW126921   6.969   3.688   3.138
 8674SOL    HW226922   6.928   3.832   3.203
 8675SOL     OW26923   4.192   2.253   4.844
 8675SOL    HW126924   4.228   2.294   4.760
 8675SOL    HW226925   4.211   2.313   4.922
 8676SOL     OW26926   4.755   1.717   0.543
 8676SOL    HW126927   4.818   1.675   0.609
 8676SOL    HW226928   4.736   1.653   0.469
 8677SOL     OW26929   2.204   6.858   6.001
 8677SOL    HW126930   2.166   6.770   5.972
 8677SOL    HW226931   2.154   6.932   5.956
 8678SOL     OW26932   2.355   2.489   0.196
 8678SOL    HW126933   2.285   2.508   0.126
 8678SOL    HW226934   2.445   2.484   0.152
 8679SOL     OW26935   1.350   2.021   6.139
 8679SOL    HW126936   1.448   1.999   6.136
 8679SOL    HW226937   1.326   2.055   6.230
 8680SOL     OW26938   0.074   0.607   0.220
 8680SOL    HW126939   0.075   0.542   0.296
 8680SOL    HW226940   7.000   0.634   0.199
 8681SOL     OW26941   5.067   5.889   0.884
 8681SOL    HW126942   5.044   5.820   0.815
 8681SOL    HW226943   5.164   5.912   0.876
 8682SOL     OW26944   2.441   0.747   2.325
 8682SOL    HW126945   2.482   0.655   2.323
 8682SOL    HW226946   2.428   0.779   2.231
 8683SOL     OW26947   2.487   4.516   4.677
 8683SOL    HW126948   2.533   4.462   4.747
 8683SOL    HW226949   2.405   4.467   4.645
 8684SOL     OW26950   2.240   4.111   3.921
 8684SOL    HW126951   2.239   4.045   3.997
 8684SOL    HW226952   2.204   4.198   3.953
 8685SOL     OW26953   4.588   2.668   4.570
 8685SOL    HW126954   4.648   2.736   4.612
 8685SOL    HW226955   4.554   2.606   4.641
 8686SOL     OW26956   1.278   5.283   3.260
 8686SOL    HW126957   1.323   5.348   3.198
 8686SOL    HW226958   1.284   5.191   3.221
 8687SOL     OW26959   5.675   4.563   5.069
 8687SOL    HW126960   5.744   4.603   5.130
 8687SOL    HW226961   5.618   4.636   5.031
 8688SOL     OW26962   1.566   3.625   5.332
 8688SOL    HW126963   1.490   3.688   5.347
 8688SOL    HW226964   1.623   3.622   5.414
 8689SOL     OW26965   3.893   3.017   0.350
 8689SOL    HW126966   3.830   3.073   0.296
 8689SOL    HW226967   3.884   3.040   0.447
 8690SOL     OW26968   1.511   1.837   2.260
 8690SOL    HW126969   1.414   1.820   2.245
 8690SOL    HW226970   1.527   1.855   2.357
 8691SOL     OW26971   3.523   2.980   5.522
 8691SOL    HW126972   3.530   2.970   5.622
 8691SOL    HW226973   3.594   3.044   5.490
 8692SOL     OW26974   4.831   2.270   4.764
 8692SOL    HW126975   4.808   2.363   4.791
 8692SOL    HW226976   4.755   2.230   4.714
 8693SOL     OW26977   6.777   6.717   5.922
 8693SOL    HW126978   6.845   6.651   5.890
 8693SOL    HW226979   6.708   6.670   5.977
 8694SOL     OW26980   5.244   2.963   5.459
 8694SOL    HW126981   5.212   3.053   5.431
 8694SOL    HW226982   5.331   2.944   5.414
 8695SOL     OW26983   3.481   4.839   0.650
 8695SOL    HW126984   3.415   4.904   0.686
 8695SOL    HW226985   3.571   4.882   0.645
 8696SOL     OW26986   2.731   5.399   5.760
 8696SOL    HW126987   2.666   5.349   5.818
 8696SOL    HW226988   2.712   5.497   5.766
 8697SOL     OW26989   1.637   3.853   5.482
 8697SOL    HW126990   1.685   3.929   5.439
 8697SOL    HW226991   1.539   3.860   5.463
 8698SOL     OW26992   4.649   5.126   6.367
 8698SOL    HW126993   4.638   5.100   6.271
 8698SOL    HW226994   4.746   5.136   6.389
 8699SOL     OW26995   1.733   2.392   6.775
 8699SOL    HW126996   1.703   2.487   6.785
 8699SOL    HW226997   1.808   2.374   6.839
 8700SOL     OW26998   1.222   1.075   4.494
 8700SOL    HW126999   1.316   1.047   4.478
 8700SOL    HW227000   1.166   0.994   4.515
 8701SOL     OW27001   1.452   2.748   6.793
 8701SOL    HW127002   1.387   2.678   6.825
 8701SOL    HW227003   1.544   2.709   6.791
 8702SOL     OW27004   5.373   4.596   0.958
 8702SOL    HW127005   5.457   4.651   0.959
 8702SOL    HW227006   5.324   4.610   1.044
 8703SOL     OW27007   3.353   5.846   0.863
 8703SOL    HW127008   3.404   5.929   0.888
 8703SOL    HW227009   3.347   5.839   0.764
 8704SOL     OW27010   0.231   0.801   4.844
 8704SOL    HW127011   0.214   0.885   4.793
 8704SOL    HW227012   0.172   0.728   4.809
 8705SOL     OW27013   4.043   2.126   6.945
 8705SOL    HW127014   3.947   2.107   6.962
 8705SOL    HW227015   4.067   2.215   6.984
 8706SOL     OW27016   4.787   2.776   6.291
 8706SOL    HW127017   4.824   2.728   6.370
 8706SOL    HW227018   4.863   2.808   6.234
 8707SOL     OW27019   2.540   1.044   4.275
 8707SOL    HW127020   2.476   1.023   4.201
 8707SOL    HW227021   2.530   0.977   4.348
 8708SOL     OW27022   6.100   2.446   0.680
 8708SOL    HW127023   6.012   2.399   0.686
 8708SOL    HW227024   6.146   2.441   0.768
 8709SOL     OW27025   5.937   6.688   4.968
 8709SOL    HW127026   5.932   6.787   4.977
 8709SOL    HW227027   5.922   6.646   5.058
 8710SOL     OW27028   2.177   1.661   3.591
 8710SOL    HW127029   2.261   1.705   3.621
 8710SOL    HW227030   2.137   1.610   3.667
 8711SOL     OW27031   1.214   1.573   1.952
 8711SOL    HW127032   1.197   1.571   1.854
 8711SOL    HW227033   1.145   1.518   1.999
 8712SOL     OW27034   1.613   4.406   4.881
 8712SOL    HW127035   1.706   4.386   4.911
 8712SOL    HW227036   1.553   4.414   4.960
 8713SOL     OW27037   0.050   3.502   1.089
 8713SOL    HW127038   0.071   3.463   1.179
 8713SOL    HW227039   0.123   3.478   1.025
 8714SOL     OW27040   6.343   4.484   6.362
 8714SOL    HW127041   6.314   4.570   6.405
 8714SOL    HW227042   6.383   4.424   6.431
 8715SOL     OW27043   1.975   3.788   1.625
 8715SOL    HW127044   1.984   3.708   1.565
 8715SOL    HW227045   1.881   3.822   1.620
 8716SOL     OW27046   6.814   0.348   2.496
 8716SOL    HW127047   6.752   0.270   2.501
 8716SOL    HW227048   6.870   0.352   2.579
 8717SOL     OW27049   2.892   3.097   6.818
 8717SOL    HW127050   2.814   3.041   6.842
 8717SOL    HW227051   2.977   3.052   6.848
 8718SOL     OW27052   3.009   5.233   6.398
 8718SOL    HW127053   3.072   5.279   6.336
 8718SOL    HW227054   3.056   5.209   6.483
 8719SOL     OW27055   3.583   0.934   4.358
 8719SOL    HW127056   3.486   0.909   4.350
 8719SOL    HW227057   3.633   0.899   4.279
 8720SOL     OW27058   0.389   5.604   4.701
 8720SOL    HW127059   0.479   5.562   4.715
 8720SOL    HW227060   0.326   5.536   4.664
 8721SOL     OW27061   0.375   6.817   0.306
 8721SOL    HW127062   0.461   6.772   0.286
 8721SOL    HW227063   0.330   6.845   0.221
 8722SOL     OW27064   2.985   1.264   1.054
 8722SOL    HW127065   3.067   1.251   0.999
 8722SOL    HW227066   3.011   1.279   1.150
 8723SOL     OW27067   3.487   6.633   2.125
 8723SOL    HW127068   3.572   6.683   2.108
 8723SOL    HW227069   3.506   6.553   2.183
 8724SOL     OW27070   3.688   1.439   4.809
 8724SOL    HW127071   3.768   1.491   4.779
 8724SOL    HW227072   3.696   1.345   4.778
 8725SOL     OW27073   6.858   0.246   3.763
 8725SOL    HW127074   6.931   0.218   3.825
 8725SOL    HW227075   6.871   0.202   3.674
 8726SOL     OW27076   6.614   1.211   1.161
 8726SOL    HW127077   6.706   1.193   1.196
 8726SOL    HW227078   6.615   1.294   1.106
 8727SOL     OW27079   5.220   6.239   6.966
 8727SOL    HW127080   5.170   6.278   6.889
 8727SOL    HW227081   5.193   6.144   6.979
 8728SOL     OW27082   6.232   0.243   4.833
 8728SOL    HW127083   6.255   0.280   4.923
 8728SOL    HW227084   6.280   0.156   4.819
 8729SOL     OW27085   5.905   5.957   6.421
 8729SOL    HW127086   5.808   5.956   6.446
 8729SOL    HW227087   5.948   5.873   6.452
 8730SOL     OW27088   4.678   5.237   1.184
 8730SOL    HW127089   4.601   5.266   1.127
 8730SOL    HW227090   4.752   5.305   1.176
 8731SOL     OW27091   0.092   1.301   3.905
 8731SOL    HW127092   0.187   1.307   3.877
 8731SOL    HW227093   0.050   1.220   3.864
 8732SOL     OW27094   5.601   6.624   6.805
 8732SOL    HW127095   5.562   6.711   6.775
 8732SOL    HW227096   5.629   6.631   6.900
 8733SOL     OW27097   6.576   4.487   2.253
 8733SOL    HW127098   6.644   4.549   2.213
 8733SOL    HW227099   6.491   4.493   2.200
 8734SOL     OW27100   0.792   4.208   1.033
 8734SOL    HW127101   0.771   4.304   1.053
 8734SOL    HW227102   0.731   4.150   1.087
 8735SOL     OW27103   0.353   3.207   4.880
 8735SOL    HW127104   0.360   3.306   4.889
 8735SOL    HW227105   0.426   3.164   4.933
 8736SOL     OW27106   1.490   5.909   3.067
 8736SOL    HW127107   1.465   5.842   3.136
 8736SOL    HW227108   1.586   5.898   3.043
 8737SOL     OW27109   1.154   5.779   0.241
 8737SOL    HW127110   1.136   5.703   0.179
 8737SOL    HW227111   1.067   5.816   0.274
 8738SOL     OW27112   1.299   2.779   2.740
 8738SOL    HW127113   1.209   2.816   2.764
 8738SOL    HW227114   1.356   2.773   2.822
 8739SOL     OW27115   6.095   5.058   4.320
 8739SOL    HW127116   6.077   5.136   4.260
 8739SOL    HW227117   6.011   5.007   4.335
 8740SOL     OW27118   3.297   1.121   4.053
 8740SOL    HW127119   3.362   1.153   3.984
 8740SOL    HW227120   3.273   1.197   4.114
 8741SOL     OW27121   1.204   1.593   2.619
 8741SOL    HW127122   1.248   1.535   2.689
 8741SOL    HW227123   1.115   1.624   2.652
 8742SOL     OW27124   2.635   2.210   1.635
 8742SOL    HW127125   2.658   2.140   1.702
 8742SOL    HW227126   2.633   2.169   1.543
 8743SOL     OW27127   0.944   2.799   1.147
 8743SOL    HW127128   0.911   2.704   1.143
 8743SOL    HW227129   0.994   2.813   1.233
 8744SOL     OW27130   3.330   3.881   5.641
 8744SOL    HW127131   3.310   3.850   5.734
 8744SOL    HW227132   3.426   3.863   5.620
 8745SOL     OW27133   6.009   1.956   5.768
 8745SOL    HW127134   6.000   1.861   5.800
 8745SOL    HW227135   6.078   2.003   5.821
 8746SOL     OW27136   4.181   4.676   5.413
 8746SOL    HW127137   4.222   4.749   5.468
 8746SOL    HW227138   4.135   4.611   5.473
 8747SOL     OW27139   1.230   0.557   3.179
 8747SOL    HW127140   1.175   0.591   3.255
 8747SOL    HW227141   1.171   0.505   3.117
 8748SOL     OW27142   5.507   2.149   4.862
 8748SOL    HW127143   5.481   2.135   4.767
 8748SOL    HW227144   5.468   2.235   4.895
 8749SOL     OW27145   2.988   1.315   4.158
 8749SOL    HW127146   3.085   1.323   4.138
 8749SOL    HW227147   2.971   1.232   4.210
 8750SOL     OW27148   3.672   3.922   0.952
 8750SOL    HW127149   3.734   3.844   0.950
 8750SOL    HW227150   3.582   3.892   0.983
 8751SOL     OW27151   2.867   6.736   0.427
 8751SOL    HW127152   2.895   6.770   0.337
 8751SOL    HW227153   2.944   6.738   0.489
 8752SOL     OW27154   6.962   2.724   5.497
 8752SOL    HW127155   0.029   2.721   5.546
 8752SOL    HW227156   6.979   2.742   5.400
 8753SOL     OW27157   2.610   2.641   0.757
 8753SOL    HW127158   2.622   2.681   0.666
 8753SOL    HW227159   2.608   2.541   0.750
 8754SOL     OW27160   1.272   5.359   0.108
 8754SOL    HW127161   1.254   5.269   0.069
 8754SOL    HW227162   1.212   5.426   0.064
 8755SOL     OW27163   0.422   2.578   2.291
 8755SOL    HW127164   0.364   2.514   2.342
 8755SOL    HW227165   0.364   2.644   2.243
 8756SOL     OW27166   1.985   1.604   2.271
 8756SOL    HW127167   2.022   1.673   2.208
 8756SOL    HW227168   1.906   1.559   2.229
 8757SOL     OW27169   5.514   6.263   5.742
 8757SOL    HW127170   5.416   6.278   5.730
 8757SOL    HW227171   5.529   6.194   5.813
 8758SOL     OW27172   3.519   5.628   5.274
 8758SOL    HW127173   3.517   5.543   5.326
 8758SOL    HW227174   3.441   5.685   5.300
 8759SOL     OW27175   6.106   1.407   1.272
 8759SOL    HW127176   6.134   1.497   1.237
 8759SOL    HW227177   6.028   1.419   1.333
 8760SOL     OW27178   2.375   2.741   4.175
 8760SOL    HW127179   2.418   2.694   4.098
 8760SOL    HW227180   2.400   2.694   4.260
 8761SOL     OW27181   4.915   2.132   2.714
 8761SOL    HW127182   4.956   2.142   2.624
 8761SOL    HW227183   4.885   2.037   2.727
 8762SOL     OW27184   3.402   5.492   3.285
 8762SOL    HW127185   3.377   5.557   3.357
 8762SOL    HW227186   3.420   5.403   3.327
 8763SOL     OW27187   0.195   0.723   6.564
 8763SOL    HW127188   0.219   0.685   6.653
 8763SOL    HW227189   0.186   0.649   6.497
 8764SOL     OW27190   3.421   4.715   5.619
 8764SOL    HW127191   3.439   4.787   5.686
 8764SOL    HW227192   3.325   4.691   5.621
 8765SOL     OW27193   4.132   0.234   3.684
 8765SOL    HW127194   4.154   0.298   3.758
 8765SOL    HW227195   4.195   0.248   3.608
 8766SOL     OW27196   5.074   6.655   5.865
 8766SOL    HW127197   5.010   6.606   5.923
 8766SOL    HW227198   5.156   6.600   5.851
 8767SOL     OW27199   1.814   1.712   3.477
 8767SOL    HW127200   1.837   1.621   3.512
 8767SOL    HW227201   1.760   1.761   3.545
 8768SOL     OW27202   6.937   2.093   6.851
 8768SOL    HW127203   6.953   2.151   6.771
 8768SOL    HW227204   6.976   2.003   6.835
 8769SOL     OW27205   6.139   0.050   6.643
 8769SOL    HW127206   6.188   6.983   6.648
 8769SOL    HW227207   6.113   0.079   6.735
 8770SOL     OW27208   5.272   2.354   0.320
 8770SOL    HW127209   5.316   2.325   0.235
 8770SOL    HW227210   5.248   2.273   0.375
 8771SOL     OW27211   0.248   2.389   6.598
 8771SOL    HW127212   0.224   2.485   6.581
 8771SOL    HW227213   0.218   2.333   6.521
 8772SOL     OW27214   0.273   0.381   4.988
 8772SOL    HW127215   0.345   0.449   5.001
 8772SOL    HW227216   0.184   0.426   4.992
 8773SOL     OW27217   6.882   0.740   4.471
 8773SOL    HW127218   6.979   0.730   4.449
 8773SOL    HW227219   6.865   0.834   4.501
 8774SOL     OW27220   1.242   1.858   0.219
 8774SOL    HW127221   1.265   1.849   0.316
 8774SOL    HW227222   1.303   1.801   0.165
 8775SOL     OW27223   5.100   2.686   3.750
 8775SOL    HW127224   5.001   2.691   3.742
 8775SOL    HW227225   5.137   2.632   3.674
 8776SOL     OW27226   4.149   2.683   0.564
 8776SOL    HW127227   4.246   2.704   0.581
 8776SOL    HW227228   4.099   2.685   0.650
 8777SOL     OW27229   6.865   1.767   3.543
 8777SOL    HW127230   6.805   1.735   3.470
 8777SOL    HW227231   6.959   1.741   3.522
 8778SOL     OW27232   3.237   3.963   6.734
 8778SOL    HW127233   3.298   3.993   6.807
 8778SOL    HW227234   3.286   3.903   6.671
 8779SOL     OW27235   4.163   5.050   2.730
 8779SOL    HW127236   4.131   4.991   2.656
 8779SOL    HW227237   4.250   5.017   2.764
 8780SOL     OW27238   0.478   4.370   3.709
 8780SOL    HW127239   0.570   4.403   3.730
 8780SOL    HW227240   0.464   4.371   3.610
 8781SOL     OW27241   2.426   0.691   1.244
 8781SOL    HW127242   2.390   0.598   1.255
 8781SOL    HW227243   2.376   0.754   1.303
 8782SOL     OW27244   5.864   2.315   0.675
 8782SOL    HW127245   5.871   2.344   0.579
 8782SOL    HW227246   5.779   2.263   0.687
 8783SOL     OW27247   4.818   4.472   4.786
 8783SOL    HW127248   4.819   4.548   4.722
 8783SOL    HW227249   4.909   4.429   4.788
 8784SOL     OW27250   5.063   0.771   0.878
 8784SOL    HW127251   5.141   0.835   0.881
 8784SOL    HW227252   4.984   0.813   0.922
 8785SOL     OW27253   0.099   5.506   5.064
 8785SOL    HW127254   0.023   5.571   5.059
 8785SOL    HW227255   0.177   5.549   5.110
 8786SOL     OW27256   5.386   1.419   2.845
 8786SOL    HW127257   5.373   1.421   2.944
 8786SOL    HW227258   5.483   1.412   2.824
 8787SOL     OW27259   3.773   5.876   1.310
 8787SOL    HW127260   3.740   5.877   1.215
 8787SOL    HW227261   3.695   5.885   1.372
 8788SOL     OW27262   0.546   6.584   4.009
 8788SOL    HW127263   0.631   6.582   3.956
 8788SOL    HW227264   0.471   6.548   3.954
 8789SOL     OW27265   1.028   2.184   6.029
 8789SOL    HW127266   0.983   2.232   5.954
 8789SOL    HW227267   1.127   2.190   6.018
 8790SOL     OW27268   4.046   2.932   5.396
 8790SOL    HW127269   4.098   2.990   5.460
 8790SOL    HW227270   3.992   2.867   5.448
 8791SOL     OW27271   3.563   6.152   4.330
 8791SOL    HW127272   3.519   6.234   4.292
 8791SOL    HW227273   3.552   6.076   4.266
 8792SOL     OW27274   5.567   4.579   2.371
 8792SOL    HW127275   5.598   4.522   2.447
 8792SOL    HW227276   5.531   4.666   2.407
 8793SOL     OW27277   6.768   6.415   5.380
 8793SOL    HW127278   6.688   6.475   5.390
 8793SOL    HW227279   6.743   6.335   5.325
 8794SOL     OW27280   6.935   1.163   2.697
 8794SOL    HW127281   6.971   1.257   2.704
 8794SOL    HW227282   7.003   1.099   2.733
 8795SOL     OW27283   1.216   6.330   6.807
 8795SOL    HW127284   1.191   6.381   6.890
 8795SOL    HW227285   1.176   6.374   6.727
 8796SOL     OW27286   5.769   3.889   4.723
 8796SOL    HW127287   5.783   3.978   4.679
 8796SOL    HW227288   5.783   3.817   4.655
 8797SOL     OW27289   4.367   6.670   4.304
 8797SOL    HW127290   4.286   6.683   4.362
 8797SOL    HW227291   4.426   6.601   4.344
 8798SOL     OW27292   2.800   6.655   5.636
 8798SOL    HW127293   2.832   6.595   5.709
 8798SOL    HW227294   2.708   6.628   5.608
 8799SOL     OW27295   1.835   5.655   1.941
 8799SOL    HW127296   1.759   5.703   1.986
 8799SOL    HW227297   1.803   5.568   1.905
 8800SOL     OW27298   6.149   6.287   4.923
 8800SOL    HW127299   6.051   6.300   4.936
 8800SOL    HW227300   6.166   6.255   4.830
 8801SOL     OW27301   5.628   3.537   5.222
 8801SOL    HW127302   5.547   3.595   5.231
 8801SOL    HW227303   5.710   3.590   5.245
 8802SOL     OW27304   1.120   5.748   6.566
 8802SOL    HW127305   1.204   5.731   6.516
 8802SOL    HW227306   1.051   5.786   6.504
 8803SOL     OW27307   5.967   6.202   6.278
 8803SOL    HW127308   5.889   6.239   6.329
 8803SOL    HW227309   5.987   6.109   6.310
 8804SOL     OW27310   1.671   6.243   1.931
 8804SOL    HW127311   1.715   6.201   1.852
 8804SOL    HW227312   1.609   6.315   1.900
 8805SOL     OW27313   4.798   4.768   3.570
 8805SOL    HW127314   4.751   4.846   3.527
 8805SOL    HW227315   4.749   4.683   3.547
 8806SOL     OW27316   1.306   0.207   1.488
 8806SOL    HW127317   1.324   0.111   1.470
 8806SOL    HW227318   1.285   0.221   1.585
 8807SOL     OW27319   5.956   2.700   0.821
 8807SOL    HW127320   5.930   2.794   0.844
 8807SOL    HW227321   5.912   2.673   0.735
 8808SOL     OW27322   1.821   2.300   6.098
 8808SOL    HW127323   1.731   2.341   6.083
 8808SOL    HW227324   1.851   2.320   6.191
 8809SOL     OW27325   0.125   3.353   2.977
 8809SOL    HW127326   0.081   3.265   2.994
 8809SOL    HW227327   0.183   3.377   3.055
 8810SOL     OW27328   0.693   1.537   4.967
 8810SOL    HW127329   0.667   1.442   4.949
 8810SOL    HW227330   0.611   1.591   4.985
 8811SOL     OW27331   4.222   4.748   2.388
 8811SOL    HW127332   4.252   4.783   2.300
 8811SOL    HW227333   4.301   4.717   2.441
 8812SOL     OW27334   5.439   0.969   6.545
 8812SOL    HW127335   5.466   0.938   6.454
 8812SOL    HW227336   5.342   0.949   6.560
 8813SOL     OW27337   2.131   3.412   3.209
 8813SOL    HW127338   2.108   3.476   3.282
 8813SOL    HW227339   2.153   3.322   3.247
 8814SOL     OW27340   4.906   0.022   5.354
 8814SOL    HW127341   4.940   0.066   5.437
 8814SOL    HW227342   4.978   6.985   5.315
 8815SOL     OW27343   5.895   0.914   1.309
 8815SOL    HW127344   5.823   0.950   1.250
 8815SOL    HW227345   5.860   0.839   1.365
 8816SOL     OW27346   0.816   6.313   4.587
 8816SOL    HW127347   0.793   6.384   4.653
 8816SOL    HW227348   0.777   6.226   4.617
 8817SOL     OW27349   1.414   2.920   3.251
 8817SOL    HW127350   1.441   2.845   3.312
 8817SOL    HW227351   1.381   2.997   3.305
 8818SOL     OW27352   0.973   0.138   6.389
 8818SOL    HW127353   1.042   0.131   6.316
 8818SOL    HW227354   1.012   0.103   6.474
 8819SOL     OW27355   4.270   4.857   6.341
 8819SOL    HW127356   4.297   4.803   6.421
 8819SOL    HW227357   4.305   4.950   6.351
 8820SOL     OW27358   4.190   6.763   5.654
 8820SOL    HW127359   4.182   6.689   5.587
 8820SOL    HW227360   4.115   6.829   5.639
 8821SOL     OW27361   6.958   4.434   6.211
 8821SOL    HW127362   0.027   4.442   6.167
 8821SOL    HW227363   6.888   4.477   6.153
 8822SOL     OW27364   6.420   0.532   4.903
 8822SOL    HW127365   6.496   0.486   4.855
 8822SOL    HW227366   6.379   0.468   4.968
 8823SOL     OW27367   3.502   1.777   3.184
 8823SOL    HW127368   3.442   1.796   3.106
 8823SOL    HW227369   3.459   1.812   3.268
 8824SOL     OW27370   1.526   0.215   2.975
 8824SOL    HW127371   1.439   0.169   2.992
 8824SOL    HW227372   1.515   0.314   2.989
 8825SOL     OW27373   0.178   0.130   0.725
 8825SOL    HW127374   0.083   0.103   0.743
 8825SOL    HW227375   0.228   0.052   0.688
 8826SOL     OW27376   0.521   4.857   1.095
 8826SOL    HW127377   0.444   4.803   1.061
 8826SOL    HW227378   0.538   4.835   1.191
 8827SOL     OW27379   4.284   6.916   3.014
 8827SOL    HW127380   4.198   6.906   3.063
 8827SOL    HW227381   4.268   6.960   2.926
 8828SOL     OW27382   5.146   2.549   6.424
 8828SOL    HW127383   5.141   2.623   6.356
 8828SOL    HW227384   5.054   2.524   6.453
 8829SOL     OW27385   0.129   0.923   2.781
 8829SOL    HW127386   0.078   0.837   2.782
 8829SOL    HW227387   0.206   0.916   2.718
 8830SOL     OW27388   3.476   0.413   3.409
 8830SOL    HW127389   3.492   0.470   3.328
 8830SOL    HW227390   3.385   0.371   3.402
 8831SOL     OW27391   0.226   2.739   2.199
 8831SOL    HW127392   0.126   2.739   2.194
 8831SOL    HW227393   0.261   2.820   2.152
 8832SOL     OW27394   5.741   0.001   5.830
 8832SOL    HW127395   5.668   0.044   5.777
 8832SOL    HW227396   5.704   6.941   5.879
 8833SOL     OW27397   5.183   2.405   1.340
 8833SOL    HW127398   5.179   2.392   1.439
 8833SOL    HW227399   5.246   2.480   1.319
 8834SOL     OW27400   6.092   3.753   5.912
 8834SOL    HW127401   6.001   3.757   5.953
 8834SOL    HW227402   6.100   3.670   5.856
 8835SOL     OW27403   6.942   0.537   5.623
 8835SOL    HW127404   6.864   0.571   5.570
 8835SOL    HW227405   6.909   0.476   5.695
 8836SOL     OW27406   4.577   1.113   1.358
 8836SOL    HW127407   4.484   1.148   1.364
 8836SOL    HW227408   4.625   1.131   1.444
 8837SOL     OW27409   4.540   6.680   1.002
 8837SOL    HW127410   4.461   6.627   0.973
 8837SOL    HW227411   4.611   6.618   1.037
 8838SOL     OW27412   1.827   3.586   3.595
 8838SOL    HW127413   1.761   3.655   3.566
 8838SOL    HW227414   1.781   3.497   3.601
 8839SOL     OW27415   4.689   5.926   1.582
 8839SOL    HW127416   4.768   5.893   1.530
 8839SOL    HW227417   4.719   5.993   1.649
 8840SOL     OW27418   6.474   0.853   0.779
 8840SOL    HW127419   6.504   0.759   0.793
 8840SOL    HW227420   6.488   0.906   0.862
 8841SOL     OW27421   3.328   1.503   0.624
 8841SOL    HW127422   3.409   1.451   0.594
 8841SOL    HW227423   3.356   1.595   0.650
 8842SOL     OW27424   3.172   3.559   4.535
 8842SOL    HW127425   3.212   3.619   4.604
 8842SOL    HW227426   3.235   3.484   4.515
 8843SOL     OW27427   2.334   5.913   5.935
 8843SOL    HW127428   2.421   5.947   5.900
 8843SOL    HW227429   2.285   5.987   5.981
 8844SOL     OW27430   3.520   2.630   6.419
 8844SOL    HW127431   3.557   2.638   6.326
 8844SOL    HW227432   3.500   2.721   6.455
 8845SOL     OW27433   0.304   3.483   2.179
 8845SOL    HW127434   0.206   3.470   2.169
 8845SOL    HW227435   0.321   3.565   2.235
 8846SOL     OW27436   5.465   4.716   4.353
 8846SOL    HW127437   5.505   4.711   4.262
 8846SOL    HW227438   5.520   4.777   4.411
 8847SOL     OW27439   1.329   2.267   4.074
 8847SOL    HW127440   1.348   2.286   4.171
 8847SOL    HW227441   1.411   2.231   4.030
 8848SOL     OW27442   5.683   1.178   0.422
 8848SOL    HW127443   5.589   1.163   0.392
 8848SOL    HW227444   5.728   1.089   0.434
 8849SOL     OW27445   3.401   5.034   4.344
 8849SOL    HW127446   3.491   5.074   4.359
 8849SOL    HW227447   3.345   5.046   4.426
 8850SOL     OW27448   3.150   1.351   1.303
 8850SOL    HW127449   3.216   1.315   1.237
 8850SOL    HW227450   3.135   1.283   1.375
 8851SOL     OW27451   6.657   4.955   2.777
 8851SOL    HW127452   6.587   5.017   2.814
 8851SOL    HW227453   6.732   5.008   2.739
 8852SOL     OW27454   4.535   2.548   4.342
 8852SOL    HW127455   4.568   2.596   4.423
 8852SOL    HW227456   4.461   2.486   4.367
 8853SOL     OW27457   4.391   1.773   5.409
 8853SOL    HW127458   4.422   1.713   5.482
 8853SOL    HW227459   4.383   1.721   5.324
 8854SOL     OW27460   1.840   1.371   6.737
 8854SOL    HW127461   1.893   1.454   6.717
 8854SOL    HW227462   1.870   1.333   6.824
 8855SOL     OW27463   6.176   4.909   0.438
 8855SOL    HW127464   6.185   4.822   0.487
 8855SOL    HW227465   6.117   4.971   0.491
 8856SOL     OW27466   5.305   1.078   5.298
 8856SOL    HW127467   5.247   1.011   5.344
 8856SOL    HW227468   5.360   1.127   5.367
 8857SOL     OW27469   7.003   2.534   4.607
 8857SOL    HW127470   6.994   2.556   4.509
 8857SOL    HW227471   6.953   2.450   4.627
 8858SOL     OW27472   6.615   4.123   5.820
 8858SOL    HW127473   6.528   4.144   5.775
 8858SOL    HW227474   6.599   4.105   5.917
 8859SOL     OW27475   3.031   5.671   5.429
 8859SOL    HW127476   3.044   5.616   5.347
 8859SOL    HW227477   2.943   5.719   5.423
 8860SOL     OW27478   1.457   2.456   1.362
 8860SOL    HW127479   1.445   2.382   1.427
 8860SOL    HW227480   1.546   2.499   1.377
 8861SOL     OW27481   2.524   3.003   1.005
 8861SOL    HW127482   2.478   3.031   1.090
 8861SOL    HW227483   2.602   3.064   0.988
 8862SOL     OW27484   6.225   2.291   4.787
 8862SOL    HW127485   6.184   2.281   4.878
 8862SOL    HW227486   6.154   2.310   4.720
 8863SOL     OW27487   1.021   5.843   4.898
 8863SOL    HW127488   1.030   5.904   4.977
 8863SOL    HW227489   1.107   5.842   4.847
 8864SOL     OW27490   1.353   3.259   5.771
 8864SOL    HW127491   1.348   3.330   5.841
 8864SOL    HW227492   1.448   3.234   5.756
 8865SOL     OW27493   2.358   1.949   5.561
 8865SOL    HW127494   2.306   1.959   5.476
 8865SOL    HW227495   2.320   1.874   5.615
 8866SOL     OW27496   4.408   6.905   5.836
 8866SOL    HW127497   4.396   6.879   5.740
 8866SOL    HW227498   4.396   6.825   5.894
 8867SOL     OW27499   6.636   1.746   3.391
 8867SOL    HW127500   6.634   1.651   3.360
 8867SOL    HW227501   6.559   1.764   3.452
 8868SOL     OW27502   4.919   3.512   1.139
 8868SOL    HW127503   4.991   3.576   1.167
 8868SOL    HW227504   4.903   3.447   1.214
 8869SOL     OW27505   4.911   3.207   3.759
 8869SOL    HW127506   5.005   3.179   3.741
 8869SOL    HW227507   4.909   3.270   3.837
 8870SOL     OW27508   4.192   1.128   1.512
 8870SOL    HW127509   4.246   1.044   1.524
 8870SOL    HW227510   4.094   1.105   1.516
 8871SOL     OW27511   0.945   2.571   4.562
 8871SOL    HW127512   1.025   2.616   4.603
 8871SOL    HW227513   0.943   2.476   4.591
 8872SOL     OW27514   2.324   2.804   3.127
 8872SOL    HW127515   2.267   2.878   3.092
 8872SOL    HW227516   2.323   2.805   3.227
 8873SOL     OW27517   0.062   6.046   5.001
 8873SOL    HW127518   0.112   6.108   5.060
 8873SOL    HW227519   0.108   5.957   4.999
 8874SOL     OW27520   1.427   1.645   0.110
 8874SOL    HW127521   1.378   1.622   0.026
 8874SOL    HW227522   1.408   1.576   0.179
 8875SOL     OW27523   1.581   1.337   4.247
 8875SOL    HW127524   1.620   1.362   4.336
 8875SOL    HW227525   1.508   1.270   4.260
 8876SOL     OW27526   2.401   0.829   5.025
 8876SOL    HW127527   2.374   0.924   5.015
 8876SOL    HW227528   2.402   0.784   4.936
 8877SOL     OW27529   2.667   6.337   4.163
 8877SOL    HW127530   2.713   6.287   4.236
 8877SOL    HW227531   2.730   6.402   4.121
 8878SOL     OW27532   5.857   4.506   5.367
 8878SOL    HW127533   5.908   4.570   5.424
 8878SOL    HW227534   5.761   4.506   5.394
 8879SOL     OW27535   4.051   5.487   5.105
 8879SOL    HW127536   4.006   5.406   5.142
 8879SOL    HW227537   4.148   5.468   5.092
 8880SOL     OW27538   6.854   6.119   6.159
 8880SOL    HW127539   6.837   6.212   6.193
 8880SOL    HW227540   6.842   6.116   6.060
 8881SOL     OW27541   0.127   0.900   1.764
 8881SOL    HW127542   0.036   0.858   1.768
 8881SOL    HW227543   0.196   0.836   1.798
 8882SOL     OW27544   5.769   1.865   6.432
 8882SOL    HW127545   5.845   1.801   6.444
 8882SOL    HW227546   5.682   1.816   6.438
 8883SOL     OW27547   0.049   0.989   5.603
 8883SOL    HW127548   0.014   1.033   5.686
 8883SOL    HW227549   0.145   1.013   5.591
 8884SOL     OW27550   6.544   0.500   5.661
 8884SOL    HW127551   6.588   0.580   5.620
 8884SOL    HW227552   6.551   0.423   5.597
 8885SOL     OW27553   5.351   3.271   1.772
 8885SOL    HW127554   5.386   3.301   1.860
 8885SOL    HW227555   5.404   3.192   1.740
 8886SOL     OW27556   2.901   6.507   6.463
 8886SOL    HW127557   2.908   6.576   6.392
 8886SOL    HW227558   2.992   6.485   6.498
 8887SOL     OW27559   2.040   0.478   1.435
 8887SOL    HW127560   1.981   0.426   1.496
 8887SOL    HW227561   2.063   0.565   1.477
 8888SOL     OW27562   3.615   1.363   3.414
 8888SOL    HW127563   3.535   1.352   3.356
 8888SOL    HW227564   3.674   1.282   3.406
 8889SOL     OW27565   3.209   6.660   4.516
 8889SOL    HW127566   3.216   6.759   4.511
 8889SOL    HW227567   3.116   6.634   4.543
 8890SOL     OW27568   1.495   4.484   3.770
 8890SOL    HW127569   1.568   4.547   3.797
 8890SOL    HW227570   1.520   4.437   3.686
 8891SOL     OW27571   2.679   1.965   6.919
 8891SOL    HW127572   2.677   1.996   6.824
 8891SOL    HW227573   2.774   1.964   6.952
 8892SOL     OW27574   1.330   0.149   2.332
 8892SOL    HW127575   1.404   0.193   2.384
 8892SOL    HW227576   1.294   0.214   2.265
 8893SOL     OW27577   0.682   1.321   1.481
 8893SOL    HW127578   0.668   1.410   1.525
 8893SOL    HW227579   0.753   1.271   1.531
 8894SOL     OW27580   4.114   3.261   6.439
 8894SOL    HW127581   4.144   3.311   6.520
 8894SOL    HW227582   4.014   3.250   6.442
 8895SOL     OW27583   0.937   0.626   2.365
 8895SOL    HW127584   0.872   0.661   2.297
 8895SOL    HW227585   0.893   0.625   2.455
 8896SOL     OW27586   2.197   4.367   5.244
 8896SOL    HW127587   2.196   4.273   5.210
 8896SOL    HW227588   2.285   4.387   5.287
 8897SOL     OW27589   1.379   1.885   1.369
 8897SOL    HW127590   1.330   1.970   1.349
 8897SOL    HW227591   1.346   1.846   1.455
 8898SOL     OW27592   6.824   2.899   4.594
 8898SOL    HW127593   6.859   2.899   4.501
 8898SOL    HW227594   6.899   2.884   4.658
 8899SOL     OW27595   2.577   4.325   0.064
 8899SOL    HW127596   2.577   4.239   0.012
 8899SOL    HW227597   2.665   4.370   0.053
 8900SOL     OW27598   6.192   1.419   3.178
 8900SOL    HW127599   6.260   1.347   3.188
 8900SOL    HW227600   6.224   1.503   3.223
 8901SOL     OW27601   1.819   6.787   1.865
 8901SOL    HW127602   1.755   6.713   1.886
 8901SOL    HW227603   1.911   6.750   1.851
 8902SOL     OW27604   2.953   5.342   5.387
 8902SOL    HW127605   3.009   5.400   5.446
 8902SOL    HW227606   2.991   5.249   5.386
 8903SOL     OW27607   0.846   1.714   4.050
 8903SOL    HW127608   0.872   1.804   4.084
 8903SOL    HW227609   0.754   1.691   4.082
 8904SOL     OW27610   1.083   5.250   3.611
 8904SOL    HW127611   1.073   5.151   3.615
 8904SOL    HW227612   1.128   5.283   3.694
 8905SOL     OW27613   2.434   4.403   5.350
 8905SOL    HW127614   2.515   4.460   5.336
 8905SOL    HW227615   2.456   4.307   5.332
 8906SOL     OW27616   1.192   4.820   4.641
 8906SOL    HW127617   1.144   4.869   4.713
 8906SOL    HW227618   1.167   4.723   4.644
 8907SOL     OW27619   3.952   2.689   5.945
 8907SOL    HW127620   3.953   2.637   6.030
 8907SOL    HW227621   3.868   2.743   5.939
 8908SOL     OW27622   0.110   3.437   1.673
 8908SOL    HW127623   0.200   3.408   1.705
 8908SOL    HW227624   0.070   3.503   1.737
 8909SOL     OW27625   2.734   6.445   5.823
 8909SOL    HW127626   2.739   6.357   5.870
 8909SOL    HW227627   2.659   6.442   5.757
 8910SOL     OW27628   3.624   3.273   6.507
 8910SOL    HW127629   3.642   3.317   6.595
 8910SOL    HW227630   3.654   3.178   6.511
 8911SOL     OW27631   4.166   2.356   3.944
 8911SOL    HW127632   4.149   2.450   3.974
 8911SOL    HW227633   4.254   2.351   3.898
 8912SOL     OW27634   5.283   2.333   6.405
 8912SOL    HW127635   5.246   2.281   6.327
 8912SOL    HW227636   5.230   2.416   6.417
 8913SOL     OW27637   4.600   4.007   0.899
 8913SOL    HW127638   4.655   4.077   0.945
 8913SOL    HW227639   4.570   3.939   0.965
 8914SOL     OW27640   4.949   2.174   3.473
 8914SOL    HW127641   4.975   2.104   3.539
 8914SOL    HW227642   4.850   2.169   3.456
 8915SOL     OW27643   1.178   5.248   2.034
 8915SOL    HW127644   1.265   5.289   2.008
 8915SOL    HW227645   1.180   5.226   2.132
 8916SOL     OW27646   6.488   3.846   1.582
 8916SOL    HW127647   6.405   3.797   1.556
 8916SOL    HW227648   6.492   3.855   1.681
 8917SOL     OW27649   6.142   5.884   6.165
 8917SOL    HW127650   6.154   5.925   6.075
 8917SOL    HW227651   6.048   5.898   6.196
 8918SOL     OW27652   4.994   4.560   5.905
 8918SOL    HW127653   4.901   4.570   5.869
 8918SOL    HW227654   5.018   4.463   5.908
 8919SOL     OW27655   2.274   3.796   1.346
 8919SOL    HW127656   2.328   3.871   1.383
 8919SOL    HW227657   2.177   3.816   1.358
 8920SOL     OW27658   6.347   5.313   5.488
 8920SOL    HW127659   6.386   5.228   5.522
 8920SOL    HW227660   6.248   5.304   5.481
 8921SOL     OW27661   1.270   5.943   3.685
 8921SOL    HW127662   1.352   5.886   3.697
 8921SOL    HW227663   1.233   5.928   3.593
 8922SOL     OW27664   6.513   4.406   0.189
 8922SOL    HW127665   6.551   4.313   0.185
 8922SOL    HW227666   6.440   4.409   0.257
 8923SOL     OW27667   2.074   4.563   4.847
 8923SOL    HW127668   2.162   4.584   4.888
 8923SOL    HW227669   2.010   4.536   4.919
 8924SOL     OW27670   2.631   5.792   4.877
 8924SOL    HW127671   2.665   5.715   4.931
 8924SOL    HW227672   2.656   5.878   4.922
 8925SOL     OW27673   5.695   6.397   1.512
 8925SOL    HW127674   5.705   6.456   1.432
 8925SOL    HW227675   5.759   6.426   1.583
 8926SOL     OW27676   5.378   1.363   0.432
 8926SOL    HW127677   5.396   1.270   0.400
 8926SOL    HW227678   5.465   1.413   0.441
 8927SOL     OW27679   2.832   1.724   4.527
 8927SOL    HW127680   2.801   1.662   4.599
 8927SOL    HW227681   2.768   1.720   4.450
 8928SOL     OW27682   1.122   6.848   4.999
 8928SOL    HW127683   1.113   6.785   5.077
 8928SOL    HW227684   1.211   6.892   5.003
 8929SOL     OW27685   5.091   4.227   4.521
 8929SOL    HW127686   5.120   4.132   4.533
 8929SOL    HW227687   5.101   4.253   4.425
 8930SOL     OW27688   1.482   5.050   5.012
 8930SOL    HW127689   1.506   4.954   5.001
 8930SOL    HW227690   1.501   5.099   4.927
 8931SOL     OW27691   5.648   1.024   1.771
 8931SOL    HW127692   5.658   1.024   1.870
 8931SOL    HW227693   5.735   1.047   1.729
 8932SOL     OW27694   6.868   1.167   6.960
 8932SOL    HW127695   6.782   1.191   6.914
 8932SOL    HW227696   6.854   1.170   0.039
 8933SOL     OW27697   1.939   0.440   5.614
 8933SOL    HW127698   1.854   0.491   5.605
 8933SOL    HW227699   1.924   0.344   5.588
 8934SOL     OW27700   4.832   6.624   3.235
 8934SOL    HW127701   4.743   6.624   3.281
 8934SOL    HW227702   4.855   6.531   3.208
 8935SOL     OW27703   5.613   2.552   2.673
 8935SOL    HW127704   5.526   2.538   2.626
 8935SOL    HW227705   5.613   2.643   2.716
 8936SOL     OW27706   1.870   3.925   2.802
 8936SOL    HW127707   1.867   3.877   2.890
 8936SOL    HW227708   1.892   4.022   2.818
 8937SOL     OW27709   4.461   7.015   5.539
 8937SOL    HW127710   4.464   0.081   5.489
 8937SOL    HW227711   4.447   6.939   5.475
 8938SOL     OW27712   5.725   0.114   2.091
 8938SOL    HW127713   5.642   0.092   2.039
 8938SOL    HW227714   5.720   0.073   2.182
 8939SOL     OW27715   0.556   2.588   3.943
 8939SOL    HW127716   0.524   2.662   3.884
 8939SOL    HW227717   0.631   2.622   4.000
 8940SOL     OW27718   6.619   2.916   1.488
 8940SOL    HW127719   6.610   2.835   1.430
 8940SOL    HW227720   6.699   2.969   1.459
 8941SOL     OW27721   4.739   2.442   2.237
 8941SOL    HW127722   4.653   2.432   2.189
 8941SOL    HW227723   4.726   2.420   2.334
 8942SOL     OW27724   5.047   4.492   4.459
 8942SOL    HW127725   5.142   4.521   4.449
 8942SOL    HW227726   5.041   4.415   4.522
 8943SOL     OW27727   4.299   2.875   1.026
 8943SOL    HW127728   4.311   2.813   0.948
 8943SOL    HW227729   4.202   2.899   1.034
 8944SOL     OW27730   4.723   5.680   4.921
 8944SOL    HW127731   4.661   5.608   4.889
 8944SOL    HW227732   4.798   5.639   4.974
 8945SOL     OW27733   5.882   4.395   2.706
 8945SOL    HW127734   5.808   4.442   2.658
 8945SOL    HW227735   5.852   4.373   2.799
 8946SOL     OW27736   4.906   1.447   5.583
 8946SOL    HW127737   4.922   1.376   5.652
 8946SOL    HW227738   4.949   1.532   5.612
 8947SOL     OW27739   1.681   4.826   6.399
 8947SOL    HW127740   1.768   4.864   6.430
 8947SOL    HW227741   1.680   4.821   6.299
 8948SOL     OW27742   5.016   0.991   2.685
 8948SOL    HW127743   5.060   1.078   2.706
 8948SOL    HW227744   5.077   0.935   2.629
 8949SOL     OW27745   3.912   6.184   0.970
 8949SOL    HW127746   3.879   6.154   1.059
 8949SOL    HW227747   4.000   6.139   0.951
 8950SOL     OW27748   3.349   3.752   1.704
 8950SOL    HW127749   3.252   3.742   1.683
 8950SOL    HW227750   3.383   3.666   1.743
 8951SOL     OW27751   1.327   0.163   4.899
 8951SOL    HW127752   1.261   0.197   4.965
 8951SOL    HW227753   1.403   0.228   4.891
 8952SOL     OW27754   0.839   4.716   4.111
 8952SOL    HW127755   0.789   4.632   4.091
 8952SOL    HW227756   0.868   4.716   4.206
 8953SOL     OW27757   1.511   5.088   1.417
 8953SOL    HW127758   1.508   5.176   1.371
 8953SOL    HW227759   1.427   5.076   1.471
 8954SOL     OW27760   2.350   4.586   5.549
 8954SOL    HW127761   2.394   4.520   5.488
 8954SOL    HW227762   2.253   4.595   5.524
 8955SOL     OW27763   5.297   2.790   5.054
 8955SOL    HW127764   5.320   2.771   4.958
 8955SOL    HW227765   5.222   2.730   5.082
 8956SOL     OW27766   0.555   6.252   0.453
 8956SOL    HW127767   0.594   6.344   0.461
 8956SOL    HW227768   0.455   6.258   0.447
 8957SOL     OW27769   0.924   6.346   2.639
 8957SOL    HW127770   1.007   6.320   2.687
 8957SOL    HW227771   0.859   6.270   2.641
 8958SOL     OW27772   1.366   3.767   5.433
 8958SOL    HW127773   1.342   3.809   5.520
 8958SOL    HW227774   1.291   3.708   5.403
 8959SOL     OW27775   5.860   2.409   3.612
 8959SOL    HW127776   5.857   2.509   3.609
 8959SOL    HW227777   5.933   2.376   3.553
 8960SOL     OW27778   4.369   5.309   3.102
 8960SOL    HW127779   4.442   5.324   3.170
 8960SOL    HW227780   4.324   5.221   3.120
 8961SOL     OW27781   2.745   1.920   4.847
 8961SOL    HW127782   2.768   1.927   4.944
 8961SOL    HW227783   2.781   2.001   4.799
 8962SOL     OW27784   6.423   5.952   2.271
 8962SOL    HW127785   6.457   5.920   2.360
 8962SOL    HW227786   6.418   5.875   2.207
 8963SOL     OW27787   3.660   6.284   6.242
 8963SOL    HW127788   3.677   6.188   6.263
 8963SOL    HW227789   3.572   6.293   6.195
 8964SOL     OW27790   2.148   3.321   4.265
 8964SOL    HW127791   2.102   3.297   4.179
 8964SOL    HW227792   2.240   3.280   4.265
 8965SOL     OW27793   3.594   5.821   0.136
 8965SOL    HW127794   3.505   5.833   0.091
 8965SOL    HW227795   3.621   5.725   0.132
 8966SOL     OW27796   5.241   6.636   5.044
 8966SOL    HW127797   5.260   6.722   4.996
 8966SOL    HW227798   5.263   6.647   5.141
 8967SOL     OW27799   3.231   6.941   3.238
 8967SOL    HW127800   3.203   6.911   3.330
 8967SOL    HW227801   3.221   6.865   3.174
 8968SOL     OW27802   3.367   4.930   2.238
 8968SOL    HW127803   3.418   4.924   2.324
 8968SOL    HW227804   3.284   4.875   2.245
 8969SOL     OW27805   0.499   0.366   2.870
 8969SOL    HW127806   0.577   0.383   2.930
 8969SOL    HW227807   0.414   0.379   2.921
 8970SOL     OW27808   1.818   0.946   3.792
 8970SOL    HW127809   1.788   1.038   3.769
 8970SOL    HW227810   1.739   0.889   3.813
 8971SOL     OW27811   2.684   4.422   0.658
 8971SOL    HW127812   2.758   4.366   0.621
 8971SOL    HW227813   2.652   4.486   0.588
 8972SOL     OW27814   5.453   4.024   6.984
 8972SOL    HW127815   5.454   4.117   0.001
 8972SOL    HW227816   5.512   3.965   0.019
 8973SOL     OW27817   2.153   2.196   3.609
 8973SOL    HW127818   2.114   2.116   3.565
 8973SOL    HW227819   2.110   2.279   3.573
 8974SOL     OW27820   2.313   4.529   4.201
 8974SOL    HW127821   2.305   4.620   4.241
 8974SOL    HW227822   2.297   4.460   4.272
 8975SOL     OW27823   6.799   4.821   5.828
 8975SOL    HW127824   6.718   4.808   5.886
 8975SOL    HW227825   6.863   4.745   5.844
 8976SOL     OW27826   5.860   0.568   2.425
 8976SOL    HW127827   5.768   0.606   2.434
 8976SOL    HW227828   5.865   0.481   2.475
 8977SOL     OW27829   6.182   4.142   6.558
 8977SOL    HW127830   6.268   4.181   6.525
 8977SOL    HW227831   6.105   4.195   6.523
 8978SOL     OW27832   5.892   5.775   6.874
 8978SOL    HW127833   5.890   5.875   6.880
 8978SOL    HW227834   5.928   5.738   6.959
 8979SOL     OW27835   1.520   4.814   4.311
 8979SOL    HW127836   1.526   4.807   4.411
 8979SOL    HW227837   1.609   4.791   4.271
 8980SOL     OW27838   3.381   0.754   0.188
 8980SOL    HW127839   3.402   0.772   0.092
 8980SOL    HW227840   3.409   0.833   0.243
 8981SOL     OW27841   4.341   3.282   6.190
 8981SOL    HW127842   4.426   3.275   6.243
 8981SOL    HW227843   4.263   3.284   6.252
 8982SOL     OW27844   0.063   1.782   1.756
 8982SOL    HW127845   0.059   1.759   1.659
 8982SOL    HW227846   0.008   1.718   1.809
 8983SOL     OW27847   1.559   6.694   2.191
 8983SOL    HW127848   1.616   6.678   2.271
 8983SOL    HW227849   1.467   6.721   2.220
 8984SOL     OW27850   6.972   1.268   4.641
 8984SOL    HW127851   6.947   1.316   4.725
 8984SOL    HW227852   0.038   1.305   4.606
 8985SOL     OW27853   4.895   1.505   2.493
 8985SOL    HW127854   4.803   1.522   2.527
 8985SOL    HW227855   4.940   1.437   2.552
 8986SOL     OW27856   6.481   4.677   0.614
 8986SOL    HW127857   6.463   4.775   0.622
 8986SOL    HW227858   6.514   4.656   0.522
 8987SOL     OW27859   2.208   6.563   1.386
 8987SOL    HW127860   2.178   6.657   1.369
 8987SOL    HW227861   2.174   6.504   1.313
 8988SOL     OW27862   3.027   0.471   1.076
 8988SOL    HW127863   3.053   0.433   1.165
 8988SOL    HW227864   2.943   0.427   1.044
 8989SOL     OW27865   5.637   1.146   2.518
 8989SOL    HW127866   5.591   1.235   2.527
 8989SOL    HW227867   5.725   1.149   2.566
 8990SOL     OW27868   3.231   0.623   2.779
 8990SOL    HW127869   3.231   0.677   2.695
 8990SOL    HW227870   3.157   0.556   2.775
 8991SOL     OW27871   1.207   2.157   0.650
 8991SOL    HW127872   1.220   2.204   0.737
 8991SOL    HW227873   1.229   2.219   0.575
 8992SOL     OW27874   6.464   4.245   6.535
 8992SOL    HW127875   6.526   4.211   6.464
 8992SOL    HW227876   6.518   4.281   6.612
 8993SOL     OW27877   5.184   3.966   4.891
 8993SOL    HW127878   5.166   4.060   4.920
 8993SOL    HW227879   5.102   3.911   4.903
 8994SOL     OW27880   1.550   6.038   2.762
 8994SOL    HW127881   1.580   5.952   2.720
 8994SOL    HW227882   1.533   6.024   2.859
 8995SOL     OW27883   2.004   3.844   5.241
 8995SOL    HW127884   2.089   3.804   5.206
 8995SOL    HW227885   1.928   3.782   5.220
 8996SOL     OW27886   1.413   3.775   1.402
 8996SOL    HW127887   1.462   3.705   1.350
 8996SOL    HW227888   1.415   3.862   1.352
 8997SOL     OW27889   4.234   1.389   5.671
 8997SOL    HW127890   4.172   1.460   5.705
 8997SOL    HW227891   4.328   1.411   5.699
 8998SOL     OW27892   1.484   1.631   6.343
 8998SOL    HW127893   1.561   1.663   6.398
 8998SOL    HW227894   1.458   1.539   6.373
 8999SOL     OW27895   5.029   1.821   4.975
 8999SOL    HW127896   5.091   1.860   4.906
 8999SOL    HW227897   5.082   1.788   5.053
 9000SOL     OW27898   2.730   4.711   0.490
 9000SOL    HW127899   2.707   4.808   0.487
 9000SOL    HW227900   2.800   4.695   0.559
 9001SOL     OW27901   1.910   4.450   3.380
 9001SOL    HW127902   1.826   4.399   3.361
 9001SOL    HW227903   1.959   4.406   3.456
 9002SOL     OW27904   5.333   3.755   5.026
 9002SOL    HW127905   5.266   3.810   4.975
 9002SOL    HW227906   5.422   3.760   4.981
 9003SOL     OW27907   6.249   3.188   6.845
 9003SOL    HW127908   6.213   3.172   6.937
 9003SOL    HW227909   6.302   3.272   6.843
 9004SOL     OW27910   4.436   5.433   0.506
 9004SOL    HW127911   4.428   5.520   0.457
 9004SOL    HW227912   4.489   5.368   0.450
 9005SOL     OW27913   4.501   2.497   3.136
 9005SOL    HW127914   4.528   2.582   3.179
 9005SOL    HW227915   4.531   2.497   3.040
 9006SOL     OW27916   2.498   6.839   0.894
 9006SOL    HW127917   2.409   6.885   0.898
 9006SOL    HW227918   2.485   6.740   0.892
 9007SOL     OW27919   2.350   6.508   4.472
 9007SOL    HW127920   2.422   6.563   4.428
 9007SOL    HW227921   2.261   6.539   4.441
 9008SOL     OW27922   6.997   4.230   2.533
 9008SOL    HW127923   7.004   4.204   2.437
 9008SOL    HW227924   6.942   4.163   2.582
 9009SOL     OW27925   4.587   6.535   0.584
 9009SOL    HW127926   4.492   6.510   0.603
 9009SOL    HW227927   4.644   6.505   0.661
 9010SOL     OW27928   0.536   5.111   5.065
 9010SOL    HW127929   0.632   5.097   5.038
 9010SOL    HW227930   0.476   5.074   4.994
 9011SOL     OW27931   4.587   2.126   2.040
 9011SOL    HW127932   4.661   2.170   1.989
 9011SOL    HW227933   4.586   2.028   2.021
 9012SOL     OW27934   5.724   5.421   2.013
 9012SOL    HW127935   5.685   5.447   2.102
 9012SOL    HW227936   5.816   5.386   2.026
 9013SOL     OW27937   4.521   6.203   2.390
 9013SOL    HW127938   4.470   6.265   2.331
 9013SOL    HW227939   4.476   6.113   2.391
 9014SOL     OW27940   2.132   1.030   1.149
 9014SOL    HW127941   2.111   1.013   1.052
 9014SOL    HW227942   2.131   1.129   1.166
 9015SOL     OW27943   6.284   0.976   4.820
 9015SOL    HW127944   6.263   1.050   4.755
 9015SOL    HW227945   6.211   0.908   4.817
 9016SOL     OW27946   6.822   5.456   6.478
 9016SOL    HW127947   6.817   5.489   6.572
 9016SOL    HW227948   6.817   5.533   6.415
 9017SOL     OW27949   6.827   3.881   3.319
 9017SOL    HW127950   6.796   3.861   3.412
 9017SOL    HW227951   6.776   3.960   3.284
 9018SOL     OW27952   4.030   1.629   6.325
 9018SOL    HW127953   4.067   1.553   6.379
 9018SOL    HW227954   3.950   1.597   6.274
 9019SOL     OW27955   1.465   5.467   0.467
 9019SOL    HW127956   1.419   5.555   0.456
 9019SOL    HW227957   1.451   5.411   0.385
 9020SOL     OW27958   0.761   4.795   3.314
 9020SOL    HW127959   0.737   4.699   3.301
 9020SOL    HW227960   0.790   4.809   3.409
 9021SOL     OW27961   6.288   5.873   5.796
 9021SOL    HW127962   6.207   5.927   5.820
 9021SOL    HW227963   6.370   5.926   5.815
 9022SOL     OW27964   3.729   0.612   6.497
 9022SOL    HW127965   3.820   0.574   6.516
 9022SOL    HW227966   3.714   0.692   6.556
 9023SOL     OW27967   3.186   3.035   3.157
 9023SOL    HW127968   3.091   3.064   3.171
 9023SOL    HW227969   3.213   2.972   3.230
 9024SOL     OW27970   1.269   6.939   0.177
 9024SOL    HW127971   1.227   6.966   0.091
 9024SOL    HW227972   1.203   6.948   0.252
 9025SOL     OW27973   0.450   3.705   0.516
 9025SOL    HW127974   0.387   3.673   0.446
 9025SOL    HW227975   0.468   3.631   0.581
 9026SOL     OW27976   3.044   3.162   5.667
 9026SOL    HW127977   3.065   3.245   5.616
 9026SOL    HW227978   2.966   3.116   5.625
 9027SOL     OW27979   2.430   2.544   3.066
 9027SOL    HW127980   2.415   2.640   3.093
 9027SOL    HW227981   2.505   2.506   3.121
 9028SOL     OW27982   2.785   4.792   4.583
 9028SOL    HW127983   2.750   4.743   4.504
 9028SOL    HW227984   2.764   4.889   4.575
 9029SOL     OW27985   5.756   5.554   2.656
 9029SOL    HW127986   5.832   5.497   2.689
 9029SOL    HW227987   5.785   5.602   2.573
 9030SOL     OW27988   3.507   1.853   1.785
 9030SOL    HW127989   3.415   1.848   1.825
 9030SOL    HW227990   3.544   1.945   1.797
 9031SOL     OW27991   1.686   1.623   1.033
 9031SOL    HW127992   1.740   1.550   1.075
 9031SOL    HW227993   1.632   1.669   1.104
 9032SOL     OW27994   1.012   2.505   2.823
 9032SOL    HW127995   1.046   2.523   2.730
 9032SOL    HW227996   0.934   2.565   2.842
 9033SOL     OW27997   1.136   3.818   1.979
 9033SOL    HW127998   1.078   3.847   1.902
 9033SOL    HW227999   1.213   3.882   1.988
 9034SOL     OW28000   1.167   6.921   6.441
 9034SOL    HW128001   1.240   6.853   6.449
 9034SOL    HW228002   1.169   6.962   6.350
 9035SOL     OW28003   7.011   0.422   4.611
 9035SOL    HW128004   6.915   0.420   4.582
 9035SOL    HW228005   0.008   0.346   4.674
 9036SOL     OW28006   1.868   1.633   4.890
 9036SOL    HW128007   1.905   1.696   4.958
 9036SOL    HW228008   1.772   1.615   4.910
 9037SOL     OW28009   2.752   4.016   5.866
 9037SOL    HW128010   2.655   4.006   5.843
 9037SOL    HW228011   2.793   4.082   5.803
 9038SOL     OW28012   4.828   6.528   5.569
 9038SOL    HW128013   4.885   6.606   5.594
 9038SOL    HW228014   4.870   6.478   5.494
 9039SOL     OW28015   2.195   4.888   6.242
 9039SOL    HW128016   2.145   4.808   6.274
 9039SOL    HW228017   2.261   4.916   6.312
 9040SOL     OW28018   2.720   1.757   2.481
 9040SOL    HW128019   2.761   1.687   2.423
 9040SOL    HW228020   2.711   1.721   2.574
 9041SOL     OW28021   1.897   2.770   6.616
 9041SOL    HW128022   1.990   2.759   6.581
 9041SOL    HW228023   1.894   2.849   6.678
 9042SOL     OW28024   2.634   5.601   3.310
 9042SOL    HW128025   2.589   5.556   3.232
 9042SOL    HW228026   2.609   5.555   3.394
 9043SOL     OW28027   6.568   2.422   0.674
 9043SOL    HW128028   6.564   2.484   0.595
 9043SOL    HW228029   6.490   2.439   0.734
 9044SOL     OW28030   6.705   4.738   1.005
 9044SOL    HW128031   6.662   4.820   0.966
 9044SOL    HW228032   6.634   4.672   1.029
 9045SOL     OW28033   2.775   5.320   4.152
 9045SOL    HW128034   2.866   5.349   4.123
 9045SOL    HW228035   2.720   5.401   4.174
 9046SOL     OW28036   3.964   4.327   5.879
 9046SOL    HW128037   3.959   4.303   5.782
 9046SOL    HW228038   3.893   4.394   5.901
 9047SOL     OW28039   1.327   4.632   4.843
 9047SOL    HW128040   1.302   4.615   4.748
 9047SOL    HW228041   1.281   4.564   4.902
 9048SOL     OW28042   1.883   2.187   5.014
 9048SOL    HW128043   1.959   2.246   4.987
 9048SOL    HW228044   1.848   2.216   5.103
 9049SOL     OW28045   4.954   5.945   6.452
 9049SOL    HW128046   4.959   5.923   6.355
 9049SOL    HW228047   5.045   5.972   6.484
 9050SOL     OW28048   0.239   5.406   5.315
 9050SOL    HW128049   0.219   5.358   5.230
 9050SOL    HW228050   0.260   5.502   5.295
 9051SOL     OW28051   5.482   6.744   6.233
 9051SOL    HW128052   5.507   6.813   6.164
 9051SOL    HW228053   5.470   6.789   6.322
 9052SOL     OW28054   2.276   5.071   5.004
 9052SOL    HW128055   2.296   5.145   5.068
 9052SOL    HW228056   2.300   5.098   4.911
 9053SOL     OW28057   2.971   1.732   3.812
 9053SOL    HW128058   2.952   1.717   3.715
 9053SOL    HW228059   2.886   1.739   3.863
 9054SOL     OW28060   2.990   0.250   0.866
 9054SOL    HW128061   2.959   0.343   0.848
 9054SOL    HW228062   3.082   0.253   0.906
 9055SOL     OW28063   0.438   1.666   4.983
 9055SOL    HW128064   0.483   1.706   4.904
 9055SOL    HW228065   0.341   1.693   4.984
 9056SOL     OW28066   4.830   2.413   2.775
 9056SOL    HW128067   4.821   2.463   2.862
 9056SOL    HW228068   4.807   2.317   2.790
 9057SOL     OW28069   4.911   6.092   0.002
 9057SOL    HW128070   4.958   6.067   6.937
 9057SOL    HW228071   4.827   6.038   0.011
 9058SOL     OW28072   2.282   2.382   3.925
 9058SOL    HW128073   2.239   2.322   3.993
 9058SOL    HW228074   2.215   2.450   3.894
 9059SOL     OW28075   6.685   0.678   2.633
 9059SOL    HW128076   6.709   0.771   2.603
 9059SOL    HW228077   6.606   0.645   2.581
 9060SOL     OW28078   0.897   5.569   1.841
 9060SOL    HW128079   0.971   5.625   1.804
 9060SOL    HW228080   0.929   5.522   1.923
 9061SOL     OW28081   5.013   4.302   2.377
 9061SOL    HW128082   4.913   4.313   2.380
 9061SOL    HW228083   5.056   4.392   2.366
 9062SOL     OW28084   0.398   5.545   2.672
 9062SOL    HW128085   0.313   5.493   2.683
 9062SOL    HW228086   0.410   5.606   2.751
 9063SOL     OW28087   4.401   1.936   1.654
 9063SOL    HW128088   4.390   1.916   1.751
 9063SOL    HW228089   4.486   1.988   1.641
 9064SOL     OW28090   0.630   5.255   3.352
 9064SOL    HW128091   0.673   5.257   3.442
 9064SOL    HW228092   0.556   5.321   3.348
 9065SOL     OW28093   3.206   3.991   6.153
 9065SOL    HW128094   3.137   3.925   6.182
 9065SOL    HW228095   3.161   4.078   6.130
 9066SOL     OW28096   4.654   5.248   4.342
 9066SOL    HW128097   4.563   5.209   4.325
 9066SOL    HW228098   4.649   5.348   4.338
 9067SOL     OW28099   1.066   6.259   4.503
 9067SOL    HW128100   0.977   6.292   4.535
 9067SOL    HW228101   1.090   6.306   4.418
 9068SOL     OW28102   4.345   0.173   5.824
 9068SOL    HW128103   4.308   0.154   5.915
 9068SOL    HW228104   4.344   0.089   5.769
 9069SOL     OW28105   4.732   2.876   1.230
 9069SOL    HW128106   4.668   2.924   1.170
 9069SOL    HW228107   4.790   2.815   1.175
 9070SOL     OW28108   2.349   1.233   5.691
 9070SOL    HW128109   2.427   1.293   5.712
 9070SOL    HW228110   2.310   1.199   5.776
 9071SOL     OW28111   6.036   2.480   6.274
 9071SOL    HW128112   5.980   2.517   6.199
 9071SOL    HW228113   5.978   2.429   6.337
 9072SOL     OW28114   5.196   0.453   2.945
 9072SOL    HW128115   5.181   0.362   2.904
 9072SOL    HW228116   5.114   0.481   2.994
 9073SOL     OW28117   4.756   2.518   4.862
 9073SOL    HW128118   4.690   2.522   4.787
 9073SOL    HW228119   4.713   2.475   4.941
 9074SOL     OW28120   2.028   1.020   2.708
 9074SOL    HW128121   1.964   0.943   2.717
 9074SOL    HW228122   2.036   1.045   2.612
 9075SOL     OW28123   5.843   5.988   0.898
 9075SOL    HW128124   5.901   6.066   0.922
 9075SOL    HW228125   5.749   6.007   0.924
 9076SOL     OW28126   0.091   6.801   2.353
 9076SOL    HW128127   0.099   6.901   2.360
 9076SOL    HW228128   0.020   6.769   2.416
 9077SOL     OW28129   6.383   1.791   7.010
 9077SOL    HW128130   6.350   1.820   0.080
 9077SOL    HW228131   6.372   1.866   6.945
 9078SOL     OW28132   4.938   0.189   6.978
 9078SOL    HW128133   4.925   0.247   0.038
 9078SOL    HW228134   5.031   0.152   6.978
 9079SOL     OW28135   1.622   1.314   6.606
 9079SOL    HW128136   1.708   1.328   6.655
 9079SOL    HW228137   1.546   1.331   6.667
 9080SOL     OW28138   6.184   3.985   2.143
 9080SOL    HW128139   6.120   4.000   2.067
 9080SOL    HW228140   6.164   4.049   2.217
 9081SOL     OW28141   5.393   1.129   0.721
 9081SOL    HW128142   5.355   1.130   0.628
 9081SOL    HW228143   5.428   1.221   0.743
 9082SOL     OW28144   3.247   5.924   6.275
 9082SOL    HW128145   3.214   5.972   6.356
 9082SOL    HW228146   3.183   5.852   6.249
 9083SOL     OW28147   3.909   6.119   0.327
 9083SOL    HW128148   3.882   6.140   0.421
 9083SOL    HW228149   3.986   6.055   0.328
 9084SOL     OW28150   0.146   3.192   5.088
 9084SOL    HW128151   0.184   3.188   5.180
 9084SOL    HW228152   0.193   3.263   5.036
 9085SOL     OW28153   2.684   4.983   0.425
 9085SOL    HW128154   2.588   5.000   0.403
 9085SOL    HW228155   2.742   5.013   0.349
 9086SOL     OW28156   0.021   4.019   1.053
 9086SOL    HW128157   7.007   4.100   1.006
 9086SOL    HW228158   0.117   4.004   1.028
 9087SOL     OW28159   5.807   0.714   1.487
 9087SOL    HW128160   5.888   0.659   1.465
 9087SOL    HW228161   5.789   0.709   1.585
 9088SOL     OW28162   6.291   6.357   0.694
 9088SOL    HW128163   6.325   6.428   0.756
 9088SOL    HW228164   6.366   6.297   0.668
 9089SOL     OW28165   5.806   5.312   3.180
 9089SOL    HW128166   5.857   5.389   3.142
 9089SOL    HW228167   5.726   5.346   3.229
 9090SOL     OW28168   5.053   6.003   5.751
 9090SOL    HW128169   5.036   5.948   5.669
 9090SOL    HW228170   4.994   5.972   5.825
 9091SOL     OW28171   2.198   1.843   1.801
 9091SOL    HW128172   2.246   1.766   1.844
 9091SOL    HW228173   2.137   1.885   1.868
 9092SOL     OW28174   2.616   0.841   5.265
 9092SOL    HW128175   2.682   0.912   5.289
 9092SOL    HW228176   2.523   0.876   5.278
 9093SOL     OW28177   1.976   3.865   0.786
 9093SOL    HW128178   1.958   3.946   0.730
 9093SOL    HW228179   2.070   3.835   0.772
 9094SOL     OW28180   6.511   4.352   1.487
 9094SOL    HW128181   6.594   4.333   1.540
 9094SOL    HW228182   6.455   4.420   1.534
 9095SOL     OW28183   2.841   2.836   0.082
 9095SOL    HW128184   2.893   2.897   0.022
 9095SOL    HW228185   2.804   2.888   0.159
 9096SOL     OW28186   5.792   2.997   3.169
 9096SOL    HW128187   5.876   2.945   3.159
 9096SOL    HW228188   5.773   3.047   3.085
 9097SOL     OW28189   0.787   4.872   5.824
 9097SOL    HW128190   0.820   4.945   5.884
 9097SOL    HW228191   0.699   4.838   5.858
 9098SOL     OW28192   3.676   3.366   3.570
 9098SOL    HW128193   3.683   3.268   3.551
 9098SOL    HW228194   3.587   3.386   3.610
 9099SOL     OW28195   1.939   2.818   0.555
 9099SOL    HW128196   1.894   2.737   0.518
 9099SOL    HW228197   1.927   2.819   0.655
 9100SOL     OW28198   0.923   3.371   0.769
 9100SOL    HW128199   0.910   3.313   0.849
 9100SOL    HW228200   0.881   3.328   0.689
 9101SOL     OW28201   2.240   1.964   6.854
 9101SOL    HW128202   2.322   1.937   6.802
 9101SOL    HW228203   2.220   2.060   6.837
 9102SOL     OW28204   4.449   5.941   2.426
 9102SOL    HW128205   4.393   5.909   2.350
 9102SOL    HW228206   4.528   5.881   2.437
 9103SOL     OW28207   0.187   3.840   6.401
 9103SOL    HW128208   0.123   3.767   6.426
 9103SOL    HW228209   0.263   3.800   6.350
 9104SOL     OW28210   3.836   6.699   1.736
 9104SOL    HW128211   3.909   6.767   1.741
 9104SOL    HW228212   3.864   6.623   1.678
 9105SOL     OW28213   2.620   1.610   5.578
 9105SOL    HW128214   2.533   1.574   5.544
 9105SOL    HW228215   2.625   1.598   5.677
 9106SOL     OW28216   6.641   5.149   1.202
 9106SOL    HW128217   6.710   5.142   1.130
 9106SOL    HW228218   6.686   5.159   1.291
 9107SOL     OW28219   4.376   0.911   1.546
 9107SOL    HW128220   4.327   0.841   1.597
 9107SOL    HW228221   4.458   0.938   1.597
 9108SOL     OW28222   4.740   5.538   6.643
 9108SOL    HW128223   4.672   5.501   6.580
 9108SOL    HW228224   4.818   5.475   6.649
 9109SOL     OW28225   2.834   2.288   4.506
 9109SOL    HW128226   2.798   2.230   4.433
 9109SOL    HW228227   2.921   2.251   4.538
 9110SOL     OW28228   1.850   3.436   3.162
 9110SOL    HW128229   1.832   3.492   3.082
 9110SOL    HW228230   1.948   3.438   3.182
 9111SOL     OW28231   4.096   4.375   1.595
 9111SOL    HW128232   4.183   4.412   1.561
 9111SOL    HW228233   4.111   4.284   1.632
 9112SOL     OW28234   6.919   5.090   2.668
 9112SOL    HW128235   6.945   4.997   2.641
 9112SOL    HW228236   6.987   5.155   2.633
 9113SOL     OW28237   3.571   6.523   0.298
 9113SOL    HW128238   3.512   6.539   0.218
 9113SOL    HW228239   3.554   6.593   0.366
 9114SOL     OW28240   2.408   4.430   1.647
 9114SOL    HW128241   2.327   4.415   1.704
 9114SOL    HW228242   2.463   4.504   1.686
 9115SOL     OW28243   1.604   4.389   4.388
 9115SOL    HW128244   1.626   4.301   4.345
 9115SOL    HW228245   1.690   4.436   4.411
 9116SOL     OW28246   1.560   1.358   6.083
 9116SOL    HW128247   1.548   1.336   6.180
 9116SOL    HW228248   1.475   1.337   6.034
 9117SOL     OW28249   6.515   2.872   6.935
 9117SOL    HW128250   6.551   2.841   0.003
 9117SOL    HW228251   6.444   2.809   6.904
 9118SOL     OW28252   6.324   6.083   1.644
 9118SOL    HW128253   6.408   6.038   1.674
 9118SOL    HW228254   6.340   6.182   1.635
 9119SOL     OW28255   6.777   0.369   1.581
 9119SOL    HW128256   6.720   0.292   1.609
 9119SOL    HW228257   6.719   0.448   1.562
 9120SOL     OW28258   5.700   1.558   6.124
 9120SOL    HW128259   5.628   1.581   6.059
 9120SOL    HW228260   5.658   1.527   6.210
 9121SOL     OW28261   1.197   1.490   6.490
 9121SOL    HW128262   1.100   1.465   6.485
 9121SOL    HW228263   1.205   1.590   6.498
 9122SOL     OW28264   0.953   2.492   1.841
 9122SOL    HW128265   1.024   2.491   1.771
 9122SOL    HW228266   0.868   2.526   1.802
 9123SOL     OW28267   2.542   5.345   6.941
 9123SOL    HW128268   2.490   5.291   7.007
 9123SOL    HW228269   2.605   5.286   6.891
 9124SOL     OW28270   6.362   5.562   5.105
 9124SOL    HW128271   6.287   5.508   5.067
 9124SOL    HW228272   6.370   5.648   5.055
 9125SOL     OW28273   5.042   5.218   3.547
 9125SOL    HW128274   4.957   5.262   3.519
 9125SOL    HW228275   5.028   5.119   3.554
 9126SOL     OW28276   6.220   0.749   1.545
 9126SOL    HW128277   6.291   0.793   1.600
 9126SOL    HW228278   6.137   0.803   1.549
 9127SOL     OW28279   4.958   0.905   0.175
 9127SOL    HW128280   5.015   0.846   0.118
 9127SOL    HW228281   4.991   0.901   0.270
 9128SOL     OW28282   4.449   2.395   4.996
 9128SOL    HW128283   4.362   2.410   5.042
 9128SOL    HW228284   4.463   2.297   4.982
 9129SOL     OW28285   1.881   2.050   6.006
 9129SOL    HW128286   1.902   1.996   6.087
 9129SOL    HW228287   1.854   2.143   6.034
 9130SOL     OW28288   5.778   4.767   0.753
 9130SOL    HW128289   5.732   4.711   0.822
 9130SOL    HW228290   5.870   4.790   0.785
 9131SOL     OW28291   0.992   4.186   4.354
 9131SOL    HW128292   0.910   4.141   4.318
 9131SOL    HW228293   1.073   4.137   4.323
 9132SOL     OW28294   0.075   3.050   4.469
 9132SOL    HW128295   0.124   3.102   4.400
 9132SOL    HW228296   0.121   3.060   4.557
 9133SOL     OW28297   1.988   4.242   1.208
 9133SOL    HW128298   1.940   4.294   1.279
 9133SOL    HW228299   1.969   4.145   1.220
 9134SOL     OW28300   2.777   5.922   5.994
 9134SOL    HW128301   2.763   5.931   5.896
 9134SOL    HW228302   2.875   5.922   6.014
 9135SOL     OW28303   6.651   6.433   4.843
 9135SOL    HW128304   6.564   6.478   4.825
 9135SOL    HW228305   6.724   6.501   4.845
 9136SOL     OW28306   4.565   4.866   5.369
 9136SOL    HW128307   4.644   4.897   5.421
 9136SOL    HW228308   4.506   4.811   5.428
 9137SOL     OW28309   4.140   1.345   1.759
 9137SOL    HW128310   4.060   1.288   1.738
 9137SOL    HW228311   4.212   1.287   1.797
 9138SOL     OW28312   3.993   4.979   6.808
 9138SOL    HW128313   4.007   4.916   6.884
 9138SOL    HW228314   3.949   4.931   6.732
 9139SOL     OW28315   2.951   1.425   5.195
 9139SOL    HW128316   2.887   1.386   5.129
 9139SOL    HW228317   3.040   1.379   5.186
 9140SOL     OW28318   6.849   2.112   2.888
 9140SOL    HW128319   6.793   2.037   2.923
 9140SOL    HW228320   6.930   2.123   2.946
 9141SOL     OW28321   5.808   0.214   6.055
 9141SOL    HW128322   5.857   0.276   5.993
 9141SOL    HW228323   5.823   0.120   6.026
 9142SOL     OW28324   0.026   3.064   5.657
 9142SOL    HW128325   0.020   3.150   5.707
 9142SOL    HW228326   0.070   2.995   5.714
 9143SOL     OW28327   4.653   4.155   0.558
 9143SOL    HW128328   4.730   4.093   0.544
 9143SOL    HW228329   4.681   4.231   0.617
 9144SOL     OW28330   1.969   5.137   5.564
 9144SOL    HW128331   2.053   5.115   5.515
 9144SOL    HW228332   1.986   5.210   5.630
 9145SOL     OW28333   0.159   4.717   6.355
 9145SOL    HW128334   0.236   4.664   6.320
 9145SOL    HW228335   0.125   4.777   6.282
 9146SOL     OW28336   5.953   2.026   2.053
 9146SOL    HW128337   5.870   1.985   2.016
 9146SOL    HW228338   5.929   2.104   2.111
 9147SOL     OW28339   3.726   5.771   5.378
 9147SOL    HW128340   3.758   5.714   5.453
 9147SOL    HW228341   3.645   5.729   5.337
 9148SOL     OW28342   4.295   5.442   3.495
 9148SOL    HW128343   4.301   5.542   3.492
 9148SOL    HW228344   4.246   5.414   3.577
 9149SOL     OW28345   5.754   3.568   4.052
 9149SOL    HW128346   5.829   3.630   4.073
 9149SOL    HW228347   5.718   3.529   4.137
 9150SOL     OW28348   4.925   0.287   2.939
 9150SOL    HW128349   5.006   0.230   2.927
 9150SOL    HW228350   4.863   0.244   3.006
 9151SOL     OW28351   1.485   4.437   2.033
 9151SOL    HW128352   1.445   4.443   2.125
 9151SOL    HW228353   1.472   4.344   1.998
 9152SOL     OW28354   1.804   5.895   3.310
 9152SOL    HW128355   1.768   5.814   3.263
 9152SOL    HW228356   1.898   5.879   3.337
 9153SOL     OW28357   1.997   2.915   6.361
 9153SOL    HW128358   2.071   2.861   6.400
 9153SOL    HW228359   1.951   2.863   6.289
 9154SOL     OW28360   2.247   5.809   0.390
 9154SOL    HW128361   2.204   5.891   0.352
 9154SOL    HW228362   2.312   5.772   0.324
 9155SOL     OW28363   1.092   3.976   0.131
 9155SOL    HW128364   1.147   3.977   0.047
 9155SOL    HW228365   1.016   3.912   0.120
 9156SOL     OW28366   4.708   2.276   1.247
 9156SOL    HW128367   4.647   2.355   1.239
 9156SOL    HW228368   4.714   2.249   1.343
 9157SOL     OW28369   5.172   3.972   5.848
 9157SOL    HW128370   5.157   3.894   5.787
 9157SOL    HW228371   5.096   3.979   5.912
 9158SOL     OW28372   1.087   3.884   4.068
 9158SOL    HW128373   1.015   3.953   4.060
 9158SOL    HW228374   1.052   3.795   4.037
 9159SOL     OW28375   6.992   4.831   3.104
 9159SOL    HW128376   6.918   4.897   3.093
 9159SOL    HW228377   0.059   4.874   3.076
 9160SOL     OW28378   0.641   0.073   0.125
 9160SOL    HW128379   0.698   0.058   0.206
 9160SOL    HW228380   0.666   0.007   0.054
 9161SOL     OW28381   5.058   4.327   4.763
 9161SOL    HW128382   5.132   4.304   4.826
 9161SOL    HW228383   5.073   4.281   4.675
 9162SOL     OW28384   4.772   2.877   2.532
 9162SOL    HW128385   4.709   2.811   2.572
 9162SOL    HW228386   4.735   2.970   2.545
 9163SOL     OW28387   2.959   2.247   3.843
 9163SOL    HW128388   3.032   2.198   3.890
 9163SOL    HW228389   2.893   2.281   3.909
 9164SOL     OW28390   3.263   0.514   0.026
 9164SOL    HW128391   3.247   0.422   0.064
 9164SOL    HW228392   3.192   0.576   0.059
 9165SOL     OW28393   6.080   0.209   6.862
 9165SOL    HW128394   6.133   0.182   6.943
 9165SOL    HW228395   6.127   0.285   6.816
 9166SOL     OW28396   2.922   5.452   1.001
 9166SOL    HW128397   2.895   5.519   0.932
 9166SOL    HW228398   3.017   5.469   1.029
 9167SOL     OW28399   1.742   4.472   5.409
 9167SOL    HW128400   1.814   4.423   5.361
 9167SOL    HW228401   1.779   4.515   5.492
 9168SOL     OW28402   2.332   0.564   6.282
 9168SOL    HW128403   2.237   0.574   6.312
 9168SOL    HW228404   2.365   0.473   6.305
 9169SOL     OW28405   0.391   0.774   3.644
 9169SOL    HW128406   0.370   0.802   3.737
 9169SOL    HW228407   0.470   0.826   3.611
 9170SOL     OW28408   6.897   5.591   7.010
 9170SOL    HW128409   6.948   5.506   0.005
 9170SOL    HW228410   6.838   5.609   0.069
 9171SOL     OW28411   2.994   5.565   0.146
 9171SOL    HW128412   2.981   5.656   0.108
 9171SOL    HW228413   2.912   5.536   0.194
 9172SOL     OW28414   3.165   1.454   3.804
 9172SOL    HW128415   3.181   1.433   3.707
 9172SOL    HW228416   3.252   1.475   3.848
 9173SOL     OW28417   0.193   5.368   3.882
 9173SOL    HW128418   0.148   5.430   3.945
 9173SOL    HW228419   0.279   5.408   3.851
 9174SOL     OW28420   0.045   4.946   0.279
 9174SOL    HW128421   7.018   4.864   0.312
 9174SOL    HW228422   0.134   4.954   0.324
 9175SOL     OW28423   2.047   5.649   6.232
 9175SOL    HW128424   2.075   5.571   6.287
 9175SOL    HW228425   2.125   5.709   6.217
 9176SOL     OW28426   2.060   0.028   5.869
 9176SOL    HW128427   2.110   0.094   5.813
 9176SOL    HW228428   2.025   0.072   5.951
 9177SOL     OW28429   1.194   4.424   3.351
 9177SOL    HW128430   1.095   4.425   3.362
 9177SOL    HW228431   1.229   4.518   3.356
 9178SOL     OW28432   1.902   4.897   0.569
 9178SOL    HW128433   1.855   4.931   0.650
 9178SOL    HW228434   1.907   4.970   0.500
 9179SOL     OW28435   3.259   4.902   4.154
 9179SOL    HW128436   3.189   4.855   4.207
 9179SOL    HW228437   3.322   4.948   4.215
 9180SOL     OW28438   5.607   2.258   3.893
 9180SOL    HW128439   5.518   2.231   3.929
 9180SOL    HW228440   5.607   2.249   3.793
 9181SOL     OW28441   4.600   2.083   2.552
 9181SOL    HW128442   4.542   2.087   2.471
 9181SOL    HW228443   4.662   2.161   2.553
 9182SOL     OW28444   1.004   6.245   1.457
 9182SOL    HW128445   1.048   6.228   1.369
 9182SOL    HW228446   0.907   6.222   1.450
 9183SOL     OW28447   5.131   6.714   0.976
 9183SOL    HW128448   5.183   6.628   0.982
 9183SOL    HW228449   5.179   6.777   0.915
 9184SOL     OW28450   4.973   0.232   1.004
 9184SOL    HW128451   4.906   0.218   0.931
 9184SOL    HW228452   5.010   0.324   0.998
 9185SOL     OW28453   3.790   0.774   5.123
 9185SOL    HW128454   3.843   0.709   5.068
 9185SOL    HW228455   3.740   0.836   5.062
 9186SOL     OW28456   6.212   1.185   5.741
 9186SOL    HW128457   6.219   1.111   5.808
 9186SOL    HW228458   6.297   1.238   5.741
 9187SOL     OW28459   2.568   6.635   2.019
 9187SOL    HW128460   2.486   6.619   1.963
 9187SOL    HW228461   2.572   6.567   2.092
 9188SOL     OW28462   2.466   6.652   1.255
 9188SOL    HW128463   2.418   6.626   1.171
 9188SOL    HW228464   2.487   6.570   1.309
 9189SOL     OW28465   5.369   5.256   2.707
 9189SOL    HW128466   5.272   5.247   2.684
 9189SOL    HW228467   5.379   5.261   2.806
 9190SOL     OW28468   1.427   4.955   0.557
 9190SOL    HW128469   1.357   5.026   0.550
 9190SOL    HW228470   1.517   4.996   0.539
 9191SOL     OW28471   6.683   0.431   5.971
 9191SOL    HW128472   6.731   0.376   5.903
 9191SOL    HW228473   6.611   0.484   5.927
 9192SOL     OW28474   6.972   4.399   4.371
 9192SOL    HW128475   0.033   4.449   4.342
 9192SOL    HW228476   6.893   4.429   4.319
 9193SOL     OW28477   2.827   3.539   6.999
 9193SOL    HW128478   2.855   3.601   0.052
 9193SOL    HW228479   2.860   3.447   7.020
 9194SOL     OW28480   3.456   0.634   3.905
 9194SOL    HW128481   3.467   0.631   3.805
 9194SOL    HW228482   3.463   0.729   3.936
 9195SOL     OW28483   1.617   2.012   4.219
 9195SOL    HW128484   1.640   2.109   4.227
 9195SOL    HW228485   1.526   2.003   4.178
 9196SOL     OW28486   4.777   1.910   5.008
 9196SOL    HW128487   4.766   1.938   5.103
 9196SOL    HW228488   4.867   1.866   4.997
 9197SOL     OW28489   2.315   3.609   1.674
 9197SOL    HW128490   2.334   3.535   1.739
 9197SOL    HW228491   2.248   3.671   1.714
 9198SOL     OW28492   6.215   5.175   4.938
 9198SOL    HW128493   6.218   5.103   4.869
 9198SOL    HW228494   6.297   5.231   4.932
 9199SOL     OW28495   6.740   4.385   5.460
 9199SOL    HW128496   6.795   4.456   5.506
 9199SOL    HW228497   6.743   4.399   5.361
 9200SOL     OW28498   3.505   0.160   0.610
 9200SOL    HW128499   3.446   0.154   0.530
 9200SOL    HW228500   3.480   0.240   0.664
 9201SOL     OW28501   1.671   4.192   0.254
 9201SOL    HW128502   1.751   4.240   0.218
 9201SOL    HW228503   1.671   4.197   0.354
 9202SOL     OW28504   2.152   0.569   3.106
 9202SOL    HW128505   2.179   0.660   3.136
 9202SOL    HW228506   2.154   0.506   3.184
 9203SOL     OW28507   6.675   5.586   0.533
 9203SOL    HW128508   6.603   5.650   0.560
 9203SOL    HW228509   6.644   5.530   0.457
 9204SOL     OW28510   5.329   1.481   6.294
 9204SOL    HW128511   5.385   1.412   6.250
 9204SOL    HW228512   5.364   1.501   6.386
 9205SOL     OW28513   6.816   3.393   2.661
 9205SOL    HW128514   6.817   3.481   2.613
 9205SOL    HW228515   6.854   3.406   2.753
 9206SOL     OW28516   4.106   6.289   0.716
 9206SOL    HW128517   4.022   6.253   0.674
 9206SOL    HW228518   4.142   6.222   0.781
 9207SOL     OW28519   4.960   5.379   0.519
 9207SOL    HW128520   4.886   5.434   0.482
 9207SOL    HW228521   4.928   5.285   0.533
 9208SOL     OW28522   1.005   3.827   3.494
 9208SOL    HW128523   1.065   3.761   3.450
 9208SOL    HW228524   1.041   3.850   3.585
 9209SOL     OW28525   2.946   1.193   6.384
 9209SOL    HW128526   2.927   1.212   6.288
 9209SOL    HW228527   3.044   1.179   6.396
 9210SOL     OW28528   6.594   0.938   3.811
 9210SOL    HW128529   6.556   0.999   3.881
 9210SOL    HW228530   6.522   0.916   3.745
 9211SOL     OW28531   0.410   1.439   3.475
 9211SOL    HW128532   0.376   1.346   3.456
 9211SOL    HW228533   0.505   1.434   3.503
 9212SOL     OW28534   3.072   5.187   5.064
 9212SOL    HW128535   2.983   5.225   5.092
 9212SOL    HW228536   3.144   5.253   5.083
 9213SOL     OW28537   5.732   3.727   6.201
 9213SOL    HW128538   5.828   3.755   6.207
 9213SOL    HW228539   5.690   3.729   6.292
 9214SOL     OW28540   0.642   5.586   0.696
 9214SOL    HW128541   0.671   5.637   0.615
 9214SOL    HW228542   0.717   5.528   0.727
 9215SOL     OW28543   0.978   0.857   0.244
 9215SOL    HW128544   0.950   0.851   0.148
 9215SOL    HW228545   0.965   0.769   0.288
 9216SOL     OW28546   2.063   6.729   2.778
 9216SOL    HW128547   2.075   6.758   2.873
 9216SOL    HW228548   2.079   6.808   2.717
 9217SOL     OW28549   1.262   2.440   6.297
 9217SOL    HW128550   1.283   2.537   6.282
 9217SOL    HW228551   1.341   2.395   6.339
 9218SOL     OW28552   3.104   0.417   0.484
 9218SOL    HW128553   3.014   0.403   0.442
 9218SOL    HW228554   3.157   0.481   0.429
 9219SOL     OW28555   0.359   2.250   1.047
 9219SOL    HW128556   0.321   2.162   1.017
 9219SOL    HW228557   0.346   2.317   0.974
 9220SOL     OW28558   3.612   6.408   1.627
 9220SOL    HW128559   3.513   6.421   1.633
 9220SOL    HW228560   3.653   6.427   1.716
 9221SOL     OW28561   2.545   5.439   3.992
 9221SOL    HW128562   2.567   5.458   4.088
 9221SOL    HW228563   2.534   5.526   3.943
 9222SOL     OW28564   2.688   1.949   6.050
 9222SOL    HW128565   2.786   1.936   6.031
 9222SOL    HW228566   2.667   2.047   6.053
 9223SOL     OW28567   2.615   2.783   5.284
 9223SOL    HW128568   2.711   2.764   5.301
 9223SOL    HW228569   2.604   2.878   5.258
 9224SOL     OW28570   2.049   5.227   4.712
 9224SOL    HW128571   2.144   5.232   4.741
 9224SOL    HW228572   1.992   5.276   4.778
 9225SOL     OW28573   2.268   5.688   6.808
 9225SOL    HW128574   2.272   5.763   6.874
 9225SOL    HW228575   2.357   5.679   6.763
 9226SOL     OW28576   4.984   0.072   1.228
 9226SOL    HW128577   4.900   0.022   1.205
 9226SOL    HW228578   5.000   0.144   1.160
 9227SOL     OW28579   2.070   5.679   2.829
 9227SOL    HW128580   2.043   5.773   2.853
 9227SOL    HW228581   2.023   5.652   2.745
 9228SOL     OW28582   1.305   0.548   6.895
 9228SOL    HW128583   1.331   0.636   6.936
 9228SOL    HW228584   1.386   0.490   6.887
 9229SOL     OW28585   0.639   5.467   4.628
 9229SOL    HW128586   0.720   5.409   4.639
 9229SOL    HW228587   0.620   5.479   4.530
 9230SOL     OW28588   5.555   0.585   3.979
 9230SOL    HW128589   5.541   0.488   3.959
 9230SOL    HW228590   5.467   0.627   4.001
 9231SOL     OW28591   1.275   2.766   4.414
 9231SOL    HW128592   1.281   2.831   4.338
 9231SOL    HW228593   1.247   2.677   4.380
 9232SOL     OW28594   3.421   4.553   0.648
 9232SOL    HW128595   3.432   4.652   0.650
 9232SOL    HW228596   3.508   4.508   0.666
 9233SOL     OW28597   5.742   5.009   0.564
 9233SOL    HW128598   5.658   5.017   0.617
 9233SOL    HW228599   5.796   4.932   0.598
 9234SOL     OW28600   2.296   5.769   3.575
 9234SOL    HW128601   2.327   5.705   3.645
 9234SOL    HW228602   2.335   5.860   3.593
 9235SOL     OW28603   0.836   2.312   2.798
 9235SOL    HW128604   0.771   2.383   2.771
 9235SOL    HW228605   0.925   2.354   2.818
 9236SOL     OW28606   3.009   3.496   5.110
 9236SOL    HW128607   3.108   3.483   5.106
 9236SOL    HW228608   2.964   3.417   5.069
 9237SOL     OW28609   1.787   4.207   3.736
 9237SOL    HW128610   1.711   4.174   3.792
 9237SOL    HW228611   1.838   4.128   3.702
 9238SOL     OW28612   4.419   2.811   6.079
 9238SOL    HW128613   4.434   2.861   6.164
 9238SOL    HW228614   4.461   2.861   6.003
 9239SOL     OW28615   0.885   4.306   0.771
 9239SOL    HW128616   0.842   4.353   0.694
 9239SOL    HW228617   0.814   4.264   0.828
 9240SOL     OW28618   4.397   1.758   1.972
 9240SOL    HW128619   4.410   1.754   2.071
 9240SOL    HW228620   4.348   1.842   1.949
 9241SOL     OW28621   0.808   5.813   6.857
 9241SOL    HW128622   0.900   5.851   6.865
 9241SOL    HW228623   0.811   5.730   6.801
 9242SOL     OW28624   5.978   5.998   1.966
 9242SOL    HW128625   5.978   5.899   1.951
 9242SOL    HW228626   6.041   6.020   2.041
 9243SOL     OW28627   6.528   5.629   4.841
 9243SOL    HW128628   6.598   5.698   4.859
 9243SOL    HW228629   6.438   5.673   4.837
 9244SOL     OW28630   3.685   5.212   6.118
 9244SOL    HW128631   3.675   5.198   6.216
 9244SOL    HW228632   3.759   5.277   6.101
 9245SOL     OW28633   0.403   5.761   1.546
 9245SOL    HW128634   0.387   5.757   1.645
 9245SOL    HW228635   0.499   5.786   1.530
 9246SOL     OW28636   6.779   5.483   3.900
 9246SOL    HW128637   6.716   5.464   3.975
 9246SOL    HW228638   6.862   5.525   3.935
 9247SOL     OW28639   1.257   6.748   2.559
 9247SOL    HW128640   1.340   6.770   2.610
 9247SOL    HW228641   1.279   6.683   2.486
 9248SOL     OW28642   3.227   1.921   6.639
 9248SOL    HW128643   3.315   1.874   6.641
 9248SOL    HW228644   3.194   1.936   6.732
 9249SOL     OW28645   4.720   0.238   3.839
 9249SOL    HW128646   4.706   0.288   3.925
 9249SOL    HW228647   4.774   0.295   3.776
 9250SOL     OW28648   5.432   3.493   3.589
 9250SOL    HW128649   5.385   3.430   3.651
 9250SOL    HW228650   5.506   3.540   3.638
 9251SOL     OW28651   3.240   2.151   2.456
 9251SOL    HW128652   3.149   2.118   2.483
 9251SOL    HW228653   3.231   2.238   2.407
 9252SOL     OW28654   0.277   0.231   5.202
 9252SOL    HW128655   0.359   0.174   5.208
 9252SOL    HW228656   0.275   0.278   5.113
 9253SOL     OW28657   1.369   6.972   5.959
 9253SOL    HW128658   1.392   6.876   5.972
 9253SOL    HW228659   1.425   0.009   6.019
 9254SOL     OW28660   5.850   3.881   1.510
 9254SOL    HW128661   5.919   3.871   1.439
 9254SOL    HW228662   5.841   3.794   1.560
 9255SOL     OW28663   5.484   4.303   0.884
 9255SOL    HW128664   5.447   4.388   0.922
 9255SOL    HW228665   5.551   4.324   0.813
 9256SOL     OW28666   4.350   4.809   1.870
 9256SOL    HW128667   4.324   4.806   1.774
 9256SOL    HW228668   4.419   4.739   1.889
 9257SOL     OW28669   1.085   4.254   1.374
 9257SOL    HW128670   1.056   4.192   1.301
 9257SOL    HW228671   1.098   4.346   1.336
 9258SOL     OW28672   3.827   3.537   3.449
 9258SOL    HW128673   3.841   3.626   3.491
 9258SOL    HW228674   3.750   3.491   3.492
 9259SOL     OW28675   1.264   2.908   0.807
 9259SOL    HW128676   1.172   2.886   0.839
 9259SOL    HW228677   1.331   2.876   0.873
 9260SOL     OW28678   5.143   3.470   5.861
 9260SOL    HW128679   5.126   3.470   5.959
 9260SOL    HW228680   5.237   3.497   5.843
 9261SOL     OW28681   4.651   0.167   6.503
 9261SOL    HW128682   4.629   0.147   6.599
 9261SOL    HW228683   4.627   0.261   6.482
 9262SOL     OW28684   5.057   1.627   5.739
 9262SOL    HW128685   5.100   1.553   5.791
 9262SOL    HW228686   5.120   1.657   5.667
 9263SOL     OW28687   5.040   3.588   1.799
 9263SOL    HW128688   5.139   3.576   1.807
 9263SOL    HW228689   5.006   3.640   1.877
 9264SOL     OW28690   6.563   3.759   0.161
 9264SOL    HW128691   6.478   3.804   0.189
 9264SOL    HW228692   6.565   3.666   0.198
 9265SOL     OW28693   2.411   1.440   0.198
 9265SOL    HW128694   2.319   1.472   0.176
 9265SOL    HW228695   2.406   1.357   0.253
 9266SOL     OW28696   2.008   6.477   3.164
 9266SOL    HW128697   1.970   6.471   3.072
 9266SOL    HW228698   2.057   6.393   3.186
 9267SOL     OW28699   0.910   4.706   4.403
 9267SOL    HW128700   1.004   4.675   4.385
 9267SOL    HW228701   0.912   4.803   4.428
 9268SOL     OW28702   0.559   6.894   2.881
 9268SOL    HW128703   0.628   6.881   2.811
 9268SOL    HW228704   0.576   6.831   2.957
 9269SOL     OW28705   3.367   1.592   6.397
 9269SOL    HW128706   3.404   1.532   6.467
 9269SOL    HW228707   3.273   1.565   6.375
 9270SOL     OW28708   6.826   0.019   6.267
 9270SOL    HW128709   6.875   6.952   6.275
 9270SOL    HW228710   6.757   0.012   6.195
 9271SOL     OW28711   1.749   5.057   0.757
 9271SOL    HW128712   1.832   5.104   0.787
 9271SOL    HW228713   1.678   5.124   0.737
 9272SOL     OW28714   2.602   4.996   5.702
 9272SOL    HW128715   2.542   5.039   5.770
 9272SOL    HW228716   2.549   4.935   5.644
 9273SOL     OW28717   4.073   5.686   4.683
 9273SOL    HW128718   4.005   5.663   4.612
 9273SOL    HW228719   4.109   5.778   4.666
 9274SOL     OW28720   6.218   2.319   6.559
 9274SOL    HW128721   6.301   2.297   6.507
 9274SOL    HW228722   6.243   2.375   6.638
 9275SOL     OW28723   1.633   0.419   6.404
 9275SOL    HW128724   1.610   0.513   6.380
 9275SOL    HW228725   1.620   0.360   6.324
 9276SOL     OW28726   4.107   5.714   4.971
 9276SOL    HW128727   4.107   5.620   5.004
 9276SOL    HW228728   4.096   5.715   4.872
 9277SOL     OW28729   3.836   3.014   6.991
 9277SOL    HW128730   3.779   3.085   0.013
 9277SOL    HW228731   3.777   2.942   6.955
 9278SOL     OW28732   1.358   2.080   2.895
 9278SOL    HW128733   1.307   2.144   2.837
 9278SOL    HW228734   1.305   1.996   2.906
 9279SOL     OW28735   2.836   0.029   1.932
 9279SOL    HW128736   2.857   0.082   1.850
 9279SOL    HW228737   2.822   6.953   1.908
 9280SOL     OW28738   1.968   6.713   3.656
 9280SOL    HW128739   1.955   6.804   3.694
 9280SOL    HW228740   2.011   6.654   3.725
 9281SOL     OW28741   1.997   2.386   6.918
 9281SOL    HW128742   2.083   2.428   6.947
 9281SOL    HW228743   1.939   2.370   6.998
 9282SOL     OW28744   4.349   1.602   5.199
 9282SOL    HW128745   4.395   1.529   5.250
 9282SOL    HW228746   4.368   1.591   5.101
 9283SOL     OW28747   5.610   3.048   2.331
 9283SOL    HW128748   5.616   2.960   2.377
 9283SOL    HW228749   5.568   3.037   2.241
 9284SOL     OW28750   3.016   3.226   1.423
 9284SOL    HW128751   2.985   3.308   1.471
 9284SOL    HW228752   3.113   3.210   1.445
 9285SOL     OW28753   6.347   2.717   6.771
 9285SOL    HW128754   6.421   2.668   6.725
 9285SOL    HW228755   6.291   2.764   6.703
 9286SOL     OW28756   4.992   6.672   5.346
 9286SOL    HW128757   5.087   6.641   5.345
 9286SOL    HW228758   4.968   6.701   5.439
 9287SOL     OW28759   3.151   6.526   1.101
 9287SOL    HW128760   3.124   6.551   1.194
 9287SOL    HW228761   3.158   6.426   1.095
 9288SOL     OW28762   5.168   2.467   5.863
 9288SOL    HW128763   5.225   2.493   5.941
 9288SOL    HW228764   5.085   2.522   5.862
 9289SOL     OW28765   4.948   2.611   2.385
 9289SOL    HW128766   4.876   2.679   2.393
 9289SOL    HW228767   4.910   2.524   2.354
 9290SOL     OW28768   5.027   2.136   4.321
 9290SOL    HW128769   5.051   2.040   4.306
 9290SOL    HW228770   5.039   2.187   4.235
 9291SOL     OW28771   0.819   1.145   4.601
 9291SOL    HW128772   0.913   1.146   4.636
 9291SOL    HW228773   0.819   1.179   4.507
 9292SOL     OW28774   0.129   2.967   6.345
 9292SOL    HW128775   0.161   2.935   6.434
 9292SOL    HW228776   0.203   3.017   6.299
 9293SOL     OW28777   5.537   4.058   0.452
 9293SOL    HW128778   5.439   4.041   0.436
 9293SOL    HW228779   5.558   4.152   0.426
 9294SOL     OW28780   5.467   6.798   0.024
 9294SOL    HW128781   5.424   6.886   0.043
 9294SOL    HW228782   5.455   6.776   6.947
 9295SOL     OW28783   4.723   1.606   3.214
 9295SOL    HW128784   4.729   1.530   3.278
 9295SOL    HW228785   4.813   1.621   3.172
 9296SOL     OW28786   5.609   6.795   5.997
 9296SOL    HW128787   5.659   6.787   6.083
 9296SOL    HW228788   5.624   6.713   5.941
 9297SOL     OW28789   0.597   1.085   1.040
 9297SOL    HW128790   0.517   1.104   0.983
 9297SOL    HW228791   0.579   1.118   1.133
 9298SOL     OW28792   1.383   5.924   5.041
 9298SOL    HW128793   1.377   5.979   4.957
 9298SOL    HW228794   1.294   5.923   5.086
 9299SOL     OW28795   1.718   3.561   4.332
 9299SOL    HW128796   1.640   3.555   4.394
 9299SOL    HW228797   1.695   3.621   4.256
 9300SOL     OW28798   5.348   4.511   4.504
 9300SOL    HW128799   5.391   4.429   4.466
 9300SOL    HW228800   5.384   4.592   4.458
 9301SOL     OW28801   5.227   4.663   2.534
 9301SOL    HW128802   5.201   4.677   2.629
 9301SOL    HW228803   5.145   4.662   2.477
 9302SOL     OW28804   2.280   2.225   2.575
 9302SOL    HW128805   2.232   2.311   2.594
 9302SOL    HW228806   2.306   2.223   2.478
 9303SOL     OW28807   3.883   5.811   6.779
 9303SOL    HW128808   3.839   5.749   6.714
 9303SOL    HW228809   3.931   5.758   6.849
 9304SOL     OW28810   3.636   3.477   1.158
 9304SOL    HW128811   3.668   3.398   1.106
 9304SOL    HW228812   3.669   3.470   1.252
 9305SOL     OW28813   5.833   3.041   2.039
 9305SOL    HW128814   5.902   2.991   2.092
 9305SOL    HW228815   5.742   3.005   2.061
 9306SOL     OW28816   0.050   4.013   4.075
 9306SOL    HW128817   6.984   4.041   4.117
 9306SOL    HW228818   0.067   3.916   4.093
 9307SOL     OW28819   1.688   2.130   0.545
 9307SOL    HW128820   1.589   2.117   0.545
 9307SOL    HW228821   1.733   2.042   0.560
 9308SOL     OW28822   0.328   3.080   1.095
 9308SOL    HW128823   0.356   3.175   1.081
 9308SOL    HW228824   0.410   3.023   1.105
 9309SOL     OW28825   4.617   3.600   5.951
 9309SOL    HW128826   4.528   3.598   5.996
 9309SOL    HW228827   4.662   3.511   5.963
 9310SOL     OW28828   4.449   6.052   6.946
 9310SOL    HW128829   4.488   6.027   0.014
 9310SOL    HW228830   4.429   6.150   6.945
 9311SOL     OW28831   5.776   3.452   0.833
 9311SOL    HW128832   5.758   3.550   0.833
 9311SOL    HW228833   5.860   3.434   0.884
 9312SOL     OW28834   0.942   4.036   6.363
 9312SOL    HW128835   0.990   4.122   6.350
 9312SOL    HW228836   0.961   4.000   6.455
 9313SOL     OW28837   6.794   6.978   3.114
 9313SOL    HW128838   6.807   6.883   3.142
 9313SOL    HW228839   6.799   0.018   3.194
 9314SOL     OW28840   4.920   4.980   6.920
 9314SOL    HW128841   4.958   5.004   7.010
 9314SOL    HW228842   4.834   4.931   6.932
 9315SOL     OW28843   0.140   6.828   5.661
 9315SOL    HW128844   0.082   6.762   5.614
 9315SOL    HW228845   0.128   6.918   5.619
 9316SOL     OW28846   3.951   5.913   3.706
 9316SOL    HW128847   4.007   5.863   3.772
 9316SOL    HW228848   3.903   5.847   3.648
 9317SOL     OW28849   6.802   5.165   3.877
 9317SOL    HW128850   6.780   5.258   3.846
 9317SOL    HW228851   6.900   5.156   3.888
 9318SOL     OW28852   0.450   0.505   6.471
 9318SOL    HW128853   0.466   0.435   6.541
 9318SOL    HW228854   0.505   0.586   6.491
 9319SOL     OW28855   0.622   3.213   6.148
 9319SOL    HW128856   0.640   3.286   6.215
 9319SOL    HW228857   0.631   3.250   6.056
 9320SOL     OW28858   4.223   2.215   5.977
 9320SOL    HW128859   4.161   2.292   5.989
 9320SOL    HW228860   4.314   2.241   6.010
 9321SOL     OW28861   6.244   6.171   3.282
 9321SOL    HW128862   6.192   6.216   3.210
 9321SOL    HW228863   6.339   6.204   3.281
 9322SOL     OW28864   1.014   6.540   5.907
 9322SOL    HW128865   1.047   6.634   5.910
 9322SOL    HW228866   1.090   6.478   5.923
 9323SOL     OW28867   0.971   1.279   6.733
 9323SOL    HW128868   1.039   1.286   6.806
 9323SOL    HW228869   0.954   1.370   6.695
 9324SOL     OW28870   1.372   5.722   0.407
 9324SOL    HW128871   1.455   5.736   0.354
 9324SOL    HW228872   1.293   5.718   0.344
 9325SOL     OW28873   5.727   2.247   0.986
 9325SOL    HW128874   5.806   2.187   0.971
 9325SOL    HW228875   5.727   2.280   1.080
 9326SOL     OW28876   1.955   0.023   1.168
 9326SOL    HW128877   1.901   0.078   1.231
 9326SOL    HW228878   1.998   6.968   1.217
 9327SOL     OW28879   4.144   1.046   2.598
 9327SOL    HW128880   4.183   0.968   2.548
 9327SOL    HW228881   4.202   1.126   2.585
 9328SOL     OW28882   3.562   1.260   1.387
 9328SOL    HW128883   3.536   1.335   1.327
 9328SOL    HW228884   3.501   1.182   1.372
 9329SOL     OW28885   1.189   3.279   2.288
 9329SOL    HW128886   1.276   3.253   2.244
 9329SOL    HW228887   1.141   3.196   2.317
 9330SOL     OW28888   6.064   0.794   0.279
 9330SOL    HW128889   6.090   0.771   0.373
 9330SOL    HW228890   5.987   0.858   0.280
 9331SOL     OW28891   0.761   0.661   6.792
 9331SOL    HW128892   0.677   0.659   6.737
 9331SOL    HW228893   0.818   0.737   6.763
 9332SOL     OW28894   3.097   3.164   4.105
 9332SOL    HW128895   3.183   3.206   4.076
 9332SOL    HW228896   3.098   3.067   4.081
 9333SOL     OW28897   5.903   4.639   0.525
 9333SOL    HW128898   5.927   4.543   0.539
 9333SOL    HW228899   5.853   4.672   0.605
 9334SOL     OW28900   3.003   0.075   4.519
 9334SOL    HW128901   2.920   0.020   4.514
 9334SOL    HW228902   2.979   0.170   4.541
 9335SOL     OW28903   1.249   0.364   0.280
 9335SOL    HW128904   1.232   0.371   0.182
 9335SOL    HW228905   1.202   0.283   0.315
 9336SOL     OW28906   2.724   6.851   6.046
 9336SOL    HW128907   2.707   6.867   5.949
 9336SOL    HW228908   2.766   6.761   6.058
 9337SOL     OW28909   5.364   0.037   2.258
 9337SOL    HW128910   5.437   7.012   2.207
 9337SOL    HW228911   5.367   0.136   2.242
 9338SOL     OW28912   3.409   6.845   2.345
 9338SOL    HW128913   3.400   6.817   2.250
 9338SOL    HW228914   3.504   6.871   2.363
 9339SOL     OW28915   4.356   6.316   1.164
 9339SOL    HW128916   4.341   6.362   1.251
 9339SOL    HW228917   4.284   6.341   1.100
 9340SOL     OW28918   6.110   3.828   6.893
 9340SOL    HW128919   6.205   3.797   6.906
 9340SOL    HW228920   6.059   3.758   6.842
 9341SOL     OW28921   0.119   5.540   6.507
 9341SOL    HW128922   0.026   5.570   6.487
 9341SOL    HW228923   0.123   5.502   6.600
 9342SOL     OW28924   1.604   6.478   6.308
 9342SOL    HW128925   1.645   6.518   6.390
 9342SOL    HW228926   1.555   6.394   6.333
 9343SOL     OW28927   5.857   5.276   4.817
 9343SOL    HW128928   5.786   5.346   4.805
 9343SOL    HW228929   5.928   5.290   4.748
 9344SOL     OW28930   5.095   6.507   1.395
 9344SOL    HW128931   5.035   6.427   1.406
 9344SOL    HW228932   5.181   6.491   1.444
 9345SOL     OW28933   6.640   3.039   0.906
 9345SOL    HW128934   6.682   2.994   0.985
 9345SOL    HW228935   6.696   3.118   0.879
 9346SOL     OW28936   5.497   0.005   0.713
 9346SOL    HW128937   5.548   6.963   0.653
 9346SOL    HW228938   5.404   0.017   0.678
 9347SOL     OW28939   1.734   0.121   1.458
 9347SOL    HW128940   1.673   0.126   1.379
 9347SOL    HW228941   1.784   0.207   1.467
 9348SOL     OW28942   3.160   4.910   6.749
 9348SOL    HW128943   3.086   4.977   6.745
 9348SOL    HW228944   3.141   4.836   6.684
 9349SOL     OW28945   1.700   0.027   2.557
 9349SOL    HW128946   1.762   7.006   2.625
 9349SOL    HW228947   1.746   0.029   2.468
 9350SOL     OW28948   0.672   2.387   6.297
 9350SOL    HW128949   0.680   2.294   6.262
 9350SOL    HW228950   0.762   2.422   6.321
 9351SOL     OW28951   3.546   2.063   6.596
 9351SOL    HW128952   3.481   2.111   6.537
 9351SOL    HW228953   3.512   2.065   6.690
 9352SOL     OW28954   2.344   5.434   5.610
 9352SOL    HW128955   2.336   5.511   5.673
 9352SOL    HW228956   2.357   5.349   5.662
 9353SOL     OW28957   6.433   0.284   1.211
 9353SOL    HW128958   6.361   0.214   1.207
 9353SOL    HW228959   6.508   0.251   1.268
 9354SOL     OW28960   6.687   2.316   6.622
 9354SOL    HW128961   6.781   2.337   6.649
 9354SOL    HW228962   6.647   2.251   6.686
 9355SOL     OW28963   0.062   1.381   5.003
 9355SOL    HW128964   0.105   1.410   5.088
 9355SOL    HW228965   0.096   1.437   4.927
 9356SOL     OW28966   4.690   6.737   1.952
 9356SOL    HW128967   4.619   6.695   2.008
 9356SOL    HW228968   4.677   6.836   1.949
 9357SOL     OW28969   0.691   2.086   6.937
 9357SOL    HW128970   0.592   2.096   6.951
 9357SOL    HW228971   0.733   2.176   6.928
 9358SOL     OW28972   0.862   3.542   1.639
 9358SOL    HW128973   0.871   3.640   1.625
 9358SOL    HW228974   0.766   3.519   1.651
 9359SOL     OW28975   1.632   0.306   5.775
 9359SOL    HW128976   1.612   0.392   5.728
 9359SOL    HW228977   1.685   0.247   5.715
 9360SOL     OW28978   1.058   0.051   6.632
 9360SOL    HW128979   1.119   7.016   6.575
 9360SOL    HW228980   1.112   0.104   6.698
 9361SOL     OW28981   1.971   6.004   4.165
 9361SOL    HW128982   1.892   5.945   4.184
 9361SOL    HW228983   1.981   6.014   4.066
 9362SOL     OW28984   1.861   0.468   2.432
 9362SOL    HW128985   1.764   0.492   2.421
 9362SOL    HW228986   1.881   0.454   2.529
 9363SOL     OW28987   2.464   4.882   2.149
 9363SOL    HW128988   2.443   4.830   2.066
 9363SOL    HW228989   2.421   4.972   2.144
 9364SOL     OW28990   1.561   2.359   1.017
 9364SOL    HW128991   1.596   2.291   0.953
 9364SOL    HW228992   1.616   2.359   1.100
 9365SOL     OW28993   3.130   2.129   4.302
 9365SOL    HW128994   3.218   2.122   4.350
 9365SOL    HW228995   3.074   2.049   4.323
 9366SOL     OW28996   4.108   5.173   0.877
 9366SOL    HW128997   4.183   5.168   0.943
 9366SOL    HW228998   4.066   5.264   0.881
 9367SOL     OW28999   6.829   0.976   1.495
 9367SOL    HW129000   6.911   0.918   1.495
 9367SOL    HW229001   6.747   0.918   1.490
 9368SOL     OW29002   3.496   0.511   2.718
 9368SOL    HW129003   3.508   0.412   2.723
 9368SOL    HW229004   3.406   0.536   2.755
 9369SOL     OW29005   2.808   5.242   0.293
 9369SOL    HW129006   2.816   5.340   0.274
 9369SOL    HW229007   2.819   5.225   0.391
 9370SOL     OW29008   4.433   1.603   4.112
 9370SOL    HW129009   4.461   1.566   4.023
 9370SOL    HW229010   4.510   1.599   4.175
 9371SOL     OW29011   4.357   5.498   0.827
 9371SOL    HW129012   4.426   5.426   0.833
 9371SOL    HW229013   4.338   5.535   0.918
 9372SOL     OW29014   4.604   6.563   1.320
 9372SOL    HW129015   4.613   6.656   1.356
 9372SOL    HW229016   4.522   6.520   1.359
 9373SOL     OW29017   0.056   2.039   0.892
 9373SOL    HW129018   0.045   2.121   0.948
 9373SOL    HW229019   0.104   2.063   0.807
 9374SOL     OW29020   6.986   5.259   5.911
 9374SOL    HW129021   6.978   5.167   5.872
 9374SOL    HW229022   0.059   5.273   5.945
 9375SOL     OW29023   0.398   0.878   0.090
 9375SOL    HW129024   0.335   0.926   0.151
 9375SOL    HW229025   0.350   0.807   0.041
 9376SOL     OW29026   2.125   3.746   1.844
 9376SOL    HW129027   2.127   3.666   1.904
 9376SOL    HW229028   2.043   3.744   1.788
 9377SOL     OW29029   1.944   0.850   4.018
 9377SOL    HW129030   1.887   0.912   3.964
 9377SOL    HW229031   1.930   0.756   3.987
 9378SOL     OW29032   3.391   0.648   4.252
 9378SOL    HW129033   3.379   0.626   4.155
 9378SOL    HW229034   3.302   0.660   4.295
 9379SOL     OW29035   4.258   6.370   4.457
 9379SOL    HW129036   4.265   6.350   4.359
 9379SOL    HW229037   4.345   6.348   4.501
 9380SOL     OW29038   5.150   5.969   0.105
 9380SOL    HW129039   5.083   6.042   0.090
 9380SOL    HW229040   5.102   5.885   0.132
 9381SOL     OW29041   5.969   1.612   5.140
 9381SOL    HW129042   6.029   1.596   5.061
 9381SOL    HW229043   6.003   1.690   5.192
 9382SOL     OW29044   3.072   5.855   4.878
 9382SOL    HW129045   3.049   5.886   4.785
 9382SOL    HW229046   3.150   5.793   4.874
 9383SOL     OW29047   5.627   4.425   2.583
 9383SOL    HW129048   5.646   4.333   2.547
 9383SOL    HW229049   5.533   4.428   2.616
 9384SOL     OW29050   2.643   0.953   2.363
 9384SOL    HW129051   2.562   0.895   2.366
 9384SOL    HW229052   2.680   0.954   2.270
 9385SOL     OW29053   4.771   1.855   3.584
 9385SOL    HW129054   4.731   1.903   3.662
 9385SOL    HW229055   4.714   1.869   3.503
 9386SOL     OW29056   4.812   6.571   0.278
 9386SOL    HW129057   4.847   6.646   0.333
 9386SOL    HW229058   4.756   6.608   0.203
 9387SOL     OW29059   2.886   2.495   0.528
 9387SOL    HW129060   2.817   2.544   0.474
 9387SOL    HW229061   2.863   2.500   0.625
 9388SOL     OW29062   2.185   5.971   5.141
 9388SOL    HW129063   2.281   5.943   5.147
 9388SOL    HW229064   2.151   5.953   5.049
 9389SOL     OW29065   2.692   4.863   1.703
 9389SOL    HW129066   2.611   4.805   1.712
 9389SOL    HW229067   2.750   4.852   1.783
 9390SOL     OW29068   5.272   5.178   4.600
 9390SOL    HW129069   5.337   5.149   4.530
 9390SOL    HW229070   5.264   5.107   4.670
 9391SOL     OW29071   1.307   5.122   4.508
 9391SOL    HW129072   1.303   5.033   4.553
 9391SOL    HW229073   1.339   5.110   4.414
 9392SOL     OW29074   5.052   4.512   2.948
 9392SOL    HW129075   4.995   4.441   2.907
 9392SOL    HW229076   5.103   4.473   3.025
 9393SOL     OW29077   2.712   6.264   6.391
 9393SOL    HW129078   2.648   6.202   6.436
 9393SOL    HW229079   2.750   6.327   6.458
 9394SOL     OW29080   3.525   0.981   0.250
 9394SOL    HW129081   3.487   0.986   0.158
 9394SOL    HW229082   3.509   1.067   0.298
 9395SOL     OW29083   1.984   1.597   0.730
 9395SOL    HW129084   1.903   1.545   0.702
 9395SOL    HW229085   1.975   1.624   0.826
 9396SOL     OW29086   0.508   6.332   6.870
 9396SOL    HW129087   0.598   6.311   6.832
 9396SOL    HW229088   0.509   6.422   6.912
 9397SOL     OW29089   3.491   0.564   5.319
 9397SOL    HW129090   3.590   0.583   5.318
 9397SOL    HW229091   3.457   0.561   5.225
 9398SOL     OW29092   0.688   1.841   0.242
 9398SOL    HW129093   0.684   1.744   0.218
 9398SOL    HW229094   0.783   1.866   0.262
 9399SOL     OW29095   0.962   2.993   4.164
 9399SOL    HW129096   0.863   2.990   4.149
 9399SOL    HW229097   0.981   3.045   4.248
 9400SOL     OW29098   5.835   1.286   0.951
 9400SOL    HW129099   5.842   1.350   0.874
 9400SOL    HW229100   5.753   1.304   1.004
 9401SOL     OW29101   0.673   2.273   3.743
 9401SOL    HW129102   0.700   2.293   3.838
 9401SOL    HW229103   0.574   2.258   3.740
 9402SOL     OW29104   2.271   6.413   3.897
 9402SOL    HW129105   2.344   6.429   3.963
 9402SOL    HW229106   2.196   6.477   3.914
 9403SOL     OW29107   5.788   2.509   2.366
 9403SOL    HW129108   5.791   2.429   2.426
 9403SOL    HW229109   5.702   2.508   2.314
 9404SOL     OW29110   1.999   2.638   0.888
 9404SOL    HW129111   1.920   2.582   0.864
 9404SOL    HW229112   2.081   2.581   0.886
 9405SOL     OW29113   6.761   5.621   5.282
 9405SOL    HW129114   6.813   5.575   5.354
 9405SOL    HW229115   6.674   5.574   5.269
 9406SOL     OW29116   1.133   2.850   6.952
 9406SOL    HW129117   1.076   2.768   6.959
 9406SOL    HW229118   1.185   2.847   6.866
 9407SOL     OW29119   1.273   5.173   5.423
 9407SOL    HW129120   1.200   5.199   5.487
 9407SOL    HW229121   1.352   5.141   5.475
 9408SOL     OW29122   0.366   3.710   4.689
 9408SOL    HW129123   0.342   3.640   4.622
 9408SOL    HW229124   0.430   3.673   4.756
 9409SOL     OW29125   6.296   4.663   2.999
 9409SOL    HW129126   6.331   4.569   3.002
 9409SOL    HW229127   6.282   4.696   3.093
 9410SOL     OW29128   3.759   1.135   0.875
 9410SOL    HW129129   3.785   1.187   0.957
 9410SOL    HW229130   3.672   1.170   0.840
 9411SOL     OW29131   2.859   3.537   3.037
 9411SOL    HW129132   2.900   3.623   3.008
 9411SOL    HW229133   2.825   3.487   2.957
 9412SOL     OW29134   5.804   6.123   1.222
 9412SOL    HW129135   5.707   6.143   1.237
 9412SOL    HW229136   5.858   6.204   1.243
 9413SOL     OW29137   4.685   4.224   2.780
 9413SOL    HW129138   4.666   4.132   2.814
 9413SOL    HW229139   4.783   4.244   2.788
 9414SOL     OW29140   1.798   2.095   3.430
 9414SOL    HW129141   1.861   2.039   3.484
 9414SOL    HW229142   1.808   2.073   3.333
 9415SOL     OW29143   4.780   1.541   1.969
 9415SOL    HW129144   4.818   1.551   2.061
 9415SOL    HW229145   4.743   1.449   1.959
 9416SOL     OW29146   5.785   5.174   5.380
 9416SOL    HW129147   5.762   5.245   5.447
 9416SOL    HW229148   5.798   5.087   5.427
 9417SOL     OW29149   3.253   5.302   2.498
 9417SOL    HW129150   3.310   5.271   2.575
 9417SOL    HW229151   3.205   5.385   2.524
 9418SOL     OW29152   3.802   1.488   5.094
 9418SOL    HW129153   3.880   1.427   5.112
 9418SOL    HW229154   3.766   1.469   5.003
 9419SOL     OW29155   1.644   3.002   6.294
 9419SOL    HW129156   1.546   3.004   6.274
 9419SOL    HW229157   1.658   2.983   6.391
 9420SOL     OW29158   5.958   4.268   6.493
 9420SOL    HW129159   5.954   4.342   6.426
 9420SOL    HW229160   5.893   4.197   6.468
 9421SOL     OW29161   4.409   6.382   6.300
 9421SOL    HW129162   4.344   6.453   6.326
 9421SOL    HW229163   4.486   6.424   6.251
 9422SOL     OW29164   1.914   6.038   6.015
 9422SOL    HW129165   1.885   5.943   6.010
 9422SOL    HW229166   1.982   6.057   5.945
 9423SOL     OW29167   4.418   4.713   2.571
 9423SOL    HW129168   4.468   4.631   2.597
 9423SOL    HW229169   4.479   4.775   2.520
 9424SOL     OW29170   6.051   7.001   4.102
 9424SOL    HW129171   6.075   6.917   4.151
 9424SOL    HW229172   6.131   0.041   4.099
 9425SOL     OW29173   6.883   4.431   1.223
 9425SOL    HW129174   6.833   4.471   1.300
 9425SOL    HW229175   6.818   4.385   1.162
 9426SOL     OW29176   6.761   2.379   6.197
 9426SOL    HW129177   6.789   2.422   6.283
 9426SOL    HW229178   6.808   2.291   6.187
 9427SOL     OW29179   4.512   4.453   2.464
 9427SOL    HW129180   4.517   4.477   2.367
 9427SOL    HW229181   4.455   4.372   2.475
 9428SOL     OW29182   0.891   5.979   5.762
 9428SOL    HW129183   0.946   5.939   5.689
 9428SOL    HW229184   0.870   6.074   5.740
 9429SOL     OW29185   2.379   2.598   4.415
 9429SOL    HW129186   2.349   2.515   4.368
 9429SOL    HW229187   2.395   2.579   4.512
 9430SOL     OW29188   1.574   1.900   4.874
 9430SOL    HW129189   1.627   1.984   4.862
 9430SOL    HW229190   1.492   1.919   4.927
 9431SOL     OW29191   0.533   4.460   5.515
 9431SOL    HW129192   0.450   4.515   5.525
 9431SOL    HW229193   0.604   4.516   5.473
 9432SOL     OW29194   6.761   1.057   3.626
 9432SOL    HW129195   6.841   1.098   3.669
 9432SOL    HW229196   6.717   0.995   3.691
 9433SOL     OW29197   3.959   6.143   1.621
 9433SOL    HW129198   3.868   6.135   1.582
 9433SOL    HW229199   3.953   6.137   1.721
 9434SOL     OW29200   4.707   5.658   4.106
 9434SOL    HW129201   4.618   5.616   4.085
 9434SOL    HW229202   4.768   5.647   4.028
 9435SOL     OW29203   6.733   3.746   1.181
 9435SOL    HW129204   6.760   3.700   1.096
 9435SOL    HW229205   6.701   3.679   1.247
 9436SOL     OW29206   2.529   0.957   3.222
 9436SOL    HW129207   2.577   0.983   3.138
 9436SOL    HW229208   2.524   1.036   3.283
 9437SOL     OW29209   5.361   0.383   4.872
 9437SOL    HW129210   5.381   0.359   4.967
 9437SOL    HW229211   5.434   0.440   4.836
 9438SOL     OW29212   4.676   6.534   2.587
 9438SOL    HW129213   4.620   6.601   2.635
 9438SOL    HW229214   4.639   6.442   2.602
 9439SOL     OW29215   1.682   4.002   0.877
 9439SOL    HW129216   1.765   4.016   0.823
 9439SOL    HW229217   1.623   3.935   0.831
 9440SOL     OW29218   2.129   5.223   3.236
 9440SOL    HW129219   2.135   5.166   3.318
 9440SOL    HW229220   2.043   5.273   3.236
 9441SOL     OW29221   0.037   7.004   4.588
 9441SOL    HW129222   0.113   6.944   4.566
 9441SOL    HW229223   0.063   0.046   4.663
 9442SOL     OW29224   5.914   2.995   0.883
 9442SOL    HW129225   5.843   2.992   0.813
 9442SOL    HW229226   5.879   3.044   0.963
 9443SOL     OW29227   2.193   4.546   2.391
 9443SOL    HW129228   2.095   4.531   2.408
 9443SOL    HW229229   2.245   4.475   2.439
 9444SOL     OW29230   1.281   4.707   6.078
 9444SOL    HW129231   1.373   4.668   6.084
 9444SOL    HW229232   1.228   4.656   6.010
 9445SOL     OW29233   0.201   1.638   4.475
 9445SOL    HW129234   0.228   1.543   4.487
 9445SOL    HW229235   0.264   1.683   4.412
 9446SOL     OW29236   6.433   3.776   4.276
 9446SOL    HW129237   6.442   3.721   4.193
 9446SOL    HW229238   6.493   3.855   4.270
 9447SOL     OW29239   4.865   4.145   1.995
 9447SOL    HW129240   4.793   4.187   2.049
 9447SOL    HW229241   4.944   4.127   2.053
 9448SOL     OW29242   6.073   1.424   5.874
 9448SOL    HW129243   6.068   1.398   5.778
 9448SOL    HW229244   6.167   1.450   5.897
 9449SOL     OW29245   5.027   6.653   2.287
 9449SOL    HW129246   5.031   6.753   2.278
 9449SOL    HW229247   4.936   6.627   2.321
 9450SOL     OW29248   1.232   6.325   2.709
 9450SOL    HW129249   1.299   6.315   2.635
 9450SOL    HW229250   1.248   6.412   2.756
 9451SOL     OW29251   4.012   4.632   6.703
 9451SOL    HW129252   3.943   4.695   6.666
 9451SOL    HW229253   3.980   4.537   6.691
 9452SOL     OW29254   5.928   4.614   6.538
 9452SOL    HW129255   6.028   4.612   6.536
 9452SOL    HW229256   5.898   4.700   6.580
 9453SOL     OW29257   5.156   5.203   1.622
 9453SOL    HW129258   5.215   5.131   1.587
 9453SOL    HW229259   5.212   5.281   1.650
 9454SOL     OW29260   5.952   4.788   0.298
 9454SOL    HW129261   6.016   4.854   0.335
 9454SOL    HW229262   5.917   4.729   0.371
 9455SOL     OW29263   3.874   1.270   1.764
 9455SOL    HW129264   3.820   1.268   1.680
 9455SOL    HW229265   3.814   1.253   1.842
 9456SOL     OW29266   6.957   2.524   2.825
 9456SOL    HW129267   6.945   2.464   2.904
 9456SOL    HW229268   6.907   2.609   2.840
 9457SOL     OW29269   6.384   6.716   5.190
 9457SOL    HW129270   6.424   6.625   5.202
 9457SOL    HW229271   6.308   6.727   5.254
 9458SOL     OW29272   6.415   3.740   6.950
 9458SOL    HW129273   6.478   3.749   0.007
 9458SOL    HW229274   6.449   3.792   6.872
 9459SOL     OW29275   4.779   4.435   5.438
 9459SOL    HW129276   4.770   4.533   5.454
 9459SOL    HW229277   4.861   4.417   5.384
 9460SOL     OW29278   1.072   2.871   2.816
 9460SOL    HW129279   0.999   2.804   2.834
 9460SOL    HW229280   1.032   2.956   2.782
 9461SOL     OW29281   1.547   1.904   1.661
 9461SOL    HW129282   1.456   1.884   1.626
 9461SOL    HW229283   1.558   1.862   1.751
 9462SOL     OW29284   0.222   1.383   4.242
 9462SOL    HW129285   0.222   1.458   4.175
 9462SOL    HW229286   0.212   1.296   4.194
 9463SOL     OW29287   5.754   4.384   1.650
 9463SOL    HW129288   5.846   4.413   1.677
 9463SOL    HW229289   5.756   4.286   1.629
 9464SOL     OW29290   1.447   0.803   2.130
 9464SOL    HW129291   1.538   0.825   2.164
 9464SOL    HW229292   1.381   0.870   2.165
 9465SOL     OW29293   6.486   4.933   0.897
 9465SOL    HW129294   6.443   4.957   0.984
 9465SOL    HW229295   6.421   4.950   0.822
 9466SOL     OW29296   4.200   3.785   5.400
 9466SOL    HW129297   4.275   3.777   5.334
 9466SOL    HW229298   4.209   3.714   5.469
 9467SOL     OW29299   1.786   3.139   0.115
 9467SOL    HW129300   1.715   3.082   0.075
 9467SOL    HW229301   1.758   3.235   0.110
 9468SOL     OW29302   6.043   1.838   1.036
 9468SOL    HW129303   6.022   1.868   1.129
 9468SOL    HW229304   6.108   1.902   0.994
 9469SOL     OW29305   6.660   6.590   1.548
 9469SOL    HW129306   6.754   6.584   1.515
 9469SOL    HW229307   6.600   6.538   1.487
 9470SOL     OW29308   3.352   3.700   6.852
 9470SOL    HW129309   3.352   3.656   6.942
 9470SOL    HW229310   3.261   3.693   6.812
 9471SOL     OW29311   6.297   2.605   4.886
 9471SOL    HW129312   6.346   2.687   4.916
 9471SOL    HW229313   6.275   2.549   4.966
 9472SOL     OW29314   1.631   3.207   5.844
 9472SOL    HW129315   1.670   3.295   5.870
 9472SOL    HW229316   1.684   3.133   5.887
 9473SOL     OW29317   2.592   3.925   0.992
 9473SOL    HW129318   2.610   3.909   0.895
 9473SOL    HW229319   2.516   3.868   1.022
 9474SOL     OW29320   5.709   4.144   0.981
 9474SOL    HW129321   5.623   4.190   0.959
 9474SOL    HW229322   5.776   4.213   1.010
 9475SOL     OW29323   5.405   4.424   6.093
 9475SOL    HW129324   5.343   4.410   6.170
 9475SOL    HW229325   5.390   4.352   6.025
 9476SOL     OW29326   4.351   4.077   0.610
 9476SOL    HW129327   4.348   3.980   0.634
 9476SOL    HW229328   4.446   4.106   0.601
 9477SOL     OW29329   2.176   4.458   0.339
 9477SOL    HW129330   2.235   4.405   0.277
 9477SOL    HW229331   2.230   4.488   0.418
 9478SOL     OW29332   5.613   3.630   5.725
 9478SOL    HW129333   5.639   3.584   5.640
 9478SOL    HW229334   5.648   3.724   5.723
 9479SOL     OW29335   3.983   0.298   2.124
 9479SOL    HW129336   4.032   0.215   2.148
 9479SOL    HW229337   4.023   0.337   2.041
 9480SOL     OW29338   6.187   0.946   0.746
 9480SOL    HW129339   6.275   0.914   0.782
 9480SOL    HW229340   6.139   0.998   0.816
 9481SOL     OW29341   4.047   0.176   2.963
 9481SOL    HW129342   4.141   0.210   2.969
 9481SOL    HW229343   4.018   0.140   3.052
 9482SOL     OW29344   6.042   5.968   0.106
 9482SOL    HW129345   6.053   6.045   0.170
 9482SOL    HW229346   6.122   5.909   0.112
 9483SOL     OW29347   6.873   6.885   0.305
 9483SOL    HW129348   6.886   6.793   0.340
 9483SOL    HW229349   6.920   6.895   0.217
 9484SOL     OW29350   3.589   5.845   4.061
 9484SOL    HW129351   3.565   5.798   4.145
 9484SOL    HW229352   3.517   5.910   4.037
 9485SOL     OW29353   0.273   1.153   6.424
 9485SOL    HW129354   0.354   1.155   6.483
 9485SOL    HW229355   0.268   1.064   6.379
 9486SOL     OW29356   5.725   5.479   6.883
 9486SOL    HW129357   5.646   5.437   6.839
 9486SOL    HW229358   5.802   5.479   6.820
 9487SOL     OW29359   3.346   3.658   2.931
 9487SOL    HW129360   3.293   3.704   3.002
 9487SOL    HW229361   3.289   3.591   2.883
 9488SOL     OW29362   1.762   0.942   1.406
 9488SOL    HW129363   1.783   0.877   1.480
 9488SOL    HW229364   1.719   0.893   1.330
 9489SOL     OW29365   5.378   3.004   0.594
 9489SOL    HW129366   5.471   3.038   0.613
 9489SOL    HW229367   5.379   2.904   0.591
 9490SOL     OW29368   5.290   3.558   4.820
 9490SOL    HW129369   5.377   3.581   4.865
 9490SOL    HW229370   5.218   3.552   4.888
 9491SOL     OW29371   5.350   6.649   2.523
 9491SOL    HW129372   5.365   6.732   2.470
 9491SOL    HW229373   5.273   6.663   2.586
 9492SOL     OW29374   5.068   2.791   3.401
 9492SOL    HW129375   5.016   2.717   3.359
 9492SOL    HW229376   5.166   2.770   3.396
 9493SOL     OW29377   4.148   6.081   1.242
 9493SOL    HW129378   4.049   6.096   1.235
 9493SOL    HW229379   4.191   6.160   1.285
 9494SOL     OW29380   5.832   1.644   2.248
 9494SOL    HW129381   5.745   1.677   2.213
 9494SOL    HW229382   5.899   1.719   2.246
 9495SOL     OW29383   0.065   2.344   1.303
 9495SOL    HW129384   0.110   2.424   1.262
 9495SOL    HW229385   0.046   2.364   1.400
 9496SOL     OW29386   5.745   1.930   1.059
 9496SOL    HW129387   5.678   1.948   1.131
 9496SOL    HW229388   5.737   1.835   1.029
 9497SOL     OW29389   4.620   4.355   4.647
 9497SOL    HW129390   4.708   4.379   4.686
 9497SOL    HW229391   4.553   4.426   4.669
 9498SOL     OW29392   0.639   5.682   4.143
 9498SOL    HW129393   0.639   5.605   4.079
 9498SOL    HW229394   0.552   5.730   4.137
 9499SOL     OW29395   6.037   5.785   4.862
 9499SOL    HW129396   5.961   5.726   4.888
 9499SOL    HW229397   6.017   5.879   4.889
 9500SOL     OW29398   3.202   1.992   0.955
 9500SOL    HW129399   3.154   1.907   0.933
 9500SOL    HW229400   3.229   1.991   1.052
 9501SOL     OW29401   1.802   3.661   5.149
 9501SOL    HW129402   1.835   3.570   5.173
 9501SOL    HW229403   1.716   3.679   5.197
 9502SOL     OW29404   5.608   5.025   4.362
 9502SOL    HW129405   5.603   5.019   4.462
 9502SOL    HW229406   5.561   5.108   4.331
 9503SOL     OW29407   6.326   1.226   0.435
 9503SOL    HW129408   6.276   1.283   0.501
 9503SOL    HW229409   6.350   1.281   0.355
 9504SOL     OW29410   5.966   5.360   2.098
 9504SOL    HW129411   6.027   5.399   2.029
 9504SOL    HW229412   6.012   5.285   2.145
 9505SOL     OW29413   4.327   4.712   5.830
 9505SOL    HW129414   4.398   4.698   5.898
 9505SOL    HW229415   4.246   4.659   5.854
 9506SOL     OW29416   3.101   1.031   1.323
 9506SOL    HW129417   3.002   1.018   1.317
 9506SOL    HW229418   3.143   1.007   1.235
 9507SOL     OW29419   5.102   6.932   2.205
 9507SOL    HW129420   5.089   6.912   2.108
 9507SOL    HW229421   5.183   6.989   2.217
 9508SOL     OW29422   4.552   2.265   2.824
 9508SOL    HW129423   4.533   2.194   2.757
 9508SOL    HW229424   4.511   2.240   2.912
 9509SOL     OW29425   5.205   0.704   3.203
 9509SOL    HW129426   5.257   0.709   3.118
 9509SOL    HW229427   5.191   0.609   3.228
 9510SOL     OW29428   1.395   2.810   3.727
 9510SOL    HW129429   1.305   2.792   3.768
 9510SOL    HW229430   1.466   2.789   3.794
 9511SOL     OW29431   0.270   1.550   1.376
 9511SOL    HW129432   0.307   1.478   1.316
 9511SOL    HW229433   0.339   1.621   1.388
 9512SOL     OW29434   6.299   2.372   1.272
 9512SOL    HW129435   6.378   2.433   1.265
 9512SOL    HW229436   6.330   2.280   1.292
 9513SOL     OW29437   4.509   4.031   5.580
 9513SOL    HW129438   4.549   4.108   5.629
 9513SOL    HW229439   4.465   3.969   5.646
 9514SOL     OW29440   3.704   3.024   6.660
 9514SOL    HW129441   3.799   3.034   6.633
 9514SOL    HW229442   3.698   2.970   6.744
 9515SOL     OW29443   0.625   5.970   3.196
 9515SOL    HW129444   0.692   5.898   3.214
 9515SOL    HW229445   0.587   6.003   3.282
 9516SOL     OW29446   0.407   4.669   6.772
 9516SOL    HW129447   0.402   4.569   6.779
 9516SOL    HW229448   0.335   4.701   6.711
 9517SOL     OW29449   0.383   6.289   1.519
 9517SOL    HW129450   0.357   6.194   1.504
 9517SOL    HW229451   0.424   6.298   1.610
 9518SOL     OW29452   1.506   0.964   1.102
 9518SOL    HW129453   1.487   0.901   1.178
 9518SOL    HW229454   1.437   0.952   1.030
 9519SOL     OW29455   1.403   3.290   5.485
 9519SOL    HW129456   1.370   3.198   5.507
 9519SOL    HW229457   1.380   3.352   5.560
 9520SOL     OW29458   4.788   0.203   1.882
 9520SOL    HW129459   4.864   0.264   1.901
 9520SOL    HW229460   4.718   0.212   1.954
 9521SOL     OW29461   5.172   5.465   3.547
 9521SOL    HW129462   5.134   5.534   3.608
 9521SOL    HW229463   5.128   5.377   3.563
 9522SOL     OW29464   3.716   6.327   0.446
 9522SOL    HW129465   3.673   6.376   0.370
 9522SOL    HW229466   3.664   6.243   0.465
 9523SOL     OW29467   2.163   6.369   5.665
 9523SOL    HW129468   2.130   6.354   5.572
 9523SOL    HW229469   2.115   6.307   5.728
 9524SOL     OW29470   4.419   2.171   0.576
 9524SOL    HW129471   4.420   2.152   0.674
 9524SOL    HW229472   4.393   2.087   0.527
 9525SOL     OW29473   3.851   0.346   5.561
 9525SOL    HW129474   3.850   0.313   5.467
 9525SOL    HW229475   3.805   0.435   5.566
 9526SOL     OW29476   4.856   5.889   1.993
 9526SOL    HW129477   4.764   5.872   2.027
 9526SOL    HW229478   4.893   5.805   1.953
 9527SOL     OW29479   6.056   2.136   1.224
 9527SOL    HW129480   6.144   2.113   1.182
 9527SOL    HW229481   5.993   2.168   1.153
 9528SOL     OW29482   6.462   0.841   1.918
 9528SOL    HW129483   6.453   0.749   1.880
 9528SOL    HW229484   6.549   0.848   1.967
 9529SOL     OW29485   1.181   3.635   4.514
 9529SOL    HW129486   1.134   3.615   4.428
 9529SOL    HW229487   1.208   3.550   4.558
 9530SOL     OW29488   1.498   2.690   4.218
 9530SOL    HW129489   1.552   2.753   4.273
 9530SOL    HW229490   1.405   2.725   4.208
 9531SOL     OW29491   2.930   6.028   3.234
 9531SOL    HW129492   2.942   6.079   3.319
 9531SOL    HW229493   2.832   6.011   3.219
 9532SOL     OW29494   2.547   0.725   1.497
 9532SOL    HW129495   2.555   0.824   1.488
 9532SOL    HW229496   2.586   0.681   1.417
 9533SOL     OW29497   1.405   0.441   4.913
 9533SOL    HW129498   1.477   0.483   4.967
 9533SOL    HW229499   1.408   0.476   4.819
 9534SOL     OW29500   4.596   2.218   4.226
 9534SOL    HW129501   4.545   2.281   4.284
 9534SOL    HW229502   4.667   2.173   4.279
 9535SOL     OW29503   2.723   2.399   4.714
 9535SOL    HW129504   2.779   2.336   4.767
 9535SOL    HW229505   2.752   2.399   4.618
 9536SOL     OW29506   3.092   6.753   6.395
 9536SOL    HW129507   3.113   6.818   6.322
 9536SOL    HW229508   3.177   6.710   6.427
 9537SOL     OW29509   2.373   6.636   0.510
 9537SOL    HW129510   2.310   6.713   0.496
 9537SOL    HW229511   2.457   6.670   0.553
 9538SOL     OW29512   6.090   3.654   4.111
 9538SOL    HW129513   6.116   3.750   4.104
 9538SOL    HW229514   6.099   3.624   4.206
 9539SOL     OW29515   0.260   4.242   0.662
 9539SOL    HW129516   0.351   4.230   0.701
 9539SOL    HW229517   0.200   4.287   0.728
 9540SOL     OW29518   5.489   3.287   5.354
 9540SOL    HW129519   5.482   3.283   5.454
 9540SOL    HW229520   5.542   3.368   5.328
 9541SOL     OW29521   0.120   1.185   3.474
 9541SOL    HW129522   0.082   1.272   3.444
 9541SOL    HW229523   0.217   1.182   3.452
 9542SOL     OW29524   4.779   4.125   4.559
 9542SOL    HW129525   4.869   4.169   4.556
 9542SOL    HW229526   4.709   4.193   4.580
 9543SOL     OW29527   5.456   2.291   1.543
 9543SOL    HW129528   5.369   2.290   1.592
 9543SOL    HW229529   5.529   2.259   1.603
 9544SOL     OW29530   3.684   1.652   1.793
 9544SOL    HW129531   3.640   1.741   1.799
 9544SOL    HW229532   3.737   1.635   1.876
 9545SOL     OW29533   0.967   0.294   4.400
 9545SOL    HW129534   0.994   0.278   4.495
 9545SOL    HW229535   0.996   0.385   4.372
 9546SOL     OW29536   2.058   4.214   1.576
 9546SOL    HW129537   2.020   4.203   1.668
 9546SOL    HW229538   2.020   4.297   1.534
 9547SOL     OW29539   6.456   5.521   3.256
 9547SOL    HW129540   6.418   5.431   3.277
 9547SOL    HW229541   6.390   5.573   3.201
 9548SOL     OW29542   4.541   6.735   2.897
 9548SOL    HW129543   4.636   6.766   2.895
 9548SOL    HW229544   4.531   6.664   2.967
 9549SOL     OW29545   2.756   5.451   0.694
 9549SOL    HW129546   2.699   5.476   0.615
 9549SOL    HW229547   2.698   5.408   0.764
 9550SOL     OW29548   1.487   0.810   6.948
 9550SOL    HW129549   1.418   0.873   6.913
 9550SOL    HW229550   1.578   0.844   6.925
 9551SOL     OW29551   1.272   6.415   5.973
 9551SOL    HW129552   1.335   6.485   5.938
 9551SOL    HW229553   1.313   6.325   5.960
 9552SOL     OW29554   0.510   5.244   2.952
 9552SOL    HW129555   0.486   5.175   2.884
 9552SOL    HW229556   0.577   5.205   3.016
 9553SOL     OW29557   5.260   4.340   5.614
 9553SOL    HW129558   5.161   4.353   5.613
 9553SOL    HW229559   5.296   4.351   5.521
 9554SOL     OW29560   2.034   1.417   1.500
 9554SOL    HW129561   1.999   1.415   1.594
 9554SOL    HW229562   2.057   1.511   1.476
 9555SOL     OW29563   6.665   2.652   6.242
 9555SOL    HW129564   6.668   2.618   6.335
 9555SOL    HW229565   6.726   2.597   6.184
 9556SOL     OW29566   6.399   1.643   1.111
 9556SOL    HW129567   6.305   1.670   1.133
 9556SOL    HW229568   6.452   1.725   1.090
 9557SOL     OW29569   5.656   2.506   2.094
 9557SOL    HW129570   5.728   2.575   2.090
 9557SOL    HW229571   5.602   2.507   2.010
 9558SOL     OW29572   5.680   4.634   2.021
 9558SOL    HW129573   5.724   4.544   2.019
 9558SOL    HW229574   5.581   4.623   2.020
 9559SOL     OW29575   6.471   3.282   3.081
 9559SOL    HW129576   6.398   3.346   3.105
 9559SOL    HW229577   6.435   3.189   3.079
 9560SOL     OW29578   3.831   1.814   5.225
 9560SOL    HW129579   3.758   1.748   5.207
 9560SOL    HW229580   3.800   1.882   5.291
 9561SOL     OW29581   3.398   6.441   6.931
 9561SOL    HW129582   3.399   6.377   7.008
 9561SOL    HW229583   3.466   6.411   6.863
 9562SOL     OW29584   6.097   4.535   3.604
 9562SOL    HW129585   6.125   4.595   3.679
 9562SOL    HW229586   6.036   4.586   3.542
 9563SOL     OW29587   7.004   6.266   6.806
 9563SOL    HW129588   6.931   6.313   6.756
 9563SOL    HW229589   0.071   6.279   6.758
 9564SOL     OW29590   2.092   0.370   6.379
 9564SOL    HW129591   2.012   0.369   6.440
 9564SOL    HW229592   2.100   0.281   6.334
 9565SOL     OW29593   3.874   5.844   4.114
 9565SOL    HW129594   3.784   5.870   4.080
 9565SOL    HW229595   3.863   5.777   4.188
 9566SOL     OW29596   3.508   4.900   5.797
 9566SOL    HW129597   3.568   4.979   5.810
 9566SOL    HW229598   3.528   4.831   5.866
 9567SOL     OW29599   6.159   5.477   4.960
 9567SOL    HW129600   6.149   5.542   4.885
 9567SOL    HW229601   6.170   5.385   4.922
 9568SOL     OW29602   5.322   4.052   6.510
 9568SOL    HW129603   5.295   4.001   6.429
 9568SOL    HW229604   5.346   4.146   6.484
 9569SOL     OW29605   5.533   6.800   2.296
 9569SOL    HW129606   5.529   6.796   2.196
 9569SOL    HW229607   5.611   6.856   2.324
 9570SOL     OW29608   0.762   0.849   6.531
 9570SOL    HW129609   0.679   0.802   6.560
 9570SOL    HW229610   0.758   0.945   6.561
 9571SOL     OW29611   2.469   2.940   0.156
 9571SOL    HW129612   2.487   2.891   0.241
 9571SOL    HW229613   2.421   2.879   0.092
 9572SOL     OW29614   0.211   3.576   0.871
 9572SOL    HW129615   0.131   3.636   0.872
 9572SOL    HW229616   0.293   3.631   0.853
 9573SOL     OW29617   5.877   1.260   1.957
 9573SOL    HW129618   5.800   1.323   1.966
 9573SOL    HW229619   5.847   1.168   1.981
 9574SOL     OW29620   2.641   1.841   3.900
 9574SOL    HW129621   2.542   1.827   3.891
 9574SOL    HW229622   2.660   1.939   3.906
 9575SOL     OW29623   4.722   0.768   2.498
 9575SOL    HW129624   4.762   0.760   2.406
 9575SOL    HW229625   4.753   0.853   2.540
 9576SOL     OW29626   4.058   2.632   5.600
 9576SOL    HW129627   4.006   2.715   5.619
 9576SOL    HW229628   4.037   2.599   5.508
 9577SOL     OW29629   0.561   6.231   3.495
 9577SOL    HW129630   0.557   6.131   3.500
 9577SOL    HW229631   0.621   6.258   3.420
 9578SOL     OW29632   5.981   4.281   2.122
 9578SOL    HW129633   6.003   4.241   2.033
 9578SOL    HW229634   6.064   4.292   2.175
 9579SOL     OW29635   1.937   6.495   2.899
 9579SOL    HW129636   2.005   6.562   2.868
 9579SOL    HW229637   1.942   6.413   2.841
 9580SOL     OW29638   4.204   3.111   5.561
 9580SOL    HW129639   4.271   3.124   5.488
 9580SOL    HW229640   4.251   3.080   5.644
 9581SOL     OW29641   1.078   5.497   5.669
 9581SOL    HW129642   1.122   5.559   5.735
 9581SOL    HW229643   0.991   5.537   5.640
 9582SOL     OW29644   4.110   4.740   3.867
 9582SOL    HW129645   4.015   4.763   3.883
 9582SOL    HW229646   4.169   4.802   3.918
 9583SOL     OW29647   2.176   4.920   1.772
 9583SOL    HW129648   2.115   4.853   1.816
 9583SOL    HW229649   2.168   4.911   1.673
 9584SOL     OW29650   5.283   5.298   6.853
 9584SOL    HW129651   5.273   5.332   6.760
 9584SOL    HW229652   5.196   5.307   6.901
 9585SOL     OW29653   1.019   0.276   3.292
 9585SOL    HW129654   1.031   0.331   3.375
 9585SOL    HW229655   1.003   0.337   3.214
 9586SOL     OW29656   5.391   3.209   2.618
 9586SOL    HW129657   5.416   3.248   2.530
 9586SOL    HW229658   5.296   3.180   2.617
 9587SOL     OW29659   4.729   6.353   2.090
 9587SOL    HW129660   4.794   6.424   2.064
 9587SOL    HW229661   4.646   6.360   2.035
 9588SOL     OW29662   6.779   0.444   3.553
 9588SOL    HW129663   6.690   0.402   3.571
 9588SOL    HW229664   6.851   0.391   3.600
 9589SOL     OW29665   3.169   1.955   4.749
 9589SOL    HW129666   3.122   2.037   4.782
 9589SOL    HW229667   3.110   1.875   4.761
 9590SOL     OW29668   0.658   5.187   4.496
 9590SOL    HW129669   0.589   5.137   4.444
 9590SOL    HW229670   0.622   5.212   4.586
 9591SOL     OW29671   1.236   4.617   2.678
 9591SOL    HW129672   1.207   4.589   2.770
 9591SOL    HW229673   1.206   4.711   2.662
 9592SOL     OW29674   4.946   5.897   1.341
 9592SOL    HW129675   4.865   5.956   1.339
 9592SOL    HW229676   4.944   5.835   1.262
 9593SOL     OW29677   2.235   2.939   3.454
 9593SOL    HW129678   2.320   2.887   3.442
 9593SOL    HW229679   2.158   2.876   3.454
 9594SOL     OW29680   6.278   6.853   1.073
 9594SOL    HW129681   6.355   6.880   1.016
 9594SOL    HW229682   6.213   6.799   1.019
 9595SOL     OW29683   1.061   4.443   4.399
 9595SOL    HW129684   0.971   4.476   4.372
 9595SOL    HW229685   1.058   4.344   4.413
 9596SOL     OW29686   5.539   5.455   2.243
 9596SOL    HW129687   5.508   5.406   2.324
 9596SOL    HW229688   5.494   5.544   2.238
 9597SOL     OW29689   1.886   4.351   0.187
 9597SOL    HW129690   1.919   4.387   0.100
 9597SOL    HW229691   1.829   4.420   0.232
 9598SOL     OW29692   1.179   5.673   5.848
 9598SOL    HW129693   1.171   5.744   5.918
 9598SOL    HW229694   1.251   5.609   5.874
 9599SOL     OW29695   4.266   1.595   4.338
 9599SOL    HW129696   4.294   1.521   4.398
 9599SOL    HW229697   4.331   1.603   4.263
 9600SOL     OW29698   1.996   6.173   6.919
 9600SOL    HW129699   1.935   6.101   6.885
 9600SOL    HW229700   2.085   6.134   6.939
 9601SOL     OW29701   0.528   6.873   6.313
 9601SOL    HW129702   0.434   6.887   6.343
 9601SOL    HW229703   0.590   6.892   6.389
 9602SOL     OW29704   0.190   5.242   6.698
 9602SOL    HW129705   0.232   5.332   6.689
 9602SOL    HW229706   0.110   5.248   6.757
 9603SOL     OW29707   1.007   4.923   3.146
 9603SOL    HW129708   1.087   4.867   3.125
 9603SOL    HW229709   0.931   4.864   3.174
 9604SOL     OW29710   6.974   6.960   0.064
 9604SOL    HW129711   6.925   6.921   7.006
 9604SOL    HW229712   6.984   0.039   0.051
 9605SOL     OW29713   2.764   5.540   0.273
 9605SOL    HW129714   2.708   5.570   0.196
 9605SOL    HW229715   2.705   5.516   0.350
 9606SOL     OW29716   6.648   0.289   5.513
 9606SOL    HW129717   6.731   0.310   5.460
 9606SOL    HW229718   6.594   0.220   5.464
 9607SOL     OW29719   7.001   1.773   2.291
 9607SOL    HW129720   6.907   1.791   2.263
 9607SOL    HW229721   0.021   1.857   2.328
 9608SOL     OW29722   6.602   0.140   2.546
 9608SOL    HW129723   6.541   0.091   2.483
 9608SOL    HW229724   6.549   0.207   2.599
 9609SOL     OW29725   1.474   2.044   3.861
 9609SOL    HW129726   1.382   2.006   3.856
 9609SOL    HW229727   1.519   2.034   3.772
 9610SOL     OW29728   3.817   0.809   6.130
 9610SOL    HW129729   3.864   0.818   6.218
 9610SOL    HW229730   3.785   0.715   6.119
 9611SOL     OW29731   5.815   5.836   1.309
 9611SOL    HW129732   5.736   5.776   1.300
 9611SOL    HW229733   5.797   5.923   1.263
 9612SOL     OW29734   4.947   3.545   2.843
 9612SOL    HW129735   5.047   3.535   2.842
 9612SOL    HW229736   4.918   3.579   2.932
 9613SOL     OW29737   6.210   6.818   5.393
 9613SOL    HW129738   6.208   6.902   5.447
 9613SOL    HW229739   6.244   6.743   5.449
 9614SOL     OW29740   3.054   2.728   1.692
 9614SOL    HW129741   3.150   2.701   1.697
 9614SOL    HW229742   2.997   2.647   1.676
 9615SOL     OW29743   0.275   6.120   3.824
 9615SOL    HW129744   0.185   6.110   3.781
 9615SOL    HW229745   0.321   6.201   3.787
 9616SOL     OW29746   1.907   2.689   1.476
 9616SOL    HW129747   1.985   2.628   1.490
 9616SOL    HW229748   1.925   2.777   1.521
 9617SOL     OW29749   0.033   2.986   2.389
 9617SOL    HW129750   0.059   2.897   2.428
 9617SOL    HW229751   6.965   2.977   2.341
 9618SOL     OW29752   4.317   4.177   0.871
 9618SOL    HW129753   4.328   4.119   0.790
 9618SOL    HW229754   4.283   4.122   0.947
 9619SOL     OW29755   0.985   6.693   1.432
 9619SOL    HW129756   0.924   6.617   1.457
 9619SOL    HW229757   0.951   6.777   1.474
 9620SOL     OW29758   3.593   1.836   6.969
 9620SOL    HW129759   3.608   1.745   6.931
 9620SOL    HW229760   3.548   1.893   6.901
 9621SOL     OW29761   0.535   0.987   2.022
 9621SOL    HW129762   0.486   1.074   2.013
 9621SOL    HW229763   0.484   0.927   2.084
 9622SOL     OW29764   6.778   5.518   5.897
 9622SOL    HW129765   6.743   5.429   5.924
 9622SOL    HW229766   6.876   5.524   5.920
 9623SOL     OW29767   3.880   6.457   5.556
 9623SOL    HW129768   3.828   6.479   5.638
 9623SOL    HW229769   3.836   6.381   5.508
 9624SOL     OW29770   4.353   5.462   5.321
 9624SOL    HW129771   4.299   5.532   5.367
 9624SOL    HW229772   4.335   5.465   5.222
 9625SOL     OW29773   5.009   4.027   6.293
 9625SOL    HW129774   4.947   3.989   6.362
 9625SOL    HW229775   5.021   4.125   6.310
 9626SOL     OW29776   2.706   2.146   6.691
 9626SOL    HW129777   2.794   2.180   6.722
 9626SOL    HW229778   2.641   2.222   6.686
 9627SOL     OW29779   0.470   5.242   0.267
 9627SOL    HW129780   0.507   5.150   0.276
 9627SOL    HW229781   0.370   5.238   0.268
 9628SOL     OW29782   6.807   1.843   6.232
 9628SOL    HW129783   6.776   1.842   6.327
 9628SOL    HW229784   6.736   1.885   6.175
 9629SOL     OW29785   0.255   6.474   4.155
 9629SOL    HW129786   0.281   6.378   4.159
 9629SOL    HW229787   0.242   6.502   4.060
 9630SOL     OW29788   5.975   1.582   6.202
 9630SOL    HW129789   5.876   1.588   6.196
 9630SOL    HW229790   6.015   1.673   6.191
 9631SOL     OW29791   4.628   6.792   0.746
 9631SOL    HW129792   4.618   6.766   0.843
 9631SOL    HW229793   4.559   6.745   0.692
 9632SOL     OW29794   2.771   5.084   2.466
 9632SOL    HW129795   2.853   5.124   2.426
 9632SOL    HW229796   2.781   5.079   2.565
 9633SOL     OW29797   3.309   2.919   3.369
 9633SOL    HW129798   3.251   2.894   3.447
 9633SOL    HW229799   3.344   3.012   3.382
 9634SOL     OW29800   4.915   4.696   3.118
 9634SOL    HW129801   4.926   4.637   3.038
 9634SOL    HW229802   4.890   4.788   3.088
 9635SOL     OW29803   0.780   4.794   3.599
 9635SOL    HW129804   0.708   4.845   3.645
 9635SOL    HW229805   0.834   4.744   3.668
 9636SOL     OW29806   5.835   3.946   4.164
 9636SOL    HW129807   5.916   3.999   4.139
 9636SOL    HW229808   5.784   3.922   4.082
 9637SOL     OW29809   1.255   3.584   0.075
 9637SOL    HW129810   1.345   3.542   0.061
 9637SOL    HW229811   1.207   3.589   7.007
 9638SOL     OW29812   5.920   5.471   6.279
 9638SOL    HW129813   5.960   5.473   6.370
 9638SOL    HW229814   5.876   5.383   6.263
 9639SOL     OW29815   4.218   1.972   1.101
 9639SOL    HW129816   4.282   1.992   1.175
 9639SOL    HW229817   4.194   1.875   1.102
 9640SOL     OW29818   3.880   0.542   3.565
 9640SOL    HW129819   3.873   0.452   3.609
 9640SOL    HW229820   3.966   0.586   3.592
 9641SOL     OW29821   6.777   2.574   3.831
 9641SOL    HW129822   6.840   2.651   3.821
 9641SOL    HW229823   6.707   2.597   3.898
 9642SOL     OW29824   0.827   1.620   4.745
 9642SOL    HW129825   0.768   1.622   4.826
 9642SOL    HW229826   0.906   1.562   4.761
 9643SOL     OW29827   5.443   5.223   3.774
 9643SOL    HW129828   5.406   5.238   3.866
 9643SOL    HW229829   5.488   5.307   3.742
 9644SOL     OW29830   0.768   5.265   3.590
 9644SOL    HW129831   0.803   5.198   3.524
 9644SOL    HW229832   0.842   5.295   3.650
 9645SOL     OW29833   0.848   5.110   5.945
 9645SOL    HW129834   0.767   5.141   5.994
 9645SOL    HW229835   0.924   5.100   6.009
 9646SOL     OW29836   3.731   5.891   0.468
 9646SOL    HW129837   3.668   5.816   0.447
 9646SOL    HW229838   3.781   5.917   0.386
 9647SOL     OW29839   5.936   6.468   2.961
 9647SOL    HW129840   5.919   6.494   2.866
 9647SOL    HW229841   5.979   6.378   2.963
 9648SOL     OW29842   3.446   1.738   0.932
 9648SOL    HW129843   3.380   1.762   1.003
 9648SOL    HW229844   3.432   1.796   0.852
 9649SOL     OW29845   0.379   5.533   0.745
 9649SOL    HW129846   0.472   5.570   0.739
 9649SOL    HW229847   0.362   5.503   0.839
 9650SOL     OW29848   0.916   4.974   4.053
 9650SOL    HW129849   0.887   4.898   4.111
 9650SOL    HW229850   1.005   5.008   4.084
 9651SOL     OW29851   3.780   2.079   6.951
 9651SOL    HW129852   3.708   2.145   6.929
 9651SOL    HW229853   3.738   1.990   6.969
 9652SOL     OW29854   0.431   3.968   0.619
 9652SOL    HW129855   0.454   3.884   0.570
 9652SOL    HW229856   0.363   3.949   0.689
 9653SOL     OW29857   4.967   4.380   5.648
 9653SOL    HW129858   4.886   4.393   5.591
 9653SOL    HW229859   5.000   4.469   5.680
 9654SOL     OW29860   3.466   3.601   3.311
 9654SOL    HW129861   3.517   3.652   3.380
 9654SOL    HW229862   3.426   3.665   3.246
 9655SOL     OW29863   4.527   1.493   0.896
 9655SOL    HW129864   4.488   1.567   0.842
 9655SOL    HW229865   4.493   1.499   0.990
 9656SOL     OW29866   5.457   4.300   6.420
 9656SOL    HW129867   5.367   4.337   6.396
 9656SOL    HW229868   5.501   4.360   6.487
 9657SOL     OW29869   5.115   4.709   4.148
 9657SOL    HW129870   5.019   4.700   4.123
 9657SOL    HW229871   5.169   4.732   4.067
 9658SOL     OW29872   4.424   1.435   2.000
 9658SOL    HW129873   4.430   1.509   1.933
 9658SOL    HW229874   4.368   1.464   2.077
 9659SOL     OW29875   2.819   2.690   6.484
 9659SOL    HW129876   2.906   2.740   6.485
 9659SOL    HW229877   2.746   2.750   6.452
 9660SOL     OW29878   1.591   6.886   1.518
 9660SOL    HW129879   1.646   6.803   1.527
 9660SOL    HW229880   1.652   6.964   1.500
 9661SOL     OW29881   3.891   3.894   1.277
 9661SOL    HW129882   3.946   3.977   1.281
 9661SOL    HW229883   3.888   3.853   1.368
 9662SOL     OW29884   5.233   6.653   6.489
 9662SOL    HW129885   5.169   6.589   6.446
 9662SOL    HW229886   5.297   6.601   6.546
 9663SOL     OW29887   1.147   5.317   2.807
 9663SOL    HW129888   1.062   5.275   2.775
 9663SOL    HW229889   1.224   5.256   2.790
 9664SOL     OW29890   3.600   4.910   2.074
 9664SOL    HW129891   3.586   4.822   2.029
 9664SOL    HW229892   3.518   4.935   2.125
 9665SOL     OW29893   6.671   4.297   6.099
 9665SOL    HW129894   6.603   4.369   6.114
 9665SOL    HW229895   6.627   4.217   6.059
 9666SOL     OW29896   5.190   3.926   0.478
 9666SOL    HW129897   5.168   3.857   0.547
 9666SOL    HW229898   5.213   4.012   0.523
 9667SOL     OW29899   5.666   6.166   0.472
 9667SOL    HW129900   5.631   6.231   0.405
 9667SOL    HW229901   5.592   6.134   0.530
 9668SOL     OW29902   1.360   0.945   6.015
 9668SOL    HW129903   1.280   0.982   6.062
 9668SOL    HW229904   1.381   0.854   6.051
 9669SOL     OW29905   2.714   0.574   0.479
 9669SOL    HW129906   2.756   0.504   0.420
 9669SOL    HW229907   2.719   0.544   0.574
 9670SOL     OW29908   0.692   0.439   0.573
 9670SOL    HW129909   0.672   0.528   0.614
 9670SOL    HW229910   0.791   0.424   0.576
 9671SOL     OW29911   0.596   5.073   6.652
 9671SOL    HW129912   0.675   5.026   6.614
 9671SOL    HW229913   0.596   5.064   6.751
 9672SOL     OW29914   1.261   3.898   4.569
 9672SOL    HW129915   1.223   3.807   4.563
 9672SOL    HW229916   1.231   3.953   4.491
 9673SOL     OW29917   1.991   3.651   6.959
 9673SOL    HW129918   2.001   3.678   0.035
 9673SOL    HW229919   2.081   3.652   6.915
 9674SOL     OW29920   1.971   6.333   3.992
 9674SOL    HW129921   2.035   6.293   4.057
 9674SOL    HW229922   1.879   6.336   4.031
 9675SOL     OW29923   6.065   3.537   5.734
 9675SOL    HW129924   6.094   3.448   5.770
 9675SOL    HW229925   6.134   3.571   5.670
 9676SOL     OW29926   0.752   3.057   6.354
 9676SOL    HW129927   0.843   3.091   6.378
 9676SOL    HW229928   0.724   3.095   6.265
 9677SOL     OW29929   6.332   5.368   2.417
 9677SOL    HW129930   6.369   5.278   2.442
 9677SOL    HW229931   6.276   5.403   2.492
 9678SOL     OW29932   3.747   3.778   5.107
 9678SOL    HW129933   3.711   3.848   5.169
 9678SOL    HW229934   3.837   3.807   5.073
 9679SOL     OW29935   1.594   0.751   4.120
 9679SOL    HW129936   1.634   0.838   4.149
 9679SOL    HW229937   1.621   0.679   4.183
 9680SOL     OW29938   4.347   0.259   1.912
 9680SOL    HW129939   4.248   0.253   1.928
 9680SOL    HW229940   4.364   0.299   1.822
 9681SOL     OW29941   1.206   2.347   1.754
 9681SOL    HW129942   1.254   2.307   1.676
 9681SOL    HW229943   1.195   2.279   1.826
 9682SOL     OW29944   5.061   6.547   6.307
 9682SOL    HW129945   5.008   6.616   6.259
 9682SOL    HW229946   5.108   6.488   6.240
 9683SOL     OW29947   3.117   6.416   3.386
 9683SOL    HW129948   3.028   6.442   3.423
 9683SOL    HW229949   3.190   6.449   3.446
 9684SOL     OW29950   6.791   3.434   5.059
 9684SOL    HW129951   6.762   3.527   5.036
 9684SOL    HW229952   6.714   3.384   5.100
 9685SOL     OW29953   3.303   4.439   1.427
 9685SOL    HW129954   3.264   4.353   1.459
 9685SOL    HW229955   3.306   4.505   1.503
 9686SOL     OW29956   6.698   1.083   5.732
 9686SOL    HW129957   6.715   1.065   5.635
 9686SOL    HW229958   6.624   1.150   5.740
 9687SOL     OW29959   4.853   1.049   3.002
 9687SOL    HW129960   4.943   1.038   2.958
 9687SOL    HW229961   4.831   1.146   3.009
 9688SOL     OW29962   0.656   5.060   1.896
 9688SOL    HW129963   0.637   5.157   1.912
 9688SOL    HW229964   0.630   5.036   1.802
 9689SOL     OW29965   1.980   6.098   1.197
 9689SOL    HW129966   1.916   6.166   1.161
 9689SOL    HW229967   1.965   6.011   1.151
 9690SOL     OW29968   0.086   4.867   4.525
 9690SOL    HW129969   7.018   4.827   4.500
 9690SOL    HW229970   0.160   4.819   4.478
 9691SOL     OW29971   3.006   3.369   1.927
 9691SOL    HW129972   2.977   3.358   2.022
 9691SOL    HW229973   3.072   3.298   1.904
 9692SOL     OW29974   5.083   4.591   0.810
 9692SOL    HW129975   5.157   4.595   0.877
 9692SOL    HW229976   5.040   4.501   0.814
 9693SOL     OW29977   4.424   3.128   5.365
 9693SOL    HW129978   4.483   3.053   5.337
 9693SOL    HW229979   4.471   3.215   5.350
 9694SOL     OW29980   3.073   6.835   1.618
 9694SOL    HW129981   3.145   6.855   1.551
 9694SOL    HW229982   3.116   6.816   1.707
 9695SOL     OW29983   1.111   2.737   3.866
 9695SOL    HW129984   1.017   2.714   3.843
 9695SOL    HW229985   1.151   2.664   3.921
 9696SOL     OW29986   5.284   2.522   3.895
 9696SOL    HW129987   5.288   2.611   3.850
 9696SOL    HW229988   5.207   2.470   3.857
 9697SOL     OW29989   0.034   6.298   1.508
 9697SOL    HW129990   0.009   6.394   1.498
 9697SOL    HW229991   0.127   6.291   1.543
 9698SOL     OW29992   6.994   3.261   2.065
 9698SOL    HW129993   6.971   3.355   2.040
 9698SOL    HW229994   6.946   3.236   2.149
 9699SOL     OW29995   1.928   5.856   1.074
 9699SOL    HW129996   1.829   5.866   1.085
 9699SOL    HW229997   1.946   5.786   1.005
 9700SOL     OW29998   5.072   0.279   6.205
 9700SOL    HW129999   5.029   0.273   6.296
 9700SOL    HW230000   5.078   0.374   6.177
 9701SOL     OW30001   5.097   4.003   6.716
 9701SOL    HW130002   5.144   3.973   6.799
 9701SOL    HW230003   5.164   4.021   6.644
 9702SOL     OW30004   3.962   3.925   2.360
 9702SOL    HW130005   3.941   4.011   2.406
 9702SOL    HW230006   3.956   3.850   2.425
 9703SOL     OW30007   6.115   4.714   3.829
 9703SOL    HW130008   6.133   4.756   3.917
 9703SOL    HW230009   6.115   4.784   3.757
 9704SOL     OW30010   1.384   4.573   2.473
 9704SOL    HW130011   1.303   4.572   2.531
 9704SOL    HW230012   1.464   4.599   2.527
 9705SOL     OW30013   0.432   2.687   5.689
 9705SOL    HW130014   0.337   2.667   5.713
 9705SOL    HW230015   0.471   2.608   5.642
 9706SOL     OW30016   0.666   1.463   2.819
 9706SOL    HW130017   0.723   1.538   2.853
 9706SOL    HW230018   0.579   1.463   2.868
 9707SOL     OW30019   0.860   5.082   2.941
 9707SOL    HW130020   0.933   5.058   3.005
 9707SOL    HW230021   0.773   5.082   2.990
 9708SOL     OW30022   2.731   0.406   2.147
 9708SOL    HW130023   2.731   0.307   2.162
 9708SOL    HW230024   2.823   0.442   2.157
 9709SOL     OW30025   5.375   2.115   1.876
 9709SOL    HW130026   5.401   2.192   1.934
 9709SOL    HW230027   5.294   2.139   1.822
 9710SOL     OW30028   5.904   5.479   4.294
 9710SOL    HW130029   5.857   5.493   4.382
 9710SOL    HW230030   5.858   5.406   4.244
 9711SOL     OW30031   3.491   1.368   6.799
 9711SOL    HW130032   3.421   1.338   6.864
 9711SOL    HW230033   3.450   1.374   6.708
 9712SOL     OW30034   5.862   1.114   6.725
 9712SOL    HW130035   5.960   1.090   6.724
 9712SOL    HW230036   5.813   1.051   6.665
 9713SOL     OW30037   2.440   6.865   2.482
 9713SOL    HW130038   2.373   6.920   2.432
 9713SOL    HW230039   2.450   6.776   2.438
 9714SOL     OW30040   2.173   4.245   4.314
 9714SOL    HW130041   2.186   4.195   4.229
 9714SOL    HW230042   2.195   4.184   4.391
 9715SOL     OW30043   6.575   3.423   6.160
 9715SOL    HW130044   6.581   3.403   6.257
 9715SOL    HW230045   6.479   3.427   6.132
 9716SOL     OW30046   2.639   5.834   0.355
 9716SOL    HW130047   2.724   5.781   0.350
 9716SOL    HW230048   2.568   5.788   0.303
 9717SOL     OW30049   3.507   2.003   5.370
 9717SOL    HW130050   3.410   1.990   5.352
 9717SOL    HW230051   3.537   2.090   5.331
 9718SOL     OW30052   4.546   2.131   5.666
 9718SOL    HW130053   4.600   2.118   5.749
 9718SOL    HW230054   4.454   2.162   5.690
 9719SOL     OW30055   5.103   6.914   6.164
 9719SOL    HW130056   5.188   6.873   6.130
 9719SOL    HW230057   5.027   6.850   6.150
 9720SOL     OW30058   2.038   3.002   2.803
 9720SOL    HW130059   1.944   2.981   2.830
 9720SOL    HW230060   2.060   2.954   2.718
 9721SOL     OW30061   0.922   1.137   1.013
 9721SOL    HW130062   0.825   1.114   1.001
 9721SOL    HW230063   0.929   1.218   1.071
 9722SOL     OW30064   3.938   2.284   5.350
 9722SOL    HW130065   3.896   2.216   5.290
 9722SOL    HW230066   3.868   2.350   5.378
 9723SOL     OW30067   6.696   0.551   5.237
 9723SOL    HW130068   6.791   0.547   5.269
 9723SOL    HW230069   6.688   0.622   5.167
 9724SOL     OW30070   1.432   4.384   0.465
 9724SOL    HW130071   1.506   4.402   0.400
 9724SOL    HW230072   1.458   4.307   0.524
 9725SOL     OW30073   4.485   4.994   4.518
 9725SOL    HW130074   4.579   5.028   4.524
 9725SOL    HW230075   4.486   4.894   4.518
 9726SOL     OW30076   0.055   0.462   3.555
 9726SOL    HW130077   0.056   0.561   3.572
 9726SOL    HW230078   0.140   0.422   3.590
 9727SOL     OW30079   6.592   2.194   1.694
 9727SOL    HW130080   6.544   2.251   1.626
 9727SOL    HW230081   6.646   2.253   1.754
 9728SOL     OW30082   5.350   2.343   4.188
 9728SOL    HW130083   5.266   2.307   4.147
 9728SOL    HW230084   5.370   2.433   4.151
 9729SOL     OW30085   0.294   4.669   3.393
 9729SOL    HW130086   0.295   4.761   3.355
 9729SOL    HW230087   0.364   4.662   3.464
 9730SOL     OW30088   1.232   4.792   3.026
 9730SOL    HW130089   1.329   4.781   3.046
 9730SOL    HW230090   1.191   4.703   3.005
 9731SOL     OW30091   5.325   2.927   1.860
 9731SOL    HW130092   5.251   2.995   1.863
 9731SOL    HW230093   5.397   2.959   1.799
 9732SOL     OW30094   1.117   3.702   2.992
 9732SOL    HW130095   1.165   3.789   2.987
 9732SOL    HW230096   1.164   3.635   2.935
 9733SOL     OW30097   6.268   5.017   2.132
 9733SOL    HW130098   6.212   5.067   2.198
 9733SOL    HW230099   6.216   4.939   2.097
 9734SOL     OW30100   5.110   4.935   5.962
 9734SOL    HW130101   5.087   5.007   6.028
 9734SOL    HW230102   5.140   4.853   6.011
 9735SOL     OW30103   0.114   2.399   0.574
 9735SOL    HW130104   0.123   2.485   0.523
 9735SOL    HW230105   0.019   2.385   0.599
 9736SOL     OW30106   4.764   1.867   4.741
 9736SOL    HW130107   4.744   1.879   4.839
 9736SOL    HW230108   4.728   1.945   4.690
 9737SOL     OW30109   6.042   2.760   3.902
 9737SOL    HW130110   5.988   2.676   3.904
 9737SOL    HW230111   6.107   2.756   3.826
 9738SOL     OW30112   2.309   6.621   1.859
 9738SOL    HW130113   2.310   6.526   1.828
 9738SOL    HW230114   2.320   6.682   1.780
 9739SOL     OW30115   6.123   6.706   0.843
 9739SOL    HW130116   6.107   6.796   0.801
 9739SOL    HW230117   6.073   6.636   0.791
 9740SOL     OW30118   6.370   0.705   2.525
 9740SOL    HW130119   6.346   0.650   2.604
 9740SOL    HW230120   6.358   0.651   2.442
 9741SOL     OW30121   2.070   1.740   4.513
 9741SOL    HW130122   2.150   1.737   4.572
 9741SOL    HW230123   2.098   1.726   4.418
 9742SOL     OW30124   3.839   1.908   6.187
 9742SOL    HW130125   3.750   1.896   6.142
 9742SOL    HW230126   3.855   1.831   6.249
 9743SOL     OW30127   5.830   4.176   3.856
 9743SOL    HW130128   5.928   4.161   3.866
 9743SOL    HW230129   5.812   4.225   3.771
 9744SOL     OW30130   2.036   1.951   2.437
 9744SOL    HW130131   1.963   1.915   2.495
 9744SOL    HW230132   2.063   1.881   2.371
 9745SOL     OW30133   0.132   0.509   6.084
 9745SOL    HW130134   0.140   0.605   6.059
 9745SOL    HW230135   0.035   0.485   6.097
 9746SOL     OW30136   3.468   6.056   5.919
 9746SOL    HW130137   3.560   6.020   5.932
 9746SOL    HW230138   3.450   6.066   5.821
 9747SOL     OW30139   2.964   1.566   2.941
 9747SOL    HW130140   2.957   1.539   2.845
 9747SOL    HW230141   3.060   1.575   2.967
 9748SOL     OW30142   1.814   1.483   3.057
 9748SOL    HW130143   1.780   1.568   3.097
 9748SOL    HW230144   1.908   1.497   3.027
 9749SOL     OW30145   6.819   0.126   1.812
 9749SOL    HW130146   6.764   0.121   1.729
 9749SOL    HW230147   6.887   0.053   1.811
 9750SOL     OW30148   5.790   2.553   5.289
 9750SOL    HW130149   5.780   2.472   5.231
 9750SOL    HW230150   5.718   2.619   5.268
 9751SOL     OW30151   3.503   6.863   1.126
 9751SOL    HW130152   3.505   6.813   1.213
 9751SOL    HW230153   3.568   6.939   1.130
 9752SOL     OW30154   2.923   2.780   0.524
 9752SOL    HW130155   2.890   2.870   0.494
 9752SOL    HW230156   2.968   2.734   0.448
 9753SOL     OW30157   6.347   6.471   4.974
 9753SOL    HW130158   6.263   6.419   4.957
 9753SOL    HW230159   6.363   6.534   4.898
 9754SOL     OW30160   3.274   1.272   2.342
 9754SOL    HW130161   3.195   1.230   2.298
 9754SOL    HW230162   3.350   1.275   2.277
 9755SOL     OW30163   3.486   3.742   0.177
 9755SOL    HW130164   3.582   3.754   0.202
 9755SOL    HW230165   3.440   3.831   0.178
 9756SOL     OW30166   5.913   0.229   5.478
 9756SOL    HW130167   5.915   0.218   5.578
 9756SOL    HW230168   5.836   0.178   5.440
 9757SOL     OW30169   5.195   3.878   4.279
 9757SOL    HW130170   5.227   3.920   4.194
 9757SOL    HW230171   5.109   3.829   4.261
 9758SOL     OW30172   2.299   1.088   2.438
 9758SOL    HW130173   2.376   1.043   2.483
 9758SOL    HW230174   2.272   1.168   2.491
 9759SOL     OW30175   6.656   1.789   1.752
 9759SOL    HW130176   6.568   1.836   1.754
 9759SOL    HW230177   6.716   1.832   1.684
 9760SOL     OW30178   4.655   0.356   0.294
 9760SOL    HW130179   4.567   0.313   0.275
 9760SOL    HW230180   4.650   0.454   0.275
 9761SOL     OW30181   1.334   2.851   1.292
 9761SOL    HW130182   1.263   2.803   1.239
 9761SOL    HW230183   1.322   2.830   1.389
 9762SOL     OW30184   2.837   1.398   5.455
 9762SOL    HW130185   2.799   1.468   5.516
 9762SOL    HW230186   2.858   1.439   5.366
 9763SOL     OW30187   6.282   2.370   1.671
 9763SOL    HW130188   6.215   2.444   1.658
 9763SOL    HW230189   6.252   2.311   1.746
 9764SOL     OW30190   0.207   2.069   2.806
 9764SOL    HW130191   0.298   2.095   2.774
 9764SOL    HW230192   0.207   1.972   2.830
 9765SOL     OW30193   6.835   0.411   1.913
 9765SOL    HW130194   6.870   0.331   1.864
 9765SOL    HW230195   6.736   0.413   1.906
 9766SOL     OW30196   1.585   2.189   2.977
 9766SOL    HW130197   1.494   2.154   2.955
 9766SOL    HW230198   1.602   2.273   2.924
 9767SOL     OW30199   2.523   1.332   4.972
 9767SOL    HW130200   2.578   1.358   4.893
 9767SOL    HW230201   2.567   1.365   5.056
 9768SOL     OW30202   5.698   2.961   0.598
 9768SOL    HW130203   5.716   2.893   0.527
 9768SOL    HW230204   5.673   3.048   0.557
 9769SOL     OW30205   3.060   1.707   5.443
 9769SOL    HW130206   3.119   1.749   5.512
 9769SOL    HW230207   3.070   1.757   5.356
 9770SOL     OW30208   1.813   2.840   5.624
 9770SOL    HW130209   1.831   2.937   5.608
 9770SOL    HW230210   1.880   2.804   5.689
 9771SOL     OW30211   3.457   0.129   1.469
 9771SOL    HW130212   3.456   0.209   1.528
 9771SOL    HW230213   3.399   0.146   1.389
 9772SOL     OW30214   1.167   0.614   1.679
 9772SOL    HW130215   1.172   0.521   1.714
 9772SOL    HW230216   1.143   0.613   1.582
 9773SOL     OW30217   5.995   5.467   2.350
 9773SOL    HW130218   5.921   5.532   2.365
 9773SOL    HW230219   6.003   5.449   2.252
 9774SOL     OW30220   1.584   4.624   4.669
 9774SOL    HW130221   1.572   4.560   4.746
 9774SOL    HW230222   1.669   4.674   4.681
 9775SOL     OW30223   2.345   1.445   3.202
 9775SOL    HW130224   2.371   1.491   3.117
 9775SOL    HW230225   2.417   1.458   3.270
 9776SOL     OW30226   2.899   4.955   0.829
 9776SOL    HW130227   2.978   4.936   0.769
 9776SOL    HW230228   2.843   5.027   0.788
 9777SOL     OW30229   4.596   1.126   5.380
 9777SOL    HW130230   4.499   1.137   5.361
 9777SOL    HW230231   4.640   1.216   5.385
 9778SOL     OW30232   1.333   4.228   3.519
 9778SOL    HW130233   1.419   4.278   3.517
 9778SOL    HW230234   1.271   4.267   3.450
 9779SOL     OW30235   2.557   0.980   3.589
 9779SOL    HW130236   2.571   1.078   3.606
 9779SOL    HW230237   2.644   0.932   3.602
 9780SOL     OW30238   0.874   2.510   2.109
 9780SOL    HW130239   0.919   2.593   2.141
 9780SOL    HW230240   0.913   2.484   2.020
 9781SOL     OW30241   1.711   1.618   2.174
 9781SOL    HW130242   1.642   1.572   2.119
 9781SOL    HW230243   1.667   1.684   2.234
 9782SOL     OW30244   0.402   1.910   0.628
 9782SOL    HW130245   0.493   1.889   0.594
 9782SOL    HW230246   0.342   1.931   0.551
 9783SOL     OW30247   4.387   1.476   2.880
 9783SOL    HW130248   4.442   1.393   2.870
 9783SOL    HW230249   4.302   1.453   2.927
 9784SOL     OW30250   2.262   1.224   6.530
 9784SOL    HW130251   2.315   1.207   6.447
 9784SOL    HW230252   2.311   1.186   6.609
 9785SOL     OW30253   0.325   4.060   4.595
 9785SOL    HW130254   0.328   4.157   4.573
 9785SOL    HW230255   0.416   4.029   4.623
 9786SOL     OW30256   2.337   4.511   6.435
 9786SOL    HW130257   2.355   4.597   6.483
 9786SOL    HW230258   2.384   4.436   6.481
 9787SOL     OW30259   2.985   3.628   2.377
 9787SOL    HW130260   3.025   3.542   2.345
 9787SOL    HW230261   2.960   3.684   2.299
 9788SOL     OW30262   3.713   6.753   2.040
 9788SOL    HW130263   3.793   6.749   2.099
 9788SOL    HW230264   3.738   6.788   1.950
 9789SOL     OW30265   3.975   1.536   6.956
 9789SOL    HW130266   3.994   1.617   6.901
 9789SOL    HW230267   3.887   1.547   7.003
 9790SOL     OW30268   5.598   5.801   4.528
 9790SOL    HW130269   5.684   5.798   4.477
 9790SOL    HW230270   5.537   5.730   4.494
 9791SOL     OW30271   0.776   0.152   1.747
 9791SOL    HW130272   0.702   0.111   1.693
 9791SOL    HW230273   0.789   0.100   1.831
 9792SOL     OW30274   4.151   4.814   0.487
 9792SOL    HW130275   4.115   4.895   0.533
 9792SOL    HW230276   4.195   4.754   0.553
 9793SOL     OW30277   5.678   1.052   3.532
 9793SOL    HW130278   5.651   1.131   3.587
 9793SOL    HW230279   5.726   1.083   3.450
 9794SOL     OW30280   4.471   4.737   4.476
 9794SOL    HW130281   4.557   4.718   4.430
 9794SOL    HW230282   4.467   4.687   4.563
 9795SOL     OW30283   1.397   3.588   3.009
 9795SOL    HW130284   1.354   3.597   2.919
 9795SOL    HW230285   1.416   3.492   3.028
 9796SOL     OW30286   3.334   3.943   4.156
 9796SOL    HW130287   3.407   3.884   4.120
 9796SOL    HW230288   3.276   3.890   4.218
 9797SOL     OW30289   2.442   5.093   0.385
 9797SOL    HW130290   2.437   5.161   0.458
 9797SOL    HW230291   2.366   5.028   0.395
 9798SOL     OW30292   6.965   4.160   6.490
 9798SOL    HW130293   6.927   4.072   6.518
 9798SOL    HW230294   0.044   4.152   6.477
 9799SOL     OW30295   3.214   0.231   6.905
 9799SOL    HW130296   3.228   0.311   6.847
 9799SOL    HW230297   3.182   0.154   6.848
 9800SOL     OW30298   6.969   3.212   4.024
 9800SOL    HW130299   7.011   3.235   4.112
 9800SOL    HW230300   0.014   3.163   3.967
 9801SOL     OW30301   5.526   6.617   0.432
 9801SOL    HW130302   5.494   6.561   0.508
 9801SOL    HW230303   5.469   6.600   0.352
 9802SOL     OW30304   4.212   4.000   7.000
 9802SOL    HW130305   4.286   3.971   6.939
 9802SOL    HW230306   4.214   3.944   0.063
 9803SOL     OW30307   1.003   3.106   6.393
 9803SOL    HW130308   1.070   3.107   6.468
 9803SOL    HW230309   1.030   3.174   6.324
 9804SOL     OW30310   0.564   5.139   2.290
 9804SOL    HW130311   0.610   5.060   2.250
 9804SOL    HW230312   0.579   5.140   2.389
 9805SOL     OW30313   0.394   5.668   3.796
 9805SOL    HW130314   0.480   5.657   3.747
 9805SOL    HW230315   0.412   5.702   3.889
 9806SOL     OW30316   3.783   1.979   0.288
 9806SOL    HW130317   3.826   2.045   0.349
 9806SOL    HW230318   3.838   1.896   0.285
 9807SOL     OW30319   3.953   3.081   3.028
 9807SOL    HW130320   4.020   3.097   2.956
 9807SOL    HW230321   3.893   3.160   3.036
 9808SOL     OW30322   4.152   5.618   2.224
 9808SOL    HW130323   4.122   5.709   2.254
 9808SOL    HW230324   4.098   5.548   2.271
 9809SOL     OW30325   6.569   3.404   0.604
 9809SOL    HW130326   6.552   3.428   0.509
 9809SOL    HW230327   6.495   3.346   0.638
 9810SOL     OW30328   2.945   1.802   7.006
 9810SOL    HW130329   2.863   1.746   7.011
 9810SOL    HW230330   2.987   1.808   0.077
 9811SOL     OW30331   5.695   3.965   4.412
 9811SOL    HW130332   5.739   3.972   4.323
 9811SOL    HW230333   5.742   4.025   4.477
 9812SOL     OW30334   3.320   6.376   5.874
 9812SOL    HW130335   3.407   6.425   5.874
 9812SOL    HW230336   3.328   6.294   5.816
 9813SOL     OW30337   5.123   0.580   1.978
 9813SOL    HW130338   5.158   0.568   2.070
 9813SOL    HW230339   5.155   0.668   1.942
 9814SOL     OW30340   6.152   1.143   0.138
 9814SOL    HW130341   6.114   1.190   0.218
 9814SOL    HW230342   6.148   1.205   0.059
 9815SOL     OW30343   4.668   2.797   4.256
 9815SOL    HW130344   4.735   2.870   4.263
 9815SOL    HW230345   4.644   2.763   4.347
 9816SOL     OW30346   2.116   0.861   1.366
 9816SOL    HW130347   2.105   0.921   1.287
 9816SOL    HW230348   2.084   0.908   1.448
 9817SOL     OW30349   6.605   6.848   2.671
 9817SOL    HW130350   6.576   6.759   2.636
 9817SOL    HW230351   6.688   6.876   2.622
 9818SOL     OW30352   5.596   2.677   5.145
 9818SOL    HW130353   5.551   2.644   5.063
 9818SOL    HW230354   5.637   2.767   5.127
 9819SOL     OW30355   4.260   0.664   2.632
 9819SOL    HW130356   4.320   0.585   2.641
 9819SOL    HW230357   4.170   0.635   2.598
 9820SOL     OW30358   4.201   3.017   5.889
 9820SOL    HW130359   4.251   2.943   5.844
 9820SOL    HW230360   4.107   2.987   5.907
 9821SOL     OW30361   6.450   4.996   0.247
 9821SOL    HW130362   6.457   5.095   0.248
 9821SOL    HW230363   6.425   4.962   0.338
 9822SOL     OW30364   0.703   6.853   2.337
 9822SOL    HW130365   0.642   6.842   2.415
 9822SOL    HW230366   0.745   6.943   2.340
 9823SOL     OW30367   3.754   0.227   1.798
 9823SOL    HW130368   3.731   0.325   1.802
 9823SOL    HW230369   3.681   0.174   1.840
 9824SOL     OW30370   1.213   3.725   5.998
 9824SOL    HW130371   1.308   3.746   6.018
 9824SOL    HW230372   1.153   3.789   6.046
 9825SOL     OW30373   4.273   5.105   5.102
 9825SOL    HW130374   4.205   5.056   5.047
 9825SOL    HW230375   4.324   5.168   5.044
 9826SOL     OW30376   5.206   0.726   5.921
 9826SOL    HW130377   5.183   0.815   5.881
 9826SOL    HW230378   5.170   0.722   6.015
 9827SOL     OW30379   1.481   3.839   4.283
 9827SOL    HW130380   1.473   3.849   4.184
 9827SOL    HW230381   1.403   3.786   4.317
 9828SOL     OW30382   3.345   3.194   6.850
 9828SOL    HW130383   3.282   3.224   6.779
 9828SOL    HW230384   3.297   3.186   6.937
 9829SOL     OW30385   3.338   4.434   0.397
 9829SOL    HW130386   3.247   4.476   0.392
 9829SOL    HW230387   3.364   4.422   0.492
 9830SOL     OW30388   6.019   0.294   0.723
 9830SOL    HW130389   6.054   0.364   0.661
 9830SOL    HW230390   5.990   0.214   0.670
 9831SOL     OW30391   6.206   6.928   0.711
 9831SOL    HW130392   6.243   6.938   0.619
 9831SOL    HW230393   6.250   6.993   0.772
 9832SOL     OW30394   4.213   4.480   0.932
 9832SOL    HW130395   4.266   4.396   0.921
 9832SOL    HW230396   4.230   4.519   1.023
 9833SOL     OW30397   3.777   4.063   5.416
 9833SOL    HW130398   3.859   4.025   5.373
 9833SOL    HW230399   3.697   4.013   5.383
 9834SOL     OW30400   0.665   3.309   4.380
 9834SOL    HW130401   0.668   3.363   4.297
 9834SOL    HW230402   0.757   3.301   4.419
 9835SOL     OW30403   5.060   1.496   4.125
 9835SOL    HW130404   5.046   1.489   4.026
 9835SOL    HW230405   4.972   1.494   4.172
 9836SOL     OW30406   4.958   5.391   3.171
 9836SOL    HW130407   5.033   5.444   3.208
 9836SOL    HW230408   4.900   5.450   3.115
 9837SOL     OW30409   1.829   6.233   4.344
 9837SOL    HW130410   1.895   6.162   4.316
 9837SOL    HW230411   1.778   6.264   4.264
 9838SOL     OW30412   0.274   5.530   5.798
 9838SOL    HW130413   0.340   5.575   5.738
 9838SOL    HW230414   0.218   5.468   5.745
 9839SOL     OW30415   6.868   1.671   1.896
 9839SOL    HW130416   6.791   1.726   1.862
 9839SOL    HW230417   6.847   1.574   1.886
 9840SOL     OW30418   6.971   0.366   1.369
 9840SOL    HW130419   0.023   0.436   1.372
 9840SOL    HW230420   6.920   0.368   1.455
 9841SOL     OW30421   1.706   3.804   3.842
 9841SOL    HW130422   1.622   3.761   3.873
 9841SOL    HW230423   1.783   3.774   3.899
 9842SOL     OW30424   3.676   2.951   2.294
 9842SOL    HW130425   3.586   2.914   2.318
 9842SOL    HW230426   3.701   2.921   2.202
 9843SOL     OW30427   5.984   2.848   2.221
 9843SOL    HW130428   6.003   2.769   2.163
 9843SOL    HW230429   5.900   2.833   2.272
 9844SOL     OW30430   5.152   6.700   2.707
 9844SOL    HW130431   5.069   6.670   2.660
 9844SOL    HW230432   5.156   6.800   2.708
 9845SOL     OW30433   0.615   2.062   3.274
 9845SOL    HW130434   0.705   2.022   3.291
 9845SOL    HW230435   0.546   1.990   3.271
 9846SOL     OW30436   2.882   3.376   2.763
 9846SOL    HW130437   2.845   3.427   2.685
 9846SOL    HW230438   2.924   3.291   2.731
 9847SOL     OW30439   2.123   4.302   5.715
 9847SOL    HW130440   2.181   4.365   5.767
 9847SOL    HW230441   2.177   4.262   5.640
 9848SOL     OW30442   4.765   3.355   0.149
 9848SOL    HW130443   4.732   3.447   0.128
 9848SOL    HW230444   4.852   3.340   0.102
 9849SOL     OW30445   0.402   0.086   5.911
 9849SOL    HW130446   0.369   0.178   5.930
 9849SOL    HW230447   0.324   0.023   5.909
 9850SOL     OW30448   3.762   6.304   2.460
 9850SOL    HW130449   3.686   6.262   2.510
 9850SOL    HW230450   3.787   6.245   2.383
 9851SOL     OW30451   5.833   1.957   5.426
 9851SOL    HW130452   5.749   2.008   5.411
 9851SOL    HW230453   5.898   2.014   5.478
 9852SOL     OW30454   5.062   1.729   3.818
 9852SOL    HW130455   5.130   1.756   3.886
 9852SOL    HW230456   5.064   1.794   3.741
 9853SOL     OW30457   6.092   4.155   1.915
 9853SOL    HW130458   6.186   4.184   1.899
 9853SOL    HW230459   6.061   4.099   1.838
 9854SOL     OW30460   5.104   5.497   4.056
 9854SOL    HW130461   5.020   5.449   4.079
 9854SOL    HW230462   5.136   5.549   4.135
 9855SOL     OW30463   1.267   3.493   1.375
 9855SOL    HW130464   1.343   3.436   1.405
 9855SOL    HW230465   1.211   3.518   1.453
 9856SOL     OW30466   4.010   2.829   1.115
 9856SOL    HW130467   3.983   2.869   1.203
 9856SOL    HW230468   3.955   2.748   1.098
 9857SOL     OW30469   5.246   4.126   3.358
 9857SOL    HW130470   5.344   4.145   3.347
 9857SOL    HW230471   5.199   4.145   3.273
 9858SOL     OW30472   5.094   0.639   1.441
 9858SOL    HW130473   5.180   0.651   1.492
 9858SOL    HW230474   5.106   0.671   1.347
 9859SOL     OW30475   6.429   0.379   2.311
 9859SOL    HW130476   6.507   0.427   2.351
 9859SOL    HW230477   6.374   0.443   2.258
 9860SOL     OW30478   0.382   1.118   2.414
 9860SOL    HW130479   0.317   1.086   2.345
 9860SOL    HW230480   0.466   1.149   2.369
 9861SOL     OW30481   3.835   6.692   4.352
 9861SOL    HW130482   3.832   6.595   4.329
 9861SOL    HW230483   3.920   6.732   4.318
 9862SOL     OW30484   0.894   2.477   0.622
 9862SOL    HW130485   0.992   2.498   0.624
 9862SOL    HW230486   0.862   2.457   0.715
 9863SOL     OW30487   3.308   6.902   1.482
 9863SOL    HW130488   3.351   6.992   1.478
 9863SOL    HW230489   3.353   6.841   1.416
 9864SOL     OW30490   4.803   5.614   2.185
 9864SOL    HW130491   4.824   5.684   2.117
 9864SOL    HW230492   4.705   5.616   2.205
 9865SOL     OW30493   0.540   1.482   4.554
 9865SOL    HW130494   0.562   1.522   4.643
 9865SOL    HW230495   0.605   1.516   4.486
 9866SOL     OW30496   4.663   4.331   4.003
 9866SOL    HW130497   4.592   4.389   4.043
 9866SOL    HW230498   4.693   4.263   4.070
 9867SOL     OW30499   4.660   1.281   0.062
 9867SOL    HW130500   4.631   1.221   7.007
 9867SOL    HW230501   4.654   1.377   0.032
 9868SOL     OW30502   0.192   5.116   0.076
 9868SOL    HW130503   0.158   5.030   0.115
 9868SOL    HW230504   0.180   5.190   0.143
 9869SOL     OW30505   1.896   4.190   2.916
 9869SOL    HW130506   1.880   4.179   3.015
 9869SOL    HW230507   1.977   4.246   2.902
 9870SOL     OW30508   4.712   4.799   2.835
 9870SOL    HW130509   4.709   4.864   2.910
 9870SOL    HW230510   4.747   4.845   2.753
 9871SOL     OW30511   2.189   1.088   5.187
 9871SOL    HW130512   2.095   1.065   5.163
 9871SOL    HW230513   2.246   1.085   5.105
 9872SOL     OW30514   1.992   4.882   3.529
 9872SOL    HW130515   2.077   4.831   3.536
 9872SOL    HW230516   1.917   4.820   3.508
 9873SOL     OW30517   1.289   2.842   0.279
 9873SOL    HW130518   1.359   2.862   0.211
 9873SOL    HW230519   1.330   2.846   0.371
 9874SOL     OW30520   0.847   2.671   3.840
 9874SOL    HW130521   0.775   2.675   3.770
 9874SOL    HW230522   0.808   2.693   3.929
 9875SOL     OW30523   1.442   0.388   3.581
 9875SOL    HW130524   1.518   0.448   3.556
 9875SOL    HW230525   1.409   0.341   3.499
 9876SOL     OW30526   0.161   6.146   2.612
 9876SOL    HW130527   0.203   6.066   2.655
 9876SOL    HW230528   0.091   6.116   2.548
 9877SOL     OW30529   3.252   0.050   2.598
 9877SOL    HW130530   3.337   0.085   2.559
 9877SOL    HW230531   3.184   0.040   2.525
 9878SOL     OW30532   0.560   6.183   5.192
 9878SOL    HW130533   0.498   6.151   5.119
 9878SOL    HW230534   0.574   6.281   5.183
 9879SOL     OW30535   4.556   5.604   6.069
 9879SOL    HW130536   4.573   5.676   6.136
 9879SOL    HW230537   4.596   5.630   5.981
 9880SOL     OW30538   1.754   1.439   5.627
 9880SOL    HW130539   1.838   1.423   5.575
 9880SOL    HW230540   1.764   1.401   5.719
 9881SOL     OW30541   0.484   2.449   6.073
 9881SOL    HW130542   0.385   2.455   6.089
 9881SOL    HW230543   0.531   2.438   6.160
 9882SOL     OW30544   1.411   1.732   3.956
 9882SOL    HW130545   1.384   1.738   4.053
 9882SOL    HW230546   1.508   1.710   3.950
 9883SOL     OW30547   1.692   0.919   2.236
 9883SOL    HW130548   1.743   0.865   2.303
 9883SOL    HW230549   1.749   0.994   2.202
 9884SOL     OW30550   3.807   0.339   4.245
 9884SOL    HW130551   3.720   0.310   4.283
 9884SOL    HW230552   3.874   0.350   4.320
 9885SOL     OW30553   6.408   4.759   4.089
 9885SOL    HW130554   6.446   4.841   4.045
 9885SOL    HW230555   6.341   4.787   4.158
 9886SOL     OW30556   1.017   4.039   2.480
 9886SOL    HW130557   0.985   4.036   2.575
 9886SOL    HW230558   0.940   4.022   2.419
 9887SOL     OW30559   4.027   0.887   6.969
 9887SOL    HW130560   3.968   0.943   0.006
 9887SOL    HW230561   4.033   0.928   6.877
 9888SOL     OW30562   0.180   4.285   0.405
 9888SOL    HW130563   0.193   4.258   0.501
 9888SOL    HW230564   0.165   4.383   0.400
 9889SOL     OW30565   6.449   4.946   0.536
 9889SOL    HW130566   6.349   4.951   0.533
 9889SOL    HW230567   6.487   5.037   0.548
 9890SOL     OW30568   1.486   2.792   0.941
 9890SOL    HW130569   1.502   2.717   1.005
 9890SOL    HW230570   1.530   2.875   0.976
 9891SOL     OW30571   5.133   2.498   0.706
 9891SOL    HW130572   5.189   2.520   0.785
 9891SOL    HW230573   5.096   2.583   0.667
 9892SOL     OW30574   6.612   5.309   6.896
 9892SOL    HW130575   6.675   5.244   6.939
 9892SOL    HW230576   6.539   5.259   6.850
 9893SOL     OW30577   2.437   1.611   0.521
 9893SOL    HW130578   2.353   1.649   0.558
 9893SOL    HW230579   2.500   1.590   0.596
 9894SOL     OW30580   1.523   2.192   0.077
 9894SOL    HW130581   1.459   2.198   0.154
 9894SOL    HW230582   1.585   2.115   0.091
 9895SOL     OW30583   5.502   3.226   5.627
 9895SOL    HW130584   5.445   3.158   5.673
 9895SOL    HW230585   5.506   3.309   5.683
 9896SOL     OW30586   6.251   0.125   0.060
 9896SOL    HW130587   6.286   0.056   7.018
 9896SOL    HW230588   6.328   0.179   0.096
 9897SOL     OW30589   5.557   5.409   3.232
 9897SOL    HW130590   5.512   5.411   3.321
 9897SOL    HW230591   5.508   5.344   3.173
 9898SOL     OW30592   3.451   6.451   5.596
 9898SOL    HW130593   3.353   6.436   5.606
 9898SOL    HW230594   3.495   6.368   5.562
 9899SOL     OW30595   0.139   5.681   6.841
 9899SOL    HW130596   0.130   5.774   6.807
 9899SOL    HW230597   0.058   5.658   6.896
 9900SOL     OW30598   2.192   3.941   3.335
 9900SOL    HW130599   2.237   3.929   3.424
 9900SOL    HW230600   2.255   3.988   3.272
 9901SOL     OW30601   2.267   1.925   5.292
 9901SOL    HW130602   2.302   1.846   5.242
 9901SOL    HW230603   2.272   2.006   5.235
 9902SOL     OW30604   2.472   4.706   6.607
 9902SOL    HW130605   2.570   4.694   6.596
 9902SOL    HW230606   2.448   4.703   6.704
 9903SOL     OW30607   5.127   0.969   3.195
 9903SOL    HW130608   5.042   0.999   3.238
 9903SOL    HW230609   5.141   0.872   3.213
 9904SOL     OW30610   6.454   3.029   6.712
 9904SOL    HW130611   6.369   3.075   6.737
 9904SOL    HW230612   6.477   2.960   6.780
 9905SOL     OW30613   3.981   1.732   0.753
 9905SOL    HW130614   3.921   1.692   0.683
 9905SOL    HW230615   3.931   1.738   0.840
 9906SOL     OW30616   4.078   3.173   3.246
 9906SOL    HW130617   4.022   3.173   3.329
 9906SOL    HW230618   4.041   3.108   3.180
 9907SOL     OW30619   0.565   0.137   2.062
 9907SOL    HW130620   0.518   0.110   2.147
 9907SOL    HW230621   0.637   0.071   2.041
 9908SOL     OW30622   5.095   3.123   3.141
 9908SOL    HW130623   5.131   3.152   3.053
 9908SOL    HW230624   4.997   3.145   3.146
 9909SOL     OW30625   2.082   6.643   4.636
 9909SOL    HW130626   2.092   6.636   4.735
 9909SOL    HW230627   2.140   6.717   4.601
 9910SOL     OW30628   1.102   4.577   2.907
 9910SOL    HW130629   1.103   4.490   2.955
 9910SOL    HW230630   1.011   4.591   2.866
 9911SOL     OW30631   3.451   6.716   1.340
 9911SOL    HW130632   3.405   6.628   1.350
 9911SOL    HW230633   3.499   6.739   1.425
 9912SOL     OW30634   4.586   1.918   0.625
 9912SOL    HW130635   4.515   1.884   0.687
 9912SOL    HW230636   4.662   1.854   0.623
 9913SOL     OW30637   5.694   3.201   0.256
 9913SOL    HW130638   5.780   3.153   0.239
 9913SOL    HW230639   5.650   3.223   0.168
 9914SOL     OW30640   0.562   2.801   4.779
 9914SOL    HW130641   0.563   2.713   4.826
 9914SOL    HW230642   0.571   2.875   4.846
 9915SOL     OW30643   5.459   1.269   3.375
 9915SOL    HW130644   5.475   1.257   3.473
 9915SOL    HW230645   5.486   1.362   3.349
 9916SOL     OW30646   2.242   2.839   2.125
 9916SOL    HW130647   2.267   2.777   2.198
 9916SOL    HW230648   2.289   2.813   2.041
 9917SOL     OW30649   6.503   4.505   5.631
 9917SOL    HW130650   6.581   4.465   5.582
 9917SOL    HW230651   6.418   4.475   5.587
 9918SOL     OW30652   3.918   1.863   2.917
 9918SOL    HW130653   4.006   1.910   2.912
 9918SOL    HW230654   3.855   1.917   2.974
 9919SOL     OW30655   6.225   5.736   0.813
 9919SOL    HW130656   6.138   5.737   0.765
 9919SOL    HW230657   6.246   5.828   0.845
 9920SOL     OW30658   4.664   1.570   2.620
 9920SOL    HW130659   4.566   1.573   2.638
 9920SOL    HW230660   4.710   1.519   2.693
 9921SOL     OW30661   3.538   5.591   6.178
 9921SOL    HW130662   3.488   5.537   6.110
 9921SOL    HW230663   3.511   5.688   6.170
 9922SOL     OW30664   0.519   5.758   0.909
 9922SOL    HW130665   0.507   5.730   1.005
 9922SOL    HW230666   0.576   5.691   0.862
 9923SOL     OW30667   4.968   5.077   0.183
 9923SOL    HW130668   4.895   5.144   0.199
 9923SOL    HW230669   5.052   5.124   0.156
 9924SOL     OW30670   0.765   3.427   5.058
 9924SOL    HW130671   0.819   3.358   5.107
 9924SOL    HW230672   0.752   3.506   5.118
 9925SOL     OW30673   5.237   2.822   4.485
 9925SOL    HW130674   5.170   2.763   4.440
 9925SOL    HW230675   5.206   2.917   4.481
 9926SOL     OW30676   1.705   4.462   6.580
 9926SOL    HW130677   1.714   4.561   6.564
 9926SOL    HW230678   1.786   4.416   6.544
 9927SOL     OW30679   6.319   0.054   3.192
 9927SOL    HW130680   6.389   0.123   3.175
 9927SOL    HW230681   6.359   6.983   3.185
 9928SOL     OW30682   4.621   4.401   1.151
 9928SOL    HW130683   4.586   4.389   1.244
 9928SOL    HW230684   4.703   4.458   1.153
 9929SOL     OW30685   2.588   4.627   4.419
 9929SOL    HW130686   2.580   4.564   4.496
 9929SOL    HW230687   2.498   4.664   4.398
 9930SOL     OW30688   6.742   0.447   4.587
 9930SOL    HW130689   6.683   0.396   4.650
 9930SOL    HW230690   6.712   0.430   4.493
 9931SOL     OW30691   0.855   4.104   4.736
 9931SOL    HW130692   0.821   4.019   4.774
 9931SOL    HW230693   0.937   4.133   4.785
 9932SOL     OW30694   0.717   6.400   6.293
 9932SOL    HW130695   0.797   6.343   6.309
 9932SOL    HW230696   0.711   6.422   6.195
 9933SOL     OW30697   0.755   5.337   2.211
 9933SOL    HW130698   0.684   5.266   2.210
 9933SOL    HW230699   0.824   5.314   2.279
 9934SOL     OW30700   6.626   1.951   5.833
 9934SOL    HW130701   6.693   1.903   5.776
 9934SOL    HW230702   6.540   1.900   5.832
 9935SOL     OW30703   2.933   1.007   6.713
 9935SOL    HW130704   2.931   0.917   6.756
 9935SOL    HW230705   2.839   1.035   6.692
 9936SOL     OW30706   0.598   4.420   4.284
 9936SOL    HW130707   0.651   4.348   4.329
 9936SOL    HW230708   0.587   4.498   4.346
 9937SOL     OW30709   0.029   2.353   6.007
 9937SOL    HW130710   0.107   2.301   5.972
 9937SOL    HW230711   6.988   2.292   6.057
 9938SOL     OW30712   6.455   6.131   3.007
 9938SOL    HW130713   6.422   6.225   3.009
 9938SOL    HW230714   6.386   6.073   2.964
 9939SOL     OW30715   3.159   2.799   1.959
 9939SOL    HW130716   3.117   2.732   2.020
 9939SOL    HW230717   3.122   2.788   1.867
 9940SOL     OW30718   6.834   1.113   0.735
 9940SOL    HW130719   6.790   1.024   0.731
 9940SOL    HW230720   6.766   1.183   0.759
 9941SOL     OW30721   3.168   4.622   5.585
 9941SOL    HW130722   3.184   4.524   5.578
 9941SOL    HW230723   3.073   4.638   5.614
 9942SOL     OW30724   2.893   5.693   2.957
 9942SOL    HW130725   2.971   5.702   2.894
 9942SOL    HW230726   2.838   5.615   2.931
 9943SOL     OW30727   0.645   5.925   6.170
 9943SOL    HW130728   0.660   5.829   6.148
 9943SOL    HW230729   0.583   5.932   6.248
 9944SOL     OW30730   0.830   4.000   6.930
 9944SOL    HW130731   0.754   4.064   6.930
 9944SOL    HW230732   0.848   3.970   0.004
 9945SOL     OW30733   6.612   5.284   0.409
 9945SOL    HW130734   6.681   5.328   0.352
 9945SOL    HW230735   6.531   5.265   0.354
 9946SOL     OW30736   5.078   0.695   5.272
 9946SOL    HW130737   5.032   0.732   5.191
 9946SOL    HW230738   5.072   0.595   5.271
 9947SOL     OW30739   6.383   4.580   4.351
 9947SOL    HW130740   6.397   4.622   4.261
 9947SOL    HW230741   6.427   4.491   4.354
 9948SOL     OW30742   4.764   4.593   5.018
 9948SOL    HW130743   4.772   4.526   4.944
 9948SOL    HW230744   4.699   4.560   5.086
 9949SOL     OW30745   5.440   5.192   3.123
 9949SOL    HW130746   5.507   5.150   3.184
 9949SOL    HW230747   5.431   5.137   3.040
 9950SOL     OW30748   4.170   6.157   5.459
 9950SOL    HW130749   4.094   6.133   5.398
 9950SOL    HW230750   4.151   6.245   5.502
 9951SOL     OW30751   5.607   2.278   2.715
 9951SOL    HW130752   5.557   2.252   2.633
 9951SOL    HW230753   5.604   2.377   2.727
 9952SOL     OW30754   6.808   4.483   0.475
 9952SOL    HW130755   6.729   4.541   0.455
 9952SOL    HW230756   6.790   4.429   0.557
 9953SOL     OW30757   6.516   1.101   3.993
 9953SOL    HW130758   6.444   1.170   3.990
 9953SOL    HW230759   6.571   1.112   4.075
 9954SOL     OW30760   5.369   0.147   5.324
 9954SOL    HW130761   5.329   0.121   5.412
 9954SOL    HW230762   5.331   0.088   5.252
 9955SOL     OW30763   0.250   3.844   4.473
 9955SOL    HW130764   0.283   3.937   4.491
 9955SOL    HW230765   0.278   3.783   4.547
 9956SOL     OW30766   1.746   6.608   1.511
 9956SOL    HW130767   1.822   6.564   1.557
 9956SOL    HW230768   1.700   6.543   1.450
 9957SOL     OW30769   6.635   4.307   3.872
 9957SOL    HW130770   6.655   4.389   3.819
 9957SOL    HW230771   6.626   4.331   3.969
 9958SOL     OW30772   2.554   4.079   1.350
 9958SOL    HW130773   2.473   4.121   1.310
 9958SOL    HW230774   2.595   4.142   1.416
 9959SOL     OW30775   3.934   3.452   0.408
 9959SOL    HW130776   3.989   3.533   0.427
 9959SOL    HW230777   3.988   3.387   0.354
 9960SOL     OW30778   0.037   1.414   2.765
 9960SOL    HW130779   0.013   1.484   2.698
 9960SOL    HW230780   0.115   1.361   2.732
 9961SOL     OW30781   1.864   5.514   4.533
 9961SOL    HW130782   1.874   5.584   4.604
 9961SOL    HW230783   1.954   5.483   4.503
 9962SOL     OW30784   4.758   6.418   5.150
 9962SOL    HW130785   4.722   6.503   5.189
 9962SOL    HW230786   4.709   6.396   5.066
 9963SOL     OW30787   3.199   1.119   0.727
 9963SOL    HW130788   3.183   1.212   0.759
 9963SOL    HW230789   3.112   1.071   0.718
 9964SOL     OW30790   4.248   5.767   5.332
 9964SOL    HW130791   4.209   5.823   5.258
 9964SOL    HW230792   4.332   5.724   5.301
 9965SOL     OW30793   4.346   0.298   0.161
 9965SOL    HW130794   4.333   0.278   0.259
 9965SOL    HW230795   4.260   0.332   0.123
 9966SOL     OW30796   0.878   6.609   1.949
 9966SOL    HW130797   0.884   6.535   2.017
 9966SOL    HW230798   0.934   6.586   1.870
 9967SOL     OW30799   1.367   5.528   1.011
 9967SOL    HW130800   1.466   5.510   1.007
 9967SOL    HW230801   1.344   5.597   0.943
 9968SOL     OW30802   4.145   3.411   2.186
 9968SOL    HW130803   4.201   3.365   2.256
 9968SOL    HW230804   4.130   3.506   2.214
 9969SOL     OW30805   1.412   3.407   1.861
 9969SOL    HW130806   1.337   3.450   1.911
 9969SOL    HW230807   1.477   3.477   1.832
 9970SOL     OW30808   5.683   4.114   1.522
 9970SOL    HW130809   5.604   4.139   1.465
 9970SOL    HW230810   5.730   4.037   1.479
 9971SOL     OW30811   1.989   4.640   0.580
 9971SOL    HW130812   2.061   4.627   0.649
 9971SOL    HW230813   1.954   4.734   0.585
 9972SOL     OW30814   6.878   4.353   2.236
 9972SOL    HW130815   6.845   4.443   2.208
 9972SOL    HW230816   6.831   4.324   2.319
 9973SOL     OW30817   5.991   1.004   4.305
 9973SOL    HW130818   5.911   1.041   4.257
 9973SOL    HW230819   5.995   1.042   4.397
 9974SOL     OW30820   1.986   1.158   4.290
 9974SOL    HW130821   1.958   1.199   4.377
 9974SOL    HW230822   1.919   1.182   4.220
 9975SOL     OW30823   0.582   2.783   0.293
 9975SOL    HW130824   0.631   2.752   0.211
 9975SOL    HW230825   0.494   2.821   0.266
 9976SOL     OW30826   1.955   0.165   4.901
 9976SOL    HW130827   2.043   0.211   4.914
 9976SOL    HW230828   1.936   0.106   4.979
 9977SOL     OW30829   6.307   4.513   4.740
 9977SOL    HW130830   6.387   4.466   4.776
 9977SOL    HW230831   6.241   4.446   4.705
 9978SOL     OW30832   6.509   1.674   4.346
 9978SOL    HW130833   6.541   1.618   4.270
 9978SOL    HW230834   6.432   1.730   4.316
 9979SOL     OW30835   6.918   3.669   5.269
 9979SOL    HW130836   6.880   3.580   5.294
 9979SOL    HW230837   6.856   3.715   5.205
 9980SOL     OW30838   3.636   0.269   6.077
 9980SOL    HW130839   3.622   0.171   6.089
 9980SOL    HW230840   3.718   0.298   6.127
 9981SOL     OW30841   3.185   2.180   4.009
 9981SOL    HW130842   3.153   2.138   4.094
 9981SOL    HW230843   3.250   2.253   4.030
 9982SOL     OW30844   6.906   6.412   4.453
 9982SOL    HW130845   6.916   6.481   4.525
 9982SOL    HW230846   6.905   6.321   4.494
 9983SOL     OW30847   0.150   1.492   1.866
 9983SOL    HW130848   0.148   1.392   1.868
 9983SOL    HW230849   0.212   1.522   1.794
 9984SOL     OW30850   3.120   1.531   6.581
 9984SOL    HW130851   3.122   1.458   6.649
 9984SOL    HW230852   3.187   1.601   6.605
 9985SOL     OW30853   1.221   0.477   1.970
 9985SOL    HW130854   1.238   0.393   2.023
 9985SOL    HW230855   1.180   0.546   2.030
 9986SOL     OW30856   5.233   4.249   4.971
 9986SOL    HW130857   5.327   4.216   4.974
 9986SOL    HW230858   5.229   4.344   5.000
 9987SOL     OW30859   6.669   3.758   6.157
 9987SOL    HW130860   6.632   3.666   6.166
 9987SOL    HW230861   6.705   3.771   6.064
 9988SOL     OW30862   6.921   6.644   5.245
 9988SOL    HW130863   6.901   6.574   5.314
 9988SOL    HW230864   6.869   6.727   5.266
 9989SOL     OW30865   0.623   3.247   5.384
 9989SOL    HW130866   0.705   3.246   5.327
 9989SOL    HW230867   0.548   3.289   5.333
 9990SOL     OW30868   1.384   5.341   2.551
 9990SOL    HW130869   1.375   5.247   2.583
 9990SOL    HW230870   1.450   5.345   2.476
 9991SOL     OW30871   3.601   2.169   3.598
 9991SOL    HW130872   3.637   2.174   3.691
 9991SOL    HW230873   3.505   2.141   3.601
 9992SOL     OW30874   6.508   5.393   5.964
 9992SOL    HW130875   6.510   5.387   5.864
 9992SOL    HW230876   6.442   5.463   5.992
 9993SOL     OW30877   0.744   1.461   1.954
 9993SOL    HW130878   0.650   1.483   1.927
 9993SOL    HW230879   0.806   1.477   1.877
 9994SOL     OW30880   5.646   4.668   3.311
 9994SOL    HW130881   5.657   4.654   3.213
 9994SOL    HW230882   5.580   4.603   3.348
 9995SOL     OW30883   5.034   0.879   4.632
 9995SOL    HW130884   5.075   0.850   4.546
 9995SOL    HW230885   5.056   0.975   4.650
 9996SOL     OW30886   2.270   3.896   6.937
 9996SOL    HW130887   2.260   3.799   6.912
 9996SOL    HW230888   2.294   3.949   6.855
 9997SOL     OW30889   2.752   0.219   5.059
 9997SOL    HW130890   2.694   0.268   4.994
 9997SOL    HW230891   2.757   0.122   5.032
 9998SOL     OW30892   6.029   5.706   5.197
 9998SOL    HW130893   6.038   5.780   5.129
 9998SOL    HW230894   5.981   5.629   5.156
 9999SOL     OW30895   6.874   2.161   4.999
 9999SOL    HW130896   6.941   2.226   4.962
 9999SOL    HW230897   6.904   2.068   4.980
10000SOL     OW30898   0.009   2.737   6.660
10000SOL    HW130899   6.946   2.786   6.688
10000SOL    HW230900   0.066   2.721   6.740
10001SOL     OW30901   4.043   0.017   2.731
10001SOL    HW130902   4.038   0.065   2.819
10001SOL    HW230903   4.138   0.012   2.702
10002SOL     OW30904   0.757   1.030   2.190
10002SOL    HW130905   0.780   1.124   2.164
10002SOL    HW230906   0.697   0.990   2.121
10003SOL     OW30907   4.348   2.145   3.547
10003SOL    HW130908   4.273   2.175   3.488
10003SOL    HW230909   4.330   2.052   3.579
10004SOL     OW30910   0.279   1.642   3.337
10004SOL    HW130911   0.337   1.660   3.257
10004SOL    HW230912   0.312   1.560   3.383
10005SOL     OW30913   5.222   6.516   4.520
10005SOL    HW130914   5.288   6.466   4.463
10005SOL    HW230915   5.136   6.527   4.470
10006SOL     OW30916   3.694   0.529   4.629
10006SOL    HW130917   3.717   0.619   4.593
10006SOL    HW230918   3.596   0.513   4.621
10007SOL     OW30919   6.530   3.225   3.793
10007SOL    HW130920   6.548   3.221   3.694
10007SOL    HW230921   6.483   3.141   3.821
10008SOL     OW30922   3.432   6.974   4.126
10008SOL    HW130923   3.362   6.915   4.166
10008SOL    HW230924   3.430   0.044   4.169
10009SOL     OW30925   0.744   4.628   1.483
10009SOL    HW130926   0.826   4.673   1.519
10009SOL    HW230927   0.771   4.549   1.428
10010SOL     OW30928   0.952   1.355   6.459
10010SOL    HW130929   0.954   1.382   6.363
10010SOL    HW230930   0.960   1.256   6.467
10011SOL     OW30931   6.953   6.737   4.984
10011SOL    HW130932   6.935   6.687   5.069
10011SOL    HW230933   6.867   6.771   4.947
10012SOL     OW30934   5.711   1.385   3.903
10012SOL    HW130935   5.679   1.469   3.947
10012SOL    HW230936   5.660   1.307   3.940
10013SOL     OW30937   0.719   0.414   3.122
10013SOL    HW130938   0.754   0.506   3.136
10013SOL    HW230939   0.775   0.367   3.054
10014SOL     OW30940   1.078   4.528   5.915
10014SOL    HW130941   1.047   4.593   5.845
10014SOL    HW230942   0.999   4.488   5.960
10015SOL     OW30943   1.936   4.470   6.940
10015SOL    HW130944   1.860   4.480   6.876
10015SOL    HW230945   1.969   4.376   6.939
10016SOL     OW30946   2.464   0.358   5.557
10016SOL    HW130947   2.440   0.432   5.620
10016SOL    HW230948   2.563   0.354   5.547
10017SOL     OW30949   1.464   2.273   4.537
10017SOL    HW130950   1.554   2.238   4.510
10017SOL    HW230951   1.407   2.196   4.566
10018SOL     OW30952   4.978   0.080   6.572
10018SOL    HW130953   4.966   0.165   6.519
10018SOL    HW230954   5.051   0.026   6.531
10019SOL     OW30955   1.132   1.125   2.777
10019SOL    HW130956   1.230   1.143   2.791
10019SOL    HW230957   1.090   1.203   2.730
10020SOL     OW30958   0.540   2.954   1.016
10020SOL    HW130959   0.542   2.957   0.916
10020SOL    HW230960   0.630   2.976   1.052
10021SOL     OW30961   6.670   3.739   0.444
10021SOL    HW130962   6.646   3.677   0.370
10021SOL    HW230963   6.769   3.748   0.450
10022SOL     OW30964   1.848   0.967   6.599
10022SOL    HW130965   1.935   0.955   6.647
10022SOL    HW230966   1.826   1.064   6.594
10023SOL     OW30967   6.760   3.275   0.801
10023SOL    HW130968   6.687   3.293   0.735
10023SOL    HW230969   6.846   3.261   0.753
10024SOL     OW30970   1.707   4.664   3.804
10024SOL    HW130971   1.736   4.759   3.814
10024SOL    HW230972   1.785   4.603   3.816
10025SOL     OW30973   1.435   1.504   0.657
10025SOL    HW130974   1.433   1.509   0.557
10025SOL    HW230975   1.375   1.430   0.688
10026SOL     OW30976   6.850   0.845   3.873
10026SOL    HW130977   6.863   0.829   3.775
10026SOL    HW230978   6.757   0.878   3.889
10027SOL     OW30979   4.601   2.549   5.575
10027SOL    HW130980   4.533   2.564   5.646
10027SOL    HW230981   4.569   2.588   5.489
10028SOL     OW30982   1.741   0.974   0.904
10028SOL    HW130983   1.787   0.900   0.953
10028SOL    HW230984   1.642   0.963   0.911
10029SOL     OW30985   5.630   2.219   3.629
10029SOL    HW130986   5.547   2.228   3.575
10029SOL    HW230987   5.690   2.298   3.614
10030SOL     OW30988   1.924   0.589   3.959
10030SOL    HW130989   1.865   0.577   4.039
10030SOL    HW230990   1.909   0.513   3.895
10031SOL     OW30991   6.817   4.348   4.735
10031SOL    HW130992   6.736   4.368   4.790
10031SOL    HW230993   6.810   4.256   4.697
10032SOL     OW30994   2.964   1.407   4.770
10032SOL    HW130995   2.951   1.366   4.680
10032SOL    HW230996   3.041   1.363   4.816
10033SOL     OW30997   5.507   2.562   4.834
10033SOL    HW130998   5.470   2.610   4.754
10033SOL    HW230999   5.440   2.494   4.866
10034SOL     OW31000   5.554   0.886   6.325
10034SOL    HW131001   5.561   0.791   6.295
10034SOL    HW231002   5.561   0.947   6.246
10035SOL     OW31003   0.100   6.336   2.416
10035SOL    HW131004   0.132   6.284   2.495
10035SOL    HW231005   0.131   6.291   2.332
10036SOL     OW31006   0.037   0.959   0.556
10036SOL    HW131007   0.099   1.028   0.593
10036SOL    HW231008   6.969   0.964   0.604
10037SOL     OW31009   0.456   6.761   1.031
10037SOL    HW131010   0.517   6.826   1.078
10037SOL    HW231011   0.472   6.669   1.066
10038SOL     OW31012   6.789   0.748   1.251
10038SOL    HW131013   6.814   0.797   1.167
10038SOL    HW231014   6.766   0.654   1.229
10039SOL     OW31015   3.089   0.510   3.219
10039SOL    HW131016   3.115   0.416   3.243
10039SOL    HW231017   3.169   0.559   3.184
10040SOL     OW31018   0.784   3.036   1.084
10040SOL    HW131019   0.847   3.106   1.049
10040SOL    HW231020   0.837   2.958   1.118
10041SOL     OW31021   1.883   5.887   0.352
10041SOL    HW131022   1.810   5.899   0.285
10041SOL    HW231023   1.920   5.977   0.377
10042SOL     OW31024   5.678   3.117   2.958
10042SOL    HW131025   5.585   3.107   2.994
10042SOL    HW231026   5.679   3.088   2.863
10043SOL     OW31027   0.615   2.268   4.747
10043SOL    HW131028   0.683   2.336   4.721
10043SOL    HW231029   0.541   2.313   4.798
10044SOL     OW31030   3.786   1.371   5.757
10044SOL    HW131031   3.822   1.399   5.669
10044SOL    HW231032   3.746   1.280   5.749
10045SOL     OW31033   2.676   1.354   0.603
10045SOL    HW131034   2.649   1.284   0.669
10045SOL    HW231035   2.732   1.312   0.531
10046SOL     OW31036   0.808   5.390   0.833
10046SOL    HW131037   0.904   5.396   0.861
10046SOL    HW231038   0.799   5.321   0.760
10047SOL     OW31039   0.965   3.801   1.175
10047SOL    HW131040   1.025   3.747   1.116
10047SOL    HW231041   1.005   3.805   1.267
10048SOL     OW31042   5.691   5.088   3.269
10048SOL    HW131043   5.734   5.065   3.356
10048SOL    HW231044   5.748   5.154   3.220
10049SOL     OW31045   6.503   0.858   5.585
10049SOL    HW131046   6.437   0.818   5.522
10049SOL    HW231047   6.543   0.940   5.544
10050SOL     OW31048   0.128   2.675   6.897
10050SOL    HW131049   0.073   2.628   6.966
10050SOL    HW231050   0.218   2.697   6.936
10051SOL     OW31051   2.633   2.109   3.872
10051SOL    HW131052   2.556   2.140   3.815
10051SOL    HW231053   2.684   2.189   3.905
10052SOL     OW31054   1.004   6.771   3.384
10052SOL    HW131055   1.076   6.719   3.338
10052SOL    HW231056   0.921   6.716   3.389
10053SOL     OW31057   5.941   5.112   3.398
10053SOL    HW131058   6.012   5.179   3.373
10053SOL    HW231059   5.892   5.143   3.479
10054SOL     OW31060   6.818   3.837   4.544
10054SOL    HW131061   6.889   3.887   4.594
10054SOL    HW231062   6.805   3.746   4.585
10055SOL     OW31063   1.475   2.722   6.435
10055SOL    HW131064   1.566   2.691   6.409
10055SOL    HW231065   1.421   2.740   6.352
10056SOL     OW31066   5.902   1.817   3.473
10056SOL    HW131067   5.995   1.782   3.483
10056SOL    HW231068   5.856   1.813   3.562
10057SOL     OW31069   5.518   5.123   5.529
10057SOL    HW131070   5.479   5.111   5.621
10057SOL    HW231071   5.611   5.086   5.527
10058SOL     OW31072   0.204   3.737   4.914
10058SOL    HW131073   0.275   3.711   4.848
10058SOL    HW231074   0.125   3.678   4.904
10059SOL     OW31075   5.284   0.257   0.014
10059SOL    HW131076   5.346   0.305   0.076
10059SOL    HW231077   5.317   0.264   6.940
10060SOL     OW31078   2.922   2.014   1.660
10060SOL    HW131079   2.908   2.088   1.727
10060SOL    HW231080   2.887   1.928   1.698
10061SOL     OW31081   3.543   0.035   1.848
10061SOL    HW131082   3.542   0.031   1.748
10061SOL    HW231083   3.449   0.024   1.882
10062SOL     OW31084   0.927   6.512   5.019
10062SOL    HW131085   0.891   6.595   5.063
10062SOL    HW231086   1.026   6.510   5.029
10063SOL     OW31087   2.508   2.229   5.190
10063SOL    HW131088   2.600   2.231   5.153
10063SOL    HW231089   2.493   2.310   5.248
10064SOL     OW31090   2.488   6.961   0.535
10064SOL    HW131091   2.539   7.017   0.601
10064SOL    HW231092   2.516   6.866   0.543
10065SOL     OW31093   0.628   2.041   1.766
10065SOL    HW131094   0.684   2.117   1.801
10065SOL    HW231095   0.597   1.985   1.843
10066SOL     OW31096   6.259   4.565   3.994
10066SOL    HW131097   6.313   4.638   4.034
10066SOL    HW231098   6.216   4.596   3.909
10067SOL     OW31099   6.977   2.569   4.967
10067SOL    HW131100   6.946   2.629   5.041
10067SOL    HW231101   6.933   2.596   4.881
10068SOL     OW31102   1.584   3.669   2.631
10068SOL    HW131103   1.680   3.640   2.639
10068SOL    HW231104   1.529   3.593   2.598
10069SOL     OW31105   3.013   4.545   0.363
10069SOL    HW131106   3.034   4.560   0.460
10069SOL    HW231107   2.918   4.572   0.346
10070SOL     OW31108   4.751   6.997   6.885
10070SOL    HW131109   4.759   6.970   6.789
10070SOL    HW231110   4.825   0.040   6.908
10071SOL     OW31111   5.818   0.549   5.139
10071SOL    HW131112   5.844   0.513   5.228
10071SOL    HW231113   5.765   0.633   5.151
10072SOL     OW31114   6.058   3.260   1.576
10072SOL    HW131115   5.996   3.190   1.611
10072SOL    HW231116   6.153   3.228   1.585
10073SOL     OW31117   5.925   4.831   4.787
10073SOL    HW131118   6.009   4.822   4.839
10073SOL    HW231119   5.925   4.766   4.711
10074SOL     OW31120   2.240   4.900   0.466
10074SOL    HW131121   2.156   4.948   0.440
10074SOL    HW231122   2.255   4.823   0.404
10075SOL     OW31123   0.943   3.132   1.968
10075SOL    HW131124   1.018   3.066   1.962
10075SOL    HW231125   0.971   3.208   2.026
10076SOL     OW31126   5.775   5.236   4.201
10076SOL    HW131127   5.768   5.210   4.297
10076SOL    HW231128   5.767   5.154   4.143
10077SOL     OW31129   4.415   4.031   6.566
10077SOL    HW131130   4.361   3.986   6.495
10077SOL    HW231131   4.391   4.127   6.571
10078SOL     OW31132   6.392   5.338   4.829
10078SOL    HW131133   6.444   5.423   4.836
10078SOL    HW231134   6.363   5.324   4.734
10079SOL     OW31135   4.809   3.965   4.013
10079SOL    HW131136   4.779   4.035   4.077
10079SOL    HW231137   4.812   4.003   3.920
10080SOL     OW31138   5.365   1.642   5.802
10080SOL    HW131139   5.351   1.613   5.708
10080SOL    HW231140   5.319   1.730   5.817
10081SOL     OW31141   0.869   4.637   0.949
10081SOL    HW131142   0.830   4.558   0.996
10081SOL    HW231143   0.965   4.620   0.928
10082SOL     OW31144   0.962   4.665   1.622
10082SOL    HW131145   1.025   4.700   1.553
10082SOL    HW231146   1.012   4.609   1.688
10083SOL     OW31147   2.652   6.054   2.138
10083SOL    HW131148   2.750   6.056   2.117
10083SOL    HW231149   2.624   5.959   2.152
10084SOL     OW31150   0.747   1.879   4.648
10084SOL    HW131151   0.835   1.926   4.642
10084SOL    HW231152   0.763   1.781   4.658
10085SOL     OW31153   5.631   6.966   1.365
10085SOL    HW131154   5.592   6.904   1.297
10085SOL    HW231155   5.682   0.019   1.319
10086SOL     OW31156   4.458   6.347   3.420
10086SOL    HW131157   4.411   6.433   3.403
10086SOL    HW231158   4.449   6.288   3.340
10087SOL     OW31159   1.661   5.594   5.358
10087SOL    HW131160   1.696   5.618   5.448
10087SOL    HW231161   1.574   5.545   5.368
10088SOL     OW31162   6.103   2.686   1.947
10088SOL    HW131163   6.169   2.621   1.908
10088SOL    HW231164   6.101   2.768   1.891
10089SOL     OW31165   3.800   0.624   1.549
10089SOL    HW131166   3.752   0.703   1.588
10089SOL    HW231167   3.734   0.568   1.498
10090SOL     OW31168   1.884   6.797   3.417
10090SOL    HW131169   1.927   6.886   3.399
10090SOL    HW231170   1.921   6.759   3.502
10091SOL     OW31171   5.646   4.718   4.672
10091SOL    HW131172   5.742   4.733   4.648
10091SOL    HW231173   5.633   4.739   4.769
10092SOL     OW31174   1.150   2.552   4.304
10092SOL    HW131175   1.087   2.497   4.358
10092SOL    HW231176   1.239   2.506   4.299
10093SOL     OW31177   4.382   4.115   5.961
10093SOL    HW131178   4.443   4.195   5.966
10093SOL    HW231179   4.291   4.141   5.992
10094SOL     OW31180   3.571   2.007   0.929
10094SOL    HW131181   3.607   1.925   0.974
10094SOL    HW231182   3.646   2.068   0.906
10095SOL     OW31183   4.225   3.328   5.211
10095SOL    HW131184   4.307   3.276   5.234
10095SOL    HW231185   4.151   3.265   5.188
10096SOL     OW31186   6.683   3.263   2.169
10096SOL    HW131187   6.697   3.346   2.223
10096SOL    HW231188   6.584   3.248   2.158
10097SOL     OW31189   0.422   1.341   0.903
10097SOL    HW131190   0.434   1.379   0.995
10097SOL    HW231191   0.377   1.409   0.845
10098SOL     OW31192   3.247   5.381   4.503
10098SOL    HW131193   3.241   5.478   4.526
10098SOL    HW231194   3.250   5.370   4.403
10099SOL     OW31195   0.158   5.025   2.988
10099SOL    HW131196   0.220   5.078   3.047
10099SOL    HW231197   0.072   5.074   2.977
10100SOL     OW31198   5.226   4.773   3.910
10100SOL    HW131199   5.175   4.697   3.871
10100SOL    HW231200   5.245   4.841   3.839
10101SOL     OW31201   6.793   3.250   0.138
10101SOL    HW131202   6.782   3.192   0.219
10101SOL    HW231203   6.760   3.201   0.057
10102SOL     OW31204   6.975   4.643   3.630
10102SOL    HW131205   6.974   4.720   3.694
10102SOL    HW231206   7.004   4.675   3.539
10103SOL     OW31207   0.439   6.067   6.841
10103SOL    HW131208   0.454   6.162   6.870
10103SOL    HW231209   0.411   6.012   6.921
10104SOL     OW31210   3.047   1.102   4.642
10104SOL    HW131211   2.949   1.120   4.643
10104SOL    HW231212   3.084   1.127   4.552
10105SOL     OW31213   2.743   1.089   4.111
10105SOL    HW131214   2.829   1.070   4.159
10105SOL    HW231215   2.667   1.085   4.176
10106SOL     OW31216   5.319   4.276   1.703
10106SOL    HW131217   5.236   4.326   1.677
10106SOL    HW231218   5.294   4.199   1.762
10107SOL     OW31219   5.230   5.700   6.612
10107SOL    HW131220   5.216   5.786   6.563
10107SOL    HW231221   5.285   5.716   6.694
10108SOL     OW31222   2.010   2.757   4.829
10108SOL    HW131223   2.099   2.789   4.864
10108SOL    HW231224   1.989   2.668   4.870
10109SOL     OW31225   1.226   2.318   0.866
10109SOL    HW131226   1.173   2.403   0.860
10109SOL    HW231227   1.267   2.310   0.956
10110SOL     OW31228   5.698   6.027   2.446
10110SOL    HW131229   5.781   6.050   2.396
10110SOL    HW231230   5.678   6.098   2.513
10111SOL     OW31231   6.523   2.482   1.976
10111SOL    HW131232   6.595   2.483   1.907
10111SOL    HW231233   6.515   2.390   2.014
10112SOL     OW31234   6.184   2.488   3.729
10112SOL    HW131235   6.102   2.491   3.786
10112SOL    HW231236   6.214   2.393   3.719
10113SOL     OW31237   6.182   0.271   6.437
10113SOL    HW131238   6.142   0.363   6.441
10113SOL    HW231239   6.182   0.230   6.528
10114SOL     OW31240   5.908   3.304   2.087
10114SOL    HW131241   5.885   3.207   2.076
10114SOL    HW231242   5.965   3.315   2.169
10115SOL     OW31243   3.190   2.685   5.831
10115SOL    HW131244   3.211   2.780   5.809
10115SOL    HW231245   3.092   2.675   5.845
10116SOL     OW31246   0.551   0.411   6.205
10116SOL    HW131247   0.615   0.353   6.256
10116SOL    HW231248   0.513   0.481   6.266
10117SOL     OW31249   6.832   4.057   2.697
10117SOL    HW131250   6.739   4.090   2.683
10117SOL    HW231251   6.838   4.009   2.785
10118SOL     OW31252   3.729   5.016   3.587
10118SOL    HW131253   3.650   5.022   3.647
10118SOL    HW231254   3.751   5.107   3.551
10119SOL     OW31255   5.988   6.446   6.740
10119SOL    HW131256   5.976   6.512   6.815
10119SOL    HW231257   5.900   6.425   6.699
10120SOL     OW31258   2.391   2.238   3.342
10120SOL    HW131259   2.332   2.200   3.271
10120SOL    HW231260   2.421   2.165   3.403
10121SOL     OW31261   6.743   5.088   1.459
10121SOL    HW131262   6.701   5.104   1.548
10121SOL    HW231263   6.822   5.147   1.447
10122SOL     OW31264   2.163   0.386   3.329
10122SOL    HW131265   2.253   0.407   3.369
10122SOL    HW231266   2.092   0.413   3.394
10123SOL     OW31267   6.933   5.728   6.403
10123SOL    HW131268   6.879   5.764   6.326
10123SOL    HW231269   7.011   5.789   6.420
10124SOL     OW31270   2.302   5.524   2.400
10124SOL    HW131271   2.282   5.445   2.343
10124SOL    HW231272   2.271   5.507   2.494
10125SOL     OW31273   0.924   0.856   4.822
10125SOL    HW131274   0.969   0.938   4.856
10125SOL    HW231275   0.827   0.857   4.846
10126SOL     OW31276   6.576   6.130   5.598
10126SOL    HW131277   6.537   6.182   5.675
10126SOL    HW231278   6.653   6.181   5.559
10127SOL     OW31279   1.989   6.566   5.925
10127SOL    HW131280   1.925   6.595   5.854
10127SOL    HW231281   2.082   6.563   5.888
10128SOL     OW31282   2.339   2.433   6.901
10128SOL    HW131283   2.418   2.469   6.950
10128SOL    HW231284   2.268   2.504   6.896
10129SOL     OW31285   6.388   2.004   4.834
10129SOL    HW131286   6.367   2.102   4.844
10129SOL    HW231287   6.375   1.977   4.739
10130SOL     OW31288   0.775   1.933   3.880
10130SOL    HW131289   0.831   1.995   3.825
10130SOL    HW231290   0.823   1.846   3.891
10131SOL     OW31291   2.062   6.607   4.948
10131SOL    HW131292   1.984   6.635   5.003
10131SOL    HW231293   2.139   6.669   4.964
10132SOL     OW31294   5.416   7.017   2.534
10132SOL    HW131295   5.397   0.009   2.436
10132SOL    HW231296   5.503   6.968   2.544
10133SOL     OW31297   5.433   6.437   1.253
10133SOL    HW131298   5.479   6.479   1.331
10133SOL    HW231299   5.456   6.487   1.170
10134SOL     OW31300   0.211   6.699   3.366
10134SOL    HW131301   0.150   6.765   3.411
10134SOL    HW231302   0.174   6.677   3.276
10135SOL     OW31303   6.426   6.792   3.126
10135SOL    HW131304   6.402   6.700   3.095
10135SOL    HW231305   6.497   6.830   3.066
10136SOL     OW31306   4.765   1.418   3.407
10136SOL    HW131307   4.775   1.460   3.497
10136SOL    HW231308   4.725   1.327   3.416
10137SOL     OW31309   6.610   5.667   4.509
10137SOL    HW131310   6.694   5.675   4.562
10137SOL    HW231311   6.631   5.675   4.411
10138SOL     OW31312   6.994   2.615   2.157
10138SOL    HW131313   6.979   2.649   2.064
10138SOL    HW231314   0.041   2.540   2.155
10139SOL     OW31315   3.116   3.056   6.390
10139SOL    HW131316   3.061   3.135   6.362
10139SOL    HW231317   3.061   2.995   6.447
10140SOL     OW31318   0.565   5.831   5.256
10140SOL    HW131319   0.608   5.758   5.308
10140SOL    HW231320   0.619   5.849   5.173
10141SOL     OW31321   1.670   2.496   4.057
10141SOL    HW131322   1.636   2.590   4.047
10141SOL    HW231323   1.670   2.451   3.968
10142SOL     OW31324   4.879   5.690   3.064
10142SOL    HW131325   4.968   5.671   3.021
10142SOL    HW231326   4.892   5.708   3.161
10143SOL     OW31327   5.714   2.790   5.736
10143SOL    HW131328   5.786   2.763   5.672
10143SOL    HW231329   5.646   2.846   5.688
10144SOL     OW31330   3.254   0.179   0.934
10144SOL    HW131331   3.235   0.081   0.927
10144SOL    HW231332   3.353   0.194   0.934
10145SOL     OW31333   6.531   6.591   6.195
10145SOL    HW131334   6.514   6.564   6.101
10145SOL    HW231335   6.498   6.684   6.210
10146SOL     OW31336   1.637   2.937   5.254
10146SOL    HW131337   1.620   2.903   5.346
10146SOL    HW231338   1.652   3.036   5.257
10147SOL     OW31339   3.833   5.868   6.433
10147SOL    HW131340   3.869   5.924   6.507
10147SOL    HW231341   3.739   5.843   6.452
10148SOL     OW31342   0.569   4.741   6.550
10148SOL    HW131343   0.520   4.710   6.631
10148SOL    HW231344   0.655   4.783   6.577
10149SOL     OW31345   3.546   3.855   1.493
10149SOL    HW131346   3.521   3.808   1.578
10149SOL    HW231347   3.531   3.954   1.505
10150SOL     OW31348   4.766   4.187   1.068
10150SOL    HW131349   4.763   4.115   1.137
10150SOL    HW231350   4.710   4.265   1.098
10151SOL     OW31351   6.822   0.757   6.294
10151SOL    HW131352   6.872   0.772   6.208
10151SOL    HW231353   6.871   0.803   6.368
10152SOL     OW31354   3.905   6.737   2.544
10152SOL    HW131355   3.851   6.654   2.560
10152SOL    HW231356   3.847   6.817   2.557
10153SOL     OW31357   4.576   3.946   1.657
10153SOL    HW131358   4.643   3.996   1.602
10153SOL    HW231359   4.504   4.009   1.687
10154SOL     OW31360   3.736   5.381   5.142
10154SOL    HW131361   3.733   5.462   5.084
10154SOL    HW231362   3.645   5.339   5.145
10155SOL     OW31363   4.497   1.680   3.524
10155SOL    HW131364   4.554   1.745   3.474
10155SOL    HW231365   4.401   1.690   3.496
10156SOL     OW31366   4.217   1.593   5.942
10156SOL    HW131367   4.226   1.628   5.849
10156SOL    HW231368   4.169   1.660   5.998
10157SOL     OW31369   0.474   4.570   1.484
10157SOL    HW131370   0.463   4.478   1.446
10157SOL    HW231371   0.571   4.592   1.492
10158SOL     OW31372   5.573   5.287   6.689
10158SOL    HW131373   5.663   5.265   6.651
10158SOL    HW231374   5.545   5.216   6.754
10159SOL     OW31375   3.392   2.990   1.992
10159SOL    HW131376   3.348   3.069   2.034
10159SOL    HW231377   3.325   2.939   1.937
10160SOL     OW31378   0.247   3.924   2.552
10160SOL    HW131379   0.195   3.986   2.494
10160SOL    HW231380   0.304   3.977   2.615
10161SOL     OW31381   5.358   3.328   6.126
10161SOL    HW131382   5.454   3.336   6.155
10161SOL    HW231383   5.316   3.249   6.171
10162SOL     OW31384   1.709   3.000   2.479
10162SOL    HW131385   1.665   2.965   2.562
10162SOL    HW231386   1.752   2.924   2.430
10163SOL     OW31387   3.023   5.102   4.786
10163SOL    HW131388   3.008   5.148   4.874
10163SOL    HW231389   3.050   5.007   4.802
10164SOL     OW31390   0.012   1.121   3.723
10164SOL    HW131391   0.094   1.070   3.747
10164SOL    HW231392   0.027   1.168   3.636
10165SOL     OW31393   1.292   3.385   4.013
10165SOL    HW131394   1.269   3.410   3.919
10165SOL    HW231395   1.342   3.299   4.014
10166SOL     OW31396   2.925   6.320   2.615
10166SOL    HW131397   2.866   6.241   2.633
10166SOL    HW231398   2.873   6.405   2.630
10167SOL     OW31399   2.539   2.314   6.261
10167SOL    HW131400   2.568   2.346   6.171
10167SOL    HW231401   2.492   2.226   6.252
10168SOL     OW31402   0.378   0.164   0.118
10168SOL    HW131403   0.472   0.132   0.103
10168SOL    HW231404   0.367   0.189   0.214
10169SOL     OW31405   4.610   5.145   3.721
10169SOL    HW131406   4.587   5.076   3.789
10169SOL    HW231407   4.637   5.101   3.636
10170SOL     OW31408   5.103   6.338   0.536
10170SOL    HW131409   5.032   6.274   0.564
10170SOL    HW231410   5.158   6.298   0.462
10171SOL     OW31411   2.209   4.259   4.858
10171SOL    HW131412   2.282   4.246   4.924
10171SOL    HW231413   2.185   4.355   4.852
10172SOL     OW31414   0.364   0.951   2.650
10172SOL    HW131415   0.406   1.014   2.584
10172SOL    HW231416   0.415   0.865   2.651
10173SOL     OW31417   3.922   3.408   5.071
10173SOL    HW131418   3.823   3.420   5.057
10173SOL    HW231419   3.938   3.325   5.124
10174SOL     OW31420   4.506   5.207   0.828
10174SOL    HW131421   4.470   5.211   0.922
10174SOL    HW231422   4.606   5.216   0.831
10175SOL     OW31423   6.171   6.916   4.739
10175SOL    HW131424   6.158   6.889   4.643
10175SOL    HW231425   6.229   6.997   4.743
10176SOL     OW31426   0.470   0.502   4.515
10176SOL    HW131427   0.454   0.532   4.609
10176SOL    HW231428   0.407   0.427   4.493
10177SOL     OW31429   2.723   0.619   4.231
10177SOL    HW131430   2.815   0.584   4.246
10177SOL    HW231431   2.662   0.543   4.208
10178SOL     OW31432   0.485   1.740   1.416
10178SOL    HW131433   0.461   1.814   1.479
10178SOL    HW231434   0.489   1.776   1.323
10179SOL     OW31435   0.156   5.952   0.496
10179SOL    HW131436   0.198   5.962   0.586
10179SOL    HW231437   0.107   5.865   0.492
10180SOL     OW31438   3.687   6.743   6.655
10180SOL    HW131439   3.754   6.791   6.712
10180SOL    HW231440   3.679   6.649   6.687
10181SOL     OW31441   7.001   3.477   3.359
10181SOL    HW131442   0.010   3.545   3.426
10181SOL    HW231443   0.057   3.459   3.295
10182SOL     OW31444   4.124   0.849   0.837
10182SOL    HW131445   4.032   0.868   0.873
10182SOL    HW231446   4.146   0.752   0.851
10183SOL     OW31447   4.381   6.657   6.035
10183SOL    HW131448   4.457   6.621   6.089
10183SOL    HW231449   4.375   6.607   5.949
10184SOL     OW31450   5.255   2.275   5.370
10184SOL    HW131451   5.326   2.345   5.364
10184SOL    HW231452   5.290   2.196   5.419
10185SOL     OW31453   3.335   5.174   1.826
10185SOL    HW131454   3.386   5.194   1.910
10185SOL    HW231455   3.237   5.171   1.846
10186SOL     OW31456   3.573   3.105   6.986
10186SOL    HW131457   3.508   3.031   6.967
10186SOL    HW231458   3.550   3.184   6.930
10187SOL     OW31459   2.249   4.518   5.803
10187SOL    HW131460   2.302   4.542   5.721
10187SOL    HW231461   2.266   4.586   5.875
10188SOL     OW31462   2.736   0.010   6.538
10188SOL    HW131463   2.701   6.998   6.450
10188SOL    HW231464   2.808   6.968   6.569
10189SOL     OW31465   2.257   1.449   4.620
10189SOL    HW131466   2.192   1.430   4.694
10189SOL    HW231467   2.307   1.366   4.596
10190SOL     OW31468   4.306   3.970   1.088
10190SOL    HW131469   4.357   3.982   1.173
10190SOL    HW231470   4.308   3.874   1.061
10191SOL     OW31471   5.292   0.606   0.303
10191SOL    HW131472   5.218   0.629   0.239
10191SOL    HW231473   5.362   0.677   0.299
10192SOL     OW31474   1.681   0.731   4.412
10192SOL    HW131475   1.610   0.661   4.414
10192SOL    HW231476   1.702   0.761   4.505
10193SOL     OW31477   3.821   3.755   3.833
10193SOL    HW131478   3.781   3.834   3.787
10193SOL    HW231479   3.920   3.756   3.821
10194SOL     OW31480   3.087   0.219   3.197
10194SOL    HW131481   3.027   0.184   3.125
10194SOL    HW231482   3.144   0.145   3.232
10195SOL     OW31483   5.476   0.201   2.746
10195SOL    HW131484   5.465   0.140   2.668
10195SOL    HW231485   5.512   0.149   2.824
10196SOL     OW31486   5.125   3.941   4.528
10196SOL    HW131487   5.142   3.922   4.432
10196SOL    HW231488   5.190   3.889   4.584
10197SOL     OW31489   5.658   1.459   2.800
10197SOL    HW131490   5.713   1.526   2.749
10197SOL    HW231491   5.715   1.381   2.824
10198SOL     OW31492   3.238   1.045   1.706
10198SOL    HW131493   3.168   1.095   1.655
10198SOL    HW231494   3.256   0.957   1.661
10199SOL     OW31495   1.305   2.154   0.324
10199SOL    HW131496   1.272   2.060   0.319
10199SOL    HW231497   1.256   2.210   0.256
10200SOL     OW31498   5.838   5.630   4.999
10200SOL    HW131499   5.809   5.544   5.040
10200SOL    HW231500   5.762   5.695   5.000
10201SOL     OW31501   1.888   4.828   2.737
10201SOL    HW131502   1.963   4.801   2.798
10201SOL    HW231503   1.803   4.833   2.789
10202SOL     OW31504   0.413   2.270   3.001
10202SOL    HW131505   0.404   2.288   2.903
10202SOL    HW231506   0.375   2.347   3.052
10203SOL     OW31507   0.785   2.927   1.511
10203SOL    HW131508   0.786   2.947   1.609
10203SOL    HW231509   0.696   2.950   1.473
10204SOL     OW31510   2.804   4.943   3.855
10204SOL    HW131511   2.868   4.867   3.869
10204SOL    HW231512   2.747   4.925   3.775
10205SOL     OW31513   4.386   0.649   1.215
10205SOL    HW131514   4.445   0.664   1.295
10205SOL    HW231515   4.295   0.685   1.233
10206SOL     OW31516   5.004   0.349   6.464
10206SOL    HW131517   4.944   0.429   6.465
10206SOL    HW231518   5.069   0.355   6.539
10207SOL     OW31519   3.869   1.401   3.221
10207SOL    HW131520   3.807   1.445   3.156
10207SOL    HW231521   3.935   1.467   3.255
10208SOL     OW31522   6.740   3.875   5.433
10208SOL    HW131523   6.802   3.798   5.448
10208SOL    HW231524   6.749   3.941   5.507
10209SOL     OW31525   4.596   6.657   6.789
10209SOL    HW131526   4.568   6.735   6.733
10209SOL    HW231527   4.696   6.647   6.784
10210SOL     OW31528   5.554   6.004   0.940
10210SOL    HW131529   5.504   5.997   0.853
10210SOL    HW231530   5.527   5.929   1.000
10211SOL     OW31531   3.331   5.457   5.011
10211SOL    HW131532   3.418   5.502   4.991
10211SOL    HW231533   3.292   5.494   5.095
10212SOL     OW31534   6.001   5.920   5.885
10212SOL    HW131535   5.935   5.958   5.949
10212SOL    HW231536   5.977   5.825   5.865
10213SOL     OW31537   4.763   0.570   4.713
10213SOL    HW131538   4.681   0.614   4.751
10213SOL    HW231539   4.779   0.605   4.621
10214SOL     OW31540   0.549   1.163   1.294
10214SOL    HW131541   0.512   1.070   1.298
10214SOL    HW231542   0.591   1.186   1.382
10215SOL     OW31543   3.718   2.806   6.861
10215SOL    HW131544   3.755   2.732   6.806
10215SOL    HW231545   3.636   2.775   6.909
10216SOL     OW31546   4.794   6.937   2.584
10216SOL    HW131547   4.716   7.000   2.592
10216SOL    HW231548   4.870   6.984   2.540
10217SOL     OW31549   3.497   2.342   5.709
10217SOL    HW131550   3.399   2.332   5.690
10217SOL    HW231551   3.540   2.251   5.709
10218SOL     OW31552   3.029   2.296   6.946
10218SOL    HW131553   2.990   2.307   6.855
10218SOL    HW231554   3.072   2.382   6.974
10219SOL     OW31555   0.531   4.391   6.753
10219SOL    HW131556   0.540   4.356   6.660
10219SOL    HW231557   0.596   4.465   6.767
10220SOL     OW31558   4.063   2.811   0.316
10220SOL    HW131559   4.095   2.741   0.380
10220SOL    HW231560   3.998   2.872   0.362
10221SOL     OW31561   3.300   0.949   4.301
10221SOL    HW131562   3.262   0.866   4.342
10221SOL    HW231563   3.253   0.968   4.215
10222SOL     OW31564   1.590   4.732   5.636
10222SOL    HW131565   1.586   4.740   5.536
10222SOL    HW231566   1.667   4.786   5.671
10223SOL     OW31567   6.978   4.262   0.931
10223SOL    HW131568   0.010   4.326   0.875
10223SOL    HW231569   6.885   4.253   0.895
10224SOL     OW31570   2.513   0.349   4.941
10224SOL    HW131571   2.487   0.361   5.037
10224SOL    HW231572   2.439   0.382   4.883
10225SOL     OW31573   4.922   6.213   4.349
10225SOL    HW131574   4.877   6.152   4.284
10225SOL    HW231575   5.017   6.229   4.321
10226SOL     OW31576   0.389   2.719   6.961
10226SOL    HW131577   0.417   2.649   6.895
10226SOL    HW231578   0.469   2.757   7.006
10227SOL     OW31579   5.948   5.604   5.815
10227SOL    HW131580   6.019   5.620   5.746
10227SOL    HW231581   5.983   5.540   5.884
10228SOL     OW31582   1.184   3.868   2.669
10228SOL    HW131583   1.284   3.878   2.664
10228SOL    HW231584   1.141   3.935   2.609
10229SOL     OW31585   1.847   1.475   1.736
10229SOL    HW131586   1.771   1.536   1.713
10229SOL    HW231587   1.812   1.394   1.783
10230SOL     OW31588   6.012   6.476   4.218
10230SOL    HW131589   6.007   6.540   4.295
10230SOL    HW231590   6.062   6.519   4.143
10231SOL     OW31591   4.969   0.029   4.626
10231SOL    HW131592   4.961   0.094   4.702
10231SOL    HW231593   5.054   0.044   4.577
10232SOL     OW31594   4.638   1.848   3.353
10232SOL    HW131595   4.682   1.777   3.297
10232SOL    HW231596   4.563   1.889   3.302
10233SOL     OW31597   4.851   1.104   5.492
10233SOL    HW131598   4.870   1.141   5.582
10233SOL    HW231599   4.754   1.119   5.470
10234SOL     OW31600   4.725   5.602   1.508
10234SOL    HW131601   4.813   5.602   1.462
10234SOL    HW231602   4.738   5.603   1.607
10235SOL     OW31603   4.801   1.586   0.122
10235SOL    HW131604   4.804   1.521   0.197
10235SOL    HW231605   4.739   1.553   0.051
10236SOL     OW31606   2.349   6.100   1.786
10236SOL    HW131607   2.419   6.033   1.763
10236SOL    HW231608   2.284   6.108   1.710
10237SOL     OW31609   5.476   2.482   3.305
10237SOL    HW131610   5.573   2.464   3.319
10237SOL    HW231611   5.460   2.581   3.303
10238SOL     OW31612   4.369   5.768   4.953
10238SOL    HW131613   4.274   5.742   4.968
10238SOL    HW231614   4.423   5.747   5.034
10239SOL     OW31615   6.617   3.271   4.269
10239SOL    HW131616   6.572   3.253   4.181
10239SOL    HW231617   6.553   3.253   4.343
10240SOL     OW31618   5.877   3.436   3.625
10240SOL    HW131619   5.861   3.525   3.669
10240SOL    HW231620   5.801   3.415   3.564
10241SOL     OW31621   2.101   1.460   3.052
10241SOL    HW131622   2.058   1.370   3.050
10241SOL    HW231623   2.200   1.450   3.064
10242SOL     OW31624   0.763   6.006   6.514
10242SOL    HW131625   0.717   6.093   6.497
10242SOL    HW231626   0.695   5.935   6.534
10243SOL     OW31627   0.758   6.544   2.806
10243SOL    HW131628   0.691   6.475   2.830
10243SOL    HW231629   0.785   6.533   2.710
10244SOL     OW31630   1.521   5.741   0.159
10244SOL    HW131631   1.612   5.755   0.120
10244SOL    HW231632   1.490   5.648   0.141
10245SOL     OW31633   2.163   2.605   0.010
10245SOL    HW131634   2.076   2.628   0.053
10245SOL    HW231635   2.212   2.689   7.006
10246SOL     OW31636   3.437   3.439   3.764
10246SOL    HW131637   3.415   3.377   3.839
10246SOL    HW231638   3.518   3.493   3.789
10247SOL     OW31639   0.649   5.821   5.549
10247SOL    HW131640   0.654   5.871   5.463
10247SOL    HW231641   0.741   5.804   5.584
10248SOL     OW31642   4.745   1.042   2.610
10248SOL    HW131643   4.826   1.029   2.667
10248SOL    HW231644   4.690   1.117   2.646
10249SOL     OW31645   4.981   1.246   6.886
10249SOL    HW131646   4.978   1.146   6.878
10249SOL    HW231647   4.981   1.271   6.983
10250SOL     OW31648   4.914   0.542   0.456
10250SOL    HW131649   4.953   0.465   0.507
10250SOL    HW231650   4.840   0.583   0.509
10251SOL     OW31651   3.804   4.195   0.005
10251SOL    HW131652   3.788   4.258   0.081
10251SOL    HW231653   3.869   4.237   6.961
10252SOL     OW31654   6.606   4.799   1.865
10252SOL    HW131655   6.594   4.700   1.860
10252SOL    HW231656   6.580   4.831   1.956
10253SOL     OW31657   3.841   4.792   0.064
10253SOL    HW131658   3.778   4.870   0.077
10253SOL    HW231659   3.934   4.822   0.082
10254SOL     OW31660   2.385   1.511   4.390
10254SOL    HW131661   2.470   1.459   4.396
10254SOL    HW231662   2.339   1.509   4.479
10255SOL     OW31663   2.954   5.376   2.818
10255SOL    HW131664   2.959   5.376   2.918
10255SOL    HW231665   3.046   5.366   2.780
10256SOL     OW31666   5.999   6.290   0.202
10256SOL    HW131667   5.915   6.314   0.155
10256SOL    HW231668   6.048   6.373   0.229
10257SOL     OW31669   2.189   6.389   6.152
10257SOL    HW131670   2.278   6.429   6.130
10257SOL    HW231671   2.121   6.462   6.159
10258SOL     OW31672   4.299   0.671   3.581
10258SOL    HW131673   4.358   0.617   3.641
10258SOL    HW231674   4.210   0.684   3.624
10259SOL     OW31675   1.063   3.612   4.005
10259SOL    HW131676   1.001   3.535   3.991
10259SOL    HW231677   1.136   3.610   3.936
10260SOL     OW31678   6.787   6.387   1.940
10260SOL    HW131679   6.723   6.433   1.880
10260SOL    HW231680   6.880   6.419   1.921
10261SOL     OW31681   1.732   0.110   1.745
10261SOL    HW131682   1.800   0.145   1.809
10261SOL    HW231683   1.757   0.136   1.652
10262SOL     OW31684   0.978   5.569   4.576
10262SOL    HW131685   0.923   5.513   4.638
10262SOL    HW231686   1.074   5.568   4.606
10263SOL     OW31687   6.908   2.453   5.640
10263SOL    HW131688   6.945   2.507   5.716
10263SOL    HW231689   6.970   2.460   5.561
10264SOL     OW31690   0.147   7.004   0.342
10264SOL    HW131691   0.230   6.948   0.348
10264SOL    HW231692   0.140   0.024   0.251
10265SOL     OW31693   3.997   2.139   2.267
10265SOL    HW131694   3.899   2.123   2.264
10265SOL    HW231695   4.031   2.153   2.174
10266SOL     OW31696   4.186   3.453   6.623
10266SOL    HW131697   4.112   3.501   6.576
10266SOL    HW231698   4.269   3.510   6.622
10267SOL     OW31699   0.463   1.427   6.405
10267SOL    HW131700   0.374   1.433   6.359
10267SOL    HW231701   0.477   1.510   6.459
10268SOL     OW31702   6.118   4.405   1.517
10268SOL    HW131703   6.086   4.487   1.470
10268SOL    HW231704   6.091   4.409   1.613
10269SOL     OW31705   3.172   2.447   5.959
10269SOL    HW131706   3.175   2.534   5.909
10269SOL    HW231707   3.122   2.379   5.906
10270SOL     OW31708   2.966   6.998   0.867
10270SOL    HW131709   2.961   0.077   0.857
10270SOL    HW231710   2.909   6.969   0.944
10271SOL     OW31711   3.302   5.014   0.777
10271SOL    HW131712   3.278   5.099   0.824
10271SOL    HW231713   3.343   4.951   0.842
10272SOL     OW31714   1.375   1.622   4.890
10272SOL    HW131715   1.465   1.580   4.895
10272SOL    HW231716   1.374   1.708   4.942
10273SOL     OW31717   4.098   6.735   4.042
10273SOL    HW131718   4.194   6.728   4.016
10273SOL    HW231719   4.068   6.649   4.084
10274SOL     OW31720   2.270   5.383   6.644
10274SOL    HW131721   2.273   5.395   6.743
10274SOL    HW231722   2.363   5.383   6.607
10275SOL     OW31723   1.105   6.430   2.436
10275SOL    HW131724   1.196   6.391   2.424
10275SOL    HW231725   1.060   6.389   2.516
10276SOL     OW31726   7.014   6.364   0.026
10276SOL    HW131727   7.006   6.307   6.964
10276SOL    HW231728   6.954   6.444   0.017
10277SOL     OW31729   1.232   5.958   2.581
10277SOL    HW131730   1.252   5.873   2.532
10277SOL    HW231731   1.309   6.022   2.570
10278SOL     OW31732   6.842   0.303   6.379
10278SOL    HW131733   6.874   0.360   6.303
10278SOL    HW231734   6.842   0.207   6.351
10279SOL     OW31735   3.888   6.127   3.885
10279SOL    HW131736   3.898   6.049   3.822
10279SOL    HW231737   3.961   6.124   3.953
10280SOL     OW31738   3.238   2.549   6.410
10280SOL    HW131739   3.237   2.519   6.506
10280SOL    HW231740   3.331   2.571   6.383
10281SOL     OW31741   4.104   0.282   4.121
10281SOL    HW131742   4.018   0.234   4.106
10281SOL    HW231743   4.181   0.219   4.110
10282SOL     OW31744   0.994   2.847   4.794
10282SOL    HW131745   1.045   2.773   4.750
10282SOL    HW231746   1.014   2.847   4.893
10283SOL     OW31747   1.596   3.503   5.906
10283SOL    HW131748   1.610   3.551   5.819
10283SOL    HW231749   1.513   3.449   5.901
10284SOL     OW31750   5.210   2.554   0.055
10284SOL    HW131751   5.261   2.474   0.087
10284SOL    HW231752   5.218   2.628   0.122
10285SOL     OW31753   5.710   0.738   0.319
10285SOL    HW131754   5.733   0.683   0.399
10285SOL    HW231755   5.711   0.681   0.237
10286SOL     OW31756   4.147   0.875   4.010
10286SOL    HW131757   4.205   0.949   3.978
10286SOL    HW231758   4.142   0.878   4.110
10287SOL     OW31759   1.391   4.749   1.682
10287SOL    HW131760   1.363   4.839   1.650
10287SOL    HW231761   1.437   4.700   1.608
10288SOL     OW31762   4.906   6.482   4.411
10288SOL    HW131763   4.918   6.522   4.320
10288SOL    HW231764   4.927   6.384   4.407
10289SOL     OW31765   2.499   1.682   1.465
10289SOL    HW131766   2.524   1.768   1.510
10289SOL    HW231767   2.451   1.623   1.530
10290SOL     OW31768   2.861   3.277   2.146
10290SOL    HW131769   2.767   3.305   2.162
10290SOL    HW231770   2.862   3.192   2.093
10291SOL     OW31771   4.799   0.582   5.862
10291SOL    HW131772   4.871   0.513   5.855
10291SOL    HW231773   4.841   0.672   5.874
10292SOL     OW31774   0.289   0.805   5.280
10292SOL    HW131775   0.315   0.818   5.375
10292SOL    HW231776   0.299   0.708   5.256
10293SOL     OW31777   3.051   5.531   3.434
10293SOL    HW131778   2.974   5.570   3.383
10293SOL    HW231779   3.097   5.604   3.484
10294SOL     OW31780   6.491   1.195   3.024
10294SOL    HW131781   6.428   1.212   2.947
10294SOL    HW231782   6.439   1.192   3.109
10295SOL     OW31783   1.859   4.425   4.707
10295SOL    HW131784   1.943   4.478   4.721
10295SOL    HW231785   1.782   4.472   4.750
10296SOL     OW31786   6.613   2.719   1.688
10296SOL    HW131787   6.625   2.769   1.602
10296SOL    HW231788   6.669   2.760   1.760
10297SOL     OW31789   2.711   5.526   4.548
10297SOL    HW131790   2.621   5.536   4.590
10297SOL    HW231791   2.755   5.616   4.542
10298SOL     OW31792   6.022   3.387   3.159
10298SOL    HW131793   6.024   3.451   3.236
10298SOL    HW231794   5.941   3.405   3.103
10299SOL     OW31795   4.935   3.756   1.972
10299SOL    HW131796   4.921   3.684   2.041
10299SOL    HW231797   4.943   3.844   2.018
10300SOL     OW31798   1.871   6.064   1.798
10300SOL    HW131799   1.912   5.973   1.795
10300SOL    HW231800   1.921   6.120   1.865
10301SOL     OW31801   5.323   1.565   1.410
10301SOL    HW131802   5.291   1.565   1.316
10301SOL    HW231803   5.347   1.472   1.438
10302SOL     OW31804   1.366   5.124   3.839
10302SOL    HW131805   1.419   5.126   3.924
10302SOL    HW231806   1.276   5.164   3.855
10303SOL     OW31807   3.686   3.032   1.357
10303SOL    HW131808   3.706   2.958   1.421
10303SOL    HW231809   3.772   3.070   1.322
10304SOL     OW31810   6.123   6.527   3.980
10304SOL    HW131811   6.223   6.523   3.981
10304SOL    HW231812   6.093   6.586   3.905
10305SOL     OW31813   1.817   5.172   1.038
10305SOL    HW131814   1.810   5.074   1.051
10305SOL    HW231815   1.883   5.210   1.103
10306SOL     OW31816   4.020   4.619   0.342
10306SOL    HW131817   3.976   4.679   0.275
10306SOL    HW231818   4.063   4.674   0.414
10307SOL     OW31819   2.889   1.186   5.599
10307SOL    HW131820   2.857   1.272   5.558
10307SOL    HW231821   2.814   1.142   5.647
10308SOL     OW31822   2.823   5.336   3.850
10308SOL    HW131823   2.881   5.418   3.857
10308SOL    HW231824   2.742   5.348   3.907
10309SOL     OW31825   0.316   6.301   3.598
10309SOL    HW131826   0.286   6.376   3.540
10309SOL    HW231827   0.397   6.258   3.558
10310SOL     OW31828   3.067   3.240   3.823
10310SOL    HW131829   3.012   3.260   3.742
10310SOL    HW231830   3.033   3.292   3.901
10311SOL     OW31831   0.258   6.830   1.284
10311SOL    HW131832   0.324   6.803   1.354
10311SOL    HW231833   0.307   6.853   1.200
10312SOL     OW31834   2.183   4.626   0.783
10312SOL    HW131835   2.207   4.540   0.828
10312SOL    HW231836   2.262   4.687   0.784
10313SOL     OW31837   6.216   6.171   4.136
10313SOL    HW131838   6.264   6.222   4.207
10313SOL    HW231839   6.265   6.086   4.118
10314SOL     OW31840   5.985   5.226   5.049
10314SOL    HW131841   5.920   5.248   4.977
10314SOL    HW231842   6.073   5.203   5.008
10315SOL     OW31843   4.699   6.037   6.150
10315SOL    HW131844   4.647   6.103   6.096
10315SOL    HW231845   4.734   6.082   6.232
10316SOL     OW31846   0.335   3.321   2.536
10316SOL    HW131847   0.263   3.382   2.503
10316SOL    HW231848   0.295   3.231   2.555
10317SOL     OW31849   4.460   4.791   0.420
10317SOL    HW131850   4.498   4.699   0.424
10317SOL    HW231851   4.410   4.810   0.505
10318SOL     OW31852   6.116   5.807   2.493
10318SOL    HW131853   6.144   5.895   2.530
10318SOL    HW231854   6.059   5.820   2.412
10319SOL     OW31855   5.380   6.155   4.860
10319SOL    HW131856   5.350   6.060   4.860
10319SOL    HW231857   5.317   6.210   4.805
10320SOL     OW31858   4.483   6.088   1.369
10320SOL    HW131859   4.444   6.176   1.344
10320SOL    HW231860   4.479   6.026   1.290
10321SOL     OW31861   3.558   0.052   3.826
10321SOL    HW131862   3.656   0.045   3.809
10321SOL    HW231863   3.542   0.104   3.909
10322SOL     OW31864   0.594   2.428   0.050
10322SOL    HW131865   0.616   2.436   0.147
10322SOL    HW231866   0.542   2.344   0.034
10323SOL     OW31867   0.335   2.123   5.379
10323SOL    HW131868   0.388   2.183   5.438
10323SOL    HW231869   0.362   2.135   5.284
10324SOL     OW31870   4.022   3.192   3.784
10324SOL    HW131871   3.949   3.125   3.769
10324SOL    HW231872   4.051   3.230   3.696
10325SOL     OW31873   0.352   3.624   2.822
10325SOL    HW131874   0.323   3.656   2.912
10325SOL    HW231875   0.280   3.647   2.755
10326SOL     OW31876   5.146   1.822   1.067
10326SOL    HW131877   5.077   1.870   1.120
10326SOL    HW231878   5.102   1.766   0.997
10327SOL     OW31879   6.802   0.593   3.325
10327SOL    HW131880   6.778   0.543   3.242
10327SOL    HW231881   6.774   0.540   3.405
10328SOL     OW31882   6.269   3.575   2.450
10328SOL    HW131883   6.238   3.488   2.412
10328SOL    HW231884   6.358   3.563   2.493
10329SOL     OW31885   3.522   6.585   3.179
10329SOL    HW131886   3.508   6.660   3.115
10329SOL    HW231887   3.484   6.501   3.140
10330SOL     OW31888   3.309   4.105   0.893
10330SOL    HW131889   3.327   4.018   0.847
10330SOL    HW231890   3.257   4.089   0.977
10331SOL     OW31891   5.096   0.535   4.489
10331SOL    HW131892   5.038   0.481   4.428
10331SOL    HW231893   5.113   0.483   4.573
10332SOL     OW31894   0.396   1.634   0.168
10332SOL    HW131895   0.350   1.563   0.114
10332SOL    HW231896   0.328   1.682   0.223
10333SOL     OW31897   5.320   4.576   5.256
10333SOL    HW131898   5.317   4.575   5.156
10333SOL    HW231899   5.334   4.483   5.290
10334SOL     OW31900   1.059   4.888   4.896
10334SOL    HW131901   1.043   4.907   4.993
10334SOL    HW231902   1.008   4.807   4.869
10335SOL     OW31903   3.035   5.224   1.878
10335SOL    HW131904   3.025   5.317   1.843
10335SOL    HW231905   3.026   5.159   1.803
10336SOL     OW31906   4.802   6.028   2.808
10336SOL    HW131907   4.845   6.090   2.743
10336SOL    HW231908   4.794   5.937   2.768
10337SOL     OW31909   0.731   4.716   5.035
10337SOL    HW131910   0.743   4.770   4.952
10337SOL    HW231911   0.746   4.620   5.014
10338SOL     OW31912   3.297   5.053   3.125
10338SOL    HW131913   3.370   5.031   3.061
10338SOL    HW231914   3.318   5.013   3.214
10339SOL     OW31915   3.041   5.487   0.633
10339SOL    HW131916   3.102   5.520   0.705
10339SOL    HW231917   2.946   5.498   0.661
10340SOL     OW31918   1.475   6.482   0.385
10340SOL    HW131919   1.409   6.550   0.353
10340SOL    HW231920   1.562   6.495   0.338
10341SOL     OW31921   1.195   2.556   2.271
10341SOL    HW131922   1.109   2.608   2.263
10341SOL    HW231923   1.257   2.604   2.334
10342SOL     OW31924   3.360   6.264   3.847
10342SOL    HW131925   3.277   6.311   3.817
10342SOL    HW231926   3.396   6.209   3.771
10343SOL     OW31927   2.361   2.812   3.866
10343SOL    HW131928   2.438   2.786   3.807
10343SOL    HW231929   2.306   2.882   3.820
10344SOL     OW31930   4.252   3.770   0.565
10344SOL    HW131931   4.327   3.751   0.628
10344SOL    HW231932   4.171   3.796   0.617
10345SOL     OW31933   1.985   2.058   5.292
10345SOL    HW131934   2.057   2.089   5.230
10345SOL    HW231935   1.966   1.961   5.275
10346SOL     OW31936   5.608   4.938   0.327
10346SOL    HW131937   5.679   4.994   0.372
10346SOL    HW231938   5.651   4.872   0.266
10347SOL     OW31939   5.043   0.334   1.911
10347SOL    HW131940   5.098   0.298   1.836
10347SOL    HW231941   5.063   0.430   1.925
10348SOL     OW31942   6.269   4.787   5.750
10348SOL    HW131943   6.276   4.811   5.654
10348SOL    HW231944   6.336   4.716   5.772
10349SOL     OW31945   6.525   2.275   1.046
10349SOL    HW131946   6.545   2.306   1.139
10349SOL    HW231947   6.608   2.279   0.991
10350SOL     OW31948   2.212   4.829   4.928
10350SOL    HW131949   2.242   4.918   4.964
10350SOL    HW231950   2.271   4.803   4.852
10351SOL     OW31951   4.214   4.794   4.693
10351SOL    HW131952   4.226   4.704   4.651
10351SOL    HW231953   4.282   4.805   4.766
10352SOL     OW31954   6.716   1.018   0.335
10352SOL    HW131955   6.701   1.069   0.420
10352SOL    HW231956   6.630   1.012   0.284
10353SOL     OW31957   6.419   1.823   3.551
10353SOL    HW131958   6.486   1.839   3.623
10353SOL    HW231959   6.327   1.829   3.590
10354SOL     OW31960   6.088   3.030   1.164
10354SOL    HW131961   6.030   2.958   1.125
10354SOL    HW231962   6.184   3.012   1.140
10355SOL     OW31963   1.018   1.341   0.805
10355SOL    HW131964   1.083   1.393   0.859
10355SOL    HW231965   0.949   1.301   0.864
10356SOL     OW31966   5.705   2.778   6.026
10356SOL    HW131967   5.708   2.783   5.926
10356SOL    HW231968   5.629   2.718   6.054
10357SOL     OW31969   1.527   0.296   6.149
10357SOL    HW131970   1.455   0.361   6.123
10357SOL    HW231971   1.492   0.203   6.141
10358SOL     OW31972   0.082   2.746   2.794
10358SOL    HW131973   0.038   2.657   2.806
10358SOL    HW231974   0.138   2.766   2.874
10359SOL     OW31975   6.948   1.602   2.603
10359SOL    HW131976   6.970   1.608   2.505
10359SOL    HW231977   6.880   1.671   2.626
10360SOL     OW31978   5.387   3.758   1.763
10360SOL    HW131979   5.323   3.834   1.767
10360SOL    HW231980   5.443   3.765   1.681
10361SOL     OW31981   5.741   1.832   2.465
10361SOL    HW131982   5.730   1.770   2.387
10361SOL    HW231983   5.826   1.884   2.454
10362SOL     OW31984   1.304   5.801   1.427
10362SOL    HW131985   1.338   5.874   1.368
10362SOL    HW231986   1.290   5.837   1.519
10363SOL     OW31987   5.208   4.391   6.286
10363SOL    HW131988   5.124   4.345   6.315
10363SOL    HW231989   5.201   4.489   6.307
10364SOL     OW31990   5.511   4.787   2.570
10364SOL    HW131991   5.428   4.779   2.625
10364SOL    HW231992   5.577   4.844   2.619
10365SOL     OW31993   5.947   5.117   0.809
10365SOL    HW131994   6.031   5.126   0.864
10365SOL    HW231995   5.972   5.098   0.714
10366SOL     OW31996   2.903   6.037   3.993
10366SOL    HW131997   2.932   6.121   3.947
10366SOL    HW231998   2.940   5.958   3.944
10367SOL     OW31999   5.293   6.183   1.484
10367SOL    HW132000   5.344   6.259   1.523
10367SOL    HW232001   5.333   6.096   1.514
10368SOL     OW32002   1.679   6.296   1.392
10368SOL    HW132003   1.653   6.219   1.334
10368SOL    HW232004   1.775   6.286   1.419
10369SOL     OW32005   2.441   0.338   6.347
10369SOL    HW132006   2.395   0.254   6.317
10369SOL    HW232007   2.418   0.356   6.443
10370SOL     OW32008   1.976   1.107   5.519
10370SOL    HW132009   2.006   1.088   5.612
10370SOL    HW232010   2.040   1.172   5.476
10371SOL     OW32011   4.625   5.650   3.347
10371SOL    HW132012   4.591   5.713   3.277
10371SOL    HW232013   4.725   5.657   3.351
10372SOL     OW32014   2.098   6.743   1.051
10372SOL    HW132015   2.111   6.756   1.149
10372SOL    HW232016   2.155   6.809   1.001
10373SOL     OW32017   6.434   1.310   6.565
10373SOL    HW132018   6.482   1.381   6.616
10373SOL    HW232019   6.443   1.328   6.467
10374SOL     OW32020   3.394   4.958   3.387
10374SOL    HW132021   3.413   4.938   3.483
10374SOL    HW232022   3.474   4.936   3.332
10375SOL     OW32023   2.699   5.103   0.678
10375SOL    HW132024   2.692   5.043   0.598
10375SOL    HW232025   2.610   5.108   0.723
10376SOL     OW32026   2.555   4.990   4.574
10376SOL    HW132027   2.543   5.008   4.477
10376SOL    HW232028   2.640   5.030   4.606
10377SOL     OW32029   2.029   1.025   2.434
10377SOL    HW132030   2.124   1.026   2.404
10377SOL    HW232031   1.988   0.937   2.412
10378SOL     OW32032   0.076   5.806   4.136
10378SOL    HW132033   0.117   5.866   4.205
10378SOL    HW232034   0.081   5.849   4.047
10379SOL     OW32035   1.706   0.089   4.165
10379SOL    HW132036   1.610   0.111   4.187
10379SOL    HW232037   1.711   0.047   4.075
10380SOL     OW32038   2.611   2.440   4.293
10380SOL    HW132039   2.523   2.427   4.338
10380SOL    HW232040   2.618   2.534   4.260
10381SOL     OW32041   4.045   6.364   2.449
10381SOL    HW132042   3.947   6.348   2.460
10381SOL    HW232043   4.080   6.308   2.375
10382SOL     OW32044   4.238   5.538   1.092
10382SOL    HW132045   4.274   5.508   1.180
10382SOL    HW232046   4.202   5.631   1.099
10383SOL     OW32047   1.076   4.847   0.250
10383SOL    HW132048   1.159   4.806   0.212
10383SOL    HW232049   1.047   4.795   0.330
10384SOL     OW32050   5.281   5.527   0.903
10384SOL    HW132051   5.371   5.554   0.866
10384SOL    HW232052   5.224   5.493   0.828
10385SOL     OW32053   4.085   4.320   0.386
10385SOL    HW132054   4.150   4.286   0.317
10385SOL    HW232055   4.044   4.405   0.354
10386SOL     OW32056   0.206   0.747   0.801
10386SOL    HW132057   0.208   0.838   0.759
10386SOL    HW232058   0.255   0.750   0.888
10387SOL     OW32059   4.880   3.272   1.901
10387SOL    HW132060   4.837   3.195   1.948
10387SOL    HW232061   4.812   3.318   1.844
10388SOL     OW32062   1.854   6.294   5.656
10388SOL    HW132063   1.817   6.379   5.694
10388SOL    HW232064   1.810   6.275   5.569
10389SOL     OW32065   0.637   4.199   6.924
10389SOL    HW132066   0.622   4.252   7.007
10389SOL    HW232067   0.585   4.239   6.849
10390SOL     OW32068   2.445   2.529   2.007
10390SOL    HW132069   2.522   2.482   1.965
10390SOL    HW232070   2.436   2.500   2.102
10391SOL     OW32071   5.597   6.914   3.888
10391SOL    HW132072   5.598   6.824   3.930
10391SOL    HW232073   5.677   6.966   3.918
10392SOL     OW32074   6.419   3.508   4.446
10392SOL    HW132075   6.382   3.592   4.405
10392SOL    HW232076   6.347   3.439   4.449
10393SOL     OW32077   1.656   3.476   3.331
10393SOL    HW132078   1.742   3.515   3.297
10393SOL    HW232079   1.676   3.392   3.381
10394SOL     OW32080   3.434   0.483   4.523
10394SOL    HW132081   3.361   0.424   4.557
10394SOL    HW232082   3.406   0.522   4.435
10395SOL     OW32083   1.185   6.735   1.076
10395SOL    HW132084   1.166   6.661   1.141
10395SOL    HW232085   1.242   6.804   1.121
10396SOL     OW32086   3.333   2.070   4.467
10396SOL    HW132087   3.336   1.977   4.504
10396SOL    HW232088   3.425   2.108   4.466
10397SOL     OW32089   4.682   2.036   3.768
10397SOL    HW132090   4.589   2.015   3.796
10397SOL    HW232091   4.693   2.136   3.761
10398SOL     OW32092   5.893   3.088   1.730
10398SOL    HW132093   5.913   3.013   1.668
10398SOL    HW232094   5.905   3.058   1.825
10399SOL     OW32095   0.754   3.904   1.835
10399SOL    HW132096   0.682   3.842   1.803
10399SOL    HW232097   0.824   3.912   1.764
10400SOL     OW32098   2.824   6.140   0.552
10400SOL    HW132099   2.909   6.123   0.502
10400SOL    HW232100   2.845   6.181   0.640
10401SOL     OW32101   0.411   0.943   5.912
10401SOL    HW132102   0.437   0.850   5.938
10401SOL    HW232103   0.487   1.006   5.932
10402SOL     OW32104   0.280   2.628   4.985
10402SOL    HW132105   0.185   2.601   4.968
10402SOL    HW232106   0.288   2.727   4.980
10403SOL     OW32107   3.415   0.737   1.062
10403SOL    HW132108   3.343   0.669   1.046
10403SOL    HW232109   3.401   0.815   1.000
10404SOL     OW32110   6.784   6.337   6.645
10404SOL    HW132111   6.734   6.423   6.642
10404SOL    HW232112   6.826   6.320   6.556
10405SOL     OW32113   0.523   2.637   6.333
10405SOL    HW132114   0.447   2.634   6.399
10405SOL    HW232115   0.586   2.561   6.353
10406SOL     OW32116   2.708   4.932   1.407
10406SOL    HW132117   2.709   4.898   1.501
10406SOL    HW232118   2.670   4.861   1.347
10407SOL     OW32119   2.713   6.627   6.622
10407SOL    HW132120   2.674   6.571   6.694
10407SOL    HW232121   2.779   6.574   6.570
10408SOL     OW32122   4.050   1.917   0.112
10408SOL    HW132123   4.047   1.958   0.021
10408SOL    HW232124   4.132   1.860   0.120
10409SOL     OW32125   5.982   4.812   1.171
10409SOL    HW132126   5.908   4.787   1.234
10409SOL    HW232127   5.993   4.741   1.102
10410SOL     OW32128   5.828   0.650   0.772
10410SOL    HW132129   5.778   0.733   0.749
10410SOL    HW232130   5.784   0.605   0.850
10411SOL     OW32131   2.421   5.259   3.521
10411SOL    HW132132   2.365   5.186   3.481
10411SOL    HW232133   2.363   5.316   3.580
10412SOL     OW32134   6.556   0.582   0.796
10412SOL    HW132135   6.608   0.560   0.714
10412SOL    HW232136   6.475   0.524   0.801
10413SOL     OW32137   0.158   2.900   1.795
10413SOL    HW132138   0.168   2.961   1.717
10413SOL    HW232139   0.149   2.953   1.879
10414SOL     OW32140   4.819   3.004   3.908
10414SOL    HW132141   4.853   3.082   3.855
10414SOL    HW232142   4.744   3.033   3.966
10415SOL     OW32143   0.195   6.916   5.916
10415SOL    HW132144   0.173   6.870   5.830
10415SOL    HW232145   0.240   6.851   5.977
10416SOL     OW32146   5.682   2.674   4.479
10416SOL    HW132147   5.590   2.692   4.513
10416SOL    HW232148   5.728   2.761   4.461
10417SOL     OW32149   2.372   4.370   3.781
10417SOL    HW132150   2.395   4.274   3.800
10417SOL    HW232151   2.386   4.389   3.684
10418SOL     OW32152   0.876   4.425   5.688
10418SOL    HW132153   0.852   4.505   5.633
10418SOL    HW232154   0.833   4.432   5.778
10419SOL     OW32155   1.300   1.283   0.737
10419SOL    HW132156   1.216   1.295   0.685
10419SOL    HW232157   1.287   1.212   0.806
10420SOL     OW32158   0.105   3.486   3.755
10420SOL    HW132159   0.113   3.578   3.717
10420SOL    HW232160   0.112   3.418   3.682
10421SOL     OW32161   0.313   0.906   3.341
10421SOL    HW132162   0.344   0.851   3.419
10421SOL    HW232163   0.213   0.899   3.333
10422SOL     OW32164   5.813   3.227   5.881
10422SOL    HW132165   5.762   3.262   5.803
10422SOL    HW232166   5.888   3.169   5.849
10423SOL     OW32167   5.328   4.503   3.091
10423SOL    HW132168   5.375   4.488   3.178
10423SOL    HW232169   5.323   4.602   3.073
10424SOL     OW32170   4.720   1.957   6.099
10424SOL    HW132171   4.798   2.017   6.085
10424SOL    HW232172   4.636   2.011   6.105
10425SOL     OW32173   2.050   6.654   1.827
10425SOL    HW132174   2.026   6.603   1.744
10425SOL    HW232175   2.147   6.642   1.846
10426SOL     OW32176   6.694   4.027   6.710
10426SOL    HW132177   6.677   4.087   6.788
10426SOL    HW232178   6.778   3.974   6.726
10427SOL     OW32179   4.980   1.547   0.374
10427SOL    HW132180   4.966   1.628   0.431
10427SOL    HW232181   5.066   1.556   0.323
10428SOL     OW32182   4.789   0.830   4.506
10428SOL    HW132183   4.805   0.797   4.413
10428SOL    HW232184   4.876   0.841   4.554
10429SOL     OW32185   6.462   6.367   2.010
10429SOL    HW132186   6.536   6.339   1.950
10429SOL    HW232187   6.498   6.427   2.082
10430SOL     OW32188   3.630   6.320   3.374
10430SOL    HW132189   3.700   6.385   3.345
10430SOL    HW232190   3.581   6.356   3.454
10431SOL     OW32191   3.080   1.100   5.103
10431SOL    HW132192   3.103   1.012   5.062
10431SOL    HW232193   3.018   1.085   5.180
10432SOL     OW32194   6.145   0.649   5.492
10432SOL    HW132195   6.078   0.620   5.422
10432SOL    HW232196   6.237   0.624   5.462
10433SOL     OW32197   2.493   6.558   0.984
10433SOL    HW132198   2.423   6.496   0.948
10433SOL    HW232199   2.581   6.511   0.986
10434SOL     OW32200   2.603   1.308   3.677
10434SOL    HW132201   2.660   1.373   3.627
10434SOL    HW232202   2.635   1.301   3.772
10435SOL     OW32203   5.132   6.481   0.168
10435SOL    HW132204   5.122   6.382   0.173
10435SOL    HW232205   5.100   6.523   0.253
10436SOL     OW32206   1.455   6.513   2.799
10436SOL    HW132207   1.485   6.512   2.894
10436SOL    HW232208   1.439   6.608   2.770
10437SOL     OW32209   6.669   4.726   6.156
10437SOL    HW132210   6.667   4.697   6.251
10437SOL    HW232211   6.724   4.809   6.148
10438SOL     OW32212   2.819   5.782   6.700
10438SOL    HW132213   2.871   5.867   6.687
10438SOL    HW232214   2.744   5.780   6.634
10439SOL     OW32215   3.984   6.833   6.019
10439SOL    HW132216   4.041   6.792   6.091
10439SOL    HW232217   4.021   6.807   5.929
10440SOL     OW32218   1.895   5.526   0.584
10440SOL    HW132219   1.882   5.623   0.602
10440SOL    HW232220   1.985   5.497   0.619
10441SOL     OW32221   4.893   1.495   6.737
10441SOL    HW132222   4.953   1.575   6.748
10441SOL    HW232223   4.948   1.412   6.745
10442SOL     OW32224   4.617   5.223   5.719
10442SOL    HW132225   4.589   5.173   5.637
10442SOL    HW232226   4.559   5.196   5.796
10443SOL     OW32227   6.132   3.026   5.121
10443SOL    HW132228   6.088   3.020   5.211
10443SOL    HW232229   6.113   2.943   5.069
10444SOL     OW32230   3.800   5.267   4.051
10444SOL    HW132231   3.727   5.282   4.117
10444SOL    HW232232   3.760   5.242   3.962
10445SOL     OW32233   6.349   6.105   5.028
10445SOL    HW132234   6.446   6.130   5.026
10445SOL    HW232235   6.298   6.165   4.966
10446SOL     OW32236   0.709   5.244   6.167
10446SOL    HW132237   0.665   5.302   6.098
10446SOL    HW232238   0.639   5.208   6.229
10447SOL     OW32239   6.010   2.302   1.449
10447SOL    HW132240   6.036   2.246   1.371
10447SOL    HW232241   6.091   2.328   1.501
10448SOL     OW32242   3.473   4.106   2.526
10448SOL    HW132243   3.448   4.138   2.617
10448SOL    HW232244   3.390   4.097   2.470
10449SOL     OW32245   1.734   5.155   4.390
10449SOL    HW132246   1.819   5.205   4.403
10449SOL    HW232247   1.711   5.106   4.475
10450SOL     OW32248   0.428   2.691   0.938
10450SOL    HW132249   0.504   2.749   0.967
10450SOL    HW232250   0.342   2.733   0.966
10451SOL     OW32251   2.308   4.160   2.666
10451SOL    HW132252   2.282   4.178   2.571
10451SOL    HW232253   2.354   4.240   2.703
10452SOL     OW32254   1.240   3.508   5.082
10452SOL    HW132255   1.286   3.479   4.998
10452SOL    HW232256   1.222   3.606   5.077
10453SOL     OW32257   5.112   7.008   1.660
10453SOL    HW132258   5.036   6.996   1.595
10453SOL    HW232259   5.197   6.974   1.618
10454SOL     OW32260   5.206   3.440   2.405
10454SOL    HW132261   5.214   3.501   2.484
10454SOL    HW232262   5.110   3.418   2.390
10455SOL     OW32263   0.198   4.402   3.405
10455SOL    HW132264   0.228   4.498   3.408
10455SOL    HW232265   0.118   4.394   3.345
10456SOL     OW32266   4.155   5.876   0.575
10456SOL    HW132267   4.240   5.890   0.627
10456SOL    HW232268   4.161   5.923   0.487
10457SOL     OW32269   3.446   3.712   3.981
10457SOL    HW132270   3.510   3.639   4.002
10457SOL    HW232271   3.352   3.678   3.993
10458SOL     OW32272   6.894   0.068   1.416
10458SOL    HW132273   6.928   0.047   1.508
10458SOL    HW232274   6.908   0.165   1.398
10459SOL     OW32275   6.688   5.639   2.386
10459SOL    HW132276   6.680   5.554   2.438
10459SOL    HW232277   6.661   5.623   2.291
10460SOL     OW32278   1.994   5.756   2.150
10460SOL    HW132279   1.914   5.779   2.094
10460SOL    HW232280   2.071   5.734   2.090
10461SOL     OW32281   2.633   1.534   6.505
10461SOL    HW132282   2.549   1.583   6.479
10461SOL    HW232283   2.656   1.557   6.600
10462SOL     OW32284   6.511   0.041   1.327
10462SOL    HW132285   6.578   0.042   1.253
10462SOL    HW232286   6.554   0.005   1.410
10463SOL     OW32287   2.677   3.863   1.243
10463SOL    HW132288   2.627   3.942   1.279
10463SOL    HW232289   2.689   3.874   1.145
10464SOL     OW32290   5.477   0.059   1.948
10464SOL    HW132291   5.412   7.014   1.909
10464SOL    HW232292   5.443   0.152   1.936
10465SOL     OW32293   6.466   5.090   5.606
10465SOL    HW132294   6.492   5.001   5.568
10465SOL    HW232295   6.421   5.077   5.694
10466SOL     OW32296   4.974   5.843   6.203
10466SOL    HW132297   5.005   5.931   6.168
10466SOL    HW232298   4.894   5.812   6.151
10467SOL     OW32299   4.143   0.816   4.308
10467SOL    HW132300   4.052   0.854   4.324
10467SOL    HW232301   4.212   0.888   4.318
10468SOL     OW32302   3.663   5.660   2.912
10468SOL    HW132303   3.586   5.717   2.941
10468SOL    HW232304   3.629   5.573   2.877
10469SOL     OW32305   1.176   4.536   0.538
10469SOL    HW132306   1.129   4.449   0.530
10469SOL    HW232307   1.271   4.525   0.507
10470SOL     OW32308   2.991   1.607   4.070
10470SOL    HW132309   3.046   1.621   3.988
10470SOL    HW232310   2.989   1.510   4.094
10471SOL     OW32311   3.966   3.682   0.668
10471SOL    HW132312   3.926   3.734   0.592
10471SOL    HW232313   3.988   3.745   0.742
10472SOL     OW32314   4.461   1.151   2.600
10472SOL    HW132315   4.433   1.058   2.623
10472SOL    HW232316   4.501   1.152   2.508
10473SOL     OW32317   5.000   5.656   0.731
10473SOL    HW132318   4.907   5.621   0.719
10473SOL    HW232319   5.064   5.580   0.737
10474SOL     OW32320   4.310   0.102   4.164
10474SOL    HW132321   4.323   0.043   4.085
10474SOL    HW232322   4.321   0.049   4.248
10475SOL     OW32323   4.460   5.880   1.186
10475SOL    HW132324   4.361   5.867   1.178
10475SOL    HW232325   4.502   5.795   1.218
10476SOL     OW32326   0.097   4.456   0.818
10476SOL    HW132327   0.182   4.506   0.805
10476SOL    HW232328   0.024   4.520   0.844
10477SOL     OW32329   5.419   4.556   4.754
10477SOL    HW132330   5.516   4.578   4.739
10477SOL    HW232331   5.369   4.565   4.668
10478SOL     OW32332   0.466   6.153   1.831
10478SOL    HW132333   0.423   6.063   1.832
10478SOL    HW232334   0.559   6.146   1.867
10479SOL     OW32335   1.852   5.035   3.347
10479SOL    HW132336   1.760   4.997   3.355
10479SOL    HW232337   1.913   4.989   3.411
10480SOL     OW32338   6.244   0.120   2.697
10480SOL    HW132339   6.214   0.212   2.674
10480SOL    HW232340   6.183   0.054   2.652
10481SOL     OW32341   2.445   0.425   5.207
10481SOL    HW132342   2.382   0.441   5.283
10481SOL    HW232343   2.539   0.436   5.239
10482SOL     OW32344   0.838   5.297   5.745
10482SOL    HW132345   0.860   5.227   5.813
10482SOL    HW232346   0.775   5.260   5.677
10483SOL     OW32347   6.788   5.373   0.665
10483SOL    HW132348   6.750   5.428   0.590
10483SOL    HW232349   6.763   5.414   0.752
10484SOL     OW32350   5.690   2.226   1.716
10484SOL    HW132351   5.737   2.301   1.669
10484SOL    HW232352   5.726   2.216   1.808
10485SOL     OW32353   3.280   4.135   3.893
10485SOL    HW132354   3.248   4.059   3.950
10485SOL    HW232355   3.342   4.193   3.947
10486SOL     OW32356   6.081   6.024   5.215
10486SOL    HW132357   6.036   6.020   5.126
10486SOL    HW232358   6.014   6.004   5.287
10487SOL     OW32359   4.411   1.763   2.287
10487SOL    HW132360   4.508   1.771   2.312
10487SOL    HW232361   4.366   1.851   2.301
10488SOL     OW32362   6.973   2.080   5.278
10488SOL    HW132363   7.007   2.051   5.189
10488SOL    HW232364   0.029   2.087   5.342
10489SOL     OW32365   6.124   4.121   4.695
10489SOL    HW132366   6.082   4.203   4.734
10489SOL    HW232367   6.183   4.147   4.619
10490SOL     OW32368   5.784   6.989   0.395
10490SOL    HW132369   5.696   6.953   0.428
10490SOL    HW232370   5.793   6.971   0.297
10491SOL     OW32371   2.030   2.669   5.259
10491SOL    HW132372   2.083   2.754   5.265
10491SOL    HW232373   1.938   2.684   5.293
10492SOL     OW32374   3.990   6.462   6.729
10492SOL    HW132375   3.912   6.471   6.792
10492SOL    HW232376   4.032   6.372   6.740
10493SOL     OW32377   3.430   5.449   1.474
10493SOL    HW132378   3.500   5.501   1.425
10493SOL    HW232379   3.472   5.371   1.520
10494SOL     OW32380   1.196   4.266   4.599
10494SOL    HW132381   1.186   4.187   4.539
10494SOL    HW232382   1.293   4.288   4.610
10495SOL     OW32383   6.779   6.186   0.796
10495SOL    HW132384   6.693   6.184   0.847
10495SOL    HW232385   6.846   6.240   0.846
10496SOL     OW32386   0.586   3.636   5.995
10496SOL    HW132387   0.581   3.612   6.092
10496SOL    HW232388   0.516   3.585   5.944
10497SOL     OW32389   2.583   0.150   1.982
10497SOL    HW132390   2.527   0.137   2.064
10497SOL    HW232391   2.678   0.165   2.008
10498SOL     OW32392   4.840   4.031   6.826
10498SOL    HW132393   4.936   4.009   6.809
10498SOL    HW232394   4.823   4.126   6.801
10499SOL     OW32395   6.067   3.950   2.625
10499SOL    HW132396   6.011   3.939   2.708
10499SOL    HW232397   6.079   4.048   2.606
10500SOL     OW32398   0.936   3.854   5.348
10500SOL    HW132399   0.863   3.889   5.289
10500SOL    HW232400   1.003   3.926   5.364
10501SOL     OW32401   3.617   4.878   3.216
10501SOL    HW132402   3.697   4.819   3.203
10501SOL    HW232403   3.606   4.937   3.136
10502SOL     OW32404   3.665   3.585   2.456
10502SOL    HW132405   3.653   3.490   2.483
10502SOL    HW232406   3.673   3.590   2.356
10503SOL     OW32407   0.429   1.722   6.402
10503SOL    HW132408   0.352   1.785   6.387
10503SOL    HW232409   0.459   1.729   6.498
10504SOL     OW32410   0.598   3.113   5.618
10504SOL    HW132411   0.596   3.157   5.529
10504SOL    HW232412   0.668   3.041   5.618
10505SOL     OW32413   5.861   0.059   0.880
10505SOL    HW132414   5.890   0.065   0.784
10505SOL    HW232415   5.851   0.152   0.917
10506SOL     OW32416   1.153   3.250   6.159
10506SOL    HW132417   1.205   3.219   6.079
10506SOL    HW232418   1.128   3.346   6.146
10507SOL     OW32419   1.125   5.239   5.654
10507SOL    HW132420   1.035   5.195   5.650
10507SOL    HW232421   1.112   5.338   5.664
10508SOL     OW32422   1.503   5.588   5.686
10508SOL    HW132423   1.524   5.518   5.755
10508SOL    HW232424   1.450   5.547   5.612
10509SOL     OW32425   4.493   2.396   2.113
10509SOL    HW132426   4.545   2.315   2.084
10509SOL    HW232427   4.417   2.368   2.170
10510SOL     OW32428   5.885   5.755   3.444
10510SOL    HW132429   5.984   5.755   3.464
10510SOL    HW232430   5.870   5.791   3.352
10511SOL     OW32431   4.442   1.524   1.154
10511SOL    HW132432   4.538   1.537   1.179
10511SOL    HW232433   4.385   1.534   1.235
10512SOL     OW32434   4.562   0.904   4.902
10512SOL    HW132435   4.579   0.900   5.000
10512SOL    HW232436   4.525   0.816   4.871
10513SOL     OW32437   4.050   2.689   0.821
10513SOL    HW132438   4.017   2.600   0.854
10513SOL    HW232439   3.990   2.761   0.856
10514SOL     OW32440   1.791   3.660   1.879
10514SOL    HW132441   1.857   3.598   1.922
10514SOL    HW232442   1.780   3.741   1.936
10515SOL     OW32443   2.276   2.829   4.915
10515SOL    HW132444   2.333   2.750   4.937
10515SOL    HW232445   2.273   2.891   4.993
10516SOL     OW32446   4.992   2.576   1.460
10516SOL    HW132447   5.064   2.615   1.403
10516SOL    HW232448   4.930   2.523   1.402
10517SOL     OW32449   0.973   2.840   2.501
10517SOL    HW132450   0.911   2.762   2.492
10517SOL    HW232451   1.017   2.838   2.591
10518SOL     OW32452   0.861   5.265   2.745
10518SOL    HW132453   0.806   5.344   2.771
10518SOL    HW232454   0.861   5.199   2.820
10519SOL     OW32455   4.047   0.412   0.840
10519SOL    HW132456   4.020   0.333   0.896
10519SOL    HW232457   4.046   0.386   0.744
10520SOL     OW32458   0.813   2.549   5.687
10520SOL    HW132459   0.906   2.578   5.708
10520SOL    HW232460   0.751   2.587   5.756
10521SOL     OW32461   6.340   2.784   3.047
10521SOL    HW132462   6.279   2.721   3.000
10521SOL    HW232463   6.286   2.851   3.098
10522SOL     OW32464   5.805   2.128   4.056
10522SOL    HW132465   5.763   2.120   4.147
10522SOL    HW232466   5.753   2.192   4.000
10523SOL     OW32467   1.408   4.172   2.873
10523SOL    HW132468   1.470   4.095   2.857
10523SOL    HW232469   1.385   4.177   2.970
10524SOL     OW32470   6.596   6.608   5.468
10524SOL    HW132471   6.510   6.605   5.520
10524SOL    HW232472   6.578   6.643   5.376
10525SOL     OW32473   5.263   1.675   4.162
10525SOL    HW132474   5.306   1.638   4.244
10525SOL    HW232475   5.192   1.611   4.130
10526SOL     OW32476   0.665   4.782   0.170
10526SOL    HW132477   0.735   4.712   0.159
10526SOL    HW232478   0.592   4.766   0.103
10527SOL     OW32479   0.838   6.988   5.807
10527SOL    HW132480   0.769   6.921   5.781
10527SOL    HW232481   0.926   6.942   5.821
10528SOL     OW32482   1.348   4.172   5.391
10528SOL    HW132483   1.388   4.118   5.317
10528SOL    HW232484   1.416   4.186   5.463
10529SOL     OW32485   0.148   5.582   0.626
10529SOL    HW132486   0.239   5.595   0.666
10529SOL    HW232487   0.158   5.561   0.528
10530SOL     OW32488   0.001   6.173   1.264
10530SOL    HW132489   0.059   6.217   1.333
10530SOL    HW232490   6.940   6.230   1.248
10531SOL     OW32491   3.255   3.372   5.016
10531SOL    HW132492   3.236   3.308   4.941
10531SOL    HW232493   3.272   3.320   5.100
10532SOL     OW32494   5.330   6.043   6.735
10532SOL    HW132495   5.368   6.035   6.827
10532SOL    HW232496   5.337   6.138   6.705
10533SOL     OW32497   3.808   0.483   3.039
10533SOL    HW132498   3.759   0.397   3.033
10533SOL    HW232499   3.845   0.495   3.132
10534SOL     OW32500   1.387   6.190   3.776
10534SOL    HW132501   1.477   6.199   3.733
10534SOL    HW232502   1.339   6.113   3.734
10535SOL     OW32503   3.012   2.229   2.989
10535SOL    HW132504   2.996   2.251   2.892
10535SOL    HW232505   3.103   2.190   3.000
10536SOL     OW32506   5.043   3.429   4.552
10536SOL    HW132507   5.100   3.371   4.611
10536SOL    HW232508   5.086   3.519   4.542
10537SOL     OW32509   3.496   0.347   4.038
10537SOL    HW132510   3.502   0.347   4.137
10537SOL    HW232511   3.456   0.434   4.007
10538SOL     OW32512   7.008   3.106   3.009
10538SOL    HW132513   7.011   3.064   3.100
10538SOL    HW232514   6.913   3.110   2.977
10539SOL     OW32515   0.046   0.246   3.333
10539SOL    HW132516   0.057   0.335   3.376
10539SOL    HW232517   6.991   0.250   3.266
10540SOL     OW32518   1.213   4.657   6.521
10540SOL    HW132519   1.166   4.663   6.609
10540SOL    HW232520   1.157   4.607   6.456
10541SOL     OW32521   2.899   3.407   5.358
10541SOL    HW132522   2.956   3.434   5.280
10541SOL    HW232523   2.827   3.345   5.327
10542SOL     OW32524   5.228   6.691   3.351
10542SOL    HW132525   5.165   6.635   3.405
10542SOL    HW232526   5.257   6.639   3.270
10543SOL     OW32527   1.613   3.361   3.829
10543SOL    HW132528   1.676   3.341   3.754
10543SOL    HW232529   1.651   3.328   3.915
10544SOL     OW32530   2.684   1.436   2.942
10544SOL    HW132531   2.774   1.468   2.970
10544SOL    HW232532   2.690   1.340   2.912
10545SOL     OW32533   2.202   2.713   2.655
10545SOL    HW132534   2.146   2.779   2.604
10545SOL    HW232535   2.218   2.747   2.748
10546SOL     OW32536   2.843   0.237   6.629
10546SOL    HW132537   2.785   0.318   6.619
10546SOL    HW232538   2.804   0.162   6.577
10547SOL     OW32539   4.327   6.560   5.763
10547SOL    HW132540   4.302   6.652   5.732
10547SOL    HW232541   4.265   6.493   5.722
10548SOL     OW32542   6.947   6.097   2.853
10548SOL    HW132543   6.933   6.032   2.778
10548SOL    HW232544   6.869   6.159   2.858
10549SOL     OW32545   6.455   0.369   1.607
10549SOL    HW132546   6.359   0.398   1.601
10549SOL    HW232547   6.507   0.410   1.533
10550SOL     OW32548   5.405   5.927   2.939
10550SOL    HW132549   5.424   5.991   3.014
10550SOL    HW232550   5.431   5.835   2.968
10551SOL     OW32551   3.220   0.370   5.220
10551SOL    HW132552   3.190   0.447   5.276
10551SOL    HW232553   3.152   0.353   5.149
10552SOL     OW32554   2.841   6.947   3.743
10552SOL    HW132555   2.940   6.964   3.749
10552SOL    HW232556   2.793   0.015   3.747
10553SOL     OW32557   6.321   5.447   1.279
10553SOL    HW132558   6.275   5.497   1.204
10553SOL    HW232559   6.371   5.512   1.336
10554SOL     OW32560   5.906   6.146   2.735
10554SOL    HW132561   5.984   6.197   2.772
10554SOL    HW232562   5.939   6.075   2.673
10555SOL     OW32563   3.611   3.221   0.993
10555SOL    HW132564   3.573   3.226   0.901
10555SOL    HW232565   3.542   3.185   1.056
10556SOL     OW32566   2.362   1.747   2.332
10556SOL    HW132567   2.296   1.748   2.408
10556SOL    HW232568   2.428   1.820   2.345
10557SOL     OW32569   2.276   4.801   3.248
10557SOL    HW132570   2.368   4.833   3.226
10557SOL    HW232571   2.279   4.745   3.331
10558SOL     OW32572   3.510   4.963   5.414
10558SOL    HW132573   3.539   4.883   5.467
10558SOL    HW232574   3.479   4.933   5.323
10559SOL     OW32575   4.124   6.423   0.980
10559SOL    HW132576   4.048   6.479   1.014
10559SOL    HW232577   4.102   6.386   0.890
10560SOL     OW32578   5.792   6.862   3.173
10560SOL    HW132579   5.880   6.870   3.126
10560SOL    HW232580   5.791   6.780   3.229
10561SOL     OW32581   6.697   4.687   7.003
10561SOL    HW132582   6.749   4.689   0.068
10561SOL    HW232583   6.688   4.593   6.971
10562SOL     OW32584   4.577   5.651   2.384
10562SOL    HW132585   4.632   5.711   2.326
10562SOL    HW232586   4.497   5.621   2.333
10563SOL     OW32587   0.428   0.071   2.268
10563SOL    HW132588   0.399   0.102   2.359
10563SOL    HW232589   0.393   6.999   2.252
10564SOL     OW32590   5.028   4.230   3.518
10564SOL    HW132591   5.085   4.185   3.449
10564SOL    HW232592   4.938   4.250   3.478
10565SOL     OW32593   1.143   1.000   6.173
10565SOL    HW132594   1.117   0.905   6.193
10565SOL    HW232595   1.075   1.041   6.112
10566SOL     OW32596   3.641   2.415   0.088
10566SOL    HW132597   3.620   2.326   0.128
10566SOL    HW232598   3.740   2.422   0.073
10567SOL     OW32599   2.170   2.632   5.701
10567SOL    HW132600   2.204   2.542   5.727
10567SOL    HW232601   2.082   2.622   5.653
10568SOL     OW32602   4.463   2.315   6.014
10568SOL    HW132603   4.561   2.309   5.997
10568SOL    HW232604   4.444   2.392   6.074
10569SOL     OW32605   5.729   0.218   0.319
10569SOL    HW132606   5.660   0.266   0.373
10569SOL    HW232607   5.750   0.130   0.363
10570SOL     OW32608   1.301   3.915   3.293
10570SOL    HW132609   1.341   3.835   3.248
10570SOL    HW232610   1.327   3.915   3.390
10571SOL     OW32611   6.153   4.235   5.372
10571SOL    HW132612   6.120   4.323   5.337
10571SOL    HW232613   6.076   4.174   5.386
10572SOL     OW32614   6.091   4.139   0.889
10572SOL    HW132615   6.114   4.050   0.928
10572SOL    HW232616   6.107   4.210   0.957
10573SOL     OW32617   6.489   1.836   2.632
10573SOL    HW132618   6.401   1.871   2.599
10573SOL    HW232619   6.484   1.818   2.730
10574SOL     OW32620   5.451   2.797   2.469
10574SOL    HW132621   5.463   2.723   2.403
10574SOL    HW232622   5.386   2.864   2.433
10575SOL     OW32623   5.929   6.793   2.212
10575SOL    HW132624   5.932   6.827   2.118
10575SOL    HW232625   5.893   6.700   2.213
10576SOL     OW32626   1.381   4.377   4.035
10576SOL    HW132627   1.371   4.468   4.077
10576SOL    HW232628   1.421   4.387   3.944
10577SOL     OW32629   3.752   3.810   0.200
10577SOL    HW132630   3.769   3.894   0.148
10577SOL    HW232631   3.797   3.733   0.154
10578SOL     OW32632   0.597   3.970   3.626
10578SOL    HW132633   0.502   3.995   3.643
10578SOL    HW232634   0.611   3.873   3.647
10579SOL     OW32635   0.501   3.644   6.890
10579SOL    HW132636   0.502   3.744   6.903
10579SOL    HW232637   0.551   3.621   6.807
10580SOL     OW32638   6.093   0.008   0.264
10580SOL    HW132639   6.142   0.067   0.199
10580SOL    HW232640   6.000   7.015   0.231
10581SOL     OW32641   4.327   0.205   2.939
10581SOL    HW132642   4.413   0.154   2.947
10581SOL    HW232643   4.345   0.293   2.895
10582SOL     OW32644   6.482   3.592   6.380
10582SOL    HW132645   6.505   3.689   6.389
10582SOL    HW232646   6.392   3.582   6.338
10583SOL     OW32647   3.241   1.931   5.226
10583SOL    HW132648   3.217   1.842   5.187
10583SOL    HW232649   3.271   1.992   5.153
10584SOL     OW32650   0.659   6.832   3.612
10584SOL    HW132651   0.701   6.746   3.641
10584SOL    HW232652   0.729   6.894   3.577
10585SOL     OW32653   1.485   0.833   5.602
10585SOL    HW132654   1.501   0.911   5.663
10585SOL    HW232655   1.570   0.812   5.553
10586SOL     OW32656   4.151   4.226   5.317
10586SOL    HW132657   4.203   4.221   5.403
10586SOL    HW232658   4.193   4.293   5.256
10587SOL     OW32659   2.237   5.077   5.483
10587SOL    HW132660   2.293   5.033   5.412
10587SOL    HW232661   2.280   5.162   5.512
10588SOL     OW32662   1.636   3.810   3.579
10588SOL    HW132663   1.639   3.795   3.678
10588SOL    HW232664   1.541   3.819   3.550
10589SOL     OW32665   5.552   6.506   4.147
10589SOL    HW132666   5.572   6.507   4.049
10589SOL    HW232667   5.626   6.461   4.197
10590SOL     OW32668   0.566   4.884   2.084
10590SOL    HW132669   0.467   4.891   2.071
10590SOL    HW232670   0.613   4.925   2.007
10591SOL     OW32671   6.900   3.517   2.028
10591SOL    HW132672   6.804   3.518   2.000
10591SOL    HW232673   6.951   3.583   1.973
10592SOL     OW32674   0.044   1.105   5.164
10592SOL    HW132675   0.086   1.157   5.239
10592SOL    HW232676   6.992   1.161   5.122
10593SOL     OW32677   2.692   5.265   3.234
10593SOL    HW132678   2.720   5.188   3.291
10593SOL    HW232679   2.631   5.325   3.285
10594SOL     OW32680   3.328   5.365   3.706
10594SOL    HW132681   3.329   5.465   3.699
10594SOL    HW232682   3.336   5.326   3.614
10595SOL     OW32683   4.785   0.157   0.800
10595SOL    HW132684   4.730   0.188   0.723
10595SOL    HW232685   4.827   0.069   0.778
10596SOL     OW32686   5.017   3.298   0.051
10596SOL    HW132687   5.058   3.316   0.141
10596SOL    HW232688   5.078   3.241   7.017
10597SOL     OW32689   1.882   6.739   4.261
10597SOL    HW132690   1.817   6.723   4.187
10597SOL    HW232691   1.899   6.653   4.309
10598SOL     OW32692   3.340   0.994   6.262
10598SOL    HW132693   3.414   0.936   6.227
10598SOL    HW232694   3.282   1.022   6.186
10599SOL     OW32695   0.662   1.886   0.521
10599SOL    HW132696   0.726   1.938   0.578
10599SOL    HW232697   0.695   1.885   0.427
10600SOL     OW32698   3.564   1.883   1.342
10600SOL    HW132699   3.504   1.926   1.411
10600SOL    HW232700   3.636   1.832   1.388
10601SOL     OW32701   2.225   0.598   5.078
10601SOL    HW132702   2.318   0.634   5.071
10601SOL    HW232703   2.164   0.670   5.111
10602SOL     OW32704   6.885   6.813   1.632
10602SOL    HW132705   6.934   6.873   1.696
10602SOL    HW232706   6.828   6.749   1.683
10603SOL     OW32707   5.477   0.455   2.886
10603SOL    HW132708   5.470   0.373   2.830
10603SOL    HW232709   5.395   0.465   2.942
10604SOL     OW32710   5.196   0.622   5.003
10604SOL    HW132711   5.227   0.536   4.961
10604SOL    HW232712   5.134   0.669   4.941
10605SOL     OW32713   3.012   2.193   1.229
10605SOL    HW132714   3.043   2.233   1.142
10605SOL    HW232715   3.092   2.169   1.284
10606SOL     OW32716   6.950   0.966   0.199
10606SOL    HW132717   6.870   0.977   0.258
10606SOL    HW232718   6.943   0.880   0.148
10607SOL     OW32719   2.832   4.305   6.841
10607SOL    HW132720   2.799   4.398   6.857
10607SOL    HW232721   2.916   4.308   6.785
10608SOL     OW32722   5.468   4.050   4.178
10608SOL    HW132723   5.426   4.035   4.088
10608SOL    HW232724   5.567   4.060   4.167
10609SOL     OW32725   5.800   0.629   6.465
10609SOL    HW132726   5.815   0.583   6.553
10609SOL    HW232727   5.799   0.728   6.479
10610SOL     OW32728   0.880   1.125   3.389
10610SOL    HW132729   0.950   1.190   3.359
10610SOL    HW232730   0.790   1.160   3.365
10611SOL     OW32731   3.807   5.472   4.794
10611SOL    HW132732   3.901   5.446   4.816
10611SOL    HW232733   3.746   5.394   4.810
10612SOL     OW32734   6.397   2.285   3.321
10612SOL    HW132735   6.416   2.370   3.370
10612SOL    HW232736   6.321   2.237   3.365
10613SOL     OW32737   4.281   6.338   4.177
10613SOL    HW132738   4.316   6.396   4.102
10613SOL    HW232739   4.262   6.246   4.142
10614SOL     OW32740   4.125   1.903   5.926
10614SOL    HW132741   4.181   1.895   5.843
10614SOL    HW232742   4.034   1.937   5.901
10615SOL     OW32743   2.276   1.682   4.961
10615SOL    HW132744   2.348   1.706   5.026
10615SOL    HW232745   2.195   1.737   4.979
10616SOL     OW32746   1.867   5.942   6.808
10616SOL    HW132747   1.794   5.883   6.774
10616SOL    HW232748   1.937   5.955   6.737
10617SOL     OW32749   2.203   2.997   1.415
10617SOL    HW132750   2.192   3.085   1.369
10617SOL    HW232751   2.267   2.940   1.364
10618SOL     OW32752   1.084   5.358   3.862
10618SOL    HW132753   1.078   5.456   3.847
10618SOL    HW232754   1.154   5.338   3.930
10619SOL     OW32755   1.329   2.671   2.481
10619SOL    HW132756   1.427   2.678   2.499
10619SOL    HW232757   1.279   2.708   2.560
10620SOL     OW32758   3.405   0.622   6.001
10620SOL    HW132759   3.446   0.671   5.925
10620SOL    HW232760   3.306   0.637   6.002
10621SOL     OW32761   0.608   3.407   3.102
10621SOL    HW132762   0.578   3.411   3.007
10621SOL    HW232763   0.552   3.469   3.157
10622SOL     OW32764   4.315   2.089   6.980
10622SOL    HW132765   4.218   2.087   6.958
10622SOL    HW232766   4.340   2.179   7.014
10623SOL     OW32767   5.033   6.250   5.891
10623SOL    HW132768   5.030   6.167   5.834
10623SOL    HW232769   4.949   6.302   5.878
10624SOL     OW32770   0.621   2.212   0.455
10624SOL    HW132771   0.579   2.298   0.482
10624SOL    HW232772   0.718   2.227   0.436
10625SOL     OW32773   6.063   5.373   0.277
10625SOL    HW132774   6.028   5.443   0.214
10625SOL    HW232775   6.082   5.415   0.366
10626SOL     OW32776   5.517   2.961   0.983
10626SOL    HW132777   5.598   2.904   0.971
10626SOL    HW232778   5.544   3.057   0.983
10627SOL     OW32779   5.600   5.536   5.172
10627SOL    HW132780   5.639   5.446   5.153
10627SOL    HW232781   5.638   5.572   5.256
10628SOL     OW32782   3.162   6.543   0.162
10628SOL    HW132783   3.169   6.536   0.262
10628SOL    HW232784   3.250   6.569   0.124
10629SOL     OW32785   4.131   5.427   4.825
10629SOL    HW132786   4.119   5.491   4.749
10629SOL    HW232787   4.130   5.333   4.790
10630SOL     OW32788   3.855   1.674   1.580
10630SOL    HW132789   3.938   1.656   1.633
10630SOL    HW232790   3.777   1.680   1.642
10631SOL     OW32791   3.535   5.597   1.057
10631SOL    HW132792   3.500   5.659   0.986
10631SOL    HW232793   3.528   5.503   1.025
10632SOL     OW32794   5.215   6.222   3.964
10632SOL    HW132795   5.147   6.163   3.920
10632SOL    HW232796   5.234   6.301   3.906
10633SOL     OW32797   1.911   3.379   0.850
10633SOL    HW132798   1.930   3.409   0.757
10633SOL    HW232799   1.832   3.318   0.850
10634SOL     OW32800   0.112   4.288   6.845
10634SOL    HW132801   0.048   4.339   6.788
10634SOL    HW232802   0.176   4.352   6.889
10635SOL     OW32803   2.508   5.401   6.512
10635SOL    HW132804   2.587   5.341   6.528
10635SOL    HW232805   2.510   5.434   6.418
10636SOL     OW32806   6.585   2.335   0.192
10636SOL    HW132807   6.537   2.250   0.170
10636SOL    HW232808   6.599   2.388   0.108
10637SOL     OW32809   2.427   0.543   6.861
10637SOL    HW132810   2.400   0.573   6.770
10637SOL    HW232811   2.481   0.460   6.855
10638SOL     OW32812   5.694   5.124   0.956
10638SOL    HW132813   5.650   5.073   0.882
10638SOL    HW232814   5.793   5.114   0.949
10639SOL     OW32815   0.456   5.555   1.776
10639SOL    HW132816   0.441   5.472   1.722
10639SOL    HW232817   0.374   5.576   1.828
10640SOL     OW32818   4.659   6.518   3.700
10640SOL    HW132819   4.646   6.419   3.697
10640SOL    HW232820   4.571   6.562   3.719
10641SOL     OW32821   1.349   1.265   3.197
10641SOL    HW132822   1.448   1.272   3.192
10641SOL    HW232823   1.308   1.353   3.172
10642SOL     OW32824   6.954   3.359   5.804
10642SOL    HW132825   6.954   3.455   5.834
10642SOL    HW232826   6.893   3.306   5.862
10643SOL     OW32827   2.508   5.313   5.960
10643SOL    HW132828   2.585   5.281   6.014
10643SOL    HW232829   2.449   5.236   5.935
10644SOL     OW32830   6.500   3.021   3.029
10644SOL    HW132831   6.431   2.952   3.008
10644SOL    HW232832   6.538   3.057   2.944
10645SOL     OW32833   1.812   2.067   3.173
10645SOL    HW132834   1.843   2.153   3.133
10645SOL    HW232835   1.788   2.004   3.099
10646SOL     OW32836   5.043   0.570   3.515
10646SOL    HW132837   5.044   0.532   3.423
10646SOL    HW232838   5.126   0.543   3.563
10647SOL     OW32839   3.444   5.713   5.664
10647SOL    HW132840   3.385   5.734   5.585
10647SOL    HW232841   3.440   5.615   5.683
10648SOL     OW32842   4.649   4.425   5.690
10648SOL    HW132843   4.551   4.409   5.698
10648SOL    HW232844   4.674   4.431   5.593
10649SOL     OW32845   6.111   3.168   3.013
10649SOL    HW132846   6.066   3.250   3.047
10649SOL    HW232847   6.100   3.163   2.913
10650SOL     OW32848   0.819   0.058   3.611
10650SOL    HW132849   0.886   0.001   3.659
10650SOL    HW232850   0.773   0.118   3.676
10651SOL     OW32851   3.074   6.200   5.974
10651SOL    HW132852   3.163   6.242   5.958
10651SOL    HW232853   3.035   6.234   6.060
10652SOL     OW32854   1.897   0.386   0.620
10652SOL    HW132855   1.939   0.474   0.596
10652SOL    HW232856   1.896   0.327   0.540
10653SOL     OW32857   4.689   5.887   4.305
10653SOL    HW132858   4.668   5.834   4.222
10653SOL    HW232859   4.756   5.837   4.360
10654SOL     OW32860   5.976   1.698   4.311
10654SOL    HW132861   6.026   1.624   4.357
10654SOL    HW232862   5.998   1.698   4.214
10655SOL     OW32863   0.106   4.537   1.986
10655SOL    HW132864   0.192   4.519   1.939
10655SOL    HW232865   0.059   4.451   2.004
10656SOL     OW32866   5.914   2.529   3.844
10656SOL    HW132867   5.903   2.455   3.778
10656SOL    HW232868   5.833   2.534   3.902
10657SOL     OW32869   4.706   6.757   4.260
10657SOL    HW132870   4.636   6.715   4.318
10657SOL    HW232871   4.731   6.693   4.187
10658SOL     OW32872   0.745   2.775   5.362
10658SOL    HW132873   0.745   2.678   5.339
10658SOL    HW232874   0.662   2.797   5.414
10659SOL     OW32875   0.671   5.924   0.690
10659SOL    HW132876   0.681   5.944   0.788
10659SOL    HW232877   0.704   6.002   0.637
10660SOL     OW32878   5.500   2.982   5.381
10660SOL    HW132879   5.595   2.958   5.359
10660SOL    HW232880   5.481   3.074   5.346
10661SOL     OW32881   2.793   4.897   5.509
10661SOL    HW132882   2.843   4.969   5.462
10661SOL    HW232883   2.733   4.938   5.578
10662SOL     OW32884   2.249   1.128   1.679
10662SOL    HW132885   2.268   1.111   1.776
10662SOL    HW232886   2.151   1.121   1.662
10663SOL     OW32887   1.021   1.737   3.405
10663SOL    HW132888   1.091   1.808   3.392
10663SOL    HW232889   0.994   1.735   3.501
10664SOL     OW32890   0.777   5.142   4.943
10664SOL    HW132891   0.825   5.122   5.028
10664SOL    HW232892   0.834   5.115   4.866
10665SOL     OW32893   2.950   3.306   0.001
10665SOL    HW132894   2.936   3.226   6.963
10665SOL    HW232895   3.028   3.359   6.987
10666SOL     OW32896   3.461   4.209   1.282
10666SOL    HW132897   3.395   4.153   1.332
10666SOL    HW232898   3.533   4.240   1.345
10667SOL     OW32899   5.083   2.414   3.375
10667SOL    HW132900   5.150   2.458   3.435
10667SOL    HW232901   5.043   2.335   3.422
10668SOL     OW32902   3.212   2.951   5.760
10668SOL    HW132903   3.160   3.035   5.773
10668SOL    HW232904   3.246   2.947   5.666
10669SOL     OW32905   5.345   1.629   1.821
10669SOL    HW132906   5.401   1.555   1.784
10669SOL    HW232907   5.277   1.657   1.752
10670SOL     OW32908   4.922   3.862   4.684
10670SOL    HW132909   5.004   3.891   4.635
10670SOL    HW232910   4.842   3.905   4.642
10671SOL     OW32911   1.608   3.328   4.887
10671SOL    HW132912   1.602   3.370   4.978
10671SOL    HW232913   1.696   3.281   4.879
10672SOL     OW32914   5.791   3.456   1.879
10672SOL    HW132915   5.796   3.551   1.911
10672SOL    HW232916   5.829   3.396   1.949
10673SOL     OW32917   2.124   1.438   1.067
10673SOL    HW132918   2.114   1.376   0.988
10673SOL    HW232919   2.086   1.527   1.044
10674SOL     OW32920   3.832   3.995   3.453
10674SOL    HW132921   3.907   4.022   3.391
10674SOL    HW232922   3.752   4.051   3.434
10675SOL     OW32923   3.850   6.659   5.304
10675SOL    HW132924   3.766   6.639   5.354
10675SOL    HW232925   3.902   6.574   5.289
10676SOL     OW32926   1.319   0.429   5.492
10676SOL    HW132927   1.281   0.475   5.411
10676SOL    HW232928   1.249   0.370   5.533
10677SOL     OW32929   0.306   1.397   0.500
10677SOL    HW132930   0.305   1.400   0.400
10677SOL    HW232931   0.390   1.441   0.533
10678SOL     OW32932   4.069   5.714   3.235
10678SOL    HW132933   3.977   5.683   3.212
10678SOL    HW232934   4.127   5.709   3.153
10679SOL     OW32935   4.462   3.568   6.602
10679SOL    HW132936   4.473   3.509   6.522
10679SOL    HW232937   4.545   3.565   6.658
10680SOL     OW32938   4.247   1.269   4.245
10680SOL    HW132939   4.304   1.199   4.287
10680SOL    HW232940   4.220   1.336   4.314
10681SOL     OW32941   1.506   2.749   5.104
10681SOL    HW132942   1.560   2.820   5.150
10681SOL    HW232943   1.558   2.713   5.027
10682SOL     OW32944   4.885   3.268   6.180
10682SOL    HW132945   4.958   3.330   6.151
10682SOL    HW232946   4.904   3.237   6.273
10683SOL     OW32947   2.755   0.313   3.989
10683SOL    HW132948   2.733   0.293   3.893
10683SOL    HW232949   2.833   0.375   3.993
10684SOL     OW32950   4.323   4.837   2.166
10684SOL    HW132951   4.338   4.796   2.075
10684SOL    HW232952   4.405   4.888   2.192
10685SOL     OW32953   0.725   6.196   1.454
10685SOL    HW132954   0.691   6.106   1.482
10685SOL    HW232955   0.719   6.259   1.531
10686SOL     OW32956   3.109   1.244   6.650
10686SOL    HW132957   3.111   1.251   6.550
10686SOL    HW232958   3.101   1.149   6.678
10687SOL     OW32959   0.566   3.855   3.260
10687SOL    HW132960   0.486   3.910   3.237
10687SOL    HW232961   0.620   3.838   3.177
10688SOL     OW32962   4.933   1.845   2.343
10688SOL    HW132963   4.922   1.882   2.251
10688SOL    HW232964   4.844   1.817   2.379
10689SOL     OW32965   0.071   0.255   2.967
10689SOL    HW132966   0.135   0.179   2.972
10689SOL    HW232967   0.119   0.340   2.989
10690SOL     OW32968   0.167   6.890   4.163
10690SOL    HW132969   0.112   6.936   4.233
10690SOL    HW232970   0.257   6.866   4.201
10691SOL     OW32971   3.203   0.276   2.738
10691SOL    HW132972   3.255   0.262   2.822
10691SOL    HW232973   3.224   0.202   2.674
10692SOL     OW32974   2.099   0.779   4.239
10692SOL    HW132975   2.078   0.791   4.142
10692SOL    HW232976   2.129   0.866   4.278
10693SOL     OW32977   1.631   5.087   0.440
10693SOL    HW132978   1.695   5.079   0.364
10693SOL    HW232979   1.656   5.166   0.496
10694SOL     OW32980   4.598   6.666   5.523
10694SOL    HW132981   4.636   6.661   5.431
10694SOL    HW232982   4.655   6.613   5.586
10695SOL     OW32983   5.857   3.952   1.953
10695SOL    HW132984   5.932   3.952   1.887
10695SOL    HW232985   5.779   4.001   1.915
10696SOL     OW32986   6.703   4.961   4.385
10696SOL    HW132987   6.772   4.888   4.388
10696SOL    HW232988   6.675   4.983   4.478
10697SOL     OW32989   1.520   5.342   5.359
10697SOL    HW132990   1.544   5.265   5.300
10697SOL    HW232991   1.520   5.313   5.454
10698SOL     OW32992   4.543   2.915   0.288
10698SOL    HW132993   4.602   2.987   0.251
10698SOL    HW232994   4.600   2.840   0.321
10699SOL     OW32995   3.232   3.148   0.083
10699SOL    HW132996   3.181   3.063   0.088
10699SOL    HW232997   3.280   3.164   0.170
10700SOL     OW32998   5.149   1.137   1.639
10700SOL    HW132999   5.050   1.124   1.646
10700SOL    HW233000   5.174   1.146   1.542
10701SOL     OW33001   2.892   0.601   6.205
10701SOL    HW133002   2.953   0.594   6.284
10701SOL    HW233003   2.861   0.695   6.194
10702SOL     OW33004   6.038   2.332   1.964
10702SOL    HW133005   5.948   2.375   1.972
10702SOL    HW233006   6.082   2.329   2.054
10703SOL     OW33007   1.075   2.852   6.266
10703SOL    HW133008   1.058   2.929   6.327
10703SOL    HW233009   1.055   2.879   6.172
10704SOL     OW33010   6.007   6.911   1.357
10704SOL    HW133011   6.050   6.937   1.271
10704SOL    HW233012   5.987   6.813   1.356
10705SOL     OW33013   5.513   4.466   1.742
10705SOL    HW133014   5.443   4.395   1.743
10705SOL    HW233015   5.594   4.432   1.695
10706SOL     OW33016   4.737   0.414   1.504
10706SOL    HW133017   4.691   0.482   1.447
10706SOL    HW233018   4.700   0.323   1.482
10707SOL     OW33019   5.939   0.492   4.261
10707SOL    HW133020   5.968   0.454   4.349
10707SOL    HW233021   5.860   0.551   4.274
10708SOL     OW33022   4.253   1.570   2.198
10708SOL    HW133023   4.160   1.562   2.234
10708SOL    HW233024   4.310   1.618   2.264
10709SOL     OW33025   5.961   4.907   4.012
10709SOL    HW133026   5.932   4.913   4.107
10709SOL    HW233027   6.037   4.969   3.996
10710SOL     OW33028   4.924   1.097   3.341
10710SOL    HW133029   4.904   1.002   3.363
10710SOL    HW233030   4.842   1.153   3.355
10711SOL     OW33031   4.023   6.959   1.491
10711SOL    HW133032   3.941   7.008   1.460
10711SOL    HW233033   4.092   0.005   1.521
10712SOL     OW33034   4.881   6.620   2.824
10712SOL    HW133035   4.897   6.645   2.728
10712SOL    HW233036   4.861   6.702   2.877
10713SOL     OW33037   1.414   4.010   1.211
10713SOL    HW133038   1.414   4.109   1.218
10713SOL    HW233039   1.343   3.981   1.146
10714SOL     OW33040   3.650   3.835   4.346
10714SOL    HW133041   3.697   3.842   4.434
10714SOL    HW233042   3.570   3.776   4.355
10715SOL     OW33043   6.058   1.029   2.413
10715SOL    HW133044   6.123   1.097   2.378
10715SOL    HW233045   6.105   0.966   2.475
10716SOL     OW33046   5.944   2.018   3.292
10716SOL    HW133047   5.944   1.958   3.372
10716SOL    HW233048   6.037   2.028   3.257
10717SOL     OW33049   1.285   2.549   6.929
10717SOL    HW133050   1.217   2.557   6.856
10717SOL    HW233051   1.352   2.479   6.904
10718SOL     OW33052   1.183   4.909   5.424
10718SOL    HW133053   1.187   5.003   5.391
10718SOL    HW233054   1.266   4.860   5.397
10719SOL     OW33055   6.356   5.772   4.616
10719SOL    HW133056   6.369   5.872   4.618
10719SOL    HW233057   6.436   5.729   4.574
10720SOL     OW33058   6.158   5.499   3.847
10720SOL    HW133059   6.058   5.503   3.840
10720SOL    HW233060   6.184   5.501   3.944
10721SOL     OW33061   5.064   3.654   5.260
10721SOL    HW133062   5.103   3.746   5.249
10721SOL    HW233063   5.095   3.596   5.185
10722SOL     OW33064   6.972   3.925   5.913
10722SOL    HW133065   7.004   4.019   5.897
10722SOL    HW233066   7.004   3.894   6.002
10723SOL     OW33067   6.699   0.272   0.376
10723SOL    HW133068   6.631   0.270   0.449
10723SOL    HW233069   6.765   0.198   0.389
10724SOL     OW33070   6.500   6.806   0.636
10724SOL    HW133071   6.490   6.733   0.568
10724SOL    HW233072   6.412   6.823   0.680
10725SOL     OW33073   2.585   5.611   5.425
10725SOL    HW133074   2.500   5.580   5.382
10725SOL    HW233075   2.642   5.533   5.449
10726SOL     OW33076   4.636   0.501   4.192
10726SOL    HW133077   4.574   0.567   4.234
10726SOL    HW233078   4.584   0.422   4.160
10727SOL     OW33079   1.518   5.834   5.762
10727SOL    HW133080   1.496   5.842   5.860
10727SOL    HW233081   1.499   5.741   5.731
10728SOL     OW33082   6.409   5.391   0.818
10728SOL    HW133083   6.424   5.339   0.902
10728SOL    HW233084   6.420   5.488   0.836
10729SOL     OW33085   6.986   2.748   1.127
10729SOL    HW133086   6.916   2.702   1.181
10729SOL    HW233087   6.960   2.746   1.031
10730SOL     OW33088   4.503   0.016   1.894
10730SOL    HW133089   4.565   0.039   1.818
10730SOL    HW233090   4.454   0.097   1.923
10731SOL     OW33091   4.101   1.455   0.739
10731SOL    HW133092   4.014   1.503   0.755
10731SOL    HW233093   4.084   1.357   0.737
10732SOL     OW33094   0.912   5.117   5.166
10732SOL    HW133095   0.999   5.160   5.188
10732SOL    HW233096   0.855   5.113   5.249
10733SOL     OW33097   5.801   2.651   6.701
10733SOL    HW133098   5.896   2.631   6.726
10733SOL    HW233099   5.761   2.570   6.659
10734SOL     OW33100   0.421   1.909   1.599
10734SOL    HW133101   0.344   1.919   1.662
10734SOL    HW233102   0.495   1.969   1.628
10735SOL     OW33103   0.510   3.453   2.002
10735SOL    HW133104   0.454   3.440   2.084
10735SOL    HW233105   0.569   3.373   1.989
10736SOL     OW33106   3.321   6.958   3.530
10736SOL    HW133107   3.371   6.929   3.611
10736SOL    HW233108   3.289   0.032   3.542
10737SOL     OW33109   0.120   2.880   1.361
10737SOL    HW133110   0.028   2.875   1.321
10737SOL    HW233111   0.114   2.915   1.455
10738SOL     OW33112   4.449   0.860   2.634
10738SOL    HW133113   4.372   0.796   2.628
10738SOL    HW233114   4.516   0.839   2.562
10739SOL     OW33115   2.230   2.513   1.816
10739SOL    HW133116   2.161   2.585   1.825
10739SOL    HW233117   2.299   2.525   1.888
10740SOL     OW33118   4.845   4.477   4.260
10740SOL    HW133119   4.841   4.550   4.192
10740SOL    HW233120   4.927   4.487   4.316
10741SOL     OW33121   3.702   0.946   2.437
10741SOL    HW133122   3.774   0.978   2.498
10741SOL    HW233123   3.661   0.863   2.474
10742SOL     OW33124   5.570   5.393   0.830
10742SOL    HW133125   5.494   5.342   0.788
10742SOL    HW233126   5.657   5.358   0.795
10743SOL     OW33127   2.287   1.868   3.932
10743SOL    HW133128   2.192   1.859   3.905
10743SOL    HW233129   2.292   1.885   4.031
10744SOL     OW33130   3.599   2.636   0.945
10744SOL    HW133131   3.583   2.717   1.002
10744SOL    HW233132   3.557   2.556   0.989
10745SOL     OW33133   0.053   5.862   5.903
10745SOL    HW133134   0.013   5.951   5.883
10745SOL    HW233135   0.150   5.872   5.922
10746SOL     OW33136   0.328   4.194   5.075
10746SOL    HW133137   0.313   4.095   5.082
10746SOL    HW233138   0.353   4.230   5.165
10747SOL     OW33139   3.085   0.841   4.725
10747SOL    HW133140   3.167   0.801   4.684
10747SOL    HW233141   3.082   0.939   4.706
10748SOL     OW33142   4.916   0.811   1.928
10748SOL    HW133143   5.014   0.830   1.923
10748SOL    HW233144   4.900   0.713   1.921
10749SOL     OW33145   1.919   6.515   4.434
10749SOL    HW133146   1.933   6.418   4.414
10749SOL    HW233147   1.965   6.537   4.521
10750SOL     OW33148   3.929   0.939   5.289
10750SOL    HW133149   3.880   0.941   5.376
10750SOL    HW233150   3.882   0.878   5.225
10751SOL     OW33151   2.292   4.687   4.433
10751SOL    HW133152   2.267   4.605   4.485
10751SOL    HW233153   2.336   4.753   4.494
10752SOL     OW33154   5.549   5.000   4.637
10752SOL    HW133155   5.613   5.000   4.714
10752SOL    HW233156   5.487   4.923   4.645
10753SOL     OW33157   0.163   3.057   3.905
10753SOL    HW133158   0.189   3.047   3.809
10753SOL    HW233159   0.245   3.075   3.960
10754SOL     OW33160   1.718   0.468   3.290
10754SOL    HW133161   1.746   0.494   3.197
10754SOL    HW233162   1.645   0.401   3.285
10755SOL     OW33163   6.380   6.337   1.600
10755SOL    HW133164   6.357   6.387   1.517
10755SOL    HW233165   6.328   6.375   1.677
10756SOL     OW33166   6.596   6.889   5.158
10756SOL    HW133167   6.520   6.824   5.153
10756SOL    HW233168   6.564   6.981   5.137
10757SOL     OW33169   2.132   3.029   0.502
10757SOL    HW133170   2.095   2.939   0.523
10757SOL    HW233171   2.093   3.063   0.417
10758SOL     OW33172   0.765   5.909   3.543
10758SOL    HW133173   0.669   5.911   3.515
10758SOL    HW233174   0.771   5.889   3.640
10759SOL     OW33175   0.744   2.540   0.355
10759SOL    HW133176   0.767   2.626   0.309
10759SOL    HW233177   0.793   2.535   0.443
10760SOL     OW33178   5.997   1.284   3.573
10760SOL    HW133179   5.952   1.238   3.497
10760SOL    HW233180   5.947   1.367   3.597
10761SOL     OW33181   2.467   4.988   5.305
10761SOL    HW133182   2.384   4.943   5.273
10761SOL    HW233183   2.542   4.970   5.241
10762SOL     OW33184   3.228   0.300   4.557
10762SOL    HW133185   3.160   0.369   4.532
10762SOL    HW233186   3.192   0.244   4.631
10763SOL     OW33187   3.986   0.754   3.015
10763SOL    HW133188   4.002   0.699   3.097
10763SOL    HW233189   3.895   0.795   3.021
10764SOL     OW33190   4.985   0.931   3.917
10764SOL    HW133191   5.019   0.893   3.831
10764SOL    HW233192   5.062   0.957   3.975
10765SOL     OW33193   4.952   3.335   1.345
10765SOL    HW133194   4.958   3.351   1.444
10765SOL    HW233195   5.027   3.275   1.317
10766SOL     OW33196   3.394   3.139   1.150
10766SOL    HW133197   3.345   3.074   1.208
10766SOL    HW233198   3.352   3.229   1.157
10767SOL     OW33199   2.287   0.666   1.516
10767SOL    HW133200   2.238   0.748   1.486
10767SOL    HW233201   2.386   0.683   1.509
10768SOL     OW33202   6.509   4.519   0.838
10768SOL    HW133203   6.496   4.576   0.756
10768SOL    HW233204   6.459   4.558   0.915
10769SOL     OW33205   2.204   3.106   6.362
10769SOL    HW133206   2.143   3.029   6.380
10769SOL    HW233207   2.149   3.186   6.336
10770SOL     OW33208   4.870   6.183   3.043
10770SOL    HW133209   4.800   6.233   3.093
10770SOL    HW233210   4.827   6.130   2.970
10771SOL     OW33211   3.104   0.063   3.811
10771SOL    HW133212   3.184   0.123   3.811
10771SOL    HW233213   3.125   6.999   3.862
10772SOL     OW33214   6.144   5.760   3.529
10772SOL    HW133215   6.167   5.829   3.459
10772SOL    HW233216   6.190   5.784   3.615
10773SOL     OW33217   5.378   4.959   4.072
10773SOL    HW133218   5.299   4.930   4.019
10773SOL    HW233219   5.348   4.996   4.160
10774SOL     OW33220   1.451   1.022   4.365
10774SOL    HW133221   1.537   1.004   4.414
10774SOL    HW233222   1.458   0.985   4.272
10775SOL     OW33223   0.445   4.284   1.995
10775SOL    HW133224   0.445   4.382   1.980
10775SOL    HW233225   0.454   4.265   2.093
10776SOL     OW33226   2.015   0.149   6.965
10776SOL    HW133227   1.928   0.176   7.006
10776SOL    HW233228   2.042   0.218   6.897
10777SOL     OW33229   3.281   6.170   1.466
10777SOL    HW133230   3.217   6.141   1.394
10777SOL    HW233231   3.345   6.096   1.485
10778SOL     OW33232   5.763   6.295   3.539
10778SOL    HW133233   5.708   6.327   3.462
10778SOL    HW233234   5.730   6.205   3.568
10779SOL     OW33235   5.258   2.540   3.574
10779SOL    HW133236   5.312   2.605   3.521
10779SOL    HW233237   5.319   2.479   3.624
10780SOL     OW33238   1.026   1.295   3.210
10780SOL    HW133239   1.060   1.213   3.165
10780SOL    HW233240   0.977   1.351   3.144
10781SOL     OW33241   3.282   0.194   4.297
10781SOL    HW133242   3.212   0.207   4.227
10781SOL    HW233243   3.249   0.231   4.384
10782SOL     OW33244   6.209   6.228   4.669
10782SOL    HW133245   6.214   6.310   4.611
10782SOL    HW233246   6.289   6.171   4.654
10783SOL     OW33247   6.251   1.898   2.530
10783SOL    HW133248   6.269   1.816   2.476
10783SOL    HW233249   6.217   1.971   2.469
10784SOL     OW33250   2.710   1.321   3.995
10784SOL    HW133251   2.749   1.236   4.029
10784SOL    HW233252   2.732   1.395   4.059
10785SOL     OW33253   0.475   3.930   6.916
10785SOL    HW133254   0.540   4.003   6.899
10785SOL    HW233255   0.412   3.922   6.839
10786SOL     OW33256   6.917   5.739   3.287
10786SOL    HW133257   6.925   5.826   3.239
10786SOL    HW233258   6.823   5.727   3.319
10787SOL     OW33259   1.619   1.746   5.198
10787SOL    HW133260   1.594   1.684   5.272
10787SOL    HW233261   1.544   1.812   5.184
10788SOL     OW33262   6.289   4.021   6.158
10788SOL    HW133263   6.274   3.977   6.246
10788SOL    HW233264   6.227   4.099   6.148
10789SOL     OW33265   6.909   2.272   0.053
10789SOL    HW133266   6.878   2.255   0.146
10789SOL    HW233267   6.946   2.188   0.014
10790SOL     OW33268   0.079   0.063   2.210
10790SOL    HW133269   0.045   0.149   2.248
10790SOL    HW233270   0.177   0.070   2.193
10791SOL     OW33271   6.320   6.324   2.268
10791SOL    HW133272   6.334   6.269   2.186
10791SOL    HW233273   6.403   6.320   2.324
10792SOL     OW33274   4.026   3.860   5.034
10792SOL    HW133275   4.014   3.937   5.096
10792SOL    HW233276   4.013   3.890   4.939
10793SOL     OW33277   5.617   3.251   4.888
10793SOL    HW133278   5.712   3.219   4.885
10793SOL    HW233279   5.559   3.187   4.838
10794SOL     OW33280   3.196   3.595   3.918
10794SOL    HW133281   3.115   3.547   3.884
10794SOL    HW233282   3.277   3.561   3.869
10795SOL     OW33283   1.097   4.351   3.052
10795SOL    HW133284   0.998   4.340   3.046
10795SOL    HW233285   1.137   4.269   3.092
10796SOL     OW33286   1.271   5.840   4.654
10796SOL    HW133287   1.319   5.897   4.721
10796SOL    HW233288   1.206   5.895   4.603
10797SOL     OW33289   3.475   2.987   0.689
10797SOL    HW133290   3.498   3.078   0.722
10797SOL    HW233291   3.555   2.947   0.643
10798SOL     OW33292   1.182   1.581   1.080
10798SOL    HW133293   1.195   1.665   1.026
10798SOL    HW233294   1.147   1.605   1.170
10799SOL     OW33295   4.291   1.119   2.209
10799SOL    HW133296   4.210   1.117   2.151
10799SOL    HW233297   4.288   1.200   2.268
10800SOL     OW33298   0.989   6.661   0.223
10800SOL    HW133299   0.965   6.564   0.225
10800SOL    HW233300   0.998   6.696   0.316
10801SOL     OW33301   1.752   1.221   1.345
10801SOL    HW133302   1.780   1.207   1.250
10801SOL    HW233303   1.745   1.132   1.391
10802SOL     OW33304   6.367   7.007   3.628
10802SOL    HW133305   6.382   6.957   3.543
10802SOL    HW233306   6.381   6.945   3.706
10803SOL     OW33307   2.013   5.260   6.298
10803SOL    HW133308   2.093   5.269   6.239
10803SOL    HW233309   1.996   5.163   6.317
10804SOL     OW33310   0.023   3.055   3.540
10804SOL    HW133311   0.064   3.146   3.550
10804SOL    HW233312   6.974   3.043   3.611
10805SOL     OW33313   6.168   0.889   5.669
10805SOL    HW133314   6.212   0.946   5.600
10805SOL    HW233315   6.140   0.802   5.628
10806SOL     OW33316   1.829   4.844   6.798
10806SOL    HW133317   1.912   4.795   6.824
10806SOL    HW233318   1.752   4.809   6.851
10807SOL     OW33319   2.434   6.156   3.854
10807SOL    HW133320   2.518   6.128   3.901
10807SOL    HW233321   2.381   6.218   3.913
10808SOL     OW33322   0.426   2.153   6.314
10808SOL    HW133323   0.483   2.075   6.288
10808SOL    HW233324   0.482   2.235   6.321
10809SOL     OW33325   2.346   5.581   4.874
10809SOL    HW133326   2.435   5.575   4.919
10809SOL    HW233327   2.274   5.564   4.941
10810SOL     OW33328   0.128   0.178   4.762
10810SOL    HW133329   0.146   0.100   4.821
10810SOL    HW233330   0.210   0.198   4.707
10811SOL     OW33331   4.908   5.560   5.110
10811SOL    HW133332   4.991   5.611   5.133
10811SOL    HW233333   4.929   5.462   5.107
10812SOL     OW33334   6.815   2.545   6.466
10812SOL    HW133335   6.844   2.640   6.483
10812SOL    HW233336   6.885   2.482   6.500
10813SOL     OW33337   0.091   3.845   6.146
10813SOL    HW133338   0.088   3.856   6.245
10813SOL    HW233339   0.157   3.909   6.107
10814SOL     OW33340   2.320   0.752   1.001
10814SOL    HW133341   2.376   0.764   1.083
10814SOL    HW233342   2.226   0.731   1.027
10815SOL     OW33343   4.755   1.362   4.247
10815SOL    HW133344   4.702   1.297   4.193
10815SOL    HW233345   4.836   1.316   4.285
10816SOL     OW33346   3.529   3.113   3.412
10816SOL    HW133347   3.534   3.199   3.361
10816SOL    HW233348   3.603   3.053   3.384
10817SOL     OW33349   2.595   6.776   3.223
10817SOL    HW133350   2.638   6.693   3.187
10817SOL    HW233351   2.564   6.760   3.316
10818SOL     OW33352   4.479   5.092   5.965
10818SOL    HW133353   4.499   5.187   5.990
10818SOL    HW233354   4.519   5.031   6.033
10819SOL     OW33355   6.570   5.321   6.468
10819SOL    HW133356   6.552   5.280   6.379
10819SOL    HW233357   6.662   5.361   6.468
10820SOL     OW33358   2.551   4.639   6.030
10820SOL    HW133359   2.582   4.734   6.037
10820SOL    HW233360   2.556   4.609   5.934
10821SOL     OW33361   4.658   5.005   3.455
10821SOL    HW133362   4.716   5.071   3.409
10821SOL    HW233363   4.584   4.976   3.394
10822SOL     OW33364   5.762   2.616   1.371
10822SOL    HW133365   5.843   2.618   1.313
10822SOL    HW233366   5.690   2.672   1.330
10823SOL     OW33367   6.561   6.614   2.535
10823SOL    HW133368   6.581   6.528   2.488
10823SOL    HW233369   6.463   6.633   2.528
10824SOL     OW33370   1.117   1.923   4.315
10824SOL    HW133371   1.042   1.943   4.252
10824SOL    HW233372   1.115   1.988   4.391
10825SOL     OW33373   1.269   1.726   0.502
10825SOL    HW133374   1.189   1.668   0.487
10825SOL    HW233375   1.351   1.678   0.471
10826SOL     OW33376   1.081   2.523   2.578
10826SOL    HW133377   1.012   2.476   2.524
10826SOL    HW233378   1.157   2.550   2.518
10827SOL     OW33379   6.849   3.334   4.754
10827SOL    HW133380   6.851   3.264   4.826
10827SOL    HW233381   6.874   3.293   4.666
10828SOL     OW33382   6.053   4.952   5.776
10828SOL    HW133383   6.133   4.896   5.757
10828SOL    HW233384   5.992   4.902   5.838
10829SOL     OW33385   3.833   3.502   5.513
10829SOL    HW133386   3.892   3.422   5.523
10829SOL    HW233387   3.749   3.476   5.465
10830SOL     OW33388   4.594   1.007   3.662
10830SOL    HW133389   4.521   0.973   3.603
10830SOL    HW233390   4.616   0.937   3.730
10831SOL     OW33391   3.865   1.147   2.896
10831SOL    HW133392   3.842   1.238   2.863
10831SOL    HW233393   3.956   1.149   2.938
10832SOL     OW33394   0.028   3.332   6.996
10832SOL    HW133395   0.040   3.323   0.075
10832SOL    HW233396   0.088   3.404   6.961
10833SOL     OW33397   0.822   1.036   0.384
10833SOL    HW133398   0.884   0.973   0.337
10833SOL    HW233399   0.756   1.073   0.318
10834SOL     OW33400   6.850   6.494   0.912
10834SOL    HW133401   6.875   6.589   0.928
10834SOL    HW233402   6.804   6.457   0.992
10835SOL     OW33403   6.991   2.578   5.854
10835SOL    HW133404   7.014   2.495   5.905
10835SOL    HW233405   6.908   2.619   5.891
10836SOL     OW33406   6.905   1.481   3.663
10836SOL    HW133407   6.983   1.535   3.696
10836SOL    HW233408   6.834   1.479   3.733
10837SOL     OW33409   0.150   3.861   2.929
10837SOL    HW133410   0.236   3.887   2.974
10837SOL    HW233411   0.090   3.817   2.996
10838SOL     OW33412   6.648   5.706   3.347
10838SOL    HW133413   6.596   5.636   3.297
10838SOL    HW233414   6.589   5.785   3.363
10839SOL     OW33415   4.493   2.906   0.748
10839SOL    HW133416   4.477   2.972   0.674
10839SOL    HW233417   4.464   2.815   0.719
10840SOL     OW33418   2.927   0.802   0.855
10840SOL    HW133419   2.868   0.833   0.780
10840SOL    HW233420   2.880   0.728   0.905
10841SOL     OW33421   1.557   5.460   5.044
10841SOL    HW133422   1.608   5.397   4.987
10841SOL    HW233423   1.599   5.464   5.135
10842SOL     OW33424   5.234   4.153   0.619
10842SOL    HW133425   5.248   4.223   0.549
10842SOL    HW233426   5.241   4.195   0.710
10843SOL     OW33427   2.308   2.232   1.334
10843SOL    HW133428   2.267   2.207   1.421
10843SOL    HW233429   2.283   2.165   1.264
10844SOL     OW33430   1.261   5.487   5.034
10844SOL    HW133431   1.270   5.387   5.035
10844SOL    HW233432   1.349   5.528   5.013
10845SOL     OW33433   4.483   6.365   5.020
10845SOL    HW133434   4.496   6.266   5.020
10845SOL    HW233435   4.396   6.387   5.063
10846SOL     OW33436   5.029   0.339   0.593
10846SOL    HW133437   5.018   0.400   0.672
10846SOL    HW233438   4.997   0.247   0.617
10847SOL     OW33439   1.707   0.941   6.876
10847SOL    HW133440   1.733   0.972   6.785
10847SOL    HW233441   1.646   1.008   6.919
10848SOL     OW33442   1.373   4.440   1.702
10848SOL    HW133443   1.374   4.438   1.602
10848SOL    HW233444   1.416   4.524   1.734
10849SOL     OW33445   1.957   6.037   3.893
10849SOL    HW133446   1.960   6.012   3.796
10849SOL    HW233447   1.953   6.136   3.901
10850SOL     OW33448   3.270   6.066   0.202
10850SOL    HW133449   3.339   6.137   0.185
10850SOL    HW233450   3.270   6.000   0.127
10851SOL     OW33451   2.503   5.254   1.433
10851SOL    HW133452   2.533   5.349   1.443
10851SOL    HW233453   2.560   5.208   1.365
10852SOL     OW33454   2.022   1.659   1.360
10852SOL    HW133455   1.929   1.622   1.357
10852SOL    HW233456   2.025   1.744   1.307
10853SOL     OW33457   2.619   1.652   6.067
10853SOL    HW133458   2.637   1.744   6.103
10853SOL    HW233459   2.663   1.585   6.126
10854SOL     OW33460   3.937   6.176   5.822
10854SOL    HW133461   3.883   6.224   5.892
10854SOL    HW233462   4.034   6.177   5.849
10855SOL     OW33463   3.798   1.465   0.120
10855SOL    HW133464   3.725   1.524   0.154
10855SOL    HW233465   3.867   1.452   0.192
10856SOL     OW33466   0.630   0.792   0.225
10856SOL    HW133467   0.627   0.699   0.259
10856SOL    HW233468   0.537   0.823   0.204
10857SOL     OW33469   5.996   2.262   2.557
10857SOL    HW133470   5.970   2.347   2.603
10857SOL    HW233471   6.072   2.219   2.606
10858SOL     OW33472   2.785   6.034   1.672
10858SOL    HW133473   2.881   6.051   1.652
10858SOL    HW233474   2.737   6.121   1.685
10859SOL     OW33475   1.559   5.726   3.474
10859SOL    HW133476   1.572   5.725   3.573
10859SOL    HW233477   1.568   5.633   3.438
10860SOL     OW33478   7.013   2.051   3.431
10860SOL    HW133479   0.001   2.150   3.420
10860SOL    HW233480   6.924   2.021   3.397
10861SOL     OW33481   4.016   3.215   4.060
10861SOL    HW133482   4.029   3.192   3.963
10861SOL    HW233483   3.996   3.131   4.111
10862SOL     OW33484   1.402   0.519   4.659
10862SOL    HW133485   1.372   0.613   4.639
10862SOL    HW233486   1.410   0.468   4.573
10863SOL     OW33487   3.234   5.661   4.600
10863SOL    HW133488   3.146   5.709   4.594
10863SOL    HW233489   3.237   5.607   4.684
10864SOL     OW33490   3.257   6.144   2.838
10864SOL    HW133491   3.252   6.099   2.748
10864SOL    HW233492   3.198   6.225   2.838
10865SOL     OW33493   6.109   2.201   6.177
10865SOL    HW133494   6.106   2.275   6.245
10865SOL    HW233495   6.024   2.200   6.126
10866SOL     OW33496   5.598   4.648   0.404
10866SOL    HW133497   5.557   4.692   0.485
10866SOL    HW233498   5.528   4.639   0.333
10867SOL     OW33499   3.261   2.954   0.469
10867SOL    HW133500   3.283   3.041   0.513
10867SOL    HW233501   3.292   2.878   0.527
10868SOL     OW33502   3.116   1.802   2.779
10868SOL    HW133503   3.090   1.864   2.705
10868SOL    HW233504   3.063   1.824   2.861
10869NA      NA33505   6.791   2.285   5.717
10870NA      NA33506   4.225   4.675   5.183
10871NA      NA33507   2.333   3.591   1.426
10872NA      NA33508   4.855   3.585   5.281
10873NA      NA33509   4.173   2.330   5.285
10874NA      NA33510   3.742   4.635   1.626
10875NA      NA33511   6.597   5.871   5.644
10876NA      NA33512   4.034   3.623   5.071
10877NA      NA33513   4.653   6.905   0.045
10878NA      NA33514   3.893   6.854   5.199
10879NA      NA33515   6.689   4.696   2.716
10880NA      NA33516   2.478   0.731   3.174
10881NA      NA33517   3.299   4.347   0.793
10882NA      NA33518   3.540   3.736   2.808
   7.01995   7.01995   7.01995
