Generated by trjconv : CNT in water t= 103.00000
33518
    1C        C    1   2.847   2.768   4.749
    1C        C    2   2.903   2.722   4.870
    1C        C    3   2.845   2.771   4.988
    1C        C    4   2.854   2.778   4.264
    1C        C    5   2.905   2.731   4.387
    1C        C    6   2.842   2.766   4.508
    1C        C    7   3.013   2.635   4.627
    1C        C    8   2.898   2.716   4.628
    1C        C    9   3.079   2.603   4.748
    1C        C   10   3.013   2.633   4.869
    1C        C   11   3.185   2.489   4.976
    1C        C   12   3.068   2.566   4.979
    1C        C   13   2.853   2.772   3.776
    1C        C   14   2.903   2.722   3.898
    1C        C   15   2.851   2.773   4.020
    1C        C   16   3.018   2.643   4.142
    1C        C   17   2.904   2.726   4.142
    1C        C   18   3.081   2.610   4.264
    1C        C   19   3.022   2.651   4.386
    1C        C   20   3.211   2.554   4.505
    1C        C   21   3.080   2.606   4.506
    1C        C   22   3.282   2.533   4.626
    1C        C   23   3.212   2.551   4.747
    1C        C   24   3.416   2.479   4.865
    1C        C   25   3.274   2.503   4.865
    1C        C   26   3.492   2.470   4.982
    1C        C   27   2.849   2.764   3.284
    1C        C   28   2.904   2.720   3.407
    1C        C   29   2.855   2.770   3.530
    1C        C   30   3.018   2.639   3.652
    1C        C   31   2.906   2.726   3.653
    1C        C   32   3.076   2.602   3.775
    1C        C   33   3.020   2.644   3.898
    1C        C   34   3.213   2.556   4.020
    1C        C   35   3.083   2.611   4.020
    1C        C   36   3.281   2.536   4.142
    1C        C   37   3.213   2.560   4.264
    1C        C   38   3.422   2.514   4.382
    1C        C   39   3.282   2.537   4.384
    1C        C   40   3.490   2.499   4.505
    1C        C   41   3.418   2.495   4.626
    1C        C   42   3.634   2.482   4.744
    1C        C   43   3.491   2.475   4.745
    1C        C   44   3.709   2.485   4.864
    1C        C   45   3.631   2.477   4.980
    1C        C   46   2.835   2.750   2.799
    1C        C   47   2.892   2.704   2.920
    1C        C   48   2.839   2.754   3.041
    1C        C   49   3.018   2.637   3.165
    1C        C   50   2.900   2.714   3.162
    1C        C   51   3.082   2.602   3.286
    1C        C   52   3.018   2.637   3.408
    1C        C   53   3.209   2.548   3.531
    1C        C   54   3.078   2.600   3.530
    1C        C   55   3.277   2.529   3.654
    1C        C   56   3.208   2.552   3.775
    1C        C   57   3.416   2.506   3.896
    1C        C   58   3.279   2.537   3.896
    1C        C   59   3.489   2.501   4.017
    1C        C   60   3.419   2.509   4.140
    1C        C   61   3.633   2.496   4.260
    1C        C   62   3.492   2.500   4.261
    1C        C   63   3.704   2.505   4.382
    1C        C   64   3.632   2.505   4.503
    1C        C   65   3.838   2.550   4.626
    1C        C   66   3.705   2.504   4.624
    1C        C   67   3.907   2.571   4.747
    1C        C   68   3.843   2.529   4.865
    1C        C   69   4.054   2.592   4.982
    1C        C   70   3.925   2.538   4.979
    1C        C   71   2.828   2.736   2.311
    1C        C   72   2.886   2.694   2.433
    1C        C   73   2.838   2.746   2.555
    1C        C   74   3.006   2.622   2.677
    1C        C   75   2.888   2.699   2.678
    1C        C   76   3.075   2.596   2.798
    1C        C   77   3.013   2.631   2.920
    1C        C   78   3.209   2.549   3.040
    1C        C   79   3.077   2.600   3.042
    1C        C   80   3.277   2.528   3.162
    1C        C   81   3.213   2.549   3.286
    1C        C   82   3.416   2.499   3.404
    1C        C   83   3.277   2.526   3.409
    1C        C   84   3.485   2.497   3.527
    1C        C   85   3.416   2.503   3.650
    1C        C   86   3.627   2.501   3.773
    1C        C   87   3.486   2.498   3.773
    1C        C   88   3.699   2.507   3.895
    1C        C   89   3.630   2.503   4.018
    1C        C   90   3.839   2.551   4.139
    1C        C   91   3.704   2.510   4.138
    1C        C   92   3.907   2.571   4.261
    1C        C   93   3.839   2.548   4.383
    1C        C   94   4.030   2.643   4.502
    1C        C   95   3.904   2.579   4.504
    1C        C   96   4.096   2.676   4.623
    1C        C   97   4.035   2.634   4.743
    1C        C   98   4.196   2.768   4.864
    1C        C   99   4.099   2.663   4.866
    1C        C  100   4.214   2.844   4.981
    1C        C  101   2.823   2.732   2.072
    1C        C  102   2.992   2.594   2.191
    1C        C  103   2.880   2.682   2.190
    1C        C  104   3.063   2.573   2.312
    1C        C  105   2.999   2.609   2.433
    1C        C  106   3.200   2.537   2.552
    1C        C  107   3.067   2.585   2.555
    1C        C  108   3.271   2.520   2.673
    1C        C  109   3.205   2.541   2.796
    1C        C  110   3.414   2.499   2.916
    1C        C  111   3.275   2.526   2.918
    1C        C  112   3.485   2.489   3.038
    1C        C  113   3.415   2.499   3.161
    1C        C  114   3.629   2.502   3.282
    1C        C  115   3.488   2.494   3.282
    1C        C  116   3.696   2.513   3.405
    1C        C  117   3.626   2.501   3.527
    1C        C  118   3.831   2.549   3.649
    1C        C  119   3.696   2.509   3.650
    1C        C  120   3.896   2.576   3.771
    1C        C  121   3.835   2.545   3.895
    1C        C  122   4.029   2.638   4.014
    1C        C  123   3.902   2.576   4.015
    1C        C  124   4.092   2.672   4.135
    1C        C  125   4.031   2.638   4.258
    1C        C  126   4.199   2.768   4.380
    1C        C  127   4.091   2.676   4.380
    1C        C  128   4.247   2.824   4.500
    1C        C  129   4.200   2.772   4.622
    1C        C  130   4.333   2.935   4.744
    1C        C  131   4.255   2.816   4.744
    1C        C  132   4.363   3.003   4.864
    1C        C  133   4.296   2.956   4.978
    1C        C  134   3.176   2.480   2.083
    1C        C  135   3.040   2.512   2.083
    1C        C  136   3.262   2.481   2.193
    1C        C  137   3.196   2.523   2.311
    1C        C  138   3.407   2.489   2.427
    1C        C  139   3.267   2.506   2.432
    1C        C  140   3.481   2.488   2.548
    1C        C  141   3.411   2.498   2.670
    1C        C  142   3.622   2.498   2.793
    1C        C  143   3.481   2.493   2.792
    1C        C  144   3.695   2.503   2.914
    1C        C  145   3.626   2.495   3.036
    1C        C  146   3.835   2.539   3.158
    1C        C  147   3.697   2.506   3.158
    1C        C  148   3.900   2.567   3.280
    1C        C  149   3.833   2.550   3.402
    1C        C  150   4.023   2.637   3.525
    1C        C  151   3.897   2.573   3.526
    1C        C  152   4.082   2.675   3.648
    1C        C  153   4.022   2.640   3.771
    1C        C  154   4.199   2.763   3.891
    1C        C  155   4.088   2.675   3.891
    1C        C  156   4.248   2.813   4.013
    1C        C  157   4.200   2.763   4.137
    1C        C  158   4.344   2.920   4.256
    1C        C  159   4.254   2.811   4.258
    1C        C  160   4.380   2.987   4.375
    1C        C  161   4.338   2.932   4.498
    1C        C  162   4.442   3.116   4.620
    1C        C  163   4.373   2.993   4.621
    1C        C  164   4.467   3.185   4.741
    1C        C  165   4.435   3.124   4.864
    1C        C  166   4.513   3.323   4.975
    1C        C  167   4.481   3.188   4.980
    1C        C  168   3.479   2.438   2.075
    1C        C  169   3.401   2.455   2.190
    1C        C  170   3.621   2.473   2.307
    1C        C  171   3.479   2.469   2.307
    1C        C  172   3.694   2.493   2.426
    1C        C  173   3.622   2.497   2.547
    1C        C  174   3.828   2.541   2.668
    1C        C  175   3.690   2.511   2.670
    1C        C  176   3.896   2.564   2.790
    1C        C  177   3.832   2.538   2.914
    1C        C  178   4.028   2.624   3.033
    1C        C  179   3.901   2.561   3.035
    1C        C  180   4.085   2.665   3.155
    1C        C  181   4.028   2.628   3.279
    1C        C  182   4.198   2.751   3.401
    1C        C  183   4.087   2.665   3.402
    1C        C  184   4.244   2.809   3.522
    1C        C  185   4.194   2.761   3.645
    1C        C  186   4.339   2.916   3.766
    1C        C  187   4.249   2.807   3.766
    1C        C  188   4.379   2.976   3.888
    1C        C  189   4.339   2.921   4.012
    1C        C  190   4.443   3.106   4.129
    1C        C  191   4.382   2.979   4.133
    1C        C  192   4.472   3.174   4.250
    1C        C  193   4.444   3.113   4.374
    1C        C  194   4.501   3.316   4.494
    1C        C  195   4.468   3.179   4.497
    1C        C  196   4.520   3.388   4.615
    1C        C  197   4.510   3.321   4.738
    1C        C  198   4.550   3.538   4.850
    1C        C  199   4.533   3.396   4.857
    1C        C  200   4.577   3.622   4.963
    1C        C  201   3.618   2.420   2.075
    1C        C  202   3.831   2.511   2.185
    1C        C  203   3.697   2.462   2.187
    1C        C  204   3.902   2.542   2.304
    1C        C  205   3.833   2.520   2.425
    1C        C  206   4.022   2.619   2.544
    1C        C  207   3.898   2.551   2.546
    1C        C  208   4.083   2.659   2.665
    1C        C  209   4.022   2.626   2.788
    1C        C  210   4.199   2.745   2.911
    1C        C  211   4.084   2.664   2.909
    1C        C  212   4.250   2.797   3.032
    1C        C  213   4.198   2.751   3.155
    1C        C  214   4.331   2.914   3.275
    1C        C  215   4.247   2.800   3.277
    1C        C  216   4.367   2.976   3.396
    1C        C  217   4.331   2.921   3.521
    1C        C  218   4.437   3.102   3.641
    1C        C  219   4.376   2.975   3.643
    1C        C  220   4.462   3.171   3.762
    1C        C  221   4.438   3.104   3.885
    1C        C  222   4.503   3.308   4.005
    1C        C  223   4.466   3.171   4.006
    1C        C  224   4.509   3.381   4.125
    1C        C  225   4.497   3.313   4.248
    1C        C  226   4.517   3.525   4.369
    1C        C  227   4.508   3.384   4.370
    1C        C  228   4.523   3.599   4.489
    1C        C  229   4.528   3.529   4.611
    1C        C  230   4.498   3.745   4.732
    1C        C  231   4.537   3.609   4.727
    1C        C  232   4.493   3.824   4.849
    1C        C  233   4.546   3.758   4.961
    1C        C  234   4.014   2.617   2.064
    1C        C  235   3.893   2.548   2.065
    1C        C  236   4.083   2.652   2.181
    1C        C  237   4.026   2.612   2.303
    1C        C  238   4.206   2.733   2.423
    1C        C  239   4.089   2.652   2.423
    1C        C  240   4.252   2.788   2.544
    1C        C  241   4.196   2.744   2.666
    1C        C  242   4.334   2.905   2.789
    1C        C  243   4.252   2.791   2.787
    1C        C  244   4.375   2.965   2.910
    1C        C  245   4.335   2.910   3.034
    1C        C  246   4.441   3.097   3.151
    1C        C  247   4.378   2.971   3.154
    1C        C  248   4.461   3.165   3.273
    1C        C  249   4.433   3.101   3.396
    1C        C  250   4.491   3.306   3.515
    1C        C  251   4.457   3.168   3.518
    1C        C  252   4.507   3.374   3.637
    1C        C  253   4.494   3.308   3.762
    1C        C  254   4.525   3.519   3.882
    1C        C  255   4.514   3.378   3.883
    1C        C  256   4.521   3.592   4.003
    1C        C  257   4.518   3.522   4.126
    1C        C  258   4.495   3.735   4.245
    1C        C  259   4.516   3.596   4.247
    1C        C  260   4.471   3.804   4.367
    1C        C  261   4.495   3.738   4.490
    1C        C  262   4.427   3.944   4.605
    1C        C  263   4.476   3.811   4.609
    1C        C  264   4.401   4.016   4.723
    1C        C  265   4.437   3.953   4.844
    1C        C  266   4.330   4.138   4.961
    1C        C  267   4.398   4.017   4.963
    1C        C  268   4.262   2.779   2.064
    1C        C  269   4.199   2.733   2.181
    1C        C  270   4.348   2.890   2.300
    1C        C  271   4.256   2.782   2.300
    1C        C  272   4.380   2.955   2.422
    1C        C  273   4.339   2.900   2.545
    1C        C  274   4.446   3.085   2.662
    1C        C  275   4.372   2.964   2.666
    1C        C  276   4.477   3.151   2.783
    1C        C  277   4.445   3.087   2.905
    1C        C  278   4.503   3.294   3.027
    1C        C  279   4.468   3.157   3.025
    1C        C  280   4.512   3.368   3.147
    1C        C  281   4.495   3.302   3.271
    1C        C  282   4.520   3.514   3.392
    1C        C  283   4.505   3.374   3.392
    1C        C  284   4.515   3.585   3.514
    1C        C  285   4.515   3.515   3.637
    1C        C  286   4.488   3.726   3.755
    1C        C  287   4.517   3.588   3.759
    1C        C  288   4.481   3.797   3.877
    1C        C  289   4.498   3.731   4.001
    1C        C  290   4.431   3.935   4.119
    1C        C  291   4.479   3.802   4.122
    1C        C  292   4.402   4.002   4.240
    1C        C  293   4.423   3.936   4.363
    1C        C  294   4.327   4.130   4.480
    1C        C  295   4.393   4.005   4.483
    1C        C  296   4.285   4.191   4.601
    1C        C  297   4.326   4.137   4.724
    1C        C  298   4.200   4.316   4.842
    1C        C  299   4.282   4.199   4.844
    1C        C  300   4.171   4.405   4.950
    1C        C  301   4.349   2.887   2.064
    1C        C  302   4.472   3.071   2.179
    1C        C  303   4.395   2.951   2.180
    1C        C  304   4.486   3.142   2.301
    1C        C  305   4.446   3.080   2.422
    1C        C  306   4.513   3.287   2.540
    1C        C  307   4.476   3.151   2.540
    1C        C  308   4.521   3.357   2.662
    1C        C  309   4.510   3.288   2.785
    1C        C  310   4.518   3.504   2.902
    1C        C  311   4.517   3.363   2.905
    1C        C  312   4.518   3.578   3.023
    1C        C  313   4.517   3.509   3.146
    1C        C  314   4.488   3.720   3.264
    1C        C  315   4.517   3.581   3.267
    1C        C  316   4.466   3.788   3.386
    1C        C  317   4.493   3.724   3.509
    1C        C  318   4.426   3.926   3.631
    1C        C  319   4.476   3.793   3.631
    1C        C  320   4.396   3.990   3.753
    1C        C  321   4.432   3.929   3.876
    1C        C  322   4.320   4.113   3.996
    1C        C  323   4.397   3.995   3.996
    1C        C  324   4.280   4.174   4.117
    1C        C  325   4.327   4.122   4.240
    1C        C  326   4.192   4.292   4.356
    1C        C  327   4.289   4.190   4.358
    1C        C  328   4.139   4.345   4.476
    1C        C  329   4.190   4.296   4.598
    1C        C  330   4.028   4.440   4.716
    1C        C  331   4.141   4.354   4.718
    1C        C  332   3.973   4.495   4.834
    1C        C  333   4.056   4.484   4.946
    1C        C  334   4.554   3.269   2.068
    1C        C  335   4.533   3.131   2.064
    1C        C  336   4.536   3.351   2.180
    1C        C  337   4.520   3.280   2.301
    1C        C  338   4.526   3.498   2.415
    1C        C  339   4.527   3.357   2.419
    1C        C  340   4.519   3.569   2.538
    1C        C  341   4.529   3.498   2.660
    1C        C  342   4.496   3.713   2.776
    1C        C  343   4.514   3.573   2.779
    1C        C  344   4.482   3.785   2.896
    1C        C  345   4.497   3.718   3.019
    1C        C  346   4.424   3.919   3.140
    1C        C  347   4.476   3.787   3.141
    1C        C  348   4.395   3.983   3.262
    1C        C  349   4.423   3.922   3.386
    1C        C  350   4.319   4.107   3.505
    1C        C  351   4.395   3.988   3.508
    1C        C  352   4.278   4.165   3.627
    1C        C  353   4.325   4.111   3.749
    1C        C  354   4.183   4.270   3.868
    1C        C  355   4.278   4.166   3.871
    1C        C  356   4.130   4.322   3.988
    1C        C  357   4.184   4.277   4.110
    1C        C  358   4.015   4.404   4.231
    1C        C  359   4.131   4.324   4.233
    1C        C  360   3.954   4.447   4.351
    1C        C  361   4.019   4.419   4.474
    1C        C  362   3.829   4.516   4.595
    1C        C  363   3.961   4.465   4.594
    1C        C  364   3.762   4.548   4.715
    1C        C  365   3.840   4.542   4.833
    1C        C  366   3.632   4.587   4.955
    1C        C  367   3.770   4.570   4.951
    1C        C  368   4.511   3.564   2.055
    1C        C  369   4.524   3.492   2.174
    1C        C  370   4.501   3.708   2.289
    1C        C  371   4.521   3.568   2.293
    1C        C  372   4.486   3.779   2.410
    1C        C  373   4.502   3.709   2.532
    1C        C  374   4.431   3.912   2.648
    1C        C  375   4.482   3.780   2.652
    1C        C  376   4.402   3.978   2.769
    1C        C  377   4.431   3.917   2.893
    1C        C  378   4.325   4.101   3.011
    1C        C  379   4.402   3.982   3.015
    1C        C  380   4.283   4.157   3.133
    1C        C  381   4.322   4.104   3.258
    1C        C  382   4.180   4.261   3.378
    1C        C  383   4.280   4.162   3.381
    1C        C  384   4.126   4.311   3.499
    1C        C  385   4.182   4.268   3.622
    1C        C  386   4.015   4.397   3.745
    1C        C  387   4.132   4.316   3.745
    1C        C  388   3.948   4.430   3.865
    1C        C  389   4.010   4.398   3.988
    1C        C  390   3.820   4.490   4.111
    1C        C  391   3.951   4.436   4.110
    1C        C  392   3.753   4.515   4.233
    1C        C  393   3.824   4.502   4.354
    1C        C  394   3.617   4.555   4.478
    1C        C  395   3.757   4.533   4.475
    1C        C  396   3.547   4.566   4.600
    1C        C  397   3.623   4.572   4.719
    1C        C  398   3.412   4.550   4.839
    1C        C  399   3.551   4.575   4.841
    1C        C  400   3.343   4.519   4.957
    1C        C  401   4.504   3.703   2.050
    1C        C  402   4.456   3.916   2.166
    1C        C  403   4.488   3.778   2.167
    1C        C  404   4.420   3.980   2.286
    1C        C  405   4.442   3.914   2.409
    1C        C  406   4.328   4.099   2.526
    1C        C  407   4.404   3.979   2.527
    1C        C  408   4.284   4.154   2.649
    1C        C  409   4.328   4.099   2.771
    1C        C  410   4.179   4.256   2.890
    1C        C  411   4.281   4.159   2.890
    1C        C  412   4.125   4.300   3.013
    1C        C  413   4.182   4.256   3.134
    1C        C  414   4.007   4.380   3.253
    1C        C  415   4.128   4.306   3.255
    1C        C  416   3.945   4.413   3.376
    1C        C  417   4.006   4.385   3.500
    1C        C  418   3.818   4.474   3.621
    1C        C  419   3.951   4.426   3.623
    1C        C  420   3.751   4.499   3.743
    1C        C  421   3.818   4.486   3.867
    1C        C  422   3.613   4.532   3.990
    1C        C  423   3.754   4.516   3.989
    1C        C  424   3.542   4.539   4.112
    1C        C  425   3.614   4.540   4.233
    1C        C  426   3.404   4.550   4.357
    1C        C  427   3.546   4.554   4.356
    1C        C  428   3.335   4.548   4.480
    1C        C  429   3.406   4.557   4.601
    1C        C  430   3.195   4.515   4.726
    1C        C  431   3.334   4.548   4.722
    1C        C  432   3.127   4.493   4.849
    1C        C  433   3.206   4.495   4.964
    1C        C  434   4.389   4.126   2.052
    1C        C  435   4.451   4.000   2.054
    1C        C  436   4.310   4.165   2.164
    1C        C  437   4.342   4.099   2.286
    1C        C  438   4.184   4.253   2.403
    1C        C  439   4.285   4.154   2.403
    1C        C  440   4.127   4.297   2.524
    1C        C  441   4.181   4.250   2.646
    1C        C  442   4.008   4.379   2.766
    1C        C  443   4.125   4.299   2.766
    1C        C  444   3.945   4.412   2.888
    1C        C  445   4.006   4.376   3.010
    1C        C  446   3.815   4.470   3.130
    1C        C  447   3.945   4.415   3.131
    1C        C  448   3.748   4.488   3.253
    1C        C  449   3.814   4.465   3.376
    1C        C  450   3.612   4.525   3.500
    1C        C  451   3.749   4.491   3.499
    1C        C  452   3.545   4.536   3.624
    1C        C  453   3.613   4.530   3.747
    1C        C  454   3.401   4.542   3.864
    1C        C  455   3.542   4.539   3.869
    1C        C  456   3.334   4.536   3.988
    1C        C  457   3.401   4.542   4.113
    1C        C  458   3.195   4.504   4.239
    1C        C  459   3.334   4.529   4.236
    1C        C  460   3.129   4.484   4.363
    1C        C  461   3.198   4.513   4.483
    1C        C  462   3.000   4.433   4.606
    1C        C  463   3.129   4.490   4.604
    1C        C  464   2.934   4.399   4.727
    1C        C  465   2.993   4.442   4.849
    1C        C  466   2.799   4.345   4.963
    1C        C  467   2.908   4.434   4.963
    1C        C  468   4.126   4.285   2.046
    1C        C  469   4.194   4.249   2.163
    1C        C  470   4.013   4.377   2.281
    1C        C  471   4.133   4.301   2.281
    1C        C  472   3.943   4.405   2.401
    1C        C  473   4.005   4.369   2.523
    1C        C  474   3.813   4.462   2.645
    1C        C  475   3.943   4.408   2.644
    1C        C  476   3.747   4.491   2.767
    1C        C  477   3.818   4.474   2.888
    1C        C  478   3.607   4.515   3.010
    1C        C  479   3.746   4.491   3.008
    1C        C  480   3.537   4.523   3.132
    1C        C  481   3.609   4.514   3.253
    1C        C  482   3.401   4.531   3.377
    1C        C  483   3.542   4.527   3.377
    1C        C  484   3.332   4.528   3.500
    1C        C  485   3.403   4.539   3.621
    1C        C  486   3.193   4.499   3.747
    1C        C  487   3.330   4.534   3.742
    1C        C  488   3.128   4.476   3.871
    1C        C  489   3.197   4.500   3.992
    1C        C  490   3.004   4.419   4.119
    1C        C  491   3.131   4.481   4.115
    1C        C  492   2.943   4.386   4.242
    1C        C  493   2.999   4.429   4.364
    1C        C  494   2.826   4.306   4.483
    1C        C  495   2.936   4.395   4.486
    1C        C  496   2.773   4.261   4.606
    1C        C  497   2.819   4.315   4.728
    1C        C  498   2.672   4.164   4.848
    1C        C  499   2.757   4.276   4.848
    1C        C  500   2.595   4.120   4.956
    1C        C  501   4.004   4.351   2.044
    1C        C  502   3.817   4.463   2.159
    1C        C  503   3.944   4.402   2.160
    1C        C  504   3.744   4.474   2.279
    1C        C  505   3.810   4.451   2.401
    1C        C  506   3.607   4.512   2.520
    1C        C  507   3.744   4.478   2.523
    1C        C  508   3.535   4.514   2.642
    1C        C  509   3.607   4.510   2.763
    1C        C  510   3.398   4.522   2.887
    1C        C  511   3.539   4.523   2.886
    1C        C  512   3.326   4.524   3.008
    1C        C  513   3.396   4.533   3.130
    1C        C  514   3.194   4.492   3.256
    1C        C  515   3.330   4.531   3.255
    1C        C  516   3.128   4.468   3.379
    1C        C  517   3.194   4.496   3.500
    1C        C  518   3.002   4.415   3.629
    1C        C  519   3.128   4.478   3.624
    1C        C  520   2.942   4.374   3.750
    1C        C  521   3.002   4.412   3.872
    1C        C  522   2.839   4.286   4.002
    1C        C  523   2.946   4.378   3.997
    1C        C  524   2.785   4.239   4.124
    1C        C  525   2.832   4.298   4.243
    1C        C  526   2.695   4.135   4.368
    1C        C  527   2.779   4.248   4.363
    1C        C  528   2.651   4.081   4.491
    1C        C  529   2.687   4.149   4.610
    1C        C  530   2.585   3.960   4.734
    1C        C  531   2.645   4.089   4.731
    1C        C  532   2.539   3.904   4.856
    1C        C  533   2.530   3.996   4.965
    1C        C  534   3.621   4.554   2.041
    1C        C  535   3.754   4.510   2.043
    1C        C  536   3.537   4.538   2.156
    1C        C  537   3.605   4.507   2.277
    1C        C  538   3.394   4.521   2.401
    1C        C  539   3.536   4.521   2.399
    1C        C  540   3.322   4.509   2.521
    1C        C  541   3.394   4.515   2.643
    1C        C  542   3.185   4.491   2.768
    1C        C  543   3.324   4.516   2.766
    1C        C  544   3.120   4.468   2.891
    1C        C  545   3.189   4.489   3.013
    1C        C  546   2.997   4.404   3.141
    1C        C  547   3.123   4.468   3.136
    1C        C  548   2.939   4.366   3.264
    1C        C  549   3.001   4.406   3.385
    1C        C  550   2.831   4.286   3.510
    1C        C  551   2.941   4.374   3.508
    1C        C  552   2.779   4.237   3.632
    1C        C  553   2.832   4.285   3.754
    1C        C  554   2.701   4.126   3.879
    1C        C  555   2.789   4.236   3.879
    1C        C  556   2.660   4.067   4.001
    1C        C  557   2.695   4.130   4.122
    1C        C  558   2.597   3.946   4.250
    1C        C  559   2.660   4.072   4.246
    1C        C  560   2.567   3.883   4.373
    1C        C  561   2.590   3.954   4.493
    1C        C  562   2.529   3.752   4.618
    1C        C  563   2.559   3.890   4.615
    1C        C  564   2.512   3.683   4.739
    1C        C  565   2.517   3.762   4.857
    1C        C  566   2.537   3.553   4.980
    1C        C  567   2.523   3.691   4.978
    1C        C  568   3.333   4.465   2.043
    1C        C  569   3.397   4.515   2.157
    1C        C  570   3.185   4.480   2.281
    1C        C  571   3.324   4.512   2.279
    1C        C  572   3.116   4.464   2.403
    1C        C  573   3.183   4.480   2.526
    1C        C  574   2.988   4.402   2.650
    1C        C  575   3.116   4.461   2.649
    1C        C  576   2.934   4.365   2.776
    1C        C  577   2.996   4.402   2.897
    1C        C  578   2.827   4.276   3.020
    1C        C  579   2.936   4.366   3.019
    1C        C  580   2.776   4.229   3.143
    1C        C  581   2.828   4.279   3.265
    1C        C  582   2.699   4.117   3.389
    1C        C  583   2.779   4.233   3.389
    1C        C  584   2.661   4.058   3.511
    1C        C  585   2.700   4.120   3.632
    1C        C  586   2.595   3.942   3.760
    1C        C  587   2.664   4.065   3.757
    1C        C  588   2.566   3.876   3.881
    1C        C  589   2.598   3.940   4.003
    1C        C  590   2.537   3.742   4.129
    1C        C  591   2.574   3.878   4.128
    1C        C  592   2.528   3.676   4.253
    1C        C  593   2.531   3.746   4.376
    1C        C  594   2.516   3.536   4.500
    1C        C  595   2.520   3.677   4.498
    1C        C  596   2.517   3.466   4.623
    1C        C  597   2.514   3.540   4.743
    1C        C  598   2.545   3.332   4.866
    1C        C  599   2.533   3.473   4.865
    1C        C  600   2.538   3.253   4.981
    1C        C  601   3.199   4.432   2.043
    1C        C  602   2.987   4.392   2.159
    1C        C  603   3.121   4.443   2.160
    1C        C  604   2.929   4.359   2.284
    1C        C  605   2.989   4.402   2.405
    1C        C  606   2.819   4.276   2.531
    1C        C  607   2.929   4.365   2.527
    1C        C  608   2.774   4.223   2.653
    1C        C  609   2.827   4.272   2.774
    1C        C  610   2.690   4.114   2.898
    1C        C  611   2.777   4.226   2.898
    1C        C  612   2.650   4.057   3.021
    1C        C  613   2.688   4.118   3.143
    1C        C  614   2.593   3.933   3.269
    1C        C  615   2.660   4.057   3.267
    1C        C  616   2.564   3.870   3.392
    1C        C  617   2.589   3.936   3.515
    1C        C  618   2.534   3.737   3.641
    1C        C  619   2.564   3.875   3.639
    1C        C  620   2.522   3.667   3.764
    1C        C  621   2.533   3.739   3.885
    1C        C  622   2.519   3.529   4.010
    1C        C  623   2.525   3.670   4.008
    1C        C  624   2.523   3.462   4.135
    1C        C  625   2.521   3.534   4.256
    1C        C  626   2.543   3.325   4.381
    1C        C  627   2.518   3.464   4.378
    1C        C  628   2.561   3.257   4.503
    1C        C  629   2.538   3.326   4.624
    1C        C  630   2.604   3.124   4.747
    1C        C  631   2.558   3.258   4.746
    1C        C  632   2.627   3.054   4.868
    1C        C  633   2.577   3.118   4.986
    1C        C  634   2.791   4.299   2.054
    1C        C  635   2.892   4.396   2.052
    1C        C  636   2.757   4.227   2.169
    1C        C  637   2.813   4.277   2.289
    1C        C  638   2.677   4.115   2.414
    1C        C  639   2.763   4.227   2.411
    1C        C  640   2.636   4.055   2.535
    1C        C  641   2.684   4.114   2.655
    1C        C  642   2.591   3.924   2.778
    1C        C  643   2.650   4.053   2.778
    1C        C  644   2.564   3.861   2.902
    1C        C  645   2.591   3.929   3.023
    1C        C  646   2.532   3.729   3.152
    1C        C  647   2.571   3.864   3.147
    1C        C  648   2.520   3.660   3.275
    1C        C  649   2.533   3.733   3.396
    1C        C  650   2.516   3.525   3.521
    1C        C  651   2.525   3.666   3.520
    1C        C  652   2.523   3.453   3.643
    1C        C  653   2.520   3.525   3.764
    1C        C  654   2.543   3.318   3.894
    1C        C  655   2.524   3.458   3.888
    1C        C  656   2.566   3.254   4.018
    1C        C  657   2.549   3.323   4.140
    1C        C  658   2.615   3.121   4.261
    1C        C  659   2.562   3.252   4.261
    1C        C  660   2.641   3.058   4.385
    1C        C  661   2.612   3.125   4.505
    1C        C  662   2.718   2.941   4.629
    1C        C  663   2.641   3.059   4.627
    1C        C  664   2.755   2.876   4.750
    1C        C  665   2.699   2.930   4.869
    1C        C  666   2.752   2.874   4.986
    1C        C  667   2.678   4.025   2.057
    1C        C  668   2.690   4.103   2.173
    1C        C  669   2.596   3.913   2.295
    1C        C  670   2.649   4.045   2.295
    1C        C  671   2.562   3.851   2.417
    1C        C  672   2.585   3.924   2.536
    1C        C  673   2.526   3.719   2.663
    1C        C  674   2.565   3.855   2.658
    1C        C  675   2.512   3.652   2.786
    1C        C  676   2.529   3.724   2.906
    1C        C  677   2.505   3.518   3.033
    1C        C  678   2.516   3.659   3.031
    1C        C  679   2.514   3.445   3.154
    1C        C  680   2.515   3.518   3.275
    1C        C  681   2.537   3.312   3.403
    1C        C  682   2.517   3.452   3.400
    1C        C  683   2.557   3.245   3.526
    1C        C  684   2.545   3.314   3.648
    1C        C  685   2.611   3.117   3.773
    1C        C  686   2.559   3.248   3.772
    1C        C  687   2.640   3.054   3.897
    1C        C  688   2.610   3.120   4.018
    1C        C  689   2.712   2.932   4.142
    1C        C  690   2.643   3.054   4.139
    1C        C  691   2.756   2.880   4.266
    1C        C  692   2.711   2.935   4.388
    1C        C  693   2.755   2.877   4.509
    1C        C  694   2.633   3.892   2.057
    1C        C  695   2.528   3.707   2.177
    1C        C  696   2.584   3.837   2.176
    1C        C  697   2.513   3.640   2.300
    1C        C  698   2.526   3.715   2.420
    1C        C  699   2.500   3.507   2.548
    1C        C  700   2.505   3.648   2.542
    1C        C  701   2.517   3.437   2.669
    1C        C  702   2.510   3.511   2.789
    1C        C  703   2.537   3.304   2.918
    1C        C  704   2.513   3.443   2.913
    1C        C  705   2.553   3.233   3.039
    1C        C  706   2.539   3.306   3.159
    1C        C  707   2.603   3.108   3.283
    1C        C  708   2.555   3.241   3.283
    1C        C  709   2.639   3.047   3.406
    1C        C  710   2.607   3.112   3.527
    1C        C  711   2.716   2.934   3.652
    1C        C  712   2.639   3.052   3.651
    1C        C  713   2.760   2.878   3.774
    1C        C  714   2.720   2.938   3.896
    1C        C  715   2.758   2.879   4.019
    1C        C  716   2.454   3.502   2.068
    1C        C  717   2.497   3.635   2.061
    1C        C  718   2.467   3.425   2.188
    1C        C  719   2.483   3.502   2.306
    1C        C  720   2.519   3.292   2.429
    1C        C  721   2.496   3.431   2.428
    1C        C  722   2.542   3.225   2.551
    1C        C  723   2.531   3.297   2.672
    1C        C  724   2.594   3.098   2.795
    1C        C  725   2.549   3.232   2.797
    1C        C  726   2.625   3.035   2.917
    1C        C  727   2.602   3.100   3.040
    1C        C  728   2.710   2.921   3.162
    1C        C  729   2.633   3.039   3.164
    1C        C  730   2.755   2.870   3.285
    1C        C  731   2.717   2.929   3.408
    1C        C  732   2.758   2.873   3.531
    1C        C  733   2.505   3.199   2.076
    1C        C  734   2.495   3.285   2.186
    1C        C  735   2.589   3.091   2.310
    1C        C  736   2.532   3.221   2.308
    1C        C  737   2.623   3.026   2.431
    1C        C  738   2.597   3.095   2.551
    1C        C  739   2.700   2.911   2.672
    1C        C  740   2.629   3.034   2.674
    1C        C  741   2.746   2.859   2.794
    1C        C  742   2.707   2.920   2.916
    1C        C  743   2.752   2.866   3.038
    1C        C  744   2.549   3.067   2.077
    1C        C  745   2.687   2.898   2.189
    1C        C  746   2.611   3.017   2.191
    1C        C  747   2.730   2.839   2.310
    1C        C  748   2.692   2.902   2.431
    1C        C  749   2.742   2.850   2.552
    1C        C  750   2.733   2.838   2.071
    1C        C  751   3.664   2.332   1.966
    1C        O  752   3.708   2.216   1.991
    1C        O  753   3.611   2.343   1.837
    1C        C  754   4.605   3.060   1.955
    1C        O  755   4.565   3.043   1.837
    1C        O  756   4.733   3.005   1.971
    1C        C  757   4.466   4.231   1.982
    1C        O  758   4.557   4.301   2.033
    1C        O  759   4.458   4.256   1.844
    1C        C  760   3.604   4.689   1.983
    1C        O  761   3.609   4.794   2.052
    1C        O  762   3.625   4.710   1.846
    1C        C  763   2.854   4.515   1.973
    1C        O  764   2.910   4.545   1.864
    1C        O  765   2.757   4.608   2.012
    1C        C  766   2.345   3.483   1.969
    1C        O  767   2.364   3.499   1.845
    1C        O  768   2.211   3.450   1.989
    1C        C  769   4.691   3.600   5.055
    1C        O  770   4.677   3.598   5.180
    1C        O  771   4.827   3.600   5.024
    1C        C  772   4.278   4.466   5.033
    1C        O  773   4.307   4.429   5.150
    1C        O  774   4.389   4.521   4.969
    1C        C  775   4.150   2.518   5.067
    1C        O  776   4.204   2.413   5.022
    1C        O  777   4.150   2.528   5.206
    1C        C  778   2.890   4.531   5.074
    1C        O  779   2.819   4.633   5.054
    1C        O  780   2.935   4.514   5.205
    1C        C  781   2.513   3.047   5.099
    1C        O  782   2.399   2.996   5.083
    1C        O  783   2.550   3.066   5.231
    1C        C  784   2.425   3.992   5.070
    1C        O  785   2.304   3.979   5.037
    1C        O  786   2.456   3.944   5.198
    1C        C  787   2.962   2.463   1.968
    1C        O  788   2.967   2.514   1.853
    1C        O  789   2.868   2.363   1.994
    1C        C  790   3.187   2.376   5.072
    1C        O  791   3.153   2.257   5.049
    1C        O  792   3.193   2.412   5.207
    1C        H  793   4.288   3.025   5.060
    1C        H  794   4.130   2.852   5.047
    1C        H  795   4.525   3.133   5.061
    1C        H  796   4.525   3.373   5.068
    1C        H  797   4.571   3.818   5.046
    1C        H  798   4.420   3.975   5.059
    1C        H  799   4.292   4.181   5.052
    1C        H  800   4.047   4.564   5.018
    1C        H  801   3.824   4.612   5.033
    1C        H  802   3.596   4.642   5.039
    1C        H  803   3.385   4.546   5.052
    1C        H  804   3.165   4.491   5.063
    1C        H  805   3.884   2.500   5.070
    1C        H  806   3.680   2.464   5.074
    1C        H  807   2.998   2.549   5.058
    1C        H  808   3.450   2.498   5.076
    1C        H  809   2.860   2.719   5.080
    1C        H  810   2.719   2.912   5.080
    1C        H  811   2.526   3.298   5.077
    1C        H  812   2.546   3.498   5.072
    1C        H  813   2.549   3.740   5.070
    1C        H  814   2.630   4.155   5.051
    1C        H  815   2.726   4.364   5.039
    1C        H  816   2.668   2.846   1.987
    1C        H  817   2.888   2.729   1.988
    1C        H  818   3.215   2.451   1.987
    1C        H  819   3.433   2.435   1.979
    1C        H  820   3.836   2.544   1.974
    1C        H  821   4.040   2.659   1.969
    1C        H  822   4.282   2.710   1.985
    1C        H  823   4.343   2.942   1.972
    1C        H  824   4.641   3.301   2.015
    1C        H  825   4.470   3.512   1.971
    1C        H  826   4.550   3.748   1.965
    1C        H  827   3.792   4.491   1.945
    1C        H  828   3.947   4.346   1.953
    1C        H  829   4.173   4.280   1.950
    1C        H  830   4.459   3.949   1.961
    1C        H  831   2.696   3.828   2.000
    1C        H  832   2.751   4.043   1.980
    1C        H  833   2.713   4.305   1.981
    1C        H  834   3.389   4.440   1.956
    1C        H  835   3.149   4.414   1.950
    1C        H  836   2.508   2.999   2.005
    1C        H  837   2.467   3.235   1.982
    1C        H  838   2.531   3.661   1.963
    2V3OU   H29  839   2.800   3.549   1.467
    2V3OU   C27  840   2.783   3.502   1.567
    2V3OU   H27  841   2.729   3.573   1.635
    2V3OU   H28  842   2.731   3.404   1.550
    2V3OU   O11  843   2.909   3.476   1.630
    2V3OU   C15  844   2.923   3.396   1.742
    2V3OU   C13  845   3.054   3.377   1.790
    2V3OU   C14  846   3.074   3.270   1.878
    2V3OU   C16  847   2.971   3.188   1.922
    2V3OU    H6  848   2.990   3.104   1.990
    2V3OU   C12  849   3.213   3.236   1.917
    2V3OU    O2  850   3.235   3.129   1.978
    2V3OU   C10  851   3.328   3.313   1.869
    2V3OU    C8  852   3.460   3.276   1.892
    2V3OU   O10  853   3.488   3.155   1.948
    2V3OU   H26  854   3.402   3.117   1.973
    2V3OU    C6  855   3.568   3.352   1.839
    2V3OU    C5  856   3.541   3.471   1.773
    2V3OU    C4  857   3.706   3.296   1.836
    2V3OU    H4  858   3.727   3.229   1.925
    2V3OU    H5  859   3.709   3.230   1.744
    2V3OU    C2  860   3.820   3.398   1.822
    2V3OU    O6  861   3.809   3.474   1.942
    2V3OU   H21  862   3.759   3.553   1.917
    2V3OU    C3  863   3.786   3.493   1.707
    2V3OU    H2  864   3.867   3.570   1.702
    2V3OU    H3  865   3.782   3.447   1.605
    2V3OU   C25  866   3.954   3.326   1.806
    2V3OU    O7  867   4.004   3.296   1.698
    2V3OU   C26  868   4.037   3.287   1.928
    2V3OU   H22  869   4.066   3.385   1.974
    2V3OU   H23  870   4.131   3.236   1.894
    2V3OU    O8  871   3.970   3.207   2.022
    2V3OU   H24  872   3.937   3.268   2.089
    2V3OU    C1  873   3.654   3.563   1.734
    2V3OU    H1  874   3.625   3.621   1.642
    2V3OU    O3  875   3.663   3.653   1.845
    2V3OU   C19  876   3.622   3.790   1.835
    2V3OU    H9  877   3.522   3.801   1.784
    2V3OU    O4  878   3.716   3.852   1.750
    2V3OU   C20  879   3.845   3.876   1.807
    2V3OU   H10  880   3.901   3.780   1.826
    2V3OU   C24  881   3.612   3.857   1.972
    2V3OU   H16  882   3.540   3.802   2.039
    2V3OU   H17  883   3.575   3.960   1.952
    2V3OU   C23  884   3.749   3.877   2.038
    2V3OU   H15  885   3.787   3.772   2.060
    2V3OU    N1  886   3.743   3.959   2.158
    2V3OU   H19  887   3.806   3.927   2.228
    2V3OU   H20  888   3.649   3.942   2.186
    2V3OU   C21  889   3.849   3.948   1.942
    2V3OU   H11  890   3.955   3.925   1.974
    2V3OU    O5  891   3.828   4.088   1.942
    2V3OU   H18  892   3.785   4.107   2.027
    2V3OU   C22  893   3.916   3.954   1.698
    2V3OU   H12  894   3.864   4.052   1.681
    2V3OU   H13  895   3.908   3.900   1.601
    2V3OU   H14  896   4.025   3.962   1.723
    2V3OU   C11  897   3.162   3.473   1.762
    2V3OU    O1  898   3.136   3.590   1.727
    2V3OU    C9  899   3.300   3.430   1.792
    2V3OU    C7  900   3.406   3.508   1.745
    2V3OU    O9  901   3.389   3.628   1.679
    2V3OU   H25  902   3.293   3.638   1.676
    2V3OU   C17  903   2.818   3.318   1.794
    2V3OU    H7  904   2.717   3.343   1.760
    2V3OU   C18  905   2.839   3.214   1.884
    2V3OU    H8  906   2.754   3.149   1.908
    3SOL     OW  907   1.552   4.130   1.346
    3SOL    HW1  908   1.498   4.048   1.365
    3SOL    HW2  909   1.493   4.211   1.350
    4SOL     OW  910   6.175   0.767   1.849
    4SOL    HW1  911   6.084   0.741   1.818
    4SOL    HW2  912   6.241   0.752   1.775
    5SOL     OW  913   4.010   1.451   0.912
    5SOL    HW1  914   4.063   1.393   0.973
    5SOL    HW2  915   3.965   1.523   0.964
    6SOL     OW  916   3.076   1.891   2.140
    6SOL    HW1  917   2.998   1.928   2.091
    6SOL    HW2  918   3.092   1.796   2.111
    7SOL     OW  919   5.445   1.879   2.214
    7SOL    HW1  920   5.383   1.956   2.203
    7SOL    HW2  921   5.500   1.891   2.297
    8SOL     OW  922   2.676   0.053   3.952
    8SOL    HW1  923   2.768   0.014   3.958
    8SOL    HW2  924   2.681   0.153   3.956
    9SOL     OW  925   1.724   5.025   5.836
    9SOL    HW1  926   1.632   4.990   5.851
    9SOL    HW2  927   1.791   4.958   5.868
   10SOL     OW  928   0.856   4.740   6.097
   10SOL    HW1  929   0.757   4.752   6.092
   10SOL    HW2  930   0.894   4.807   6.160
   11SOL     OW  931   4.054   6.583   0.237
   11SOL    HW1  932   4.086   6.622   0.151
   11SOL    HW2  933   3.961   6.547   0.224
   12SOL     OW  934   5.316   5.819   2.895
   12SOL    HW1  935   5.403   5.779   2.923
   12SOL    HW2  936   5.242   5.782   2.951
   13SOL     OW  937   2.760   6.314   3.935
   13SOL    HW1  938   2.751   6.333   3.837
   13SOL    HW2  939   2.837   6.251   3.949
   14SOL     OW  940   3.704   6.404   7.026
   14SOL    HW1  941   3.707   6.400   6.926
   14SOL    HW2  942   3.638   6.474   0.027
   15SOL     OW  943   1.198   6.560   0.281
   15SOL    HW1  944   1.280   6.521   0.239
   15SOL    HW2  945   1.130   6.489   0.296
   16SOL     OW  946   6.498   2.520   6.165
   16SOL    HW1  947   6.514   2.574   6.247
   16SOL    HW2  948   6.522   2.575   6.084
   17SOL     OW  949   5.286   6.617   3.994
   17SOL    HW1  950   5.380   6.645   4.010
   17SOL    HW2  951   5.227   6.698   3.995
   18SOL     OW  952   1.994   1.860   5.898
   18SOL    HW1  953   1.961   1.892   5.987
   18SOL    HW2  954   1.921   1.870   5.830
   19SOL     OW  955   0.078   0.212   2.877
   19SOL    HW1  956   7.012   0.227   2.847
   19SOL    HW2  957   0.141   0.256   2.812
   20SOL     OW  958   3.121   1.619   3.931
   20SOL    HW1  959   3.129   1.531   3.884
   20SOL    HW2  960   3.116   1.604   4.030
   21SOL     OW  961   2.613   1.493   1.721
   21SOL    HW1  962   2.650   1.548   1.795
   21SOL    HW2  963   2.671   1.503   1.640
   22SOL     OW  964   2.383   6.177   6.041
   22SOL    HW1  965   2.295   6.206   6.001
   22SOL    HW2  966   2.455   6.239   6.011
   23SOL     OW  967   4.608   6.643   3.699
   23SOL    HW1  968   4.580   6.719   3.757
   23SOL    HW2  969   4.535   6.621   3.635
   24SOL     OW  970   5.271   0.786   4.861
   24SOL    HW1  971   5.271   0.841   4.778
   24SOL    HW2  972   5.182   0.740   4.870
   25SOL     OW  973   3.780   5.491   0.385
   25SOL    HW1  974   3.748   5.583   0.362
   25SOL    HW2  975   3.740   5.462   0.472
   26SOL     OW  976   6.691   1.373   1.681
   26SOL    HW1  977   6.750   1.297   1.710
   26SOL    HW2  978   6.725   1.458   1.719
   27SOL     OW  979   6.145   0.250   2.019
   27SOL    HW1  980   6.223   0.312   2.007
   27SOL    HW2  981   6.082   0.288   2.087
   28SOL     OW  982   4.469   0.657   6.911
   28SOL    HW1  983   4.551   0.713   6.904
   28SOL    HW2  984   4.496   0.561   6.923
   29SOL     OW  985   4.748   2.434   1.517
   29SOL    HW1  986   4.776   2.392   1.430
   29SOL    HW2  987   4.762   2.368   1.591
   30SOL     OW  988   3.456   0.300   5.133
   30SOL    HW1  989   3.525   0.229   5.125
   30SOL    HW2  990   3.378   0.265   5.185
   31SOL     OW  991   0.810   1.116   5.060
   31SOL    HW1  992   0.879   1.045   5.072
   31SOL    HW2  993   0.846   1.204   5.092
   32SOL     OW  994   0.846   1.941   1.675
   32SOL    HW1  995   0.921   1.966   1.614
   32SOL    HW2  996   0.816   2.022   1.726
   33SOL     OW  997   2.053   2.410   6.012
   33SOL    HW1  998   2.150   2.392   5.994
   33SOL    HW2  999   2.017   2.471   5.942
   34SOL     OW 1000   2.262   0.147   4.831
   34SOL    HW1 1001   2.264   0.130   4.732
   34SOL    HW2 1002   2.331   0.215   4.855
   35SOL     OW 1003   4.872   1.524   0.431
   35SOL    HW1 1004   4.814   1.463   0.485
   35SOL    HW2 1005   4.895   1.605   0.485
   36SOL     OW 1006   1.828   0.976   5.935
   36SOL    HW1 1007   1.744   1.029   5.943
   36SOL    HW2 1008   1.853   0.968   5.838
   37SOL     OW 1009   2.770   6.723   1.473
   37SOL    HW1 1010   2.688   6.719   1.416
   37SOL    HW2 1011   2.849   6.750   1.417
   38SOL     OW 1012   6.806   6.384   3.382
   38SOL    HW1 1013   6.767   6.360   3.471
   38SOL    HW2 1014   6.733   6.392   3.314
   39SOL     OW 1015   6.601   3.421   5.466
   39SOL    HW1 1016   6.692   3.461   5.470
   39SOL    HW2 1017   6.539   3.472   5.525
   40SOL     OW 1018   6.002   1.121   2.408
   40SOL    HW1 1019   5.909   1.084   2.404
   40SOL    HW2 1020   6.067   1.046   2.411
   41SOL     OW 1021   1.753   6.741   4.802
   41SOL    HW1 1022   1.656   6.759   4.818
   41SOL    HW2 1023   1.765   6.648   4.767
   42SOL     OW 1024   3.440   0.239   6.501
   42SOL    HW1 1025   3.436   0.262   6.404
   42SOL    HW2 1026   3.367   0.287   6.550
   43SOL     OW 1027   5.451   6.460   5.388
   43SOL    HW1 1028   5.527   6.421   5.335
   43SOL    HW2 1029   5.484   6.490   5.477
   44SOL     OW 1030   0.537   2.725   6.404
   44SOL    HW1 1031   0.564   2.743   6.309
   44SOL    HW2 1032   0.503   2.810   6.445
   45SOL     OW 1033   2.801   1.260   2.211
   45SOL    HW1 1034   2.817   1.294   2.304
   45SOL    HW2 1035   2.792   1.160   2.213
   46SOL     OW 1036   1.531   3.687   4.304
   46SOL    HW1 1037   1.471   3.742   4.362
   46SOL    HW2 1038   1.600   3.642   4.361
   47SOL     OW 1039   6.639   4.629   3.331
   47SOL    HW1 1040   6.591   4.672   3.407
   47SOL    HW2 1041   6.686   4.547   3.364
   48SOL     OW 1042   0.037   2.355   4.916
   48SOL    HW1 1043   0.002   2.445   4.941
   48SOL    HW2 1044   0.034   2.295   4.996
   49SOL     OW 1045   4.759   3.650   0.740
   49SOL    HW1 1046   4.717   3.630   0.828
   49SOL    HW2 1047   4.712   3.599   0.668
   50SOL     OW 1048   6.378   3.599   4.898
   50SOL    HW1 1049   6.334   3.689   4.896
   50SOL    HW2 1050   6.461   3.602   4.843
   51SOL     OW 1051   3.380   4.904   2.968
   51SOL    HW1 1052   3.284   4.900   2.995
   51SOL    HW2 1053   3.388   4.934   2.873
   52SOL     OW 1054   3.024   1.574   2.501
   52SOL    HW1 1055   3.049   1.670   2.512
   52SOL    HW2 1056   2.926   1.567   2.484
   53SOL     OW 1057   5.015   6.766   4.133
   53SOL    HW1 1058   4.960   6.683   4.121
   53SOL    HW2 1059   5.049   6.770   4.227
   54SOL     OW 1060   3.115   5.246   5.774
   54SOL    HW1 1061   3.123   5.159   5.823
   54SOL    HW2 1062   3.039   5.241   5.709
   55SOL     OW 1063   4.044   1.393   6.166
   55SOL    HW1 1064   4.013   1.303   6.135
   55SOL    HW2 1065   3.975   1.432   6.228
   56SOL     OW 1066   1.357   0.588   2.435
   56SOL    HW1 1067   1.291   0.525   2.392
   56SOL    HW2 1068   1.440   0.538   2.458
   57SOL     OW 1069   5.060   0.901   0.781
   57SOL    HW1 1070   5.049   0.925   0.877
   57SOL    HW2 1071   5.064   0.801   0.771
   58SOL     OW 1072   0.058   6.643   6.623
   58SOL    HW1 1073   0.058   6.733   6.667
   58SOL    HW2 1074   6.998   6.627   6.579
   59SOL     OW 1075   1.426   0.570   5.919
   59SOL    HW1 1076   1.367   0.568   5.838
   59SOL    HW2 1077   1.481   0.486   5.922
   60SOL     OW 1078   4.409   6.969   5.310
   60SOL    HW1 1079   4.400   0.037   5.283
   60SOL    HW2 1080   4.336   6.916   5.267
   61SOL     OW 1081   4.707   0.421   3.869
   61SOL    HW1 1082   4.804   0.413   3.893
   61SOL    HW2 1083   4.653   0.362   3.929
   62SOL     OW 1084   1.613   0.372   4.013
   62SOL    HW1 1085   1.575   0.451   4.062
   62SOL    HW2 1086   1.711   0.387   3.998
   63SOL     OW 1087   6.645   2.519   3.402
   63SOL    HW1 1088   6.676   2.614   3.393
   63SOL    HW2 1089   6.642   2.494   3.499
   64SOL     OW 1090   6.488   3.854   6.469
   64SOL    HW1 1091   6.425   3.867   6.546
   64SOL    HW2 1092   6.501   3.940   6.420
   65SOL     OW 1093   6.600   4.855   4.932
   65SOL    HW1 1094   6.666   4.786   4.963
   65SOL    HW2 1095   6.570   4.833   4.839
   66SOL     OW 1096   3.362   0.619   6.706
   66SOL    HW1 1097   3.461   0.609   6.702
   66SOL    HW2 1098   3.319   0.528   6.710
   67SOL     OW 1099   5.671   6.050   5.285
   67SOL    HW1 1100   5.731   5.992   5.229
   67SOL    HW2 1101   5.579   6.011   5.286
   68SOL     OW 1102   5.908   1.689   6.281
   68SOL    HW1 1103   5.838   1.618   6.271
   68SOL    HW2 1104   5.921   1.735   6.193
   69SOL     OW 1105   2.824   4.202   6.177
   69SOL    HW1 1106   2.740   4.157   6.207
   69SOL    HW2 1107   2.821   4.216   6.078
   70SOL     OW 1108   0.331   5.731   2.854
   70SOL    HW1 1109   0.257   5.710   2.916
   70SOL    HW2 1110   0.294   5.757   2.764
   71SOL     OW 1111   2.276   2.708   3.175
   71SOL    HW1 1112   2.327   2.712   3.089
   71SOL    HW2 1113   2.330   2.661   3.244
   72SOL     OW 1114   2.829   5.622   3.977
   72SOL    HW1 1115   2.921   5.631   3.940
   72SOL    HW2 1116   2.834   5.582   4.069
   73SOL     OW 1117   3.490   1.712   0.232
   73SOL    HW1 1118   3.533   1.734   0.144
   73SOL    HW2 1119   3.543   1.752   0.306
   74SOL     OW 1120   5.311   6.428   6.752
   74SOL    HW1 1121   5.237   6.385   6.804
   74SOL    HW2 1122   5.336   6.369   6.675
   75SOL     OW 1123   3.595   6.100   5.307
   75SOL    HW1 1124   3.573   6.039   5.231
   75SOL    HW2 1125   3.588   6.049   5.393
   76SOL     OW 1126   1.916   2.458   1.038
   76SOL    HW1 1127   1.892   2.373   1.085
   76SOL    HW2 1128   1.987   2.506   1.089
   77SOL     OW 1129   5.687   5.087   5.174
   77SOL    HW1 1130   5.625   5.047   5.106
   77SOL    HW2 1131   5.634   5.137   5.242
   78SOL     OW 1132   6.311   6.390   6.024
   78SOL    HW1 1133   6.220   6.396   6.066
   78SOL    HW2 1134   6.327   6.296   5.993
   79SOL     OW 1135   3.241   0.349   0.762
   79SOL    HW1 1136   3.249   0.258   0.723
   79SOL    HW2 1137   3.166   0.398   0.717
   80SOL     OW 1138   6.678   1.391   4.719
   80SOL    HW1 1139   6.711   1.430   4.805
   80SOL    HW2 1140   6.725   1.435   4.642
   81SOL     OW 1141   1.722   0.647   2.890
   81SOL    HW1 1142   1.672   0.564   2.866
   81SOL    HW2 1143   1.806   0.652   2.836
   82SOL     OW 1144   6.715   5.078   6.751
   82SOL    HW1 1145   6.651   5.151   6.727
   82SOL    HW2 1146   6.809   5.108   6.731
   83SOL     OW 1147   0.027   6.562   0.511
   83SOL    HW1 1148   6.973   6.509   0.536
   83SOL    HW2 1149   0.002   6.659   0.503
   84SOL     OW 1150   5.052   3.854   2.171
   84SOL    HW1 1151   5.017   3.940   2.132
   84SOL    HW2 1152   5.006   3.836   2.258
   85SOL     OW 1153   0.553   1.820   4.970
   85SOL    HW1 1154   0.489   1.888   5.007
   85SOL    HW2 1155   0.593   1.767   5.045
   86SOL     OW 1156   0.613   0.691   5.873
   86SOL    HW1 1157   0.653   0.600   5.871
   86SOL    HW2 1158   0.637   0.739   5.788
   87SOL     OW 1159   4.704   2.371   0.331
   87SOL    HW1 1160   4.782   2.414   0.377
   87SOL    HW2 1161   4.620   2.396   0.379
   88SOL     OW 1162   5.120   1.386   0.642
   88SOL    HW1 1163   5.117   1.394   0.542
   88SOL    HW2 1164   5.083   1.297   0.670
   89SOL     OW 1165   1.818   2.589   6.646
   89SOL    HW1 1166   1.810   2.630   6.556
   89SOL    HW2 1167   1.755   2.634   6.710
   90SOL     OW 1168   6.314   6.238   3.944
   90SOL    HW1 1169   6.231   6.187   3.967
   90SOL    HW2 1170   6.324   6.244   3.845
   91SOL     OW 1171   4.980   4.719   3.987
   91SOL    HW1 1172   4.968   4.704   3.888
   91SOL    HW2 1173   4.903   4.678   4.036
   92SOL     OW 1174   2.987   4.843   1.069
   92SOL    HW1 1175   3.028   4.919   1.119
   92SOL    HW2 1176   3.006   4.852   0.971
   93SOL     OW 1177   3.351   4.896   5.763
   93SOL    HW1 1178   3.437   4.939   5.736
   93SOL    HW2 1179   3.300   4.959   5.822
   94SOL     OW 1180   3.166   5.779   0.035
   94SOL    HW1 1181   3.149   5.787   6.964
   94SOL    HW2 1182   3.238   5.711   0.051
   95SOL     OW 1183   0.490   0.669   3.931
   95SOL    HW1 1184   0.457   0.599   3.995
   95SOL    HW2 1185   0.521   0.625   3.847
   96SOL     OW 1186   2.339   0.127   5.262
   96SOL    HW1 1187   2.413   0.060   5.248
   96SOL    HW2 1188   2.261   0.103   5.205
   97SOL     OW 1189   5.871   3.576   4.268
   97SOL    HW1 1190   5.798   3.529   4.318
   97SOL    HW2 1191   5.834   3.660   4.228
   98SOL     OW 1192   5.385   2.540   6.357
   98SOL    HW1 1193   5.319   2.486   6.305
   98SOL    HW2 1194   5.407   2.624   6.308
   99SOL     OW 1195   4.151   2.659   0.811
   99SOL    HW1 1196   4.227   2.623   0.865
   99SOL    HW2 1197   4.183   2.738   0.759
  100SOL     OW 1198   0.444   6.618   6.583
  100SOL    HW1 1199   0.353   6.578   6.595
  100SOL    HW2 1200   0.514   6.551   6.608
  101SOL     OW 1201   0.688   5.866   3.955
  101SOL    HW1 1202   0.648   5.914   4.034
  101SOL    HW2 1203   0.779   5.903   3.937
  102SOL     OW 1204   3.829   0.519   3.464
  102SOL    HW1 1205   3.747   0.564   3.499
  102SOL    HW2 1206   3.843   0.546   3.368
  103SOL     OW 1207   4.091   1.787   1.908
  103SOL    HW1 1208   4.045   1.786   1.997
  103SOL    HW2 1209   4.190   1.793   1.922
  104SOL     OW 1210   6.382   5.481   2.617
  104SOL    HW1 1211   6.396   5.467   2.715
  104SOL    HW2 1212   6.332   5.403   2.579
  105SOL     OW 1213   6.340   0.939   6.593
  105SOL    HW1 1214   6.264   0.877   6.613
  105SOL    HW2 1215   6.420   0.911   6.646
  106SOL     OW 1216   2.398   6.247   6.509
  106SOL    HW1 1217   2.425   6.164   6.557
  106SOL    HW2 1218   2.328   6.296   6.561
  107SOL     OW 1219   1.185   2.848   1.223
  107SOL    HW1 1220   1.180   2.895   1.311
  107SOL    HW2 1221   1.196   2.750   1.238
  108SOL     OW 1222   4.992   4.914   6.579
  108SOL    HW1 1223   4.912   4.868   6.543
  108SOL    HW2 1224   5.045   4.954   6.504
  109SOL     OW 1225   0.555   0.211   0.880
  109SOL    HW1 1226   0.547   0.280   0.952
  109SOL    HW2 1227   0.486   0.140   0.894
  110SOL     OW 1228   3.515   6.008   5.570
  110SOL    HW1 1229   3.553   5.916   5.575
  110SOL    HW2 1230   3.544   6.061   5.650
  111SOL     OW 1231   3.743   0.593   3.913
  111SOL    HW1 1232   3.711   0.519   3.972
  111SOL    HW2 1233   3.708   0.680   3.947
  112SOL     OW 1234   5.945   5.752   5.738
  112SOL    HW1 1235   5.983   5.770   5.647
  112SOL    HW2 1236   5.856   5.796   5.747
  113SOL     OW 1237   6.738   4.502   3.882
  113SOL    HW1 1238   6.661   4.465   3.935
  113SOL    HW2 1239   6.787   4.426   3.838
  114SOL     OW 1240   0.585   6.668   0.582
  114SOL    HW1 1241   0.644   6.740   0.619
  114SOL    HW2 1242   0.545   6.616   0.658
  115SOL     OW 1243   4.963   1.393   3.907
  115SOL    HW1 1244   5.016   1.442   3.976
  115SOL    HW2 1245   4.969   1.294   3.925
  116SOL     OW 1246   6.539   4.599   2.359
  116SOL    HW1 1247   6.492   4.561   2.439
  116SOL    HW2 1248   6.636   4.611   2.380
  117SOL     OW 1249   1.215   0.500   6.450
  117SOL    HW1 1250   1.281   0.565   6.411
  117SOL    HW2 1251   1.195   0.429   6.383
  118SOL     OW 1252   0.345   0.962   1.753
  118SOL    HW1 1253   0.310   1.000   1.838
  118SOL    HW2 1254   0.282   0.983   1.678
  119SOL     OW 1255   6.914   2.401   6.480
  119SOL    HW1 1256   6.833   2.420   6.537
  119SOL    HW2 1257   6.889   2.410   6.384
  120SOL     OW 1258   6.346   0.114   1.142
  120SOL    HW1 1259   6.324   0.021   1.114
  120SOL    HW2 1260   6.371   0.115   1.239
  121SOL     OW 1261   2.368   3.853   6.531
  121SOL    HW1 1262   2.430   3.932   6.534
  121SOL    HW2 1263   2.401   3.784   6.594
  122SOL     OW 1264   1.218   3.819   5.040
  122SOL    HW1 1265   1.235   3.789   5.134
  122SOL    HW2 1266   1.261   3.908   5.026
  123SOL     OW 1267   0.017   1.861   1.201
  123SOL    HW1 1268   7.002   1.776   1.170
  123SOL    HW2 1269   0.114   1.860   1.175
  124SOL     OW 1270   5.115   3.359   0.182
  124SOL    HW1 1271   5.032   3.390   0.228
  124SOL    HW2 1272   5.096   3.276   0.130
  125SOL     OW 1273   1.792   2.256   1.859
  125SOL    HW1 1274   1.872   2.204   1.827
  125SOL    HW2 1275   1.821   2.349   1.883
  126SOL     OW 1276   2.388   4.548   0.941
  126SOL    HW1 1277   2.457   4.519   1.007
  126SOL    HW2 1278   2.432   4.601   0.869
  127SOL     OW 1279   7.006   5.016   5.894
  127SOL    HW1 1280   6.974   4.922   5.900
  127SOL    HW2 1281   6.984   5.054   5.804
  128SOL     OW 1282   4.381   3.013   1.457
  128SOL    HW1 1283   4.355   3.014   1.554
  128SOL    HW2 1284   4.383   2.919   1.424
  129SOL     OW 1285   3.588   3.680   6.373
  129SOL    HW1 1286   3.542   3.688   6.285
  129SOL    HW2 1287   3.608   3.583   6.391
  130SOL     OW 1288   1.266   1.200   4.253
  130SOL    HW1 1289   1.329   1.132   4.292
  130SOL    HW2 1290   1.181   1.199   4.306
  131SOL     OW 1291   4.818   1.174   3.047
  131SOL    HW1 1292   4.732   1.191   2.998
  131SOL    HW2 1293   4.881   1.124   2.986
  132SOL     OW 1294   1.235   2.999   1.453
  132SOL    HW1 1295   1.204   3.071   1.516
  132SOL    HW2 1296   1.254   2.916   1.505
  133SOL     OW 1297   5.678   6.299   2.783
  133SOL    HW1 1298   5.716   6.364   2.850
  133SOL    HW2 1299   5.584   6.325   2.761
  134SOL     OW 1300   6.732   2.790   3.360
  134SOL    HW1 1301   6.696   2.860   3.297
  134SOL    HW2 1302   6.832   2.789   3.354
  135SOL     OW 1303   5.058   1.621   3.479
  135SOL    HW1 1304   5.070   1.564   3.561
  135SOL    HW2 1305   5.044   1.563   3.399
  136SOL     OW 1306   5.259   4.125   5.602
  136SOL    HW1 1307   5.272   4.172   5.689
  136SOL    HW2 1308   5.171   4.153   5.562
  137SOL     OW 1309   4.957   0.055   5.398
  137SOL    HW1 1310   4.969   7.026   5.480
  137SOL    HW2 1311   4.931   7.025   5.321
  138SOL     OW 1312   0.115   5.136   4.613
  138SOL    HW1 1313   0.031   5.175   4.652
  138SOL    HW2 1314   0.092   5.068   4.544
  139SOL     OW 1315   2.771   5.195   5.285
  139SOL    HW1 1316   2.861   5.164   5.317
  139SOL    HW2 1317   2.742   5.139   5.207
  140SOL     OW 1318   5.658   5.162   3.854
  140SOL    HW1 1319   5.620   5.247   3.817
  140SOL    HW2 1320   5.647   5.161   3.953
  141SOL     OW 1321   1.065   1.943   4.956
  141SOL    HW1 1322   1.103   2.013   4.896
  141SOL    HW2 1323   0.972   1.920   4.926
  142SOL     OW 1324   1.642   6.273   1.847
  142SOL    HW1 1325   1.596   6.230   1.925
  142SOL    HW2 1326   1.597   6.246   1.763
  143SOL     OW 1327   5.386   4.934   2.018
  143SOL    HW1 1328   5.359   5.024   1.987
  143SOL    HW2 1329   5.366   4.925   2.116
  144SOL     OW 1330   1.414   6.751   6.178
  144SOL    HW1 1331   1.328   6.758   6.128
  144SOL    HW2 1332   1.489   6.736   6.114
  145SOL     OW 1333   0.467   5.620   0.383
  145SOL    HW1 1334   0.405   5.552   0.421
  145SOL    HW2 1335   0.432   5.712   0.401
  146SOL     OW 1336   5.429   6.682   0.245
  146SOL    HW1 1337   5.421   6.673   0.145
  146SOL    HW2 1338   5.508   6.629   0.277
  147SOL     OW 1339   6.741   3.009   0.654
  147SOL    HW1 1340   6.671   3.076   0.626
  147SOL    HW2 1341   6.750   2.939   0.583
  148SOL     OW 1342   0.846   5.369   5.146
  148SOL    HW1 1343   0.880   5.374   5.240
  148SOL    HW2 1344   0.746   5.380   5.146
  149SOL     OW 1345   3.017   0.896   3.991
  149SOL    HW1 1346   2.965   0.899   3.906
  149SOL    HW2 1347   2.959   0.864   4.066
  150SOL     OW 1348   0.041   5.119   6.777
  150SOL    HW1 1349   0.088   5.044   6.824
  150SOL    HW2 1350   7.015   5.083   6.701
  151SOL     OW 1351   3.852   1.418   1.272
  151SOL    HW1 1352   3.778   1.351   1.272
  151SOL    HW2 1353   3.837   1.485   1.199
  152SOL     OW 1354   2.809   0.703   4.753
  152SOL    HW1 1355   2.783   0.609   4.778
  152SOL    HW2 1356   2.775   0.766   4.823
  153SOL     OW 1357   2.261   0.292   2.617
  153SOL    HW1 1358   2.308   0.223   2.671
  153SOL    HW2 1359   2.163   0.292   2.639
  154SOL     OW 1360   0.090   2.406   1.587
  154SOL    HW1 1361   0.033   2.335   1.545
  154SOL    HW2 1362   0.086   2.489   1.531
  155SOL     OW 1363   0.524   0.921   2.999
  155SOL    HW1 1364   0.473   1.006   2.987
  155SOL    HW2 1365   0.613   0.928   2.954
  156SOL     OW 1366   5.949   1.792   1.254
  156SOL    HW1 1367   5.943   1.695   1.277
  156SOL    HW2 1368   5.952   1.803   1.155
  157SOL     OW 1369   6.181   3.307   2.760
  157SOL    HW1 1370   6.088   3.295   2.724
  157SOL    HW2 1371   6.177   3.304   2.860
  158SOL     OW 1372   3.031   0.772   2.588
  158SOL    HW1 1373   3.097   0.815   2.526
  158SOL    HW2 1374   2.959   0.837   2.609
  159SOL     OW 1375   4.700   4.515   1.971
  159SOL    HW1 1376   4.645   4.578   1.917
  159SOL    HW2 1377   4.654   4.426   1.976
  160SOL     OW 1378   6.622   4.716   5.993
  160SOL    HW1 1379   6.685   4.640   5.979
  160SOL    HW2 1380   6.593   4.753   5.905
  161SOL     OW 1381   2.164   4.741   4.880
  161SOL    HW1 1382   2.222   4.701   4.809
  161SOL    HW2 1383   2.116   4.668   4.929
  162SOL     OW 1384   4.592   5.828   0.686
  162SOL    HW1 1385   4.561   5.871   0.601
  162SOL    HW2 1386   4.660   5.758   0.665
  163SOL     OW 1387   4.406   6.703   1.468
  163SOL    HW1 1388   4.336   6.752   1.416
  163SOL    HW2 1389   4.374   6.690   1.562
  164SOL     OW 1390   6.374   3.242   1.127
  164SOL    HW1 1391   6.330   3.277   1.045
  164SOL    HW2 1392   6.437   3.311   1.164
  165SOL     OW 1393   4.911   3.259   6.811
  165SOL    HW1 1394   5.008   3.244   6.829
  165SOL    HW2 1395   4.863   3.276   6.897
  166SOL     OW 1396   0.456   6.280   3.463
  166SOL    HW1 1397   0.463   6.380   3.461
  166SOL    HW2 1398   0.484   6.243   3.375
  167SOL     OW 1399   6.147   2.615   6.774
  167SOL    HW1 1400   6.114   2.551   6.842
  167SOL    HW2 1401   6.169   2.566   6.689
  168SOL     OW 1402   2.220   4.652   1.137
  168SOL    HW1 1403   2.288   4.605   1.080
  168SOL    HW2 1404   2.142   4.678   1.081
  169SOL     OW 1405   2.768   0.377   2.133
  169SOL    HW1 1406   2.758   0.297   2.073
  169SOL    HW2 1407   2.851   0.428   2.108
  170SOL     OW 1408   0.173   1.866   3.967
  170SOL    HW1 1409   0.090   1.844   4.018
  170SOL    HW2 1410   0.150   1.924   3.888
  171SOL     OW 1411   3.971   4.112   0.563
  171SOL    HW1 1412   4.064   4.077   0.574
  171SOL    HW2 1413   3.974   4.198   0.513
  172SOL     OW 1414   6.746   2.171   5.157
  172SOL    HW1 1415   6.720   2.088   5.207
  172SOL    HW2 1416   6.840   2.162   5.125
  173SOL     OW 1417   6.765   6.749   4.763
  173SOL    HW1 1418   6.693   6.819   4.761
  173SOL    HW2 1419   6.854   6.793   4.756
  174SOL     OW 1420   2.376   5.251   3.765
  174SOL    HW1 1421   2.470   5.271   3.791
  174SOL    HW2 1422   2.332   5.201   3.840
  175SOL     OW 1423   1.959   6.321   2.323
  175SOL    HW1 1424   1.941   6.345   2.228
  175SOL    HW2 1425   2.056   6.297   2.334
  176SOL     OW 1426   1.842   4.096   1.471
  176SOL    HW1 1427   1.902   4.165   1.431
  176SOL    HW2 1428   1.747   4.117   1.450
  177SOL     OW 1429   5.084   2.297   3.259
  177SOL    HW1 1430   5.078   2.243   3.175
  177SOL    HW2 1431   4.994   2.299   3.303
  178SOL     OW 1432   4.995   4.259   6.362
  178SOL    HW1 1433   5.007   4.322   6.285
  178SOL    HW2 1434   4.984   4.312   6.447
  179SOL     OW 1435   3.157   0.777   0.757
  179SOL    HW1 1436   3.150   0.860   0.813
  179SOL    HW2 1437   3.126   0.698   0.810
  180SOL     OW 1438   0.817   1.319   6.971
  180SOL    HW1 1439   0.904   1.351   7.008
  180SOL    HW2 1440   0.768   1.396   6.930
  181SOL     OW 1441   3.812   2.061   6.548
  181SOL    HW1 1442   3.833   2.001   6.626
  181SOL    HW2 1443   3.885   2.054   6.480
  182SOL     OW 1444   4.235   2.238   3.844
  182SOL    HW1 1445   4.197   2.266   3.932
  182SOL    HW2 1446   4.324   2.281   3.831
  183SOL     OW 1447   4.678   1.265   1.691
  183SOL    HW1 1448   4.704   1.322   1.769
  183SOL    HW2 1449   4.676   1.169   1.720
  184SOL     OW 1450   1.158   5.063   3.256
  184SOL    HW1 1451   1.119   4.997   3.192
  184SOL    HW2 1452   1.253   5.040   3.274
  185SOL     OW 1453   1.518   3.521   6.489
  185SOL    HW1 1454   1.571   3.603   6.509
  185SOL    HW2 1455   1.559   3.472   6.412
  186SOL     OW 1456   6.074   0.468   3.013
  186SOL    HW1 1457   6.045   0.530   3.085
  186SOL    HW2 1458   6.000   0.402   2.994
  187SOL     OW 1459   5.614   0.948   4.187
  187SOL    HW1 1460   5.628   1.017   4.117
  187SOL    HW2 1461   5.517   0.924   4.191
  188SOL     OW 1462   5.898   2.171   3.393
  188SOL    HW1 1463   5.908   2.246   3.327
  188SOL    HW2 1464   5.859   2.091   3.347
  189SOL     OW 1465   2.328   5.201   2.912
  189SOL    HW1 1466   2.275   5.198   2.827
  189SOL    HW2 1467   2.272   5.167   2.987
  190SOL     OW 1468   3.650   1.192   5.227
  190SOL    HW1 1469   3.665   1.162   5.321
  190SOL    HW2 1470   3.597   1.277   5.227
  191SOL     OW 1471   5.989   5.581   6.205
  191SOL    HW1 1472   6.008   5.538   6.117
  191SOL    HW2 1473   6.069   5.573   6.264
  192SOL     OW 1474   6.406   7.024   1.970
  192SOL    HW1 1475   6.472   0.023   2.040
  192SOL    HW2 1476   6.413   0.058   1.892
  193SOL     OW 1477   5.162   3.157   6.881
  193SOL    HW1 1478   5.190   3.101   6.958
  193SOL    HW2 1479   5.241   3.209   6.847
  194SOL     OW 1480   3.115   0.850   3.135
  194SOL    HW1 1481   3.182   0.780   3.162
  194SOL    HW2 1482   3.105   0.849   3.036
  195SOL     OW 1483   1.544   5.328   3.751
  195SOL    HW1 1484   1.491   5.381   3.817
  195SOL    HW2 1485   1.582   5.248   3.796
  196SOL     OW 1486   1.464   2.037   6.765
  196SOL    HW1 1487   1.378   2.086   6.754
  196SOL    HW2 1488   1.527   2.064   6.693
  197SOL     OW 1489   2.189   1.380   1.390
  197SOL    HW1 1490   2.135   1.451   1.345
  197SOL    HW2 1491   2.137   1.294   1.390
  198SOL     OW 1492   4.232   1.343   3.221
  198SOL    HW1 1493   4.255   1.438   3.246
  198SOL    HW2 1494   4.306   1.305   3.165
  199SOL     OW 1495   1.092   2.500   4.416
  199SOL    HW1 1496   1.083   2.490   4.515
  199SOL    HW2 1497   1.129   2.591   4.395
  200SOL     OW 1498   0.211   2.582   0.727
  200SOL    HW1 1499   0.253   2.587   0.818
  200SOL    HW2 1500   0.133   2.520   0.730
  201SOL     OW 1501   0.820   0.527   5.831
  201SOL    HW1 1502   0.848   0.567   5.744
  201SOL    HW2 1503   0.890   0.545   5.900
  202SOL     OW 1504   4.597   0.191   6.239
  202SOL    HW1 1505   4.558   0.197   6.331
  202SOL    HW2 1506   4.633   0.281   6.213
  203SOL     OW 1507   5.527   3.030   5.153
  203SOL    HW1 1508   5.590   3.005   5.080
  203SOL    HW2 1509   5.495   2.948   5.200
  204SOL     OW 1510   0.310   0.697   5.867
  204SOL    HW1 1511   0.402   0.658   5.869
  204SOL    HW2 1512   0.306   0.776   5.929
  205SOL     OW 1513   0.923   2.704   2.211
  205SOL    HW1 1514   0.965   2.712   2.120
  205SOL    HW2 1515   0.912   2.607   2.234
  206SOL     OW 1516   0.392   3.118   0.896
  206SOL    HW1 1517   0.346   3.205   0.914
  206SOL    HW2 1518   0.382   3.058   0.974
  207SOL     OW 1519   4.982   2.116   3.695
  207SOL    HW1 1520   4.901   2.121   3.635
  207SOL    HW2 1521   5.042   2.193   3.676
  208SOL     OW 1522   0.882   4.175   4.704
  208SOL    HW1 1523   0.946   4.098   4.703
  208SOL    HW2 1524   0.798   4.150   4.655
  209SOL     OW 1525   6.771   4.680   2.514
  209SOL    HW1 1526   6.759   4.731   2.599
  209SOL    HW2 1527   6.868   4.660   2.501
  210SOL     OW 1528   4.357   2.484   0.135
  210SOL    HW1 1529   4.316   2.429   0.209
  210SOL    HW2 1530   4.422   2.549   0.174
  211SOL     OW 1531   1.310   0.635   3.296
  211SOL    HW1 1532   1.313   0.623   3.396
  211SOL    HW2 1533   1.250   0.566   3.257
  212SOL     OW 1534   1.611   3.863   3.471
  212SOL    HW1 1535   1.560   3.866   3.385
  212SOL    HW2 1536   1.548   3.848   3.547
  213SOL     OW 1537   1.750   5.423   1.552
  213SOL    HW1 1538   1.711   5.515   1.543
  213SOL    HW2 1539   1.827   5.425   1.615
  214SOL     OW 1540   4.388   5.804   2.324
  214SOL    HW1 1541   4.483   5.775   2.307
  214SOL    HW2 1542   4.353   5.757   2.405
  215SOL     OW 1543   2.288   4.972   2.179
  215SOL    HW1 1544   2.370   4.950   2.231
  215SOL    HW2 1545   2.293   4.928   2.089
  216SOL     OW 1546   1.532   0.145   2.434
  216SOL    HW1 1547   1.551   0.047   2.425
  216SOL    HW2 1548   1.553   0.175   2.527
  217SOL     OW 1549   1.129   3.663   6.307
  217SOL    HW1 1550   1.070   3.667   6.226
  217SOL    HW2 1551   1.133   3.569   6.340
  218SOL     OW 1552   0.904   2.380   5.650
  218SOL    HW1 1553   0.928   2.457   5.708
  218SOL    HW2 1554   0.933   2.295   5.694
  219SOL     OW 1555   4.028   0.227   0.338
  219SOL    HW1 1556   3.987   0.317   0.348
  219SOL    HW2 1557   3.981   0.176   0.266
  220SOL     OW 1558   3.249   6.990   0.950
  220SOL    HW1 1559   3.258   7.018   0.854
  220SOL    HW2 1560   3.201   0.034   1.001
  221SOL     OW 1561   5.267   5.396   1.056
  221SOL    HW1 1562   5.255   5.480   1.002
  221SOL    HW2 1563   5.193   5.388   1.122
  222SOL     OW 1564   1.954   4.432   6.627
  222SOL    HW1 1565   1.874   4.374   6.612
  222SOL    HW2 1566   2.030   4.398   6.572
  223SOL     OW 1567   6.480   2.924   5.391
  223SOL    HW1 1568   6.519   2.957   5.305
  223SOL    HW2 1569   6.429   2.840   5.374
  224SOL     OW 1570   2.316   1.604   6.005
  224SOL    HW1 1571   2.293   1.669   5.932
  224SOL    HW2 1572   2.305   1.511   5.970
  225SOL     OW 1573   4.903   3.762   5.992
  225SOL    HW1 1574   4.998   3.767   5.963
  225SOL    HW2 1575   4.866   3.854   6.003
  226SOL     OW 1576   1.136   1.627   6.446
  226SOL    HW1 1577   1.071   1.557   6.418
  226SOL    HW2 1578   1.154   1.689   6.369
  227SOL     OW 1579   2.452   4.105   1.768
  227SOL    HW1 1580   2.541   4.097   1.724
  227SOL    HW2 1581   2.391   4.032   1.734
  228SOL     OW 1582   1.521   0.445   2.848
  228SOL    HW1 1583   1.446   0.480   2.793
  228SOL    HW2 1584   1.580   0.387   2.792
  229SOL     OW 1585   5.171   4.594   6.652
  229SOL    HW1 1586   5.251   4.554   6.698
  229SOL    HW2 1587   5.167   4.692   6.671
  230SOL     OW 1588   4.429   5.964   4.542
  230SOL    HW1 1589   4.420   5.917   4.630
  230SOL    HW2 1590   4.378   5.914   4.472
  231SOL     OW 1591   5.304   1.307   6.988
  231SOL    HW1 1592   5.320   1.404   6.969
  231SOL    HW2 1593   5.206   1.290   6.992
  232SOL     OW 1594   1.217   2.280   6.202
  232SOL    HW1 1595   1.316   2.289   6.189
  232SOL    HW2 1596   1.177   2.239   6.120
  233SOL     OW 1597   2.754   1.546   3.708
  233SOL    HW1 1598   2.747   1.539   3.608
  233SOL    HW2 1599   2.833   1.601   3.732
  234SOL     OW 1600   5.547   1.176   6.430
  234SOL    HW1 1601   5.466   1.223   6.464
  234SOL    HW2 1602   5.588   1.122   6.504
  235SOL     OW 1603   4.946   3.342   2.189
  235SOL    HW1 1604   5.032   3.366   2.234
  235SOL    HW2 1605   4.894   3.281   2.247
  236SOL     OW 1606   4.360   3.692   6.454
  236SOL    HW1 1607   4.352   3.786   6.487
  236SOL    HW2 1608   4.273   3.663   6.414
  237SOL     OW 1609   6.120   4.199   2.592
  237SOL    HW1 1610   6.063   4.270   2.551
  237SOL    HW2 1611   6.197   4.179   2.531
  238SOL     OW 1612   5.985   1.671   0.437
  238SOL    HW1 1613   5.954   1.740   0.371
  238SOL    HW2 1614   5.961   1.580   0.404
  239SOL     OW 1615   1.260   4.044   0.534
  239SOL    HW1 1616   1.310   4.099   0.600
  239SOL    HW2 1617   1.272   3.947   0.556
  240SOL     OW 1618   6.493   4.060   3.245
  240SOL    HW1 1619   6.434   4.124   3.294
  240SOL    HW2 1620   6.467   4.058   3.149
  241SOL     OW 1621   2.850   1.807   4.098
  241SOL    HW1 1622   2.800   1.857   4.170
  241SOL    HW2 1623   2.823   1.711   4.100
  242SOL     OW 1624   3.445   4.118   3.656
  242SOL    HW1 1625   3.367   4.174   3.684
  242SOL    HW2 1626   3.412   4.036   3.608
  243SOL     OW 1627   4.619   2.883   6.438
  243SOL    HW1 1628   4.656   2.815   6.375
  243SOL    HW2 1629   4.691   2.913   6.500
  244SOL     OW 1630   6.116   3.449   6.223
  244SOL    HW1 1631   6.029   3.498   6.217
  244SOL    HW2 1632   6.123   3.403   6.312
  245SOL     OW 1633   3.039   1.663   3.141
  245SOL    HW1 1634   3.135   1.671   3.168
  245SOL    HW2 1635   3.026   1.703   3.051
  246SOL     OW 1636   5.851   1.742   3.530
  246SOL    HW1 1637   5.943   1.781   3.527
  246SOL    HW2 1638   5.857   1.644   3.551
  247SOL     OW 1639   2.030   2.083   0.653
  247SOL    HW1 1640   1.961   2.015   0.677
  247SOL    HW2 1641   2.074   2.057   0.567
  248SOL     OW 1642   2.223   1.501   2.308
  248SOL    HW1 1643   2.212   1.557   2.225
  248SOL    HW2 1644   2.321   1.487   2.325
  249SOL     OW 1645   5.367   0.069   4.772
  249SOL    HW1 1646   5.415   0.155   4.751
  249SOL    HW2 1647   5.281   0.066   4.722
  250SOL     OW 1648   3.742   2.733   0.659
  250SOL    HW1 1649   3.804   2.700   0.731
  250SOL    HW2 1650   3.652   2.693   0.671
  251SOL     OW 1651   4.350   3.865   5.536
  251SOL    HW1 1652   4.278   3.800   5.563
  251SOL    HW2 1653   4.337   3.891   5.440
  252SOL     OW 1654   5.811   6.460   5.681
  252SOL    HW1 1655   5.742   6.432   5.748
  252SOL    HW2 1656   5.820   6.560   5.681
  253SOL     OW 1657   4.228   5.132   5.610
  253SOL    HW1 1658   4.159   5.101   5.545
  253SOL    HW2 1659   4.275   5.053   5.649
  254SOL     OW 1660   6.349   2.760   4.221
  254SOL    HW1 1661   6.259   2.723   4.201
  254SOL    HW2 1662   6.340   2.839   4.282
  255SOL     OW 1663   1.892   4.800   5.871
  255SOL    HW1 1664   1.917   4.735   5.942
  255SOL    HW2 1665   1.973   4.847   5.838
  256SOL     OW 1666   4.667   3.029   5.882
  256SOL    HW1 1667   4.728   3.023   5.961
  256SOL    HW2 1668   4.715   3.074   5.807
  257SOL     OW 1669   4.830   6.325   2.756
  257SOL    HW1 1670   4.894   6.336   2.831
  257SOL    HW2 1671   4.880   6.322   2.669
  258SOL     OW 1672   2.718   3.849   6.186
  258SOL    HW1 1673   2.681   3.759   6.163
  258SOL    HW2 1674   2.771   3.883   6.109
  259SOL     OW 1675   4.226   0.275   2.358
  259SOL    HW1 1676   4.168   0.223   2.419
  259SOL    HW2 1677   4.200   0.372   2.361
  260SOL     OW 1678   4.146   5.152   3.745
  260SOL    HW1 1679   4.213   5.078   3.745
  260SOL    HW2 1680   4.192   5.239   3.760
  261SOL     OW 1681   4.971   4.779   0.622
  261SOL    HW1 1682   4.898   4.795   0.689
  261SOL    HW2 1683   4.970   4.683   0.595
  262SOL     OW 1684   2.146   3.804   0.904
  262SOL    HW1 1685   2.104   3.832   0.990
  262SOL    HW2 1686   2.096   3.846   0.827
  263SOL     OW 1687   1.221   6.935   4.319
  263SOL    HW1 1688   1.297   6.891   4.271
  263SOL    HW2 1689   1.192   6.876   4.395
  264SOL     OW 1690   0.048   2.873   0.085
  264SOL    HW1 1691   0.009   2.909   0.001
  264SOL    HW2 1692   0.072   2.777   0.072
  265SOL     OW 1693   5.886   6.791   4.046
  265SOL    HW1 1694   5.878   6.890   4.043
  265SOL    HW2 1695   5.824   6.755   4.116
  266SOL     OW 1696   5.161   2.227   5.682
  266SOL    HW1 1697   5.085   2.253   5.742
  266SOL    HW2 1698   5.125   2.203   5.591
  267SOL     OW 1699   1.254   0.796   5.205
  267SOL    HW1 1700   1.316   0.800   5.127
  267SOL    HW2 1701   1.304   0.819   5.288
  268SOL     OW 1702   4.107   1.197   0.456
  268SOL    HW1 1703   4.100   1.110   0.504
  268SOL    HW2 1704   4.083   1.272   0.518
  269SOL     OW 1705   3.254   2.024   0.107
  269SOL    HW1 1706   3.222   2.115   0.082
  269SOL    HW2 1707   3.324   2.031   0.178
  270SOL     OW 1708   0.555   6.808   6.872
  270SOL    HW1 1709   0.574   6.845   6.964
  270SOL    HW2 1710   0.503   6.723   6.880
  271SOL     OW 1711   0.241   1.918   6.381
  271SOL    HW1 1712   0.300   1.995   6.405
  271SOL    HW2 1713   0.169   1.909   6.450
  272SOL     OW 1714   3.223   5.842   3.998
  272SOL    HW1 1715   3.194   5.837   4.093
  272SOL    HW2 1716   3.201   5.932   3.961
  273SOL     OW 1717   1.774   4.857   5.577
  273SOL    HW1 1718   1.760   4.911   5.660
  273SOL    HW2 1719   1.861   4.882   5.536
  274SOL     OW 1720   3.796   1.081   4.277
  274SOL    HW1 1721   3.737   1.000   4.286
  274SOL    HW2 1722   3.881   1.056   4.233
  275SOL     OW 1723   0.383   6.964   2.807
  275SOL    HW1 1724   0.369   0.018   2.751
  275SOL    HW2 1725   0.296   6.936   2.848
  276SOL     OW 1726   0.641   0.241   4.655
  276SOL    HW1 1727   0.665   0.149   4.686
  276SOL    HW2 1728   0.724   0.293   4.639
  277SOL     OW 1729   2.356   3.116   0.911
  277SOL    HW1 1730   2.407   3.031   0.902
  277SOL    HW2 1731   2.300   3.129   0.829
  278SOL     OW 1732   0.108   2.552   3.197
  278SOL    HW1 1733   0.035   2.613   3.230
  278SOL    HW2 1734   0.068   2.483   3.137
  279SOL     OW 1735   5.466   2.780   4.407
  279SOL    HW1 1736   5.542   2.843   4.423
  279SOL    HW2 1737   5.487   2.691   4.447
  280SOL     OW 1738   1.775   5.266   1.792
  280SOL    HW1 1739   1.865   5.309   1.799
  280SOL    HW2 1740   1.730   5.296   1.707
  281SOL     OW 1741   2.401   3.981   0.982
  281SOL    HW1 1742   2.384   4.044   1.058
  281SOL    HW2 1743   2.316   3.936   0.956
  282SOL     OW 1744   3.611   2.016   6.054
  282SOL    HW1 1745   3.587   2.089   6.118
  282SOL    HW2 1746   3.560   2.029   5.969
  283SOL     OW 1747   5.311   3.007   6.674
  283SOL    HW1 1748   5.341   2.986   6.580
  283SOL    HW2 1749   5.223   3.055   6.671
  284SOL     OW 1750   0.721   3.019   3.684
  284SOL    HW1 1751   0.771   2.935   3.708
  284SOL    HW2 1752   0.666   3.048   3.762
  285SOL     OW 1753   5.971   4.615   3.914
  285SOL    HW1 1754   5.887   4.580   3.872
  285SOL    HW2 1755   5.947   4.680   3.987
  286SOL     OW 1756   3.408   3.875   6.935
  286SOL    HW1 1757   3.317   3.906   6.964
  286SOL    HW2 1758   3.398   3.809   6.860
  287SOL     OW 1759   1.856   3.640   0.903
  287SOL    HW1 1760   1.864   3.561   0.965
  287SOL    HW2 1761   1.945   3.684   0.894
  288SOL     OW 1762   4.562   1.478   0.031
  288SOL    HW1 1763   4.614   1.496   0.115
  288SOL    HW2 1764   4.601   1.399   7.012
  289SOL     OW 1765   2.345   4.555   5.940
  289SOL    HW1 1766   2.290   4.478   5.972
  289SOL    HW2 1767   2.404   4.526   5.865
  290SOL     OW 1768   0.190   2.276   5.557
  290SOL    HW1 1769   0.107   2.270   5.611
  290SOL    HW2 1770   0.240   2.190   5.562
  291SOL     OW 1771   0.334   1.462   2.772
  291SOL    HW1 1772   0.272   1.470   2.850
  291SOL    HW2 1773   0.413   1.522   2.785
  292SOL     OW 1774   2.093   0.792   3.327
  292SOL    HW1 1775   1.994   0.780   3.326
  292SOL    HW2 1776   2.136   0.723   3.269
  293SOL     OW 1777   4.578   5.384   4.286
  293SOL    HW1 1778   4.531   5.317   4.228
  293SOL    HW2 1779   4.522   5.403   4.367
  294SOL     OW 1780   5.445   6.498   6.331
  294SOL    HW1 1781   5.413   6.548   6.412
  294SOL    HW2 1782   5.476   6.564   6.263
  295SOL     OW 1783   5.152   0.519   3.716
  295SOL    HW1 1784   5.122   0.488   3.626
  295SOL    HW2 1785   5.134   0.616   3.726
  296SOL     OW 1786   2.852   1.812   3.273
  296SOL    HW1 1787   2.825   1.893   3.221
  296SOL    HW2 1788   2.917   1.758   3.220
  297SOL     OW 1789   1.346   3.752   3.946
  297SOL    HW1 1790   1.356   3.677   4.011
  297SOL    HW2 1791   1.303   3.830   3.991
  298SOL     OW 1792   6.129   5.263   1.004
  298SOL    HW1 1793   6.136   5.277   0.905
  298SOL    HW2 1794   6.046   5.211   1.025
  299SOL     OW 1795   6.353   2.611   4.743
  299SOL    HW1 1796   6.335   2.534   4.682
  299SOL    HW2 1797   6.406   2.580   4.821
  300SOL     OW 1798   5.890   0.789   2.950
  300SOL    HW1 1799   5.902   0.761   3.046
  300SOL    HW2 1800   5.954   0.863   2.929
  301SOL     OW 1801   5.578   3.555   6.492
  301SOL    HW1 1802   5.670   3.516   6.487
  301SOL    HW2 1803   5.580   3.636   6.551
  302SOL     OW 1804   0.613   0.083   3.800
  302SOL    HW1 1805   0.579   0.052   3.711
  302SOL    HW2 1806   0.680   0.157   3.786
  303SOL     OW 1807   5.151   0.794   3.196
  303SOL    HW1 1808   5.102   0.767   3.279
  303SOL    HW2 1809   5.235   0.741   3.189
  304SOL     OW 1810   2.371   0.118   3.702
  304SOL    HW1 1811   2.426   0.039   3.728
  304SOL    HW2 1812   2.280   0.088   3.675
  305SOL     OW 1813   1.400   3.557   0.469
  305SOL    HW1 1814   1.305   3.588   0.471
  305SOL    HW2 1815   1.461   3.637   0.468
  306SOL     OW 1816   1.925   1.295   4.271
  306SOL    HW1 1817   1.877   1.338   4.194
  306SOL    HW2 1818   1.976   1.364   4.321
  307SOL     OW 1819   4.170   0.023   0.937
  307SOL    HW1 1820   4.239   0.053   0.870
  307SOL    HW2 1821   4.188   0.066   1.025
  308SOL     OW 1822   0.962   5.983   3.774
  308SOL    HW1 1823   1.058   5.991   3.747
  308SOL    HW2 1824   0.958   5.964   3.872
  309SOL     OW 1825   3.459   5.067   5.037
  309SOL    HW1 1826   3.421   5.129   5.106
  309SOL    HW2 1827   3.432   5.098   4.946
  310SOL     OW 1828   0.341   6.114   5.522
  310SOL    HW1 1829   0.306   6.115   5.428
  310SOL    HW2 1830   0.266   6.091   5.585
  311SOL     OW 1831   0.552   6.546   1.161
  311SOL    HW1 1832   0.547   6.449   1.185
  311SOL    HW2 1833   0.598   6.556   1.073
  312SOL     OW 1834   4.603   1.987   5.102
  312SOL    HW1 1835   4.701   1.991   5.084
  312SOL    HW2 1836   4.554   1.966   5.017
  313SOL     OW 1837   1.929   4.284   1.871
  313SOL    HW1 1838   2.022   4.284   1.835
  313SOL    HW2 1839   1.932   4.287   1.971
  314SOL     OW 1840   3.637   6.020   0.326
  314SOL    HW1 1841   3.601   6.049   0.415
  314SOL    HW2 1842   3.685   5.932   0.336
  315SOL     OW 1843   0.779   2.066   3.304
  315SOL    HW1 1844   0.833   2.113   3.374
  315SOL    HW2 1845   0.688   2.108   3.298
  316SOL     OW 1846   2.538   2.540   3.878
  316SOL    HW1 1847   2.634   2.552   3.903
  316SOL    HW2 1848   2.480   2.571   3.953
  317SOL     OW 1849   6.885   1.652   0.269
  317SOL    HW1 1850   6.984   1.671   0.269
  317SOL    HW2 1851   6.845   1.683   0.355
  318SOL     OW 1852   1.943   4.302   0.805
  318SOL    HW1 1853   2.021   4.363   0.816
  318SOL    HW2 1854   1.954   4.247   0.722
  319SOL     OW 1855   1.987   6.403   0.789
  319SOL    HW1 1856   1.980   6.497   0.821
  319SOL    HW2 1857   1.981   6.400   0.690
  320SOL     OW 1858   6.000   3.542   0.763
  320SOL    HW1 1859   5.924   3.588   0.718
  320SOL    HW2 1860   6.015   3.453   0.720
  321SOL     OW 1861   2.047   2.770   1.215
  321SOL    HW1 1862   2.033   2.674   1.237
  321SOL    HW2 1863   2.095   2.815   1.290
  322SOL     OW 1864   3.650   3.116   5.259
  322SOL    HW1 1865   3.720   3.179   5.293
  322SOL    HW2 1866   3.693   3.039   5.212
  323SOL     OW 1867   0.094   3.886   1.328
  323SOL    HW1 1868   0.033   3.867   1.252
  323SOL    HW2 1869   0.172   3.939   1.297
  324SOL     OW 1870   0.785   2.637   4.914
  324SOL    HW1 1871   0.806   2.673   4.824
  324SOL    HW2 1872   0.853   2.567   4.938
  325SOL     OW 1873   2.236   2.774   1.909
  325SOL    HW1 1874   2.322   2.728   1.885
  325SOL    HW2 1875   2.217   2.846   1.843
  326SOL     OW 1876   1.480   5.519   6.333
  326SOL    HW1 1877   1.393   5.471   6.344
  326SOL    HW2 1878   1.525   5.527   6.422
  327SOL     OW 1879   6.454   5.016   5.437
  327SOL    HW1 1880   6.416   5.106   5.414
  327SOL    HW2 1881   6.528   4.995   5.374
  328SOL     OW 1882   4.211   5.119   2.381
  328SOL    HW1 1883   4.295   5.098   2.431
  328SOL    HW2 1884   4.143   5.156   2.444
  329SOL     OW 1885   3.561   3.809   3.437
  329SOL    HW1 1886   3.476   3.822   3.489
  329SOL    HW2 1887   3.538   3.786   3.342
  330SOL     OW 1888   3.555   0.254   1.903
  330SOL    HW1 1889   3.519   0.209   1.822
  330SOL    HW2 1890   3.534   0.199   1.984
  331SOL     OW 1891   5.165   5.066   5.815
  331SOL    HW1 1892   5.154   5.142   5.750
  331SOL    HW2 1893   5.261   5.058   5.841
  332SOL     OW 1894   3.128   1.971   2.756
  332SOL    HW1 1895   3.052   1.975   2.820
  332SOL    HW2 1896   3.214   1.963   2.807
  333SOL     OW 1897   3.992   5.789   6.443
  333SOL    HW1 1898   4.000   5.792   6.344
  333SOL    HW2 1899   4.040   5.868   6.483
  334SOL     OW 1900   4.033   0.071   2.174
  334SOL    HW1 1901   3.942   0.052   2.138
  334SOL    HW2 1902   4.101   0.056   2.102
  335SOL     OW 1903   3.073   6.759   3.328
  335SOL    HW1 1904   3.036   6.725   3.414
  335SOL    HW2 1905   3.000   6.763   3.260
  336SOL     OW 1906   3.041   0.728   3.627
  336SOL    HW1 1907   3.017   0.806   3.570
  336SOL    HW2 1908   3.016   0.746   3.722
  337SOL     OW 1909   6.819   3.746   1.411
  337SOL    HW1 1910   6.745   3.693   1.454
  337SOL    HW2 1911   6.803   3.750   1.312
  338SOL     OW 1912   3.290   2.941   1.316
  338SOL    HW1 1913   3.375   2.888   1.308
  338SOL    HW2 1914   3.213   2.879   1.327
  339SOL     OW 1915   4.553   6.663   2.947
  339SOL    HW1 1916   4.627   6.718   2.984
  339SOL    HW2 1917   4.499   6.624   3.021
  340SOL     OW 1918   4.747   4.061   4.615
  340SOL    HW1 1919   4.693   3.977   4.620
  340SOL    HW2 1920   4.736   4.113   4.700
  341SOL     OW 1921   5.624   5.205   4.576
  341SOL    HW1 1922   5.598   5.302   4.575
  341SOL    HW2 1923   5.586   5.159   4.497
  342SOL     OW 1924   6.267   4.460   0.943
  342SOL    HW1 1925   6.260   4.559   0.960
  342SOL    HW2 1926   6.318   4.444   0.859
  343SOL     OW 1927   3.183   0.472   2.066
  343SOL    HW1 1928   3.095   0.521   2.064
  343SOL    HW2 1929   3.216   0.468   2.161
  344SOL     OW 1930   2.413   5.138   0.473
  344SOL    HW1 1931   2.481   5.103   0.536
  344SOL    HW2 1932   2.339   5.181   0.524
  345SOL     OW 1933   0.883   0.300   4.889
  345SOL    HW1 1934   0.881   0.240   4.969
  345SOL    HW2 1935   0.923   0.251   4.812
  346SOL     OW 1936   1.038   0.235   2.991
  346SOL    HW1 1937   1.063   0.155   2.937
  346SOL    HW2 1938   1.117   0.295   3.001
  347SOL     OW 1939   4.959   6.673   6.639
  347SOL    HW1 1940   4.969   6.704   6.733
  347SOL    HW2 1941   4.898   6.735   6.589
  348SOL     OW 1942   3.873   5.596   1.682
  348SOL    HW1 1943   3.792   5.655   1.686
  348SOL    HW2 1944   3.931   5.623   1.606
  349SOL     OW 1945   0.865   4.477   2.206
  349SOL    HW1 1946   0.939   4.542   2.189
  349SOL    HW2 1947   0.904   4.391   2.241
  350SOL     OW 1948   4.119   3.376   1.161
  350SOL    HW1 1949   4.108   3.292   1.107
  350SOL    HW2 1950   4.182   3.358   1.237
  351SOL     OW 1951   3.120   1.885   0.319
  351SOL    HW1 1952   3.149   1.791   0.300
  351SOL    HW2 1953   3.115   1.936   0.233
  352SOL     OW 1954   2.979   0.798   6.741
  352SOL    HW1 1955   2.909   0.868   6.728
  352SOL    HW2 1956   2.995   0.750   6.655
  353SOL     OW 1957   2.006   6.290   1.046
  353SOL    HW1 1958   1.981   6.326   0.956
  353SOL    HW2 1959   1.996   6.361   1.115
  354SOL     OW 1960   4.711   1.462   0.770
  354SOL    HW1 1961   4.765   1.422   0.845
  354SOL    HW2 1962   4.654   1.535   0.806
  355SOL     OW 1963   0.129   2.928   2.542
  355SOL    HW1 1964   0.117   2.989   2.464
  355SOL    HW2 1965   0.041   2.889   2.568
  356SOL     OW 1966   3.924   5.300   3.421
  356SOL    HW1 1967   3.837   5.312   3.470
  356SOL    HW2 1968   3.936   5.204   3.397
  357SOL     OW 1969   0.074   5.385   5.384
  357SOL    HW1 1970   0.062   5.381   5.483
  357SOL    HW2 1971   7.020   5.352   5.339
  358SOL     OW 1972   5.401   0.428   1.217
  358SOL    HW1 1973   5.478   0.375   1.180
  358SOL    HW2 1974   5.420   0.525   1.204
  359SOL     OW 1975   1.551   1.563   1.766
  359SOL    HW1 1976   1.509   1.575   1.855
  359SOL    HW2 1977   1.561   1.466   1.746
  360SOL     OW 1978   4.060   6.938   7.013
  360SOL    HW1 1979   4.057   6.844   6.980
  360SOL    HW2 1980   4.138   6.985   6.971
  361SOL     OW 1981   4.515   6.955   2.341
  361SOL    HW1 1982   4.527   0.026   2.341
  361SOL    HW2 1983   4.486   6.925   2.432
  362SOL     OW 1984   3.200   3.480   0.794
  362SOL    HW1 1985   3.187   3.578   0.804
  362SOL    HW2 1986   3.197   3.436   0.884
  363SOL     OW 1987   4.513   4.544   4.460
  363SOL    HW1 1988   4.576   4.601   4.511
  363SOL    HW2 1989   4.435   4.520   4.518
  364SOL     OW 1990   1.157   5.466   5.564
  364SOL    HW1 1991   1.231   5.504   5.508
  364SOL    HW2 1992   1.195   5.429   5.649
  365SOL     OW 1993   4.602   6.497   1.876
  365SOL    HW1 1994   4.620   6.476   1.780
  365SOL    HW2 1995   4.634   6.421   1.933
  366SOL     OW 1996   6.041   0.967   6.853
  366SOL    HW1 1997   5.944   0.988   6.843
  366SOL    HW2 1998   6.093   1.053   6.858
  367SOL     OW 1999   5.407   2.717   1.115
  367SOL    HW1 2000   5.330   2.655   1.101
  367SOL    HW2 2001   5.399   2.760   1.205
  368SOL     OW 2002   1.054   4.880   4.948
  368SOL    HW1 2003   0.991   4.956   4.964
  368SOL    HW2 2004   1.075   4.874   4.850
  369SOL     OW 2005   1.133   3.638   1.784
  369SOL    HW1 2006   1.168   3.561   1.838
  369SOL    HW2 2007   1.177   3.722   1.814
  370SOL     OW 2008   3.805   1.376   5.540
  370SOL    HW1 2009   3.841   1.369   5.447
  370SOL    HW2 2010   3.730   1.443   5.541
  371SOL     OW 2011   4.197   2.544   6.956
  371SOL    HW1 2012   4.215   2.531   0.026
  371SOL    HW2 2013   4.148   2.631   6.943
  372SOL     OW 2014   0.558   6.169   6.298
  372SOL    HW1 2015   0.481   6.220   6.261
  372SOL    HW2 2016   0.550   6.073   6.272
  373SOL     OW 2017   0.111   6.738   0.131
  373SOL    HW1 2018   0.067   6.709   0.047
  373SOL    HW2 2019   0.126   6.659   0.190
  374SOL     OW 2020   3.303   1.048   1.572
  374SOL    HW1 2021   3.213   1.020   1.605
  374SOL    HW2 2022   3.370   0.977   1.593
  375SOL     OW 2023   6.786   4.849   3.215
  375SOL    HW1 2024   6.744   4.848   3.124
  375SOL    HW2 2025   6.745   4.777   3.271
  376SOL     OW 2026   2.335   2.725   3.685
  376SOL    HW1 2027   2.298   2.694   3.772
  376SOL    HW2 2028   2.406   2.661   3.654
  377SOL     OW 2029   4.893   1.818   3.595
  377SOL    HW1 2030   4.945   1.770   3.525
  377SOL    HW2 2031   4.950   1.832   3.676
  378SOL     OW 2032   5.014   2.829   4.875
  378SOL    HW1 2033   4.926   2.875   4.878
  378SOL    HW2 2034   5.081   2.888   4.829
  379SOL     OW 2035   6.445   3.887   1.199
  379SOL    HW1 2036   6.460   3.839   1.113
  379SOL    HW2 2037   6.396   3.828   1.263
  380SOL     OW 2038   0.983   2.329   1.095
  380SOL    HW1 2039   0.957   2.354   1.002
  380SOL    HW2 2040   1.032   2.405   1.138
  381SOL     OW 2041   3.832   3.543   1.039
  381SOL    HW1 2042   3.830   3.486   1.122
  381SOL    HW2 2043   3.763   3.615   1.048
  382SOL     OW 2044   2.834   5.959   0.939
  382SOL    HW1 2045   2.784   5.990   0.858
  382SOL    HW2 2046   2.786   5.987   1.021
  383SOL     OW 2047   6.212   2.661   0.191
  383SOL    HW1 2048   6.207   2.640   0.289
  383SOL    HW2 2049   6.268   2.742   0.177
  384SOL     OW 2050   1.655   5.659   5.333
  384SOL    HW1 2051   1.603   5.606   5.265
  384SOL    HW2 2052   1.598   5.732   5.369
  385SOL     OW 2053   4.744   5.564   0.628
  385SOL    HW1 2054   4.662   5.506   0.628
  385SOL    HW2 2055   4.813   5.524   0.568
  386SOL     OW 2056   3.489   6.252   6.091
  386SOL    HW1 2057   3.468   6.202   6.007
  386SOL    HW2 2058   3.571   6.213   6.133
  387SOL     OW 2059   0.444   0.674   5.352
  387SOL    HW1 2060   0.537   0.639   5.356
  387SOL    HW2 2061   0.379   0.599   5.361
  388SOL     OW 2062   6.488   2.550   4.979
  388SOL    HW1 2063   6.567   2.606   5.004
  388SOL    HW2 2064   6.510   2.453   4.995
  389SOL     OW 2065   4.256   4.652   1.396
  389SOL    HW1 2066   4.313   4.634   1.476
  389SOL    HW2 2067   4.292   4.730   1.345
  390SOL     OW 2068   3.494   2.046   0.399
  390SOL    HW1 2069   3.572   1.998   0.359
  390SOL    HW2 2070   3.464   1.998   0.482
  391SOL     OW 2071   3.302   4.504   5.436
  391SOL    HW1 2072   3.268   4.421   5.479
  391SOL    HW2 2073   3.226   4.566   5.417
  392SOL     OW 2074   1.505   3.427   1.781
  392SOL    HW1 2075   1.597   3.406   1.748
  392SOL    HW2 2076   1.508   3.508   1.839
  393SOL     OW 2077   1.096   4.047   1.907
  393SOL    HW1 2078   1.117   4.093   1.820
  393SOL    HW2 2079   1.042   4.108   1.965
  394SOL     OW 2080   0.085   1.165   6.664
  394SOL    HW1 2081   0.182   1.188   6.661
  394SOL    HW2 2082   0.074   1.076   6.710
  395SOL     OW 2083   5.312   4.847   1.196
  395SOL    HW1 2084   5.221   4.809   1.178
  395SOL    HW2 2085   5.325   4.856   1.295
  396SOL     OW 2086   1.981   1.205   1.721
  396SOL    HW1 2087   1.947   1.281   1.777
  396SOL    HW2 2088   1.985   1.235   1.625
  397SOL     OW 2089   4.366   2.146   5.155
  397SOL    HW1 2090   4.298   2.107   5.093
  397SOL    HW2 2091   4.457   2.136   5.115
  398SOL     OW 2092   1.486   1.418   4.596
  398SOL    HW1 2093   1.531   1.463   4.673
  398SOL    HW2 2094   1.549   1.416   4.518
  399SOL     OW 2095   6.093   6.116   4.031
  399SOL    HW1 2096   6.069   6.028   3.992
  399SOL    HW2 2097   6.019   6.181   4.015
  400SOL     OW 2098   6.123   0.554   4.603
  400SOL    HW1 2099   6.156   0.613   4.529
  400SOL    HW2 2100   6.201   0.515   4.652
  401SOL     OW 2101   0.447   4.883   5.892
  401SOL    HW1 2102   0.467   4.855   5.798
  401SOL    HW2 2103   0.485   4.974   5.908
  402SOL     OW 2104   6.264   0.953   3.069
  402SOL    HW1 2105   6.247   0.932   3.165
  402SOL    HW2 2106   6.329   0.887   3.032
  403SOL     OW 2107   2.827   1.183   5.104
  403SOL    HW1 2108   2.877   1.255   5.152
  403SOL    HW2 2109   2.839   1.096   5.153
  404SOL     OW 2110   3.465   5.432   3.715
  404SOL    HW1 2111   3.365   5.434   3.720
  404SOL    HW2 2112   3.501   5.524   3.730
  405SOL     OW 2113   2.293   4.751   4.415
  405SOL    HW1 2114   2.384   4.791   4.401
  405SOL    HW2 2115   2.263   4.769   4.508
  406SOL     OW 2116   0.048   5.814   5.252
  406SOL    HW1 2117   0.129   5.761   5.277
  406SOL    HW2 2118   0.031   5.885   5.320
  407SOL     OW 2119   1.844   3.361   4.522
  407SOL    HW1 2120   1.934   3.390   4.556
  407SOL    HW2 2121   1.798   3.308   4.593
  408SOL     OW 2122   2.498   1.613   3.808
  408SOL    HW1 2123   2.587   1.580   3.778
  408SOL    HW2 2124   2.464   1.681   3.743
  409SOL     OW 2125   0.262   3.473   2.483
  409SOL    HW1 2126   0.235   3.567   2.501
  409SOL    HW2 2127   0.290   3.430   2.569
  410SOL     OW 2128   1.760   1.008   1.548
  410SOL    HW1 2129   1.670   0.991   1.507
  410SOL    HW2 2130   1.748   1.051   1.637
  411SOL     OW 2131   0.264   3.034   1.480
  411SOL    HW1 2132   0.279   3.124   1.520
  411SOL    HW2 2133   0.284   2.964   1.548
  412SOL     OW 2134   1.356   5.180   2.589
  412SOL    HW1 2135   1.339   5.097   2.537
  412SOL    HW2 2136   1.290   5.187   2.664
  413SOL     OW 2137   5.546   6.032   2.407
  413SOL    HW1 2138   5.542   6.130   2.429
  413SOL    HW2 2139   5.505   5.980   2.482
  414SOL     OW 2140   2.160   6.518   3.493
  414SOL    HW1 2141   2.097   6.595   3.487
  414SOL    HW2 2142   2.179   6.484   3.401
  415SOL     OW 2143   6.014   0.941   0.261
  415SOL    HW1 2144   5.929   0.986   0.290
  415SOL    HW2 2145   6.072   0.923   0.340
  416SOL     OW 2146   5.345   3.095   4.918
  416SOL    HW1 2147   5.338   3.026   4.990
  416SOL    HW2 2148   5.327   3.186   4.957
  417SOL     OW 2149   2.103   2.023   6.146
  417SOL    HW1 2150   2.182   2.044   6.089
  417SOL    HW2 2151   2.093   1.924   6.154
  418SOL     OW 2152   4.005   6.593   4.465
  418SOL    HW1 2153   3.905   6.584   4.465
  418SOL    HW2 2154   4.045   6.534   4.535
  419SOL     OW 2155   0.208   0.166   0.851
  419SOL    HW1 2156   0.152   0.236   0.897
  419SOL    HW2 2157   0.245   0.103   0.919
  420SOL     OW 2158   4.619   0.932   6.867
  420SOL    HW1 2159   4.543   0.995   6.848
  420SOL    HW2 2160   4.628   0.920   6.965
  421SOL     OW 2161   5.318   3.778   2.651
  421SOL    HW1 2162   5.296   3.737   2.563
  421SOL    HW2 2163   5.352   3.707   2.713
  422SOL     OW 2164   5.068   3.146   1.677
  422SOL    HW1 2165   5.044   3.220   1.740
  422SOL    HW2 2166   5.024   3.061   1.708
  423SOL     OW 2167   3.487   0.961   6.591
  423SOL    HW1 2168   3.552   1.013   6.537
  423SOL    HW2 2169   3.533   0.882   6.632
  424SOL     OW 2170   1.106   3.688   3.721
  424SOL    HW1 2171   1.152   3.742   3.791
  424SOL    HW2 2172   1.103   3.592   3.749
  425SOL     OW 2173   2.697   0.757   6.084
  425SOL    HW1 2174   2.616   0.801   6.124
  425SOL    HW2 2175   2.730   0.811   6.007
  426SOL     OW 2176   2.494   2.161   4.196
  426SOL    HW1 2177   2.435   2.216   4.137
  426SOL    HW2 2178   2.552   2.221   4.250
  427SOL     OW 2179   4.134   2.178   2.934
  427SOL    HW1 2180   4.171   2.087   2.951
  427SOL    HW2 2181   4.131   2.229   3.020
  428SOL     OW 2182   2.915   2.065   5.883
  428SOL    HW1 2183   2.897   1.992   5.817
  428SOL    HW2 2184   2.925   2.151   5.834
  429SOL     OW 2185   0.581   5.451   4.169
  429SOL    HW1 2186   0.634   5.536   4.173
  429SOL    HW2 2187   0.524   5.452   4.087
  430SOL     OW 2188   1.357   0.148   3.732
  430SOL    HW1 2189   1.284   0.108   3.788
  430SOL    HW2 2190   1.445   0.132   3.776
  431SOL     OW 2191   2.432   1.773   1.048
  431SOL    HW1 2192   2.378   1.835   0.991
  431SOL    HW2 2193   2.520   1.754   1.004
  432SOL     OW 2194   4.970   1.902   1.649
  432SOL    HW1 2195   5.011   1.886   1.559
  432SOL    HW2 2196   4.872   1.921   1.637
  433SOL     OW 2197   1.457   5.218   0.734
  433SOL    HW1 2198   1.483   5.169   0.817
  433SOL    HW2 2199   1.408   5.302   0.760
  434SOL     OW 2200   4.389   5.798   3.679
  434SOL    HW1 2201   4.471   5.846   3.649
  434SOL    HW2 2202   4.363   5.829   3.771
  435SOL     OW 2203   3.845   1.882   6.116
  435SOL    HW1 2204   3.831   1.829   6.200
  435SOL    HW2 2205   3.756   1.907   6.077
  436SOL     OW 2206   4.801   0.060   2.807
  436SOL    HW1 2207   4.846   0.001   2.874
  436SOL    HW2 2208   4.707   0.080   2.837
  437SOL     OW 2209   6.352   0.794   5.021
  437SOL    HW1 2210   6.284   0.786   5.094
  437SOL    HW2 2211   6.441   0.765   5.057
  438SOL     OW 2212   0.224   4.501   2.591
  438SOL    HW1 2213   0.224   4.416   2.644
  438SOL    HW2 2214   0.181   4.484   2.502
  439SOL     OW 2215   0.073   0.587   4.644
  439SOL    HW1 2216   0.009   0.650   4.689
  439SOL    HW2 2217   0.166   0.605   4.678
  440SOL     OW 2218   4.049   1.330   0.682
  440SOL    HW1 2219   4.048   1.382   0.768
  440SOL    HW2 2220   3.990   1.250   0.691
  441SOL     OW 2221   0.223   4.247   2.723
  441SOL    HW1 2222   0.207   4.181   2.650
  441SOL    HW2 2223   0.259   4.200   2.804
  442SOL     OW 2224   5.557   2.899   5.417
  442SOL    HW1 2225   5.477   2.868   5.366
  442SOL    HW2 2226   5.534   2.983   5.467
  443SOL     OW 2227   5.302   3.406   1.759
  443SOL    HW1 2228   5.210   3.432   1.790
  443SOL    HW2 2229   5.370   3.445   1.821
  444SOL     OW 2230   4.072   1.064   1.537
  444SOL    HW1 2231   4.020   1.093   1.617
  444SOL    HW2 2232   4.159   1.115   1.533
  445SOL     OW 2233   1.735   5.483   2.544
  445SOL    HW1 2234   1.738   5.495   2.643
  445SOL    HW2 2235   1.647   5.444   2.518
  446SOL     OW 2236   5.431   0.007   1.469
  446SOL    HW1 2237   5.344   0.008   1.421
  446SOL    HW2 2238   5.495   6.974   1.422
  447SOL     OW 2239   5.881   4.454   1.241
  447SOL    HW1 2240   5.840   4.545   1.236
  447SOL    HW2 2241   5.969   4.460   1.290
  448SOL     OW 2242   2.416   0.147   3.094
  448SOL    HW1 2243   2.371   0.064   3.061
  448SOL    HW2 2244   2.369   0.227   3.058
  449SOL     OW 2245   1.544   3.914   4.987
  449SOL    HW1 2246   1.639   3.944   4.996
  449SOL    HW2 2247   1.483   3.983   5.028
  450SOL     OW 2248   0.512   4.840   3.670
  450SOL    HW1 2249   0.575   4.851   3.747
  450SOL    HW2 2250   0.547   4.769   3.609
  451SOL     OW 2251   1.213   1.871   1.493
  451SOL    HW1 2252   1.238   1.799   1.428
  451SOL    HW2 2253   1.290   1.934   1.504
  452SOL     OW 2254   4.650   5.728   2.355
  452SOL    HW1 2255   4.687   5.740   2.263
  452SOL    HW2 2256   4.704   5.659   2.404
  453SOL     OW 2257   3.097   0.981   6.294
  453SOL    HW1 2258   3.055   0.897   6.330
  453SOL    HW2 2259   3.052   1.006   6.208
  454SOL     OW 2260   6.681   3.488   6.561
  454SOL    HW1 2261   6.637   3.477   6.650
  454SOL    HW2 2262   6.747   3.414   6.547
  455SOL     OW 2263   6.164   4.779   5.875
  455SOL    HW1 2264   6.152   4.812   5.782
  455SOL    HW2 2265   6.246   4.820   5.915
  456SOL     OW 2266   2.722   0.824   2.877
  456SOL    HW1 2267   2.642   0.805   2.820
  456SOL    HW2 2268   2.696   0.824   2.973
  457SOL     OW 2269   2.349   6.583   0.165
  457SOL    HW1 2270   2.376   6.516   0.234
  457SOL    HW2 2271   2.306   6.536   0.088
  458SOL     OW 2272   2.730   1.695   3.487
  458SOL    HW1 2273   2.772   1.739   3.408
  458SOL    HW2 2274   2.744   1.752   3.569
  459SOL     OW 2275   4.102   6.978   3.286
  459SOL    HW1 2276   4.022   7.009   3.338
  459SOL    HW2 2277   4.173   6.947   3.349
  460SOL     OW 2278   0.934   1.441   6.310
  460SOL    HW1 2279   0.919   1.344   6.293
  460SOL    HW2 2280   0.894   1.494   6.235
  461SOL     OW 2281   1.053   5.069   5.387
  461SOL    HW1 2282   1.103   4.987   5.360
  461SOL    HW2 2283   0.956   5.058   5.364
  462SOL     OW 2284   3.792   4.089   4.736
  462SOL    HW1 2285   3.860   4.155   4.703
  462SOL    HW2 2286   3.751   4.043   4.657
  463SOL     OW 2287   5.188   6.445   3.417
  463SOL    HW1 2288   5.272   6.471   3.368
  463SOL    HW2 2289   5.205   6.444   3.515
  464SOL     OW 2290   3.888   5.138   6.603
  464SOL    HW1 2291   3.860   5.045   6.580
  464SOL    HW2 2292   3.966   5.135   6.666
  465SOL     OW 2293   0.722   3.989   0.892
  465SOL    HW1 2294   0.816   4.014   0.867
  465SOL    HW2 2295   0.660   4.013   0.817
  466SOL     OW 2296   4.067   5.588   4.710
  466SOL    HW1 2297   4.166   5.583   4.714
  466SOL    HW2 2298   4.036   5.668   4.763
  467SOL     OW 2299   5.766   6.818   1.892
  467SOL    HW1 2300   5.744   6.876   1.970
  467SOL    HW2 2301   5.754   6.869   1.807
  468SOL     OW 2302   2.784   6.336   6.427
  468SOL    HW1 2303   2.795   6.277   6.507
  468SOL    HW2 2304   2.871   6.345   6.379
  469SOL     OW 2305   3.345   5.121   4.810
  469SOL    HW1 2306   3.355   5.108   4.712
  469SOL    HW2 2307   3.273   5.060   4.845
  470SOL     OW 2308   2.325   4.308   2.724
  470SOL    HW1 2309   2.338   4.215   2.758
  470SOL    HW2 2310   2.272   4.306   2.640
  471SOL     OW 2311   1.452   2.205   4.100
  471SOL    HW1 2312   1.426   2.191   4.196
  471SOL    HW2 2313   1.547   2.236   4.096
  472SOL     OW 2314   5.628   3.802   6.699
  472SOL    HW1 2315   5.540   3.828   6.738
  472SOL    HW2 2316   5.686   3.883   6.691
  473SOL     OW 2317   6.276   2.689   2.137
  473SOL    HW1 2318   6.334   2.608   2.143
  473SOL    HW2 2319   6.182   2.661   2.116
  474SOL     OW 2320   4.835   6.563   4.092
  474SOL    HW1 2321   4.844   6.464   4.108
  474SOL    HW2 2322   4.738   6.587   4.088
  475SOL     OW 2323   5.585   1.733   0.166
  475SOL    HW1 2324   5.597   1.812   0.105
  475SOL    HW2 2325   5.532   1.761   0.247
  476SOL     OW 2326   0.756   4.295   0.808
  476SOL    HW1 2327   0.669   4.249   0.791
  476SOL    HW2 2328   0.808   4.302   0.723
  477SOL     OW 2329   1.384   4.665   3.686
  477SOL    HW1 2330   1.441   4.582   3.687
  477SOL    HW2 2331   1.308   4.653   3.749
  478SOL     OW 2332   4.961   6.026   2.289
  478SOL    HW1 2333   4.868   6.000   2.316
  478SOL    HW2 2334   4.964   6.043   2.191
  479SOL     OW 2335   3.057   3.918   3.529
  479SOL    HW1 2336   3.078   3.931   3.625
  479SOL    HW2 2337   3.010   3.831   3.516
  480SOL     OW 2338   1.059   0.775   2.920
  480SOL    HW1 2339   1.118   0.787   2.840
  480SOL    HW2 2340   1.045   0.677   2.936
  481SOL     OW 2341   0.361   0.073   0.361
  481SOL    HW1 2342   0.353   7.004   0.334
  481SOL    HW2 2343   0.443   0.085   0.416
  482SOL     OW 2344   3.993   4.979   1.595
  482SOL    HW1 2345   4.007   4.893   1.643
  482SOL    HW2 2346   3.913   5.026   1.633
  483SOL     OW 2347   5.782   2.579   4.129
  483SOL    HW1 2348   5.698   2.587   4.074
  483SOL    HW2 2349   5.807   2.482   4.137
  484SOL     OW 2350   2.333   4.501   3.855
  484SOL    HW1 2351   2.391   4.551   3.791
  484SOL    HW2 2352   2.238   4.527   3.842
  485SOL     OW 2353   5.603   3.164   1.640
  485SOL    HW1 2354   5.576   3.258   1.619
  485SOL    HW2 2355   5.665   3.131   1.568
  486SOL     OW 2356   5.841   5.967   6.374
  486SOL    HW1 2357   5.891   5.886   6.343
  486SOL    HW2 2358   5.746   5.942   6.393
  487SOL     OW 2359   0.347   6.861   5.865
  487SOL    HW1 2360   0.391   6.899   5.946
  487SOL    HW2 2361   0.400   6.885   5.784
  488SOL     OW 2362   1.931   5.844   3.642
  488SOL    HW1 2363   1.871   5.920   3.667
  488SOL    HW2 2364   2.027   5.874   3.646
  489SOL     OW 2365   1.652   5.755   6.572
  489SOL    HW1 2366   1.557   5.726   6.568
  489SOL    HW2 2367   1.659   5.850   6.540
  490SOL     OW 2368   0.558   3.828   4.642
  490SOL    HW1 2369   0.565   3.766   4.564
  490SOL    HW2 2370   0.645   3.832   4.690
  491SOL     OW 2371   0.219   2.805   0.541
  491SOL    HW1 2372   0.280   2.871   0.584
  491SOL    HW2 2373   0.212   2.723   0.598
  492SOL     OW 2374   1.288   2.575   5.786
  492SOL    HW1 2375   1.249   2.648   5.841
  492SOL    HW2 2376   1.386   2.593   5.771
  493SOL     OW 2377   1.948   5.900   4.783
  493SOL    HW1 2378   1.989   5.838   4.716
  493SOL    HW2 2379   1.908   5.847   4.858
  494SOL     OW 2380   2.571   6.617   4.648
  494SOL    HW1 2381   2.554   6.588   4.742
  494SOL    HW2 2382   2.505   6.688   4.622
  495SOL     OW 2383   3.553   4.293   6.270
  495SOL    HW1 2384   3.576   4.387   6.244
  495SOL    HW2 2385   3.613   4.230   6.221
  496SOL     OW 2386   4.923   1.688   3.132
  496SOL    HW1 2387   5.011   1.672   3.087
  496SOL    HW2 2388   4.919   1.781   3.168
  497SOL     OW 2389   4.529   1.811   0.463
  497SOL    HW1 2390   4.520   1.746   0.539
  497SOL    HW2 2391   4.506   1.764   0.377
  498SOL     OW 2392   0.093   6.735   1.569
  498SOL    HW1 2393   0.138   6.683   1.495
  498SOL    HW2 2394   7.022   6.722   1.562
  499SOL     OW 2395   2.899   5.770   0.660
  499SOL    HW1 2396   2.810   5.775   0.705
  499SOL    HW2 2397   2.900   5.694   0.596
  500SOL     OW 2398   5.293   2.239   7.007
  500SOL    HW1 2399   5.351   2.297   6.951
  500SOL    HW2 2400   5.346   2.205   0.057
  501SOL     OW 2401   1.065   1.488   4.424
  501SOL    HW1 2402   1.004   1.566   4.413
  501SOL    HW2 2403   1.155   1.519   4.452
  502SOL     OW 2404   2.728   4.829   6.983
  502SOL    HW1 2405   2.699   4.746   6.936
  502SOL    HW2 2406   2.651   4.866   0.007
  503SOL     OW 2407   4.437   5.083   0.696
  503SOL    HW1 2408   4.512   5.036   0.650
  503SOL    HW2 2409   4.473   5.163   0.745
  504SOL     OW 2410   6.743   6.116   1.961
  504SOL    HW1 2411   6.805   6.044   1.992
  504SOL    HW2 2412   6.764   6.201   2.008
  505SOL     OW 2413   5.156   5.876   5.350
  505SOL    HW1 2414   5.137   5.959   5.297
  505SOL    HW2 2415   5.112   5.798   5.307
  506SOL     OW 2416   4.277   4.986   2.036
  506SOL    HW1 2417   4.224   4.904   2.013
  506SOL    HW2 2418   4.221   5.067   2.020
  507SOL     OW 2419   3.139   0.895   1.272
  507SOL    HW1 2420   3.146   0.993   1.257
  507SOL    HW2 2421   3.047   0.872   1.302
  508SOL     OW 2422   6.833   3.974   2.918
  508SOL    HW1 2423   6.886   3.890   2.902
  508SOL    HW2 2424   6.847   4.005   3.012
  509SOL     OW 2425   4.725   0.448   6.198
  509SOL    HW1 2426   4.699   0.480   6.107
  509SOL    HW2 2427   4.673   0.499   6.268
  510SOL     OW 2428   6.437   4.001   6.906
  510SOL    HW1 2429   6.479   3.963   6.988
  510SOL    HW2 2430   6.417   4.098   6.920
  511SOL     OW 2431   0.447   2.009   0.379
  511SOL    HW1 2432   0.358   2.049   0.355
  511SOL    HW2 2433   0.484   1.961   0.300
  512SOL     OW 2434   0.200   2.063   4.329
  512SOL    HW1 2435   0.160   2.149   4.361
  512SOL    HW2 2436   0.137   1.988   4.350
  513SOL     OW 2437   4.966   1.044   2.855
  513SOL    HW1 2438   4.962   0.951   2.892
  513SOL    HW2 2439   5.061   1.068   2.836
  514SOL     OW 2440   5.849   0.431   4.556
  514SOL    HW1 2441   5.937   0.475   4.575
  514SOL    HW2 2442   5.791   0.437   4.637
  515SOL     OW 2443   4.063   0.166   5.642
  515SOL    HW1 2444   3.972   0.199   5.669
  515SOL    HW2 2445   4.105   0.232   5.579
  516SOL     OW 2446   2.209   5.683   2.535
  516SOL    HW1 2447   2.235   5.779   2.530
  516SOL    HW2 2448   2.178   5.652   2.445
  517SOL     OW 2449   3.243   5.866   1.446
  517SOL    HW1 2450   3.193   5.934   1.499
  517SOL    HW2 2451   3.338   5.864   1.476
  518SOL     OW 2452   2.224   3.959   4.096
  518SOL    HW1 2453   2.180   3.953   4.006
  518SOL    HW2 2454   2.231   3.868   4.136
  519SOL     OW 2455   0.058   0.182   1.957
  519SOL    HW1 2456   0.008   0.122   2.018
  519SOL    HW2 2457   0.153   0.152   1.952
  520SOL     OW 2458   1.789   4.062   0.933
  520SOL    HW1 2459   1.883   4.030   0.949
  520SOL    HW2 2460   1.791   4.145   0.877
  521SOL     OW 2461   6.439   6.345   4.870
  521SOL    HW1 2462   6.470   6.339   4.965
  521SOL    HW2 2463   6.508   6.393   4.816
  522SOL     OW 2464   3.930   4.261   1.492
  522SOL    HW1 2465   3.943   4.359   1.480
  522SOL    HW2 2466   3.859   4.229   1.430
  523SOL     OW 2467   0.942   0.254   1.053
  523SOL    HW1 2468   0.987   0.259   0.964
  523SOL    HW2 2469   0.862   0.314   1.054
  524SOL     OW 2470   6.665   2.114   1.319
  524SOL    HW1 2471   6.723   2.195   1.319
  524SOL    HW2 2472   6.582   2.133   1.371
  525SOL     OW 2473   0.526   3.809   5.514
  525SOL    HW1 2474   0.625   3.809   5.498
  525SOL    HW2 2475   0.492   3.715   5.512
  526SOL     OW 2476   3.317   0.472   3.900
  526SOL    HW1 2477   3.258   0.468   3.981
  526SOL    HW2 2478   3.259   0.482   3.818
  527SOL     OW 2479   0.474   0.879   0.749
  527SOL    HW1 2480   0.463   0.979   0.756
  527SOL    HW2 2481   0.537   0.858   0.674
  528SOL     OW 2482   0.094   3.226   4.328
  528SOL    HW1 2483   0.182   3.180   4.336
  528SOL    HW2 2484   0.029   3.166   4.281
  529SOL     OW 2485   2.016   0.296   0.195
  529SOL    HW1 2486   1.972   0.330   0.112
  529SOL    HW2 2487   2.068   0.213   0.174
  530SOL     OW 2488   3.648   4.057   1.000
  530SOL    HW1 2489   3.689   4.128   0.944
  530SOL    HW2 2490   3.548   4.060   0.990
  531SOL     OW 2491   1.583   0.285   0.429
  531SOL    HW1 2492   1.578   0.318   0.334
  531SOL    HW2 2493   1.678   0.272   0.455
  532SOL     OW 2494   1.313   2.053   6.394
  532SOL    HW1 2495   1.291   1.968   6.347
  532SOL    HW2 2496   1.238   2.078   6.455
  533SOL     OW 2497   3.895   0.382   4.392
  533SOL    HW1 2498   3.927   0.383   4.297
  533SOL    HW2 2499   3.841   0.464   4.410
  534SOL     OW 2500   2.169   4.987   1.693
  534SOL    HW1 2501   2.176   5.010   1.790
  534SOL    HW2 2502   2.234   4.913   1.671
  535SOL     OW 2503   4.916   3.505   4.078
  535SOL    HW1 2504   4.911   3.558   3.993
  535SOL    HW2 2505   4.877   3.414   4.063
  536SOL     OW 2506   6.591   0.108   2.151
  536SOL    HW1 2507   6.562   0.182   2.211
  536SOL    HW2 2508   6.685   0.124   2.122
  537SOL     OW 2509   3.592   2.098   3.824
  537SOL    HW1 2510   3.656   2.175   3.828
  537SOL    HW2 2511   3.530   2.102   3.902
  538SOL     OW 2512   3.349   4.850   5.120
  538SOL    HW1 2513   3.380   4.923   5.059
  538SOL    HW2 2514   3.251   4.861   5.138
  539SOL     OW 2515   1.086   6.850   0.171
  539SOL    HW1 2516   1.134   6.763   0.156
  539SOL    HW2 2517   1.022   6.839   0.247
  540SOL     OW 2518   0.823   0.370   3.980
  540SOL    HW1 2519   0.810   0.285   4.033
  540SOL    HW2 2520   0.823   0.349   3.883
  541SOL     OW 2521   4.236   6.151   3.877
  541SOL    HW1 2522   4.329   6.138   3.913
  541SOL    HW2 2523   4.224   6.247   3.850
  542SOL     OW 2524   3.653   0.509   5.576
  542SOL    HW1 2525   3.603   0.463   5.503
  542SOL    HW2 2526   3.617   0.478   5.665
  543SOL     OW 2527   6.075   2.402   4.007
  543SOL    HW1 2528   6.163   2.355   3.995
  543SOL    HW2 2529   6.020   2.353   4.074
  544SOL     OW 2530   1.575   3.545   1.202
  544SOL    HW1 2531   1.577   3.634   1.157
  544SOL    HW2 2532   1.573   3.473   1.133
  545SOL     OW 2533   5.621   0.268   1.142
  545SOL    HW1 2534   5.624   0.286   1.044
  545SOL    HW2 2535   5.710   0.289   1.183
  546SOL     OW 2536   6.886   4.557   2.843
  546SOL    HW1 2537   6.959   4.560   2.911
  546SOL    HW2 2538   6.908   4.488   2.774
  547SOL     OW 2539   5.453   0.641   6.264
  547SOL    HW1 2540   5.356   0.659   6.273
  547SOL    HW2 2541   5.499   0.658   6.351
  548SOL     OW 2542   4.020   1.909   7.010
  548SOL    HW1 2543   4.090   1.902   0.054
  548SOL    HW2 2544   3.972   1.996   7.019
  549SOL     OW 2545   5.891   1.751   1.704
  549SOL    HW1 2546   5.880   1.771   1.802
  549SOL    HW2 2547   5.890   1.652   1.691
  550SOL     OW 2548   0.068   5.962   3.310
  550SOL    HW1 2549   0.036   5.959   3.215
  550SOL    HW2 2550   0.135   5.889   3.324
  551SOL     OW 2551   6.013   0.881   0.603
  551SOL    HW1 2552   6.086   0.938   0.641
  551SOL    HW2 2553   5.936   0.878   0.667
  552SOL     OW 2554   0.173   5.756   5.629
  552SOL    HW1 2555   0.214   5.688   5.690
  552SOL    HW2 2556   0.203   5.739   5.535
  553SOL     OW 2557   2.614   1.168   0.330
  553SOL    HW1 2558   2.646   1.253   0.288
  553SOL    HW2 2559   2.680   1.095   0.314
  554SOL     OW 2560   5.284   6.633   1.459
  554SOL    HW1 2561   5.337   6.555   1.425
  554SOL    HW2 2562   5.332   6.718   1.438
  555SOL     OW 2563   1.224   3.792   5.901
  555SOL    HW1 2564   1.291   3.845   5.953
  555SOL    HW2 2565   1.253   3.696   5.897
  556SOL     OW 2566   5.559   0.246   4.413
  556SOL    HW1 2567   5.652   0.282   4.418
  556SOL    HW2 2568   5.562   0.146   4.414
  557SOL     OW 2569   6.780   4.298   6.791
  557SOL    HW1 2570   6.753   4.394   6.788
  557SOL    HW2 2571   6.701   4.240   6.772
  558SOL     OW 2572   3.103   3.889   2.510
  558SOL    HW1 2573   3.021   3.831   2.521
  558SOL    HW2 2574   3.160   3.852   2.437
  559SOL     OW 2575   6.393   6.536   5.809
  559SOL    HW1 2576   6.361   6.471   5.878
  559SOL    HW2 2577   6.476   6.581   5.841
  560SOL     OW 2578   6.625   3.087   4.009
  560SOL    HW1 2579   6.717   3.114   3.981
  560SOL    HW2 2580   6.584   3.160   4.064
  561SOL     OW 2581   0.754   2.923   0.080
  561SOL    HW1 2582   0.759   2.826   0.103
  561SOL    HW2 2583   0.766   2.934   7.009
  562SOL     OW 2584   4.329   6.947   4.782
  562SOL    HW1 2585   4.354   6.901   4.868
  562SOL    HW2 2586   4.231   6.941   4.769
  563SOL     OW 2587   1.791   1.082   4.386
  563SOL    HW1 2588   1.817   1.140   4.309
  563SOL    HW2 2589   1.847   1.104   4.465
  564SOL     OW 2590   6.912   1.731   6.021
  564SOL    HW1 2591   6.931   1.827   6.043
  564SOL    HW2 2592   6.941   1.711   5.928
  565SOL     OW 2593   3.265   3.678   3.985
  565SOL    HW1 2594   3.203   3.676   3.907
  565SOL    HW2 2595   3.328   3.600   3.981
  566SOL     OW 2596   2.945   0.379   3.415
  566SOL    HW1 2597   2.934   0.297   3.358
  566SOL    HW2 2598   2.949   0.353   3.511
  567SOL     OW 2599   2.561   2.693   5.592
  567SOL    HW1 2600   2.502   2.740   5.657
  567SOL    HW2 2601   2.600   2.759   5.529
  568SOL     OW 2602   0.211   6.422   0.023
  568SOL    HW1 2603   0.132   6.467   7.008
  568SOL    HW2 2604   0.226   6.461   0.113
  569SOL     OW 2605   6.197   2.592   0.455
  569SOL    HW1 2606   6.102   2.563   0.460
  569SOL    HW2 2607   6.256   2.519   0.492
  570SOL     OW 2608   2.638   0.256   6.077
  570SOL    HW1 2609   2.694   0.225   6.001
  570SOL    HW2 2610   2.664   0.350   6.102
  571SOL     OW 2611   1.953   4.985   2.176
  571SOL    HW1 2612   2.034   5.040   2.196
  571SOL    HW2 2613   1.926   4.936   2.259
  572SOL     OW 2614   2.772   0.420   4.171
  572SOL    HW1 2615   2.840   0.379   4.111
  572SOL    HW2 2616   2.816   0.488   4.229
  573SOL     OW 2617   0.097   0.940   5.101
  573SOL    HW1 2618   0.084   0.841   5.103
  573SOL    HW2 2619   0.086   0.973   5.007
  574SOL     OW 2620   2.422   2.261   5.731
  574SOL    HW1 2621   2.505   2.304   5.694
  574SOL    HW2 2622   2.392   2.311   5.812
  575SOL     OW 2623   3.789   2.863   0.255
  575SOL    HW1 2624   3.775   2.788   0.320
  575SOL    HW2 2625   3.805   2.825   0.164
  576SOL     OW 2626   2.187   3.020   3.013
  576SOL    HW1 2627   2.183   2.999   3.111
  576SOL    HW2 2628   2.102   3.064   2.985
  577SOL     OW 2629   0.336   1.281   1.723
  577SOL    HW1 2630   0.426   1.321   1.739
  577SOL    HW2 2631   0.343   1.210   1.653
  578SOL     OW 2632   2.639   6.560   6.564
  578SOL    HW1 2633   2.688   6.476   6.540
  578SOL    HW2 2634   2.542   6.550   6.540
  579SOL     OW 2635   2.382   4.340   1.931
  579SOL    HW1 2636   2.439   4.259   1.915
  579SOL    HW2 2637   2.440   4.422   1.928
  580SOL     OW 2638   4.381   5.688   4.422
  580SOL    HW1 2639   4.480   5.697   4.412
  580SOL    HW2 2640   4.358   5.593   4.441
  581SOL     OW 2641   1.503   2.784   4.491
  581SOL    HW1 2642   1.520   2.810   4.587
  581SOL    HW2 2643   1.574   2.825   4.433
  582SOL     OW 2644   5.385   5.524   4.148
  582SOL    HW1 2645   5.314   5.463   4.183
  582SOL    HW2 2646   5.347   5.617   4.139
  583SOL     OW 2647   4.485   5.936   5.704
  583SOL    HW1 2648   4.500   5.871   5.630
  583SOL    HW2 2649   4.458   5.888   5.787
  584SOL     OW 2650   4.701   0.629   5.077
  584SOL    HW1 2651   4.638   0.700   5.108
  584SOL    HW2 2652   4.650   0.560   5.025
  585SOL     OW 2653   3.074   1.060   1.697
  585SOL    HW1 2654   2.994   1.113   1.725
  585SOL    HW2 2655   3.090   0.987   1.764
  586SOL     OW 2656   4.263   6.948   0.563
  586SOL    HW1 2657   4.166   6.971   0.557
  586SOL    HW2 2658   4.317   0.004   0.560
  587SOL     OW 2659   4.704   1.957   1.711
  587SOL    HW1 2660   4.669   1.907   1.791
  587SOL    HW2 2661   4.636   1.954   1.638
  588SOL     OW 2662   1.816   5.363   3.211
  588SOL    HW1 2663   1.884   5.289   3.216
  588SOL    HW2 2664   1.861   5.448   3.184
  589SOL     OW 2665   3.020   5.777   1.033
  589SOL    HW1 2666   3.072   5.753   0.951
  589SOL    HW2 2667   2.951   5.846   1.011
  590SOL     OW 2668   4.491   2.218   0.271
  590SOL    HW1 2669   4.510   2.127   0.234
  590SOL    HW2 2670   4.573   2.253   0.317
  591SOL     OW 2671   3.130   6.202   4.141
  591SOL    HW1 2672   3.071   6.131   4.180
  591SOL    HW2 2673   3.093   6.232   4.053
  592SOL     OW 2674   3.773   2.054   4.335
  592SOL    HW1 2675   3.689   2.102   4.308
  592SOL    HW2 2676   3.750   1.981   4.400
  593SOL     OW 2677   2.812   1.848   6.676
  593SOL    HW1 2678   2.735   1.784   6.675
  593SOL    HW2 2679   2.820   1.892   6.587
  594SOL     OW 2680   4.973   1.109   1.910
  594SOL    HW1 2681   5.043   1.153   1.854
  594SOL    HW2 2682   4.911   1.179   1.947
  595SOL     OW 2683   5.688   5.814   2.736
  595SOL    HW1 2684   5.661   5.810   2.832
  595SOL    HW2 2685   5.738   5.899   2.719
  596SOL     OW 2686   6.390   5.014   4.083
  596SOL    HW1 2687   6.326   5.087   4.060
  596SOL    HW2 2688   6.470   5.019   4.023
  597SOL     OW 2689   2.402   0.692   6.569
  597SOL    HW1 2690   2.396   0.789   6.544
  597SOL    HW2 2691   2.366   0.679   6.661
  598SOL     OW 2692   2.954   3.370   4.608
  598SOL    HW1 2693   2.970   3.275   4.581
  598SOL    HW2 2694   2.918   3.421   4.530
  599SOL     OW 2695   1.102   4.775   1.985
  599SOL    HW1 2696   1.063   4.780   1.893
  599SOL    HW2 2697   1.200   4.756   1.979
  600SOL     OW 2698   6.628   3.812   5.075
  600SOL    HW1 2699   6.614   3.732   5.017
  600SOL    HW2 2700   6.715   3.856   5.050
  601SOL     OW 2701   1.750   6.452   5.036
  601SOL    HW1 2702   1.712   6.499   5.115
  601SOL    HW2 2703   1.697   6.475   4.955
  602SOL     OW 2704   2.072   6.924   3.727
  602SOL    HW1 2705   2.155   6.875   3.752
  602SOL    HW2 2706   2.040   6.977   3.805
  603SOL     OW 2707   1.436   1.798   5.348
  603SOL    HW1 2708   1.425   1.789   5.249
  603SOL    HW2 2709   1.402   1.715   5.393
  604SOL     OW 2710   6.560   2.371   1.818
  604SOL    HW1 2711   6.639   2.335   1.768
  604SOL    HW2 2712   6.538   2.310   1.893
  605SOL     OW 2713   7.000   6.481   2.086
  605SOL    HW1 2714   7.014   6.580   2.075
  605SOL    HW2 2715   7.026   6.434   2.002
  606SOL     OW 2716   3.718   6.551   4.490
  606SOL    HW1 2717   3.707   6.456   4.521
  606SOL    HW2 2718   3.642   6.606   4.527
  607SOL     OW 2719   1.402   4.503   6.380
  607SOL    HW1 2720   1.321   4.546   6.339
  607SOL    HW2 2721   1.406   4.407   6.350
  608SOL     OW 2722   2.833   1.000   5.595
  608SOL    HW1 2723   2.817   1.092   5.560
  608SOL    HW2 2724   2.760   0.939   5.564
  609SOL     OW 2725   3.337   2.845   2.019
  609SOL    HW1 2726   3.331   2.834   1.919
  609SOL    HW2 2727   3.378   2.764   2.059
  610SOL     OW 2728   5.236   3.650   1.169
  610SOL    HW1 2729   5.149   3.601   1.168
  610SOL    HW2 2730   5.224   3.742   1.132
  611SOL     OW 2731   3.614   0.310   2.752
  611SOL    HW1 2732   3.619   0.218   2.790
  611SOL    HW2 2733   3.521   0.345   2.762
  612SOL     OW 2734   3.991   4.731   5.237
  612SOL    HW1 2735   3.998   4.812   5.180
  612SOL    HW2 2736   3.897   4.722   5.272
  613SOL     OW 2737   4.620   5.021   5.509
  613SOL    HW1 2738   4.571   5.027   5.422
  613SOL    HW2 2739   4.648   4.926   5.524
  614SOL     OW 2740   3.713   5.463   5.631
  614SOL    HW1 2741   3.691   5.560   5.626
  614SOL    HW2 2742   3.676   5.415   5.551
  615SOL     OW 2743   0.665   4.599   2.371
  615SOL    HW1 2744   0.736   4.550   2.321
  615SOL    HW2 2745   0.691   4.695   2.381
  616SOL     OW 2746   6.442   3.608   3.457
  616SOL    HW1 2747   6.448   3.670   3.535
  616SOL    HW2 2748   6.510   3.535   3.466
  617SOL     OW 2749   3.338   5.569   6.348
  617SOL    HW1 2750   3.381   5.483   6.375
  617SOL    HW2 2751   3.351   5.636   6.421
  618SOL     OW 2752   1.348   0.849   2.505
  618SOL    HW1 2753   1.337   0.906   2.424
  618SOL    HW2 2754   1.341   0.752   2.480
  619SOL     OW 2755   0.811   1.209   0.228
  619SOL    HW1 2756   0.910   1.222   0.231
  619SOL    HW2 2757   0.779   1.220   0.134
  620SOL     OW 2758   4.815   3.839   1.064
  620SOL    HW1 2759   4.884   3.835   0.991
  620SOL    HW2 2760   4.857   3.814   1.151
  621SOL     OW 2761   0.786   5.110   1.674
  621SOL    HW1 2762   0.883   5.088   1.690
  621SOL    HW2 2763   0.779   5.194   1.620
  622SOL     OW 2764   1.003   0.270   0.095
  622SOL    HW1 2765   1.076   0.217   0.138
  622SOL    HW2 2766   0.939   0.208   0.050
  623SOL     OW 2767   0.792   4.720   6.610
  623SOL    HW1 2768   0.724   4.653   6.583
  623SOL    HW2 2769   0.882   4.692   6.575
  624SOL     OW 2770   0.539   2.309   2.071
  624SOL    HW1 2771   0.633   2.335   2.049
  624SOL    HW2 2772   0.489   2.388   2.107
  625SOL     OW 2773   2.291   1.407   1.814
  625SOL    HW1 2774   2.351   1.374   1.888
  625SOL    HW2 2775   2.333   1.486   1.771
  626SOL     OW 2776   2.991   6.442   4.296
  626SOL    HW1 2777   2.916   6.493   4.253
  626SOL    HW2 2778   3.071   6.445   4.236
  627SOL     OW 2779   4.864   0.934   0.292
  627SOL    HW1 2780   4.931   0.861   0.280
  627SOL    HW2 2781   4.821   0.954   0.204
  628SOL     OW 2782   5.123   4.045   3.919
  628SOL    HW1 2783   5.171   4.038   3.831
  628SOL    HW2 2784   5.173   3.994   3.988
  629SOL     OW 2785   1.533   6.249   0.718
  629SOL    HW1 2786   1.493   6.340   0.733
  629SOL    HW2 2787   1.602   6.255   0.646
  630SOL     OW 2788   3.947   2.147   1.200
  630SOL    HW1 2789   3.954   2.191   1.289
  630SOL    HW2 2790   3.952   2.047   1.211
  631SOL     OW 2791   2.349   6.768   5.231
  631SOL    HW1 2792   2.412   6.768   5.153
  631SOL    HW2 2793   2.396   6.803   5.312
  632SOL     OW 2794   1.904   1.361   1.042
  632SOL    HW1 2795   1.952   1.394   1.123
  632SOL    HW2 2796   1.847   1.435   1.005
  633SOL     OW 2797   2.494   0.109   6.275
  633SOL    HW1 2798   2.477   0.028   6.219
  633SOL    HW2 2799   2.558   0.170   6.228
  634SOL     OW 2800   3.804   6.157   0.115
  634SOL    HW1 2801   3.749   6.222   0.063
  634SOL    HW2 2802   3.748   6.115   0.186
  635SOL     OW 2803   2.752   0.439   2.672
  635SOL    HW1 2804   2.700   0.359   2.701
  635SOL    HW2 2805   2.850   0.419   2.678
  636SOL     OW 2806   5.315   5.065   0.134
  636SOL    HW1 2807   5.250   5.052   0.209
  636SOL    HW2 2808   5.380   5.136   0.158
  637SOL     OW 2809   4.786   4.301   1.006
  637SOL    HW1 2810   4.866   4.331   0.954
  637SOL    HW2 2811   4.719   4.261   0.944
  638SOL     OW 2812   5.088   1.302   2.415
  638SOL    HW1 2813   5.037   1.217   2.407
  638SOL    HW2 2814   5.110   1.320   2.511
  639SOL     OW 2815   4.425   4.648   2.002
  639SOL    HW1 2816   4.459   4.577   2.064
  639SOL    HW2 2817   4.347   4.694   2.044
  640SOL     OW 2818   2.784   4.226   5.884
  640SOL    HW1 2819   2.849   4.172   5.831
  640SOL    HW2 2820   2.783   4.320   5.850
  641SOL     OW 2821   6.909   5.845   4.716
  641SOL    HW1 2822   6.850   5.782   4.666
  641SOL    HW2 2823   6.888   5.842   4.813
  642SOL     OW 2824   1.430   5.189   5.507
  642SOL    HW1 2825   1.516   5.203   5.557
  642SOL    HW2 2826   1.359   5.161   5.570
  643SOL     OW 2827   5.475   6.257   5.065
  643SOL    HW1 2828   5.409   6.235   5.136
  643SOL    HW2 2829   5.560   6.290   5.107
  644SOL     OW 2830   1.629   6.193   2.395
  644SOL    HW1 2831   1.571   6.113   2.408
  644SOL    HW2 2832   1.723   6.164   2.378
  645SOL     OW 2833   5.838   3.026   3.575
  645SOL    HW1 2834   5.895   2.949   3.602
  645SOL    HW2 2835   5.889   3.111   3.585
  646SOL     OW 2836   1.392   2.044   4.622
  646SOL    HW1 2837   1.311   2.059   4.679
  646SOL    HW2 2838   1.473   2.081   4.668
  647SOL     OW 2839   5.647   3.298   0.488
  647SOL    HW1 2840   5.608   3.302   0.580
  647SOL    HW2 2841   5.746   3.311   0.492
  648SOL     OW 2842   6.032   2.423   2.310
  648SOL    HW1 2843   5.983   2.353   2.363
  648SOL    HW2 2844   6.072   2.381   2.229
  649SOL     OW 2845   4.106   5.155   1.131
  649SOL    HW1 2846   4.170   5.109   1.192
  649SOL    HW2 2847   4.107   5.111   1.041
  650SOL     OW 2848   4.573   3.922   0.899
  650SOL    HW1 2849   4.633   3.976   0.959
  650SOL    HW2 2850   4.586   3.825   0.917
  651SOL     OW 2851   0.945   5.624   6.537
  651SOL    HW1 2852   0.882   5.678   6.592
  651SOL    HW2 2853   0.986   5.553   6.595
  652SOL     OW 2854   3.901   1.160   2.905
  652SOL    HW1 2855   3.938   1.190   2.993
  652SOL    HW2 2856   3.832   1.089   2.920
  653SOL     OW 2857   3.947   4.973   3.436
  653SOL    HW1 2858   3.974   5.034   3.511
  653SOL    HW2 2859   4.006   4.892   3.436
  654SOL     OW 2860   6.226   4.769   0.405
  654SOL    HW1 2861   6.147   4.727   0.360
  654SOL    HW2 2862   6.230   4.866   0.380
  655SOL     OW 2863   0.669   0.849   0.557
  655SOL    HW1 2864   0.713   0.938   0.547
  655SOL    HW2 2865   0.702   0.787   0.486
  656SOL     OW 2866   2.803   6.339   2.253
  656SOL    HW1 2867   2.787   6.436   2.273
  656SOL    HW2 2868   2.828   6.292   2.337
  657SOL     OW 2869   3.218   1.734   6.750
  657SOL    HW1 2870   3.295   1.759   6.809
  657SOL    HW2 2871   3.209   1.803   6.678
  658SOL     OW 2872   3.400   4.826   6.042
  658SOL    HW1 2873   3.338   4.747   6.041
  658SOL    HW2 2874   3.410   4.862   5.950
  659SOL     OW 2875   2.847   0.077   6.959
  659SOL    HW1 2876   2.885   0.098   0.022
  659SOL    HW2 2877   2.754   0.043   6.970
  660SOL     OW 2878   3.826   5.465   3.129
  660SOL    HW1 2879   3.740   5.467   3.077
  660SOL    HW2 2880   3.841   5.555   3.171
  661SOL     OW 2881   5.466   5.461   3.087
  661SOL    HW1 2882   5.513   5.546   3.061
  661SOL    HW2 2883   5.456   5.458   3.187
  662SOL     OW 2884   3.596   1.355   0.295
  662SOL    HW1 2885   3.606   1.444   0.251
  662SOL    HW2 2886   3.668   1.293   0.264
  663SOL     OW 2887   2.329   4.400   4.939
  663SOL    HW1 2888   2.352   4.495   4.920
  663SOL    HW2 2889   2.391   4.364   5.008
  664SOL     OW 2890   6.482   1.064   7.002
  664SOL    HW1 2891   6.528   1.055   0.062
  664SOL    HW2 2892   6.414   0.991   6.993
  665SOL     OW 2893   2.448   5.564   2.799
  665SOL    HW1 2894   2.473   5.633   2.730
  665SOL    HW2 2895   2.479   5.474   2.769
  666SOL     OW 2896   3.978   1.001   1.862
  666SOL    HW1 2897   4.039   0.942   1.808
  666SOL    HW2 2898   3.971   1.091   1.819
  667SOL     OW 2899   1.012   6.862   2.775
  667SOL    HW1 2900   1.079   6.920   2.822
  667SOL    HW2 2901   1.032   6.766   2.793
  668SOL     OW 2902   5.278   3.575   0.654
  668SOL    HW1 2903   5.207   3.513   0.624
  668SOL    HW2 2904   5.334   3.530   0.724
  669SOL     OW 2905   5.040   1.673   2.849
  669SOL    HW1 2906   5.112   1.700   2.785
  669SOL    HW2 2907   5.008   1.581   2.825
  670SOL     OW 2908   2.742   2.035   3.116
  670SOL    HW1 2909   2.653   2.039   3.070
  670SOL    HW2 2910   2.777   2.128   3.129
  671SOL     OW 2911   3.373   6.868   1.349
  671SOL    HW1 2912   3.295   6.931   1.341
  671SOL    HW2 2913   3.340   6.775   1.363
  672SOL     OW 2914   1.366   6.914   2.651
  672SOL    HW1 2915   1.352   6.903   2.553
  672SOL    HW2 2916   1.281   6.945   2.694
  673SOL     OW 2917   5.665   6.667   0.042
  673SOL    HW1 2918   5.706   6.663   6.979
  673SOL    HW2 2919   5.656   6.763   0.071
  674SOL     OW 2920   6.979   1.237   4.216
  674SOL    HW1 2921   7.007   1.240   4.311
  674SOL    HW2 2922   6.926   1.154   4.199
  675SOL     OW 2923   6.190   2.911   2.759
  675SOL    HW1 2924   6.102   2.949   2.730
  675SOL    HW2 2925   6.206   2.824   2.712
  676SOL     OW 2926   2.048   5.752   6.130
  676SOL    HW1 2927   2.138   5.791   6.109
  676SOL    HW2 2928   2.053   5.653   6.122
  677SOL     OW 2929   4.929   1.343   0.906
  677SOL    HW1 2930   4.947   1.306   0.997
  677SOL    HW2 2931   4.949   1.273   0.837
  678SOL     OW 2932   1.956   4.922   4.802
  678SOL    HW1 2933   1.877   4.871   4.768
  678SOL    HW2 2934   2.033   4.860   4.816
  679SOL     OW 2935   5.498   1.473   5.174
  679SOL    HW1 2936   5.455   1.551   5.219
  679SOL    HW2 2937   5.439   1.393   5.183
  680SOL     OW 2938   4.599   0.269   4.056
  680SOL    HW1 2939   4.500   0.263   4.047
  680SOL    HW2 2940   4.633   0.188   4.104
  681SOL     OW 2941   4.388   4.944   2.636
  681SOL    HW1 2942   4.327   4.886   2.582
  681SOL    HW2 2943   4.339   4.981   2.715
  682SOL     OW 2944   0.775   0.972   3.216
  682SOL    HW1 2945   0.765   0.946   3.120
  682SOL    HW2 2946   0.685   0.974   3.260
  683SOL     OW 2947   4.154   3.592   0.990
  683SOL    HW1 2948   4.222   3.564   0.922
  683SOL    HW2 2949   4.140   3.517   1.055
  684SOL     OW 2950   6.709   0.813   6.394
  684SOL    HW1 2951   6.773   0.866   6.450
  684SOL    HW2 2952   6.660   0.748   6.452
  685SOL     OW 2953   3.587   0.480   3.018
  685SOL    HW1 2954   3.633   0.557   2.974
  685SOL    HW2 2955   3.655   0.422   3.062
  686SOL     OW 2956   4.646   0.197   5.012
  686SOL    HW1 2957   4.631   0.101   5.036
  686SOL    HW2 2958   4.669   0.249   5.094
  687SOL     OW 2959   1.077   2.042   3.810
  687SOL    HW1 2960   1.176   2.029   3.809
  687SOL    HW2 2961   1.037   2.001   3.727
  688SOL     OW 2962   6.695   1.173   6.826
  688SOL    HW1 2963   6.772   1.118   6.858
  688SOL    HW2 2964   6.611   1.139   6.867
  689SOL     OW 2965   1.292   5.388   5.787
  689SOL    HW1 2966   1.270   5.483   5.813
  689SOL    HW2 2967   1.390   5.373   5.798
  690SOL     OW 2968   5.890   3.279   2.668
  690SOL    HW1 2969   5.796   3.269   2.702
  690SOL    HW2 2970   5.889   3.336   2.586
  691SOL     OW 2971   5.370   1.318   0.732
  691SOL    HW1 2972   5.285   1.308   0.680
  691SOL    HW2 2973   5.408   1.410   0.717
  692SOL     OW 2974   2.494   0.613   5.006
  692SOL    HW1 2975   2.441   0.596   5.090
  692SOL    HW2 2976   2.444   0.677   4.948
  693SOL     OW 2977   5.403   5.796   3.960
  693SOL    HW1 2978   5.493   5.804   4.002
  693SOL    HW2 2979   5.410   5.816   3.862
  694SOL     OW 2980   4.413   6.421   5.415
  694SOL    HW1 2981   4.483   6.459   5.355
  694SOL    HW2 2982   4.393   6.327   5.387
  695SOL     OW 2983   3.093   0.572   4.109
  695SOL    HW1 2984   3.030   0.555   4.185
  695SOL    HW2 2985   3.049   0.546   4.023
  696SOL     OW 2986   5.176   4.671   3.160
  696SOL    HW1 2987   5.092   4.653   3.109
  696SOL    HW2 2988   5.163   4.751   3.218
  697SOL     OW 2989   0.825   5.928   2.097
  697SOL    HW1 2990   0.771   5.941   2.181
  697SOL    HW2 2991   0.890   5.854   2.110
  698SOL     OW 2992   5.746   6.655   0.305
  698SOL    HW1 2993   5.823   6.592   0.299
  698SOL    HW2 2994   5.705   6.666   0.215
  699SOL     OW 2995   2.714   2.552   0.886
  699SOL    HW1 2996   2.701   2.534   0.983
  699SOL    HW2 2997   2.799   2.603   0.872
  700SOL     OW 2998   3.300   0.647   3.198
  700SOL    HW1 2999   3.389   0.687   3.215
  700SOL    HW2 3000   3.281   0.577   3.267
  701SOL     OW 3001   5.924   5.113   1.339
  701SOL    HW1 3002   5.881   5.194   1.378
  701SOL    HW2 3003   5.856   5.040   1.330
  702SOL     OW 3004   3.340   0.963   4.405
  702SOL    HW1 3005   3.304   1.009   4.324
  702SOL    HW2 3006   3.338   1.026   4.483
  703SOL     OW 3007   2.909   2.082   6.151
  703SOL    HW1 3008   2.891   2.067   6.054
  703SOL    HW2 3009   2.941   2.175   6.165
  704SOL     OW 3010   1.574   2.635   5.706
  704SOL    HW1 3011   1.555   2.543   5.672
  704SOL    HW2 3012   1.673   2.650   5.705
  705SOL     OW 3013   0.536   6.409   5.196
  705SOL    HW1 3014   0.440   6.421   5.172
  705SOL    HW2 3015   0.544   6.382   5.292
  706SOL     OW 3016   4.515   0.904   5.144
  706SOL    HW1 3017   4.449   0.835   5.115
  706SOL    HW2 3018   4.533   0.967   5.068
  707SOL     OW 3019   3.561   4.907   3.779
  707SOL    HW1 3020   3.501   4.828   3.762
  707SOL    HW2 3021   3.604   4.935   3.694
  708SOL     OW 3022   3.771   6.958   3.755
  708SOL    HW1 3023   3.804   6.924   3.667
  708SOL    HW2 3024   3.847   6.999   3.806
  709SOL     OW 3025   2.766   0.162   1.539
  709SOL    HW1 3026   2.831   0.096   1.577
  709SOL    HW2 3027   2.752   0.237   1.603
  710SOL     OW 3028   4.539   2.795   1.690
  710SOL    HW1 3029   4.625   2.755   1.722
  710SOL    HW2 3030   4.526   2.884   1.733
  711SOL     OW 3031   0.234   2.225   6.300
  711SOL    HW1 3032   0.314   2.169   6.320
  711SOL    HW2 3033   0.199   2.266   6.384
  712SOL     OW 3034   5.438   4.332   0.755
  712SOL    HW1 3035   5.524   4.334   0.806
  712SOL    HW2 3036   5.407   4.237   0.747
  713SOL     OW 3037   4.085   2.727   5.361
  713SOL    HW1 3038   4.026   2.694   5.434
  713SOL    HW2 3039   4.114   2.650   5.303
  714SOL     OW 3040   5.177   5.246   3.405
  714SOL    HW1 3041   5.125   5.318   3.361
  714SOL    HW2 3042   5.209   5.181   3.336
  715SOL     OW 3043   6.663   5.342   5.427
  715SOL    HW1 3044   6.575   5.346   5.379
  715SOL    HW2 3045   6.661   5.268   5.494
  716SOL     OW 3046   2.098   2.071   2.617
  716SOL    HW1 3047   2.055   2.100   2.703
  716SOL    HW2 3048   2.037   2.010   2.568
  717SOL     OW 3049   5.219   4.480   4.657
  717SOL    HW1 3050   5.274   4.563   4.668
  717SOL    HW2 3051   5.212   4.457   4.560
  718SOL     OW 3052   5.923   1.714   5.240
  718SOL    HW1 3053   5.927   1.804   5.283
  718SOL    HW2 3054   5.990   1.709   5.166
  719SOL     OW 3055   5.403   0.281   3.238
  719SOL    HW1 3056   5.308   0.252   3.225
  719SOL    HW2 3057   5.456   0.261   3.155
  720SOL     OW 3058   2.486   1.735   0.246
  720SOL    HW1 3059   2.531   1.708   0.331
  720SOL    HW2 3060   2.387   1.730   0.257
  721SOL     OW 3061   0.319   1.591   3.220
  721SOL    HW1 3062   0.374   1.513   3.252
  721SOL    HW2 3063   0.380   1.666   3.194
  722SOL     OW 3064   4.325   6.533   0.296
  722SOL    HW1 3065   4.369   6.458   0.246
  722SOL    HW2 3066   4.229   6.538   0.269
  723SOL     OW 3067   2.364   5.627   3.614
  723SOL    HW1 3068   2.339   5.669   3.702
  723SOL    HW2 3069   2.464   5.625   3.606
  724SOL     OW 3070   0.854   1.593   4.097
  724SOL    HW1 3071   0.837   1.499   4.068
  724SOL    HW2 3072   0.950   1.604   4.122
  725SOL     OW 3073   1.378   3.549   2.654
  725SOL    HW1 3074   1.315   3.567   2.729
  725SOL    HW2 3075   1.356   3.609   2.578
  726SOL     OW 3076   1.689   4.440   0.789
  726SOL    HW1 3077   1.784   4.415   0.805
  726SOL    HW2 3078   1.635   4.418   0.871
  727SOL     OW 3079   4.545   6.075   5.425
  727SOL    HW1 3080   4.644   6.069   5.416
  727SOL    HW2 3081   4.519   6.056   5.520
  728SOL     OW 3082   6.614   3.521   4.013
  728SOL    HW1 3083   6.570   3.454   4.074
  728SOL    HW2 3084   6.689   3.478   3.963
  729SOL     OW 3085   0.634   4.164   1.684
  729SOL    HW1 3086   0.540   4.194   1.704
  729SOL    HW2 3087   0.634   4.065   1.668
  730SOL     OW 3088   4.790   0.835   3.300
  730SOL    HW1 3089   4.734   0.813   3.380
  730SOL    HW2 3090   4.881   0.863   3.330
  731SOL     OW 3091   4.187   4.976   6.352
  731SOL    HW1 3092   4.171   5.074   6.336
  731SOL    HW2 3093   4.280   4.953   6.326
  732SOL     OW 3094   4.829   1.593   4.489
  732SOL    HW1 3095   4.801   1.504   4.525
  732SOL    HW2 3096   4.928   1.592   4.473
  733SOL     OW 3097   6.232   6.533   3.031
  733SOL    HW1 3098   6.148   6.486   3.003
  733SOL    HW2 3099   6.239   6.621   2.984
  734SOL     OW 3100   6.164   6.240   2.574
  734SOL    HW1 3101   6.200   6.332   2.580
  734SOL    HW2 3102   6.073   6.242   2.531
  735SOL     OW 3103   4.793   0.819   2.489
  735SOL    HW1 3104   4.767   0.782   2.577
  735SOL    HW2 3105   4.803   0.918   2.496
  736SOL     OW 3106   1.427   1.835   4.229
  736SOL    HW1 3107   1.363   1.840   4.153
  736SOL    HW2 3108   1.492   1.910   4.224
  737SOL     OW 3109   4.683   1.240   6.891
  737SOL    HW1 3110   4.701   1.144   6.869
  737SOL    HW2 3111   4.720   1.298   6.817
  738SOL     OW 3112   2.000   4.237   1.085
  738SOL    HW1 3113   2.048   4.301   1.025
  738SOL    HW2 3114   1.987   4.278   1.175
  739SOL     OW 3115   2.937   6.800   4.570
  739SOL    HW1 3116   2.884   6.862   4.512
  739SOL    HW2 3117   2.921   6.706   4.542
  740SOL     OW 3118   5.486   3.552   2.708
  740SOL    HW1 3119   5.541   3.563   2.790
  740SOL    HW2 3120   5.434   3.466   2.714
  741SOL     OW 3121   2.684   0.512   3.346
  741SOL    HW1 3122   2.758   0.477   3.403
  741SOL    HW2 3123   2.695   0.477   3.253
  742SOL     OW 3124   1.893   6.666   1.788
  742SOL    HW1 3125   1.818   6.603   1.805
  742SOL    HW2 3126   1.888   6.743   1.851
  743SOL     OW 3127   0.880   6.505   3.397
  743SOL    HW1 3128   0.791   6.508   3.352
  743SOL    HW2 3129   0.879   6.566   3.476
  744SOL     OW 3130   4.473   1.677   0.218
  744SOL    HW1 3131   4.480   1.744   0.144
  744SOL    HW2 3132   4.417   1.600   0.187
  745SOL     OW 3133   2.585   6.466   4.884
  745SOL    HW1 3134   2.658   6.512   4.935
  745SOL    HW2 3135   2.610   6.371   4.868
  746SOL     OW 3136   6.791   4.571   5.613
  746SOL    HW1 3137   6.864   4.556   5.680
  746SOL    HW2 3138   6.729   4.492   5.613
  747SOL     OW 3139   5.204   6.082   3.142
  747SOL    HW1 3140   5.297   6.088   3.106
  747SOL    HW2 3141   5.139   6.094   3.067
  748SOL     OW 3142   5.609   5.478   2.085
  748SOL    HW1 3143   5.537   5.485   2.154
  748SOL    HW2 3144   5.663   5.395   2.102
  749SOL     OW 3145   4.895   3.666   3.848
  749SOL    HW1 3146   4.857   3.628   3.764
  749SOL    HW2 3147   4.868   3.763   3.856
  750SOL     OW 3148   2.566   2.167   1.507
  750SOL    HW1 3149   2.653   2.124   1.484
  750SOL    HW2 3150   2.491   2.109   1.474
  751SOL     OW 3151   4.590   0.132   0.200
  751SOL    HW1 3152   4.609   0.043   0.159
  751SOL    HW2 3153   4.581   0.121   0.299
  752SOL     OW 3154   3.620   2.372   5.495
  752SOL    HW1 3155   3.631   2.470   5.477
  752SOL    HW2 3156   3.546   2.335   5.439
  753SOL     OW 3157   3.785   3.399   4.805
  753SOL    HW1 3158   3.796   3.497   4.825
  753SOL    HW2 3159   3.689   3.374   4.814
  754SOL     OW 3160   5.960   0.397   0.194
  754SOL    HW1 3161   5.989   0.493   0.192
  754SOL    HW2 3162   5.868   0.389   0.156
  755SOL     OW 3163   4.205   4.610   5.353
  755SOL    HW1 3164   4.254   4.542   5.297
  755SOL    HW2 3165   4.137   4.656   5.296
  756SOL     OW 3166   2.172   5.209   6.210
  756SOL    HW1 3167   2.245   5.259   6.256
  756SOL    HW2 3168   2.202   5.184   6.117
  757SOL     OW 3169   2.575   6.373   2.788
  757SOL    HW1 3170   2.535   6.294   2.834
  757SOL    HW2 3171   2.542   6.457   2.830
  758SOL     OW 3172   3.192   1.455   3.671
  758SOL    HW1 3173   3.130   1.399   3.615
  758SOL    HW2 3174   3.263   1.493   3.612
  759SOL     OW 3175   0.449   2.772   4.395
  759SOL    HW1 3176   0.471   2.678   4.368
  759SOL    HW2 3177   0.522   2.809   4.452
  760SOL     OW 3178   6.333   5.672   3.524
  760SOL    HW1 3179   6.312   5.629   3.437
  760SOL    HW2 3180   6.324   5.771   3.516
  761SOL     OW 3181   3.840   3.251   6.117
  761SOL    HW1 3182   3.912   3.232   6.184
  761SOL    HW2 3183   3.843   3.182   6.044
  762SOL     OW 3184   3.358   5.493   4.254
  762SOL    HW1 3185   3.438   5.461   4.203
  762SOL    HW2 3186   3.286   5.424   4.248
  763SOL     OW 3187   6.090   0.637   0.205
  763SOL    HW1 3188   6.125   0.656   0.113
  763SOL    HW2 3189   6.151   0.678   0.272
  764SOL     OW 3190   5.526   0.264   5.424
  764SOL    HW1 3191   5.532   0.335   5.494
  764SOL    HW2 3192   5.597   0.195   5.439
  765SOL     OW 3193   6.545   6.390   0.599
  765SOL    HW1 3194   6.537   6.464   0.533
  765SOL    HW2 3195   6.455   6.371   0.638
  766SOL     OW 3196   2.221   2.072   5.044
  766SOL    HW1 3197   2.307   2.066   4.993
  766SOL    HW2 3198   2.168   2.150   5.012
  767SOL     OW 3199   0.021   6.074   4.624
  767SOL    HW1 3200   0.116   6.056   4.650
  767SOL    HW2 3201   6.996   5.990   4.631
  768SOL     OW 3202   2.076   5.225   2.248
  768SOL    HW1 3203   1.994   5.263   2.291
  768SOL    HW2 3204   2.129   5.299   2.207
  769SOL     OW 3205   2.585   2.486   4.721
  769SOL    HW1 3206   2.533   2.569   4.744
  769SOL    HW2 3207   2.632   2.453   4.803
  770SOL     OW 3208   1.318   4.439   5.305
  770SOL    HW1 3209   1.338   4.473   5.212
  770SOL    HW2 3210   1.399   4.451   5.362
  771SOL     OW 3211   1.074   5.825   3.159
  771SOL    HW1 3212   1.017   5.867   3.230
  771SOL    HW2 3213   1.020   5.808   3.077
  772SOL     OW 3214   5.751   4.088   0.665
  772SOL    HW1 3215   5.809   4.047   0.595
  772SOL    HW2 3216   5.731   4.019   0.735
  773SOL     OW 3217   0.565   3.675   3.349
  773SOL    HW1 3218   0.597   3.585   3.380
  773SOL    HW2 3219   0.548   3.734   3.428
  774SOL     OW 3220   1.927   0.377   3.031
  774SOL    HW1 3221   1.991   0.300   3.029
  774SOL    HW2 3222   1.863   0.365   3.108
  775SOL     OW 3223   2.093   4.741   2.817
  775SOL    HW1 3224   2.018   4.807   2.812
  775SOL    HW2 3225   2.155   4.765   2.891
  776SOL     OW 3226   3.016   5.207   6.693
  776SOL    HW1 3227   3.016   5.127   6.633
  776SOL    HW2 3228   3.060   5.283   6.647
  777SOL     OW 3229   2.188   4.106   0.324
  777SOL    HW1 3230   2.149   4.022   0.362
  777SOL    HW2 3231   2.285   4.092   0.303
  778SOL     OW 3232   3.146   6.978   1.401
  778SOL    HW1 3233   3.163   0.026   1.464
  778SOL    HW2 3234   3.059   6.993   1.354
  779SOL     OW 3235   6.871   2.028   3.631
  779SOL    HW1 3236   6.844   2.085   3.553
  779SOL    HW2 3237   6.798   1.964   3.652
  780SOL     OW 3238   0.679   1.906   4.024
  780SOL    HW1 3239   0.693   1.811   3.996
  780SOL    HW2 3240   0.631   1.955   3.951
  781SOL     OW 3241   0.780   4.472   0.126
  781SOL    HW1 3242   0.798   4.506   0.033
  781SOL    HW2 3243   0.711   4.400   0.121
  782SOL     OW 3244   1.702   3.439   5.293
  782SOL    HW1 3245   1.801   3.426   5.292
  782SOL    HW2 3246   1.681   3.537   5.295
  783SOL     OW 3247   6.389   5.184   6.269
  783SOL    HW1 3248   6.346   5.237   6.342
  783SOL    HW2 3249   6.435   5.104   6.308
  784SOL     OW 3250   2.888   6.221   0.496
  784SOL    HW1 3251   2.841   6.274   0.426
  784SOL    HW2 3252   2.863   6.125   0.488
  785SOL     OW 3253   1.290   6.824   4.600
  785SOL    HW1 3254   1.360   6.895   4.590
  785SOL    HW2 3255   1.333   6.739   4.631
  786SOL     OW 3256   6.759   1.085   3.503
  786SOL    HW1 3257   6.839   1.107   3.559
  786SOL    HW2 3258   6.718   1.170   3.470
  787SOL     OW 3259   2.520   0.322   0.820
  787SOL    HW1 3260   2.537   0.410   0.865
  787SOL    HW2 3261   2.606   0.273   0.809
  788SOL     OW 3262   2.735   2.299   1.200
  788SOL    HW1 3263   2.731   2.215   1.255
  788SOL    HW2 3264   2.719   2.378   1.258
  789SOL     OW 3265   4.261   4.898   1.715
  789SOL    HW1 3266   4.218   4.808   1.714
  789SOL    HW2 3267   4.356   4.889   1.745
  790SOL     OW 3268   0.496   2.185   2.499
  790SOL    HW1 3269   0.478   2.087   2.491
  790SOL    HW2 3270   0.489   2.213   2.595
  791SOL     OW 3271   2.913   5.460   4.597
  791SOL    HW1 3272   2.966   5.518   4.660
  791SOL    HW2 3273   2.819   5.493   4.591
  792SOL     OW 3274   1.532   0.630   0.672
  792SOL    HW1 3275   1.513   0.565   0.598
  792SOL    HW2 3276   1.477   0.712   0.660
  793SOL     OW 3277   2.641   6.043   4.077
  793SOL    HW1 3278   2.657   5.966   4.015
  793SOL    HW2 3279   2.557   6.090   4.051
  794SOL     OW 3280   3.502   3.253   3.041
  794SOL    HW1 3281   3.412   3.217   3.065
  794SOL    HW2 3282   3.547   3.189   2.978
  795SOL     OW 3283   3.701   0.462   6.549
  795SOL    HW1 3284   3.698   0.528   6.474
  795SOL    HW2 3285   3.653   0.378   6.521
  796SOL     OW 3286   1.342   3.175   6.985
  796SOL    HW1 3287   1.405   3.099   6.999
  796SOL    HW2 3288   1.383   3.259   7.021
  797SOL     OW 3289   4.887   0.024   0.642
  797SOL    HW1 3290   4.928   7.007   0.721
  797SOL    HW2 3291   4.878   6.985   0.567
  798SOL     OW 3292   4.325   6.358   0.587
  798SOL    HW1 3293   4.252   6.354   0.519
  798SOL    HW2 3294   4.286   6.343   0.678
  799SOL     OW 3295   1.848   2.172   5.119
  799SOL    HW1 3296   1.763   2.195   5.167
  799SOL    HW2 3297   1.908   2.121   5.180
  800SOL     OW 3298   5.969   3.003   2.657
  800SOL    HW1 3299   5.933   3.095   2.674
  800SOL    HW2 3300   5.903   2.951   2.604
  801SOL     OW 3301   2.036   5.659   5.550
  801SOL    HW1 3302   2.040   5.655   5.650
  801SOL    HW2 3303   2.025   5.567   5.513
  802SOL     OW 3304   5.497   2.781   6.263
  802SOL    HW1 3305   5.498   2.771   6.163
  802SOL    HW2 3306   5.590   2.771   6.298
  803SOL     OW 3307   2.508   1.207   5.250
  803SOL    HW1 3308   2.581   1.203   5.317
  803SOL    HW2 3309   2.530   1.274   5.180
  804SOL     OW 3310   5.477   0.454   2.433
  804SOL    HW1 3311   5.451   0.492   2.345
  804SOL    HW2 3312   5.429   0.504   2.506
  805SOL     OW 3313   3.587   0.745   3.242
  805SOL    HW1 3314   3.594   0.739   3.342
  805SOL    HW2 3315   3.587   0.841   3.215
  806SOL     OW 3316   2.289   5.898   6.075
  806SOL    HW1 3317   2.292   5.993   6.044
  806SOL    HW2 3318   2.382   5.861   6.080
  807SOL     OW 3319   1.052   5.973   6.111
  807SOL    HW1 3320   1.038   6.071   6.104
  807SOL    HW2 3321   0.980   5.933   6.169
  808SOL     OW 3322   5.706   3.234   0.043
  808SOL    HW1 3323   5.652   3.193   6.998
  808SOL    HW2 3324   5.646   3.278   0.109
  809SOL     OW 3325   2.205   4.446   0.182
  809SOL    HW1 3326   2.162   4.359   0.205
  809SOL    HW2 3327   2.279   4.431   0.117
  810SOL     OW 3328   3.689   3.348   0.010
  810SOL    HW1 3329   3.641   3.262   0.028
  810SOL    HW2 3330   3.788   3.331   0.010
  811SOL     OW 3331   5.915   4.731   4.523
  811SOL    HW1 3332   5.976   4.739   4.444
  811SOL    HW2 3333   5.883   4.821   4.549
  812SOL     OW 3334   0.483   3.148   2.185
  812SOL    HW1 3335   0.460   3.079   2.253
  812SOL    HW2 3336   0.463   3.239   2.220
  813SOL     OW 3337   1.036   1.989   4.543
  813SOL    HW1 3338   0.943   2.024   4.530
  813SOL    HW2 3339   1.086   1.991   4.457
  814SOL     OW 3340   0.555   4.947   2.971
  814SOL    HW1 3341   0.487   4.931   3.041
  814SOL    HW2 3342   0.515   5.002   2.897
  815SOL     OW 3343   4.778   1.813   4.314
  815SOL    HW1 3344   4.769   1.750   4.390
  815SOL    HW2 3345   4.856   1.873   4.329
  816SOL     OW 3346   5.373   4.852   6.493
  816SOL    HW1 3347   5.317   4.922   6.448
  816SOL    HW2 3348   5.335   4.832   6.583
  817SOL     OW 3349   1.252   4.078   7.013
  817SOL    HW1 3350   1.346   4.049   6.995
  817SOL    HW2 3351   1.248   4.177   7.022
  818SOL     OW 3352   6.307   2.395   4.548
  818SOL    HW1 3353   6.279   2.303   4.520
  818SOL    HW2 3354   6.403   2.409   4.524
  819SOL     OW 3355   4.987   2.391   1.733
  819SOL    HW1 3356   4.911   2.326   1.730
  819SOL    HW2 3357   5.068   2.345   1.770
  820SOL     OW 3358   2.074   2.266   4.748
  820SOL    HW1 3359   1.984   2.300   4.774
  820SOL    HW2 3360   2.143   2.296   4.814
  821SOL     OW 3361   5.378   3.499   5.728
  821SOL    HW1 3362   5.397   3.474   5.823
  821SOL    HW2 3363   5.444   3.568   5.698
  822SOL     OW 3364   0.548   4.317   3.220
  822SOL    HW1 3365   0.512   4.278   3.135
  822SOL    HW2 3366   0.482   4.383   3.257
  823SOL     OW 3367   0.773   3.375   5.652
  823SOL    HW1 3368   0.730   3.354   5.565
  823SOL    HW2 3369   0.872   3.382   5.640
  824SOL     OW 3370   5.792   1.181   5.759
  824SOL    HW1 3371   5.786   1.249   5.686
  824SOL    HW2 3372   5.855   1.213   5.830
  825SOL     OW 3373   6.130   5.556   0.993
  825SOL    HW1 3374   6.139   5.464   1.031
  825SOL    HW2 3375   6.221   5.593   0.971
  826SOL     OW 3376   3.826   1.875   6.749
  826SOL    HW1 3377   3.797   1.781   6.770
  826SOL    HW2 3378   3.811   1.933   6.829
  827SOL     OW 3379   3.960   3.855   4.983
  827SOL    HW1 3380   3.987   3.869   5.078
  827SOL    HW2 3381   4.031   3.803   4.935
  828SOL     OW 3382   6.420   6.106   5.722
  828SOL    HW1 3383   6.486   6.093   5.796
  828SOL    HW2 3384   6.333   6.137   5.761
  829SOL     OW 3385   3.280   3.375   2.545
  829SOL    HW1 3386   3.354   3.441   2.562
  829SOL    HW2 3387   3.288   3.299   2.609
  830SOL     OW 3388   6.244   4.553   0.182
  830SOL    HW1 3389   6.179   4.611   0.231
  830SOL    HW2 3390   6.328   4.545   0.236
  831SOL     OW 3391   4.526   7.024   1.394
  831SOL    HW1 3392   4.500   7.015   1.490
  831SOL    HW2 3393   4.605   0.057   1.387
  832SOL     OW 3394   2.749   1.991   4.747
  832SOL    HW1 3395   2.809   2.055   4.796
  832SOL    HW2 3396   2.691   2.043   4.683
  833SOL     OW 3397   2.534   2.043   6.552
  833SOL    HW1 3398   2.574   2.133   6.535
  833SOL    HW2 3399   2.461   2.050   6.620
  834SOL     OW 3400   5.347   3.206   0.080
  834SOL    HW1 3401   5.359   3.303   0.056
  834SOL    HW2 3402   5.309   3.199   0.172
  835SOL     OW 3403   0.535   7.015   4.048
  835SOL    HW1 3404   0.606   6.946   4.054
  835SOL    HW2 3405   0.557   0.052   3.975
  836SOL     OW 3406   3.653   1.229   4.550
  836SOL    HW1 3407   3.604   1.313   4.530
  836SOL    HW2 3408   3.696   1.195   4.467
  837SOL     OW 3409   1.794   0.635   0.578
  837SOL    HW1 3410   1.848   0.567   0.627
  837SOL    HW2 3411   1.697   0.619   0.597
  838SOL     OW 3412   1.727   5.239   3.577
  838SOL    HW1 3413   1.650   5.264   3.637
  838SOL    HW2 3414   1.813   5.259   3.625
  839SOL     OW 3415   1.211   1.725   0.272
  839SOL    HW1 3416   1.177   1.808   0.227
  839SOL    HW2 3417   1.310   1.730   0.281
  840SOL     OW 3418   5.431   5.162   6.633
  840SOL    HW1 3419   5.507   5.224   6.649
  840SOL    HW2 3420   5.398   5.125   6.720
  841SOL     OW 3421   3.333   4.553   6.813
  841SOL    HW1 3422   3.240   4.558   6.777
  841SOL    HW2 3423   3.394   4.513   6.744
  842SOL     OW 3424   3.634   6.248   6.767
  842SOL    HW1 3425   3.562   6.219   6.830
  842SOL    HW2 3426   3.701   6.175   6.755
  843SOL     OW 3427   1.376   1.035   2.328
  843SOL    HW1 3428   1.311   1.091   2.378
  843SOL    HW2 3429   1.457   1.089   2.304
  844SOL     OW 3430   6.054   0.886   1.392
  844SOL    HW1 3431   6.046   0.827   1.312
  844SOL    HW2 3432   6.061   0.830   1.474
  845SOL     OW 3433   3.469   1.031   2.425
  845SOL    HW1 3434   3.534   1.020   2.501
  845SOL    HW2 3435   3.517   1.015   2.338
  846SOL     OW 3436   2.619   1.791   0.524
  846SOL    HW1 3437   2.565   1.770   0.606
  846SOL    HW2 3438   2.595   1.882   0.491
  847SOL     OW 3439   2.844   4.351   1.355
  847SOL    HW1 3440   2.866   4.312   1.444
  847SOL    HW2 3441   2.928   4.370   1.305
  848SOL     OW 3442   6.951   5.855   0.267
  848SOL    HW1 3443   6.944   5.762   0.231
  848SOL    HW2 3444   6.868   5.906   0.244
  849SOL     OW 3445   5.967   3.678   6.611
  849SOL    HW1 3446   6.042   3.647   6.668
  849SOL    HW2 3447   5.887   3.621   6.626
  850SOL     OW 3448   0.861   0.697   5.154
  850SOL    HW1 3449   0.880   0.728   5.061
  850SOL    HW2 3450   0.946   0.663   5.196
  851SOL     OW 3451   6.443   3.329   5.837
  851SOL    HW1 3452   6.514   3.372   5.893
  851SOL    HW2 3453   6.362   3.311   5.893
  852SOL     OW 3454   0.706   4.019   2.384
  852SOL    HW1 3455   0.765   4.099   2.388
  852SOL    HW2 3456   0.754   3.944   2.340
  853SOL     OW 3457   2.729   3.048   6.843
  853SOL    HW1 3458   2.812   3.008   6.883
  853SOL    HW2 3459   2.668   2.975   6.812
  854SOL     OW 3460   5.624   6.804   6.674
  854SOL    HW1 3461   5.698   6.764   6.620
  854SOL    HW2 3462   5.536   6.773   6.639
  855SOL     OW 3463   5.717   1.201   7.019
  855SOL    HW1 3464   5.710   1.298   6.994
  855SOL    HW2 3465   5.735   1.193   0.089
  856SOL     OW 3466   2.088   6.152   0.646
  856SOL    HW1 3467   2.104   6.057   0.671
  856SOL    HW2 3468   2.043   6.199   0.722
  857SOL     OW 3469   6.439   5.336   5.839
  857SOL    HW1 3470   6.347   5.316   5.806
  857SOL    HW2 3471   6.490   5.251   5.850
  858SOL     OW 3472   4.282   3.465   0.494
  858SOL    HW1 3473   4.195   3.472   0.544
  858SOL    HW2 3474   4.280   3.527   0.416
  859SOL     OW 3475   4.415   6.559   5.673
  859SOL    HW1 3476   4.432   6.485   5.609
  859SOL    HW2 3477   4.482   6.556   5.747
  860SOL     OW 3478   5.461   3.312   5.990
  860SOL    HW1 3479   5.466   3.342   6.085
  860SOL    HW2 3480   5.550   3.280   5.960
  861SOL     OW 3481   2.317   5.943   2.530
  861SOL    HW1 3482   2.318   5.999   2.613
  861SOL    HW2 3483   2.357   5.994   2.454
  862SOL     OW 3484   0.509   4.095   3.419
  862SOL    HW1 3485   0.585   4.054   3.470
  862SOL    HW2 3486   0.542   4.129   3.331
  863SOL     OW 3487   6.996   0.519   0.132
  863SOL    HW1 3488   7.000   0.468   0.218
  863SOL    HW2 3489   6.998   0.618   0.151
  864SOL     OW 3490   5.737   0.136   4.722
  864SOL    HW1 3491   5.648   0.181   4.729
  864SOL    HW2 3492   5.726   0.044   4.686
  865SOL     OW 3493   1.996   6.465   4.864
  865SOL    HW1 3494   2.022   6.378   4.822
  865SOL    HW2 3495   1.907   6.456   4.908
  866SOL     OW 3496   3.491   6.281   1.916
  866SOL    HW1 3497   3.409   6.308   1.866
  866SOL    HW2 3498   3.552   6.359   1.927
  867SOL     OW 3499   5.811   2.305   6.631
  867SOL    HW1 3500   5.871   2.374   6.672
  867SOL    HW2 3501   5.740   2.351   6.578
  868SOL     OW 3502   7.011   2.004   2.538
  868SOL    HW1 3503   6.938   1.947   2.502
  868SOL    HW2 3504   6.985   2.100   2.530
  869SOL     OW 3505   6.878   3.840   3.463
  869SOL    HW1 3506   6.895   3.800   3.373
  869SOL    HW2 3507   6.780   3.850   3.477
  870SOL     OW 3508   3.640   5.058   2.016
  870SOL    HW1 3509   3.614   4.962   2.021
  870SOL    HW2 3510   3.575   5.113   2.070
  871SOL     OW 3511   4.146   1.753   3.250
  871SOL    HW1 3512   4.076   1.713   3.309
  871SOL    HW2 3513   4.223   1.690   3.241
  872SOL     OW 3514   6.906   3.010   5.179
  872SOL    HW1 3515   6.822   3.042   5.136
  872SOL    HW2 3516   6.883   2.946   5.253
  873SOL     OW 3517   4.930   6.686   6.117
  873SOL    HW1 3518   5.006   6.695   6.053
  873SOL    HW2 3519   4.950   6.736   6.201
  874SOL     OW 3520   4.566   4.355   0.541
  874SOL    HW1 3521   4.476   4.319   0.518
  874SOL    HW2 3522   4.556   4.446   0.581
  875SOL     OW 3523   5.410   5.493   0.630
  875SOL    HW1 3524   5.475   5.553   0.676
  875SOL    HW2 3525   5.431   5.398   0.651
  876SOL     OW 3526   6.987   6.612   1.284
  876SOL    HW1 3527   6.960   6.545   1.353
  876SOL    HW2 3528   6.953   6.703   1.310
  877SOL     OW 3529   2.888   3.729   6.679
  877SOL    HW1 3530   2.819   3.658   6.662
  877SOL    HW2 3531   2.979   3.688   6.676
  878SOL     OW 3532   4.052   6.447   4.123
  878SOL    HW1 3533   4.016   6.478   4.211
  878SOL    HW2 3534   3.987   6.383   4.081
  879SOL     OW 3535   6.068   0.546   0.867
  879SOL    HW1 3536   6.017   0.494   0.798
  879SOL    HW2 3537   6.033   0.523   0.958
  880SOL     OW 3538   3.023   3.203   2.688
  880SOL    HW1 3539   3.010   3.300   2.672
  880SOL    HW2 3540   3.032   3.186   2.786
  881SOL     OW 3541   4.142   1.840   6.759
  881SOL    HW1 3542   4.090   1.864   6.677
  881SOL    HW2 3543   4.092   1.872   6.840
  882SOL     OW 3544   1.358   3.536   4.137
  882SOL    HW1 3545   1.338   3.444   4.169
  882SOL    HW2 3546   1.424   3.580   4.198
  883SOL     OW 3547   3.032   0.320   2.673
  883SOL    HW1 3548   3.021   0.308   2.575
  883SOL    HW2 3549   3.077   0.407   2.692
  884SOL     OW 3550   4.725   3.261   5.684
  884SOL    HW1 3551   4.688   3.287   5.595
  884SOL    HW2 3552   4.706   3.332   5.751
  885SOL     OW 3553   3.872   2.235   6.094
  885SOL    HW1 3554   3.867   2.288   6.179
  885SOL    HW2 3555   3.805   2.161   6.097
  886SOL     OW 3556   3.618   0.228   6.896
  886SOL    HW1 3557   3.634   0.289   6.974
  886SOL    HW2 3558   3.543   0.165   6.919
  887SOL     OW 3559   4.308   1.538   4.178
  887SOL    HW1 3560   4.274   1.629   4.202
  887SOL    HW2 3561   4.272   1.511   4.089
  888SOL     OW 3562   6.874   0.021   3.333
  888SOL    HW1 3563   6.916   0.112   3.339
  888SOL    HW2 3564   6.932   6.982   3.380
  889SOL     OW 3565   1.116   3.699   7.014
  889SOL    HW1 3566   1.124   3.758   6.934
  889SOL    HW2 3567   1.179   3.622   7.005
  890SOL     OW 3568   2.561   5.561   3.977
  890SOL    HW1 3569   2.556   5.473   3.930
  890SOL    HW2 3570   2.655   5.594   3.977
  891SOL     OW 3571   5.893   5.699   0.942
  891SOL    HW1 3572   5.821   5.633   0.961
  891SOL    HW2 3573   5.981   5.662   0.970
  892SOL     OW 3574   2.986   4.806   6.249
  892SOL    HW1 3575   2.978   4.730   6.184
  892SOL    HW2 3576   2.931   4.785   6.330
  893SOL     OW 3577   2.507   6.742   2.809
  893SOL    HW1 3578   2.439   6.814   2.823
  893SOL    HW2 3579   2.548   6.752   2.718
  894SOL     OW 3580   1.438   3.901   1.394
  894SOL    HW1 3581   1.498   3.821   1.392
  894SOL    HW2 3582   1.343   3.872   1.402
  895SOL     OW 3583   0.322   6.040   3.560
  895SOL    HW1 3584   0.371   6.100   3.497
  895SOL    HW2 3585   0.343   6.066   3.654
  896SOL     OW 3586   6.468   6.522   5.354
  896SOL    HW1 3587   6.433   6.462   5.426
  896SOL    HW2 3588   6.497   6.467   5.276
  897SOL     OW 3589   5.618   0.454   6.586
  897SOL    HW1 3590   5.560   0.532   6.564
  897SOL    HW2 3591   5.571   0.369   6.564
  898SOL     OW 3592   4.141   6.024   2.875
  898SOL    HW1 3593   4.134   5.927   2.896
  898SOL    HW2 3594   4.204   6.068   2.940
  899SOL     OW 3595   6.935   4.984   6.556
  899SOL    HW1 3596   6.840   4.958   6.540
  899SOL    HW2 3597   6.950   5.079   6.526
  900SOL     OW 3598   5.681   6.225   0.827
  900SOL    HW1 3599   5.701   6.246   0.732
  900SOL    HW2 3600   5.731   6.144   0.856
  901SOL     OW 3601   1.368   0.918   2.088
  901SOL    HW1 3602   1.456   0.878   2.113
  901SOL    HW2 3603   1.329   0.964   2.168
  902SOL     OW 3604   6.499   4.280   1.547
  902SOL    HW1 3605   6.458   4.227   1.473
  902SOL    HW2 3606   6.441   4.359   1.567
  903SOL     OW 3607   6.641   2.402   0.317
  903SOL    HW1 3608   6.571   2.336   0.346
  903SOL    HW2 3609   6.605   2.495   0.327
  904SOL     OW 3610   2.988   1.669   2.839
  904SOL    HW1 3611   2.946   1.582   2.813
  904SOL    HW2 3612   2.943   1.744   2.791
  905SOL     OW 3613   5.790   2.547   6.750
  905SOL    HW1 3614   5.731   2.527   6.828
  905SOL    HW2 3615   5.805   2.646   6.744
  906SOL     OW 3616   6.621   3.162   6.417
  906SOL    HW1 3617   6.577   3.227   6.355
  906SOL    HW2 3618   6.562   3.146   6.496
  907SOL     OW 3619   4.798   3.580   6.585
  907SOL    HW1 3620   4.857   3.533   6.520
  907SOL    HW2 3621   4.853   3.613   6.662
  908SOL     OW 3622   2.891   4.768   2.654
  908SOL    HW1 3623   2.832   4.694   2.684
  908SOL    HW2 3624   2.843   4.822   2.584
  909SOL     OW 3625   5.351   5.173   6.380
  909SOL    HW1 3626   5.365   5.269   6.358
  909SOL    HW2 3627   5.393   5.152   6.468
  910SOL     OW 3628   2.675   3.315   1.318
  910SOL    HW1 3629   2.656   3.254   1.395
  910SOL    HW2 3630   2.590   3.361   1.290
  911SOL     OW 3631   1.234   5.433   6.406
  911SOL    HW1 3632   1.199   5.484   6.327
  911SOL    HW2 3633   1.203   5.338   6.401
  912SOL     OW 3634   5.023   2.177   3.015
  912SOL    HW1 3635   5.065   2.117   2.947
  912SOL    HW2 3636   4.937   2.137   3.046
  913SOL     OW 3637   5.123   0.115   3.221
  913SOL    HW1 3638   5.132   0.016   3.222
  913SOL    HW2 3639   5.097   0.146   3.130
  914SOL     OW 3640   2.621   6.962   0.061
  914SOL    HW1 3641   2.625   6.871   0.019
  914SOL    HW2 3642   2.529   6.976   0.099
  915SOL     OW 3643   5.966   5.815   0.722
  915SOL    HW1 3644   5.975   5.762   0.638
  915SOL    HW2 3645   5.934   5.756   0.796
  916SOL     OW 3646   0.950   2.417   2.248
  916SOL    HW1 3647   0.885   2.413   2.324
  916SOL    HW2 3648   0.975   2.324   2.220
  917SOL     OW 3649   6.914   0.187   0.542
  917SOL    HW1 3650   6.864   0.211   0.625
  917SOL    HW2 3651   7.004   0.150   0.567
  918SOL     OW 3652   1.864   5.320   0.715
  918SOL    HW1 3653   1.935   5.380   0.678
  918SOL    HW2 3654   1.832   5.357   0.803
  919SOL     OW 3655   5.418   1.632   4.634
  919SOL    HW1 3656   5.403   1.686   4.551
  919SOL    HW2 3657   5.364   1.670   4.709
  920SOL     OW 3658   2.854   4.806   2.161
  920SOL    HW1 3659   2.953   4.793   2.163
  920SOL    HW2 3660   2.812   4.739   2.100
  921SOL     OW 3661   5.109   5.722   4.652
  921SOL    HW1 3662   5.050   5.802   4.656
  921SOL    HW2 3663   5.205   5.751   4.643
  922SOL     OW 3664   4.147   3.545   3.693
  922SOL    HW1 3665   4.120   3.550   3.597
  922SOL    HW2 3666   4.241   3.576   3.704
  923SOL     OW 3667   2.419   3.341   5.775
  923SOL    HW1 3668   2.324   3.318   5.755
  923SOL    HW2 3669   2.480   3.285   5.719
  924SOL     OW 3670   7.026   3.762   2.837
  924SOL    HW1 3671   7.009   3.668   2.868
  924SOL    HW2 3672   0.097   3.777   2.830
  925SOL     OW 3673   5.911   1.894   0.271
  925SOL    HW1 3674   5.833   1.944   0.310
  925SOL    HW2 3675   5.901   1.890   0.171
  926SOL     OW 3676   0.343   1.364   2.119
  926SOL    HW1 3677   0.302   1.442   2.072
  926SOL    HW2 3678   0.426   1.395   2.168
  927SOL     OW 3679   5.658   4.153   3.569
  927SOL    HW1 3680   5.675   4.245   3.603
  927SOL    HW2 3681   5.743   4.112   3.536
  928SOL     OW 3682   2.990   5.578   0.230
  928SOL    HW1 3683   3.041   5.493   0.234
  928SOL    HW2 3684   2.928   5.575   0.151
  929SOL     OW 3685   6.699   1.620   5.345
  929SOL    HW1 3686   6.655   1.542   5.301
  929SOL    HW2 3687   6.761   1.587   5.416
  930SOL     OW 3688   5.457   5.395   5.729
  930SOL    HW1 3689   5.399   5.353   5.798
  930SOL    HW2 3690   5.464   5.493   5.746
  931SOL     OW 3691   6.347   2.576   2.977
  931SOL    HW1 3692   6.432   2.612   2.939
  931SOL    HW2 3693   6.367   2.523   3.059
  932SOL     OW 3694   3.526   0.494   3.719
  932SOL    HW1 3695   3.461   0.504   3.795
  932SOL    HW2 3696   3.605   0.441   3.750
  933SOL     OW 3697   1.376   5.120   2.249
  933SOL    HW1 3698   1.362   5.086   2.156
  933SOL    HW2 3699   1.473   5.130   2.267
  934SOL     OW 3700   1.805   4.655   6.308
  934SOL    HW1 3701   1.753   4.611   6.381
  934SOL    HW2 3702   1.746   4.672   6.229
  935SOL     OW 3703   5.540   3.399   3.901
  935SOL    HW1 3704   5.567   3.303   3.888
  935SOL    HW2 3705   5.449   3.413   3.862
  936SOL     OW 3706   1.680   0.270   6.659
  936SOL    HW1 3707   1.754   0.335   6.643
  936SOL    HW2 3708   1.597   0.301   6.612
  937SOL     OW 3709   5.053   1.575   5.683
  937SOL    HW1 3710   5.124   1.563   5.614
  937SOL    HW2 3711   5.001   1.490   5.692
  938SOL     OW 3712   5.521   5.826   4.293
  938SOL    HW1 3713   5.566   5.812   4.204
  938SOL    HW2 3714   5.427   5.793   4.288
  939SOL     OW 3715   0.329   6.853   5.075
  939SOL    HW1 3716   0.370   6.768   5.042
  939SOL    HW2 3717   0.239   6.833   5.115
  940SOL     OW 3718   2.177   5.003   0.440
  940SOL    HW1 3719   2.270   5.039   0.439
  940SOL    HW2 3720   2.112   5.077   0.427
  941SOL     OW 3721   3.228   0.328   6.643
  941SOL    HW1 3722   3.181   0.279   6.569
  941SOL    HW2 3723   3.177   0.315   6.729
  942SOL     OW 3724   0.478   5.064   0.466
  942SOL    HW1 3725   0.463   5.156   0.428
  942SOL    HW2 3726   0.470   5.067   0.565
  943SOL     OW 3727   2.795   5.650   3.192
  943SOL    HW1 3728   2.891   5.669   3.171
  943SOL    HW2 3729   2.768   5.562   3.154
  944SOL     OW 3730   0.346   6.892   4.472
  944SOL    HW1 3731   0.383   6.948   4.398
  944SOL    HW2 3732   0.418   6.874   4.539
  945SOL     OW 3733   0.817   5.618   0.111
  945SOL    HW1 3734   0.821   5.590   0.207
  945SOL    HW2 3735   0.732   5.667   0.094
  946SOL     OW 3736   4.849   3.106   3.500
  946SOL    HW1 3737   4.810   3.132   3.588
  946SOL    HW2 3738   4.886   3.186   3.454
  947SOL     OW 3739   3.913   3.976   4.414
  947SOL    HW1 3740   3.979   3.928   4.473
  947SOL    HW2 3741   3.931   4.074   4.418
  948SOL     OW 3742   4.129   0.571   2.758
  948SOL    HW1 3743   4.100   0.641   2.693
  948SOL    HW2 3744   4.053   0.548   2.818
  949SOL     OW 3745   2.727   6.670   6.269
  949SOL    HW1 3746   2.792   6.672   6.346
  949SOL    HW2 3747   2.725   6.578   6.230
  950SOL     OW 3748   0.154   6.793   2.091
  950SOL    HW1 3749   0.193   6.860   2.154
  950SOL    HW2 3750   0.226   6.733   2.056
  951SOL     OW 3751   2.599   6.990   3.509
  951SOL    HW1 3752   2.567   0.017   3.431
  951SOL    HW2 3753   2.559   6.898   3.504
  952SOL     OW 3754   3.423   1.035   1.900
  952SOL    HW1 3755   3.435   1.132   1.882
  952SOL    HW2 3756   3.462   0.981   1.825
  953SOL     OW 3757   6.115   4.552   5.586
  953SOL    HW1 3758   6.084   4.647   5.585
  953SOL    HW2 3759   6.214   4.549   5.580
  954SOL     OW 3760   4.727   6.275   2.316
  954SOL    HW1 3761   4.749   6.347   2.382
  954SOL    HW2 3762   4.703   6.191   2.364
  955SOL     OW 3763   1.509   4.803   6.978
  955SOL    HW1 3764   1.555   4.757   0.026
  955SOL    HW2 3765   1.422   4.841   7.010
  956SOL     OW 3766   5.734   0.515   1.352
  956SOL    HW1 3767   5.714   0.548   1.444
  956SOL    HW2 3768   5.669   0.555   1.288
  957SOL     OW 3769   5.853   1.932   3.262
  957SOL    HW1 3770   5.754   1.918   3.265
  957SOL    HW2 3771   5.898   1.861   3.318
  958SOL     OW 3772   5.309   0.139   1.773
  958SOL    HW1 3773   5.248   0.213   1.743
  958SOL    HW2 3774   5.274   0.099   1.858
  959SOL     OW 3775   4.218   6.326   4.327
  959SOL    HW1 3776   4.136   6.289   4.368
  959SOL    HW2 3777   4.195   6.369   4.239
  960SOL     OW 3778   0.955   6.869   6.959
  960SOL    HW1 3779   0.892   6.947   6.960
  960SOL    HW2 3780   1.010   6.871   0.014
  961SOL     OW 3781   3.534   0.021   2.793
  961SOL    HW1 3782   3.477   7.014   2.719
  961SOL    HW2 3783   3.487   0.009   2.881
  962SOL     OW 3784   6.436   0.318   5.347
  962SOL    HW1 3785   6.431   0.334   5.445
  962SOL    HW2 3786   6.344   0.316   5.308
  963SOL     OW 3787   5.804   3.249   0.850
  963SOL    HW1 3788   5.819   3.157   0.815
  963SOL    HW2 3789   5.887   3.281   0.897
  964SOL     OW 3790   4.896   4.320   5.119
  964SOL    HW1 3791   4.959   4.395   5.136
  964SOL    HW2 3792   4.935   4.235   5.151
  965SOL     OW 3793   6.034   2.833   3.657
  965SOL    HW1 3794   6.117   2.777   3.656
  965SOL    HW2 3795   5.969   2.796   3.723
  966SOL     OW 3796   4.655   2.082   4.503
  966SOL    HW1 3797   4.629   1.991   4.470
  966SOL    HW2 3798   4.612   2.099   4.592
  967SOL     OW 3799   5.037   4.035   6.095
  967SOL    HW1 3800   4.939   4.044   6.080
  967SOL    HW2 3801   5.054   4.011   6.191
  968SOL     OW 3802   3.502   0.886   1.651
  968SOL    HW1 3803   3.595   0.921   1.661
  968SOL    HW2 3804   3.504   0.794   1.613
  969SOL     OW 3805   3.613   4.244   5.899
  969SOL    HW1 3806   3.552   4.185   5.846
  969SOL    HW2 3807   3.704   4.243   5.858
  970SOL     OW 3808   6.295   0.136   5.948
  970SOL    HW1 3809   6.362   0.210   5.959
  970SOL    HW2 3810   6.275   0.095   6.037
  971SOL     OW 3811   5.720   4.511   2.406
  971SOL    HW1 3812   5.785   4.575   2.365
  971SOL    HW2 3813   5.655   4.562   2.463
  972SOL     OW 3814   0.147   3.059   0.742
  972SOL    HW1 3815   0.183   3.127   0.679
  972SOL    HW2 3816   0.217   3.037   0.810
  973SOL     OW 3817   6.784   3.464   6.257
  973SOL    HW1 3818   6.792   3.540   6.193
  973SOL    HW2 3819   6.692   3.462   6.296
  974SOL     OW 3820   0.099   5.079   3.842
  974SOL    HW1 3821   0.097   4.979   3.843
  974SOL    HW2 3822   0.017   5.114   3.798
  975SOL     OW 3823   2.713   6.890   2.049
  975SOL    HW1 3824   2.770   6.808   2.056
  975SOL    HW2 3825   2.637   6.872   1.987
  976SOL     OW 3826   6.465   3.182   3.169
  976SOL    HW1 3827   6.390   3.123   3.139
  976SOL    HW2 3828   6.442   3.277   3.149
  977SOL     OW 3829   0.498   0.733   2.482
  977SOL    HW1 3830   0.581   0.790   2.479
  977SOL    HW2 3831   0.448   0.744   2.396
  978SOL     OW 3832   5.629   3.219   1.926
  978SOL    HW1 3833   5.728   3.213   1.917
  978SOL    HW2 3834   5.586   3.162   1.856
  979SOL     OW 3835   0.519   3.983   6.469
  979SOL    HW1 3836   0.509   3.889   6.502
  979SOL    HW2 3837   0.562   3.982   6.379
  980SOL     OW 3838   3.170   1.597   4.512
  980SOL    HW1 3839   3.211   1.591   4.603
  980SOL    HW2 3840   3.100   1.668   4.512
  981SOL     OW 3841   6.829   6.410   5.207
  981SOL    HW1 3842   6.865   6.354   5.282
  981SOL    HW2 3843   6.807   6.501   5.241
  982SOL     OW 3844   6.394   0.782   5.353
  982SOL    HW1 3845   6.339   0.861   5.381
  982SOL    HW2 3846   6.343   0.698   5.374
  983SOL     OW 3847   0.280   4.879   4.587
  983SOL    HW1 3848   0.338   4.961   4.584
  983SOL    HW2 3849   0.278   4.836   4.497
  984SOL     OW 3850   0.797   2.322   3.102
  984SOL    HW1 3851   0.880   2.373   3.126
  984SOL    HW2 3852   0.815   2.224   3.106
  985SOL     OW 3853   6.568   4.438   5.085
  985SOL    HW1 3854   6.627   4.362   5.110
  985SOL    HW2 3855   6.582   4.514   5.149
  986SOL     OW 3856   5.258   5.122   1.218
  986SOL    HW1 3857   5.228   5.153   1.127
  986SOL    HW2 3858   5.290   5.028   1.212
  987SOL     OW 3859   5.184   4.908   4.032
  987SOL    HW1 3860   5.120   4.834   4.014
  987SOL    HW2 3861   5.258   4.904   3.964
  988SOL     OW 3862   2.741   4.635   1.439
  988SOL    HW1 3863   2.755   4.611   1.535
  988SOL    HW2 3864   2.796   4.575   1.381
  989SOL     OW 3865   0.375   1.633   1.121
  989SOL    HW1 3866   0.309   1.597   1.055
  989SOL    HW2 3867   0.467   1.602   1.097
  990SOL     OW 3868   3.663   0.394   4.078
  990SOL    HW1 3869   3.688   0.298   4.084
  990SOL    HW2 3870   3.597   0.416   4.150
  991SOL     OW 3871   0.022   5.004   3.537
  991SOL    HW1 3872   0.020   5.003   3.437
  991SOL    HW2 3873   0.076   5.082   3.568
  992SOL     OW 3874   0.580   2.746   1.254
  992SOL    HW1 3875   0.504   2.774   1.196
  992SOL    HW2 3876   0.612   2.655   1.226
  993SOL     OW 3877   1.190   5.215   0.432
  993SOL    HW1 3878   1.120   5.165   0.380
  993SOL    HW2 3879   1.189   5.311   0.405
  994SOL     OW 3880   3.290   6.249   6.715
  994SOL    HW1 3881   3.333   6.231   6.803
  994SOL    HW2 3882   3.357   6.238   6.642
  995SOL     OW 3883   5.944   3.509   5.537
  995SOL    HW1 3884   6.024   3.566   5.556
  995SOL    HW2 3885   5.912   3.526   5.444
  996SOL     OW 3886   3.627   6.157   5.809
  996SOL    HW1 3887   3.625   6.249   5.769
  996SOL    HW2 3888   3.722   6.130   5.825
  997SOL     OW 3889   1.605   6.091   3.926
  997SOL    HW1 3890   1.602   6.005   3.874
  997SOL    HW2 3891   1.546   6.083   4.006
  998SOL     OW 3892   6.542   0.629   6.564
  998SOL    HW1 3893   6.445   0.609   6.548
  998SOL    HW2 3894   6.549   0.698   6.637
  999SOL     OW 3895   4.718   4.402   2.401
  999SOL    HW1 3896   4.625   4.378   2.429
  999SOL    HW2 3897   4.764   4.450   2.475
 1000SOL     OW 3898   4.293   2.034   1.245
 1000SOL    HW1 3899   4.389   2.005   1.242
 1000SOL    HW2 3900   4.284   2.124   1.204
 1001SOL     OW 3901   3.452   6.414   2.362
 1001SOL    HW1 3902   3.379   6.429   2.295
 1001SOL    HW2 3903   3.531   6.470   2.338
 1002SOL     OW 3904   5.367   2.170   1.199
 1002SOL    HW1 3905   5.421   2.250   1.227
 1002SOL    HW2 3906   5.270   2.188   1.215
 1003SOL     OW 3907   0.324   0.394   3.261
 1003SOL    HW1 3908   0.253   0.324   3.255
 1003SOL    HW2 3909   0.403   0.365   3.207
 1004SOL     OW 3910   5.375   1.729   3.645
 1004SOL    HW1 3911   5.370   1.631   3.628
 1004SOL    HW2 3912   5.336   1.749   3.735
 1005SOL     OW 3913   1.321   4.255   2.690
 1005SOL    HW1 3914   1.234   4.238   2.736
 1005SOL    HW2 3915   1.305   4.270   2.592
 1006SOL     OW 3916   2.823   3.764   0.842
 1006SOL    HW1 3917   2.869   3.816   0.914
 1006SOL    HW2 3918   2.724   3.774   0.851
 1007SOL     OW 3919   5.142   0.902   0.027
 1007SOL    HW1 3920   5.113   0.842   0.101
 1007SOL    HW2 3921   5.214   0.963   0.059
 1008SOL     OW 3922   6.810   4.687   5.004
 1008SOL    HW1 3923   6.863   4.603   5.008
 1008SOL    HW2 3924   6.869   4.765   5.024
 1009SOL     OW 3925   6.756   5.500   6.575
 1009SOL    HW1 3926   6.698   5.431   6.618
 1009SOL    HW2 3927   6.744   5.498   6.476
 1010SOL     OW 3928   2.757   3.288   0.951
 1010SOL    HW1 3929   2.843   3.246   0.922
 1010SOL    HW2 3930   2.768   3.328   1.042
 1011SOL     OW 3931   6.622   5.553   2.168
 1011SOL    HW1 3932   6.680   5.534   2.247
 1011SOL    HW2 3933   6.631   5.650   2.143
 1012SOL     OW 3934   4.694   0.387   3.344
 1012SOL    HW1 3935   4.703   0.290   3.323
 1012SOL    HW2 3936   4.727   0.441   3.266
 1013SOL     OW 3937   7.000   7.021   6.927
 1013SOL    HW1 3938   0.054   0.028   6.972
 1013SOL    HW2 3939   6.918   0.036   6.967
 1014SOL     OW 3940   0.831   4.725   4.840
 1014SOL    HW1 3941   0.895   4.753   4.910
 1014SOL    HW2 3942   0.845   4.629   4.818
 1015SOL     OW 3943   3.282   6.518   0.041
 1015SOL    HW1 3944   3.235   6.592   0.090
 1015SOL    HW2 3945   3.223   6.484   6.995
 1016SOL     OW 3946   6.393   4.276   1.811
 1016SOL    HW1 3947   6.465   4.260   1.743
 1016SOL    HW2 3948   6.390   4.199   1.875
 1017SOL     OW 3949   2.169   1.850   2.269
 1017SOL    HW1 3950   2.226   1.930   2.288
 1017SOL    HW2 3951   2.142   1.807   2.355
 1018SOL     OW 3952   6.765   6.040   3.658
 1018SOL    HW1 3953   6.744   6.022   3.754
 1018SOL    HW2 3954   6.854   6.000   3.634
 1019SOL     OW 3955   6.705   4.642   0.887
 1019SOL    HW1 3956   6.769   4.666   0.815
 1019SOL    HW2 3957   6.728   4.692   0.971
 1020SOL     OW 3958   6.297   0.870   0.659
 1020SOL    HW1 3959   6.336   0.951   0.615
 1020SOL    HW2 3960   6.370   0.804   0.677
 1021SOL     OW 3961   6.830   6.083   1.455
 1021SOL    HW1 3962   6.844   6.137   1.372
 1021SOL    HW2 3963   6.918   6.074   1.503
 1022SOL     OW 3964   2.410   5.850   6.778
 1022SOL    HW1 3965   2.377   5.845   6.684
 1022SOL    HW2 3966   2.342   5.807   6.839
 1023SOL     OW 3967   0.772   1.660   2.962
 1023SOL    HW1 3968   0.808   1.604   3.036
 1023SOL    HW2 3969   0.746   1.750   2.998
 1024SOL     OW 3970   1.834   2.138   4.555
 1024SOL    HW1 3971   1.877   2.220   4.517
 1024SOL    HW2 3972   1.892   2.100   4.627
 1025SOL     OW 3973   4.637   3.522   0.523
 1025SOL    HW1 3974   4.624   3.423   0.532
 1025SOL    HW2 3975   4.676   3.543   0.434
 1026SOL     OW 3976   3.144   2.838   1.060
 1026SOL    HW1 3977   3.108   2.902   1.128
 1026SOL    HW2 3978   3.175   2.888   0.979
 1027SOL     OW 3979   0.728   6.603   0.943
 1027SOL    HW1 3980   0.642   6.619   0.894
 1027SOL    HW2 3981   0.787   6.683   0.932
 1028SOL     OW 3982   1.559   6.037   2.705
 1028SOL    HW1 3983   1.522   6.029   2.612
 1028SOL    HW2 3984   1.490   6.006   2.771
 1029SOL     OW 3985   0.943   0.855   6.455
 1029SOL    HW1 3986   0.973   0.855   6.551
 1029SOL    HW2 3987   1.021   0.873   6.396
 1030SOL     OW 3988   3.634   3.220   1.492
 1030SOL    HW1 3989   3.598   3.300   1.443
 1030SOL    HW2 3990   3.570   3.194   1.564
 1031SOL     OW 3991   3.363   3.683   1.317
 1031SOL    HW1 3992   3.312   3.606   1.355
 1031SOL    HW2 3993   3.330   3.701   1.224
 1032SOL     OW 3994   2.392   2.035   5.998
 1032SOL    HW1 3995   2.480   2.045   5.953
 1032SOL    HW2 3996   2.394   2.083   6.086
 1033SOL     OW 3997   1.160   6.296   1.952
 1033SOL    HW1 3998   1.217   6.255   1.881
 1033SOL    HW2 3999   1.102   6.225   1.992
 1034SOL     OW 4000   3.172   0.085   4.087
 1034SOL    HW1 4001   3.163   7.013   4.097
 1034SOL    HW2 4002   3.180   0.127   4.177
 1035SOL     OW 4003   1.256   2.084   5.908
 1035SOL    HW1 4004   1.191   2.038   5.968
 1035SOL    HW2 4005   1.273   2.026   5.828
 1036SOL     OW 4006   5.226   1.777   1.143
 1036SOL    HW1 4007   5.323   1.797   1.129
 1036SOL    HW2 4008   5.175   1.803   1.061
 1037SOL     OW 4009   1.485   2.869   2.319
 1037SOL    HW1 4010   1.387   2.872   2.338
 1037SOL    HW2 4011   1.508   2.939   2.251
 1038SOL     OW 4012   2.913   6.535   0.044
 1038SOL    HW1 4013   2.971   6.603   0.090
 1038SOL    HW2 4014   2.818   6.549   0.071
 1039SOL     OW 4015   3.501   2.922   3.675
 1039SOL    HW1 4016   3.408   2.927   3.640
 1039SOL    HW2 4017   3.564   2.899   3.601
 1040SOL     OW 4018   3.828   0.614   3.208
 1040SOL    HW1 4019   3.736   0.651   3.196
 1040SOL    HW2 4020   3.895   0.687   3.196
 1041SOL     OW 4021   6.953   6.019   6.372
 1041SOL    HW1 4022   7.019   6.093   6.373
 1041SOL    HW2 4023   6.880   6.037   6.438
 1042SOL     OW 4024   5.424   4.844   2.846
 1042SOL    HW1 4025   5.509   4.796   2.866
 1042SOL    HW2 4026   5.445   4.928   2.796
 1043SOL     OW 4027   3.029   2.199   3.720
 1043SOL    HW1 4028   3.084   2.202   3.637
 1043SOL    HW2 4029   3.083   2.161   3.795
 1044SOL     OW 4030   5.448   4.773   1.818
 1044SOL    HW1 4031   5.419   4.846   1.880
 1044SOL    HW2 4032   5.548   4.764   1.823
 1045SOL     OW 4033   2.407   0.863   3.224
 1045SOL    HW1 4034   2.307   0.871   3.224
 1045SOL    HW2 4035   2.446   0.923   3.154
 1046SOL     OW 4036   2.944   1.356   0.902
 1046SOL    HW1 4037   2.936   1.377   0.805
 1046SOL    HW2 4038   3.015   1.413   0.943
 1047SOL     OW 4039   3.498   6.351   3.272
 1047SOL    HW1 4040   3.539   6.431   3.228
 1047SOL    HW2 4041   3.566   6.278   3.277
 1048SOL     OW 4042   1.491   6.595   2.081
 1048SOL    HW1 4043   1.410   6.643   2.112
 1048SOL    HW2 4044   1.511   6.519   2.143
 1049SOL     OW 4045   4.330   6.174   5.272
 1049SOL    HW1 4046   4.406   6.132   5.322
 1049SOL    HW2 4047   4.268   6.103   5.239
 1050SOL     OW 4048   3.205   5.224   2.905
 1050SOL    HW1 4049   3.135   5.206   2.835
 1050SOL    HW2 4050   3.188   5.314   2.947
 1051SOL     OW 4051   0.693   0.124   6.677
 1051SOL    HW1 4052   0.611   0.092   6.725
 1051SOL    HW2 4053   0.767   0.059   6.691
 1052SOL     OW 4054   3.669   0.929   0.048
 1052SOL    HW1 4055   3.672   0.890   6.984
 1052SOL    HW2 4056   3.715   0.868   0.112
 1053SOL     OW 4057   5.663   2.673   3.200
 1053SOL    HW1 4058   5.644   2.634   3.110
 1053SOL    HW2 4059   5.580   2.715   3.237
 1054SOL     OW 4060   3.155   4.981   6.170
 1054SOL    HW1 4061   3.116   5.068   6.202
 1054SOL    HW2 4062   3.091   4.907   6.189
 1055SOL     OW 4063   5.119   6.351   6.449
 1055SOL    HW1 4064   5.133   6.450   6.444
 1055SOL    HW2 4065   5.203   6.307   6.479
 1056SOL     OW 4066   2.681   3.868   6.490
 1056SOL    HW1 4067   2.751   3.828   6.549
 1056SOL    HW2 4068   2.694   3.835   6.396
 1057SOL     OW 4069   2.734   1.806   1.011
 1057SOL    HW1 4070   2.777   1.849   0.931
 1057SOL    HW2 4071   2.797   1.738   1.050
 1058SOL     OW 4072   2.276   2.720   2.416
 1058SOL    HW1 4073   2.310   2.656   2.346
 1058SOL    HW2 4074   2.270   2.812   2.377
 1059SOL     OW 4075   2.818   6.316   1.972
 1059SOL    HW1 4076   2.821   6.307   2.071
 1059SOL    HW2 4077   2.728   6.288   1.939
 1060SOL     OW 4078   5.862   6.441   5.413
 1060SOL    HW1 4079   5.828   6.437   5.507
 1060SOL    HW2 4080   5.951   6.395   5.409
 1061SOL     OW 4081   6.685   4.030   0.237
 1061SOL    HW1 4082   6.601   3.977   0.227
 1061SOL    HW2 4083   6.736   4.027   0.151
 1062SOL     OW 4084   3.608   6.272   5.044
 1062SOL    HW1 4085   3.686   6.328   5.016
 1062SOL    HW2 4086   3.634   6.175   5.041
 1063SOL     OW 4087   2.884   6.320   5.973
 1063SOL    HW1 4088   2.970   6.296   5.928
 1063SOL    HW2 4089   2.858   6.247   6.037
 1064SOL     OW 4090   1.665   3.554   0.697
 1064SOL    HW1 4091   1.706   3.587   0.782
 1064SOL    HW2 4092   1.707   3.467   0.671
 1065SOL     OW 4093   4.255   0.959   4.177
 1065SOL    HW1 4094   4.352   0.972   4.196
 1065SOL    HW2 4095   4.206   0.945   4.263
 1066SOL     OW 4096   4.947   6.951   2.045
 1066SOL    HW1 4097   4.933   6.897   1.962
 1066SOL    HW2 4098   4.880   6.925   2.114
 1067SOL     OW 4099   2.407   0.993   0.261
 1067SOL    HW1 4100   2.452   1.074   0.297
 1067SOL    HW2 4101   2.433   0.913   0.315
 1068SOL     OW 4102   6.129   3.416   1.267
 1068SOL    HW1 4103   6.144   3.330   1.315
 1068SOL    HW2 4104   6.064   3.472   1.319
 1069SOL     OW 4105   6.682   4.030   1.881
 1069SOL    HW1 4106   6.669   4.017   1.783
 1069SOL    HW2 4107   6.658   4.124   1.906
 1070SOL     OW 4108   1.096   6.765   1.971
 1070SOL    HW1 4109   1.005   6.768   1.930
 1070SOL    HW2 4110   1.162   6.809   1.910
 1071SOL     OW 4111   6.997   3.102   5.801
 1071SOL    HW1 4112   6.981   3.162   5.723
 1071SOL    HW2 4113   6.937   3.023   5.795
 1072SOL     OW 4114   2.433   1.320   2.018
 1072SOL    HW1 4115   2.500   1.376   2.068
 1072SOL    HW2 4116   2.391   1.255   2.082
 1073SOL     OW 4117   4.960   1.949   3.224
 1073SOL    HW1 4118   5.059   1.938   3.219
 1073SOL    HW2 4119   4.936   2.001   3.305
 1074SOL     OW 4120   2.719   4.599   1.707
 1074SOL    HW1 4121   2.644   4.573   1.767
 1074SOL    HW2 4122   2.806   4.583   1.753
 1075SOL     OW 4123   5.679   3.687   5.388
 1075SOL    HW1 4124   5.585   3.681   5.357
 1075SOL    HW2 4125   5.736   3.622   5.337
 1076SOL     OW 4126   2.167   3.952   4.798
 1076SOL    HW1 4127   2.245   3.954   4.861
 1076SOL    HW2 4128   2.082   3.959   4.851
 1077SOL     OW 4129   0.539   6.912   0.108
 1077SOL    HW1 4130   0.474   6.858   0.162
 1077SOL    HW2 4131   0.499   7.002   0.088
 1078SOL     OW 4132   6.928   6.816   4.152
 1078SOL    HW1 4133   6.915   6.723   4.119
 1078SOL    HW2 4134   6.839   6.859   4.167
 1079SOL     OW 4135   0.906   6.816   2.327
 1079SOL    HW1 4136   0.836   6.887   2.326
 1079SOL    HW2 4137   0.979   6.842   2.390
 1080SOL     OW 4138   2.570   5.134   6.660
 1080SOL    HW1 4139   2.517   5.139   6.745
 1080SOL    HW2 4140   2.507   5.123   6.582
 1081SOL     OW 4141   0.146   5.556   4.138
 1081SOL    HW1 4142   0.180   5.646   4.163
 1081SOL    HW2 4143   0.188   5.486   4.196
 1082SOL     OW 4144   5.218   6.795   6.212
 1082SOL    HW1 4145   5.245   6.888   6.238
 1082SOL    HW2 4146   5.177   6.797   6.120
 1083SOL     OW 4147   4.919   4.331   1.220
 1083SOL    HW1 4148   4.991   4.396   1.194
 1083SOL    HW2 4149   4.853   4.324   1.145
 1084SOL     OW 4150   6.997   0.502   5.796
 1084SOL    HW1 4151   0.038   0.436   5.828
 1084SOL    HW2 4152   6.942   0.460   5.724
 1085SOL     OW 4153   1.412   3.823   4.552
 1085SOL    HW1 4154   1.481   3.894   4.563
 1085SOL    HW2 4155   1.359   3.814   4.636
 1086SOL     OW 4156   6.080   5.401   0.745
 1086SOL    HW1 4157   6.010   5.396   0.674
 1086SOL    HW2 4158   6.050   5.463   0.817
 1087SOL     OW 4159   2.983   0.112   5.475
 1087SOL    HW1 4160   3.010   0.070   5.388
 1087SOL    HW2 4161   3.061   0.112   5.537
 1088SOL     OW 4162   6.921   4.645   3.722
 1088SOL    HW1 4163   6.919   4.602   3.631
 1088SOL    HW2 4164   6.864   4.591   3.785
 1089SOL     OW 4165   6.415   4.179   4.148
 1089SOL    HW1 4166   6.447   4.180   4.242
 1089SOL    HW2 4167   6.459   4.102   4.099
 1090SOL     OW 4168   5.262   1.722   4.811
 1090SOL    HW1 4169   5.263   1.675   4.899
 1090SOL    HW2 4170   5.204   1.803   4.817
 1091SOL     OW 4171   2.459   2.608   3.363
 1091SOL    HW1 4172   2.485   2.552   3.285
 1091SOL    HW2 4173   2.488   2.563   3.448
 1092SOL     OW 4174   0.889   5.727   1.251
 1092SOL    HW1 4175   0.804   5.674   1.242
 1092SOL    HW2 4176   0.899   5.759   1.345
 1093SOL     OW 4177   1.762   6.768   2.531
 1093SOL    HW1 4178   1.784   6.732   2.440
 1093SOL    HW2 4179   1.796   6.704   2.601
 1094SOL     OW 4180   0.770   0.218   2.924
 1094SOL    HW1 4181   0.760   0.120   2.938
 1094SOL    HW2 4182   0.862   0.246   2.951
 1095SOL     OW 4183   6.099   3.549   0.320
 1095SOL    HW1 4184   6.090   3.466   0.265
 1095SOL    HW2 4185   6.176   3.538   0.384
 1096SOL     OW 4186   2.786   5.287   1.758
 1096SOL    HW1 4187   2.724   5.355   1.719
 1096SOL    HW2 4188   2.877   5.326   1.767
 1097SOL     OW 4189   3.385   5.374   4.548
 1097SOL    HW1 4190   3.417   5.446   4.487
 1097SOL    HW2 4191   3.415   5.394   4.642
 1098SOL     OW 4192   6.239   4.735   1.032
 1098SOL    HW1 4193   6.149   4.762   1.069
 1098SOL    HW2 4194   6.285   4.815   0.994
 1099SOL     OW 4195   4.685   0.551   5.954
 1099SOL    HW1 4196   4.764   0.584   5.903
 1099SOL    HW2 4197   4.606   0.611   5.935
 1100SOL     OW 4198   3.269   1.837   3.902
 1100SOL    HW1 4199   3.222   1.752   3.928
 1100SOL    HW2 4200   3.289   1.836   3.805
 1101SOL     OW 4201   6.333   3.187   6.087
 1101SOL    HW1 4202   6.304   3.143   6.172
 1101SOL    HW2 4203   6.255   3.234   6.046
 1102SOL     OW 4204   2.928   1.231   4.314
 1102SOL    HW1 4205   2.928   1.142   4.360
 1102SOL    HW2 4206   2.851   1.235   4.250
 1103SOL     OW 4207   2.495   6.889   6.788
 1103SOL    HW1 4208   2.570   6.833   6.822
 1103SOL    HW2 4209   2.421   6.890   6.856
 1104SOL     OW 4210   0.598   3.090   3.901
 1104SOL    HW1 4211   0.503   3.063   3.917
 1104SOL    HW2 4212   0.652   3.071   3.983
 1105SOL     OW 4213   5.548   0.870   5.515
 1105SOL    HW1 4214   5.620   0.869   5.584
 1105SOL    HW2 4215   5.489   0.950   5.530
 1106SOL     OW 4216   0.382   2.123   0.734
 1106SOL    HW1 4217   0.446   2.188   0.693
 1106SOL    HW2 4218   0.288   2.154   0.718
 1107SOL     OW 4219   1.396   1.082   0.472
 1107SOL    HW1 4220   1.403   1.013   0.544
 1107SOL    HW2 4221   1.412   1.040   0.383
 1108SOL     OW 4222   2.527   6.214   4.380
 1108SOL    HW1 4223   2.497   6.307   4.402
 1108SOL    HW2 4224   2.627   6.211   4.380
 1109SOL     OW 4225   5.069   1.535   4.132
 1109SOL    HW1 4226   5.094   1.632   4.127
 1109SOL    HW2 4227   5.061   1.507   4.227
 1110SOL     OW 4228   3.359   0.938   2.783
 1110SOL    HW1 4229   3.452   0.924   2.749
 1110SOL    HW2 4230   3.316   1.015   2.734
 1111SOL     OW 4231   5.091   3.722   6.712
 1111SOL    HW1 4232   5.017   3.759   6.655
 1111SOL    HW2 4233   5.129   3.641   6.669
 1112SOL     OW 4234   5.047   0.159   2.365
 1112SOL    HW1 4235   5.043   0.154   2.465
 1112SOL    HW2 4236   5.068   0.253   2.338
 1113SOL     OW 4237   5.542   4.690   2.589
 1113SOL    HW1 4238   5.495   4.605   2.568
 1113SOL    HW2 4239   5.564   4.693   2.686
 1114SOL     OW 4240   3.968   3.527   5.512
 1114SOL    HW1 4241   3.909   3.602   5.482
 1114SOL    HW2 4242   3.921   3.475   5.584
 1115SOL     OW 4243   2.788   4.483   5.766
 1115SOL    HW1 4244   2.887   4.494   5.766
 1115SOL    HW2 4245   2.744   4.573   5.760
 1116SOL     OW 4246   4.931   6.887   6.357
 1116SOL    HW1 4247   4.864   6.827   6.401
 1116SOL    HW2 4248   4.929   6.977   6.400
 1117SOL     OW 4249   1.409   3.181   1.830
 1117SOL    HW1 4250   1.465   3.106   1.864
 1117SOL    HW2 4251   1.465   3.264   1.821
 1118SOL     OW 4252   3.491   4.615   7.012
 1118SOL    HW1 4253   3.461   4.609   0.080
 1118SOL    HW2 4254   3.415   4.595   6.951
 1119SOL     OW 4255   3.705   4.914   4.009
 1119SOL    HW1 4256   3.652   4.862   4.076
 1119SOL    HW2 4257   3.683   4.882   3.917
 1120SOL     OW 4258   6.909   4.467   1.196
 1120SOL    HW1 4259   6.866   4.424   1.117
 1120SOL    HW2 4260   6.843   4.473   1.271
 1121SOL     OW 4261   6.571   5.012   4.478
 1121SOL    HW1 4262   6.478   5.014   4.441
 1121SOL    HW2 4263   6.633   4.975   4.408
 1122SOL     OW 4264   5.451   2.780   1.816
 1122SOL    HW1 4265   5.516   2.818   1.882
 1122SOL    HW2 4266   5.412   2.853   1.760
 1123SOL     OW 4267   3.669   1.636   2.998
 1123SOL    HW1 4268   3.764   1.654   3.020
 1123SOL    HW2 4269   3.663   1.556   2.938
 1124SOL     OW 4270   2.270   2.909   4.869
 1124SOL    HW1 4271   2.334   2.943   4.938
 1124SOL    HW2 4272   2.176   2.923   4.901
 1125SOL     OW 4273   0.851   3.794   3.632
 1125SOL    HW1 4274   0.943   3.759   3.648
 1125SOL    HW2 4275   0.785   3.741   3.684
 1126SOL     OW 4276   3.286   5.447   4.982
 1126SOL    HW1 4277   3.238   5.535   4.988
 1126SOL    HW2 4278   3.365   5.456   4.921
 1127SOL     OW 4279   5.849   6.566   3.281
 1127SOL    HW1 4280   5.752   6.585   3.265
 1127SOL    HW2 4281   5.896   6.559   3.193
 1128SOL     OW 4282   5.829   1.345   3.284
 1128SOL    HW1 4283   5.807   1.274   3.350
 1128SOL    HW2 4284   5.751   1.359   3.223
 1129SOL     OW 4285   1.911   0.422   0.714
 1129SOL    HW1 4286   1.949   0.364   0.643
 1129SOL    HW2 4287   1.908   0.372   0.801
 1130SOL     OW 4288   2.211   4.667   2.219
 1130SOL    HW1 4289   2.217   4.652   2.318
 1130SOL    HW2 4290   2.180   4.760   2.201
 1131SOL     OW 4291   1.436   5.817   4.406
 1131SOL    HW1 4292   1.473   5.810   4.314
 1131SOL    HW2 4293   1.509   5.847   4.469
 1132SOL     OW 4294   3.135   1.136   2.297
 1132SOL    HW1 4295   3.157   1.195   2.220
 1132SOL    HW2 4296   3.085   1.188   2.366
 1133SOL     OW 4297   1.269   6.938   4.967
 1133SOL    HW1 4298   1.246   6.897   5.056
 1133SOL    HW2 4299   1.339   6.883   4.922
 1134SOL     OW 4300   3.832   6.874   1.500
 1134SOL    HW1 4301   3.857   6.965   1.466
 1134SOL    HW2 4302   3.905   6.840   1.559
 1135SOL     OW 4303   2.190   5.905   3.713
 1135SOL    HW1 4304   2.122   5.917   3.786
 1135SOL    HW2 4305   2.279   5.939   3.745
 1136SOL     OW 4306   2.081   5.759   1.914
 1136SOL    HW1 4307   2.118   5.827   1.978
 1136SOL    HW2 4308   1.982   5.755   1.923
 1137SOL     OW 4309   0.510   5.213   5.531
 1137SOL    HW1 4310   0.601   5.226   5.570
 1137SOL    HW2 4311   0.509   5.247   5.437
 1138SOL     OW 4312   2.322   2.914   4.557
 1138SOL    HW1 4313   2.285   2.997   4.515
 1138SOL    HW2 4314   2.370   2.939   4.642
 1139SOL     OW 4315   2.645   5.526   4.524
 1139SOL    HW1 4316   2.577   5.464   4.563
 1139SOL    HW2 4317   2.644   5.518   4.425
 1140SOL     OW 4318   1.112   1.480   1.385
 1140SOL    HW1 4319   1.054   1.420   1.329
 1140SOL    HW2 4320   1.165   1.540   1.325
 1141SOL     OW 4321   6.049   4.716   6.223
 1141SOL    HW1 4322   6.061   4.799   6.167
 1141SOL    HW2 4323   5.986   4.654   6.177
 1142SOL     OW 4324   2.891   6.658   2.606
 1142SOL    HW1 4325   2.849   6.614   2.527
 1142SOL    HW2 4326   2.985   6.683   2.585
 1143SOL     OW 4327   1.305   3.870   1.937
 1143SOL    HW1 4328   1.383   3.933   1.937
 1143SOL    HW2 4329   1.220   3.922   1.928
 1144SOL     OW 4330   5.258   4.621   1.932
 1144SOL    HW1 4331   5.338   4.650   1.878
 1144SOL    HW2 4332   5.197   4.699   1.946
 1145SOL     OW 4333   6.934   1.320   0.998
 1145SOL    HW1 4334   6.888   1.289   1.081
 1145SOL    HW2 4335   6.963   1.415   1.009
 1146SOL     OW 4336   1.010   1.355   1.723
 1146SOL    HW1 4337   1.039   1.439   1.769
 1146SOL    HW2 4338   0.993   1.374   1.626
 1147SOL     OW 4339   3.263   6.459   1.161
 1147SOL    HW1 4340   3.336   6.470   1.094
 1147SOL    HW2 4341   3.234   6.364   1.165
 1148SOL     OW 4342   4.521   5.361   3.685
 1148SOL    HW1 4343   4.501   5.336   3.590
 1148SOL    HW2 4344   4.444   5.413   3.722
 1149SOL     OW 4345   4.698   2.880   1.368
 1149SOL    HW1 4346   4.797   2.897   1.367
 1149SOL    HW2 4347   4.650   2.961   1.400
 1150SOL     OW 4348   2.006   4.307   6.909
 1150SOL    HW1 4349   1.976   4.386   6.855
 1150SOL    HW2 4350   1.977   4.319   7.004
 1151SOL     OW 4351   6.507   6.011   3.959
 1151SOL    HW1 4352   6.489   6.002   4.057
 1151SOL    HW2 4353   6.463   6.095   3.924
 1152SOL     OW 4354   3.845   0.112   6.454
 1152SOL    HW1 4355   3.844   0.015   6.430
 1152SOL    HW2 4356   3.772   0.130   6.519
 1153SOL     OW 4357   6.314   0.892   1.100
 1153SOL    HW1 4358   6.247   0.859   1.034
 1153SOL    HW2 4359   6.290   0.985   1.129
 1154SOL     OW 4360   2.333   2.573   1.633
 1154SOL    HW1 4361   2.369   2.628   1.709
 1154SOL    HW2 4362   2.352   2.477   1.650
 1155SOL     OW 4363   2.654   5.971   5.073
 1155SOL    HW1 4364   2.664   6.048   5.010
 1155SOL    HW2 4365   2.741   5.923   5.081
 1156SOL     OW 4366   3.054   2.087   3.990
 1156SOL    HW1 4367   3.073   2.165   4.050
 1156SOL    HW2 4368   3.067   2.002   4.041
 1157SOL     OW 4369   3.864   1.289   5.807
 1157SOL    HW1 4370   3.766   1.276   5.823
 1157SOL    HW2 4371   3.877   1.338   5.721
 1158SOL     OW 4372   5.875   6.210   3.168
 1158SOL    HW1 4373   5.883   6.110   3.169
 1158SOL    HW2 4374   5.782   6.237   3.193
 1159SOL     OW 4375   6.259   6.576   2.202
 1159SOL    HW1 4376   6.261   6.674   2.183
 1159SOL    HW2 4377   6.267   6.525   2.117
 1160SOL     OW 4378   5.372   0.890   1.120
 1160SOL    HW1 4379   5.298   0.832   1.086
 1160SOL    HW2 4380   5.369   0.979   1.075
 1161SOL     OW 4381   0.538   5.692   0.140
 1161SOL    HW1 4382   0.478   5.645   0.076
 1161SOL    HW2 4383   0.500   5.686   0.233
 1162SOL     OW 4384   2.406   2.549   5.011
 1162SOL    HW1 4385   2.397   2.596   4.923
 1162SOL    HW2 4386   2.450   2.611   5.077
 1163SOL     OW 4387   6.071   3.478   1.956
 1163SOL    HW1 4388   6.126   3.444   2.033
 1163SOL    HW2 4389   5.982   3.509   1.991
 1164SOL     OW 4390   4.901   2.230   4.546
 1164SOL    HW1 4391   4.833   2.157   4.554
 1164SOL    HW2 4392   4.898   2.287   4.628
 1165SOL     OW 4393   4.198   6.399   2.916
 1165SOL    HW1 4394   4.139   6.352   2.982
 1165SOL    HW2 4395   4.143   6.434   2.840
 1166SOL     OW 4396   2.317   5.536   6.793
 1166SOL    HW1 4397   2.241   5.472   6.807
 1166SOL    HW2 4398   2.358   5.520   6.704
 1167SOL     OW 4399   5.551   4.691   2.270
 1167SOL    HW1 4400   5.526   4.598   2.244
 1167SOL    HW2 4401   5.469   4.748   2.270
 1168SOL     OW 4402   6.216   1.756   3.135
 1168SOL    HW1 4403   6.275   1.710   3.202
 1168SOL    HW2 4404   6.128   1.709   3.130
 1169SOL     OW 4405   5.677   0.547   5.355
 1169SOL    HW1 4406   5.599   0.604   5.381
 1169SOL    HW2 4407   5.651   0.487   5.279
 1170SOL     OW 4408   4.895   6.553   3.732
 1170SOL    HW1 4409   4.799   6.581   3.729
 1170SOL    HW2 4410   4.947   6.618   3.787
 1171SOL     OW 4411   1.265   0.162   1.138
 1171SOL    HW1 4412   1.236   0.226   1.209
 1171SOL    HW2 4413   1.208   0.173   1.057
 1172SOL     OW 4414   0.090   3.760   6.383
 1172SOL    HW1 4415   0.134   3.849   6.376
 1172SOL    HW2 4416   0.070   3.725   6.291
 1173SOL     OW 4417   3.143   1.600   0.533
 1173SOL    HW1 4418   3.198   1.590   0.450
 1173SOL    HW2 4419   3.053   1.638   0.508
 1174SOL     OW 4420   3.583   3.227   1.129
 1174SOL    HW1 4421   3.591   3.252   1.225
 1174SOL    HW2 4422   3.629   3.140   1.113
 1175SOL     OW 4423   3.328   3.317   4.266
 1175SOL    HW1 4424   3.424   3.303   4.239
 1175SOL    HW2 4425   3.319   3.302   4.365
 1176SOL     OW 4426   5.153   4.018   6.384
 1176SOL    HW1 4427   5.112   4.106   6.364
 1176SOL    HW2 4428   5.220   4.028   6.458
 1177SOL     OW 4429   6.268   2.284   4.976
 1177SOL    HW1 4430   6.262   2.377   5.013
 1177SOL    HW2 4431   6.364   2.255   4.974
 1178SOL     OW 4432   3.265   5.075   0.302
 1178SOL    HW1 4433   3.233   5.010   0.234
 1178SOL    HW2 4434   3.190   5.098   0.364
 1179SOL     OW 4435   2.358   5.713   0.544
 1179SOL    HW1 4436   2.414   5.637   0.577
 1179SOL    HW2 4437   2.333   5.772   0.621
 1180SOL     OW 4438   3.619   5.957   0.895
 1180SOL    HW1 4439   3.624   6.046   0.849
 1180SOL    HW2 4440   3.526   5.921   0.888
 1181SOL     OW 4441   0.363   5.851   0.505
 1181SOL    HW1 4442   0.263   5.846   0.497
 1181SOL    HW2 4443   0.393   5.945   0.494
 1182SOL     OW 4444   4.123   5.211   3.058
 1182SOL    HW1 4445   4.025   5.223   3.073
 1182SOL    HW2 4446   4.161   5.157   3.133
 1183SOL     OW 4447   1.805   3.634   6.196
 1183SOL    HW1 4448   1.792   3.703   6.267
 1183SOL    HW2 4449   1.897   3.642   6.158
 1184SOL     OW 4450   1.802   6.894   5.249
 1184SOL    HW1 4451   1.877   6.948   5.210
 1184SOL    HW2 4452   1.839   6.827   5.314
 1185SOL     OW 4453   6.928   1.237   6.452
 1185SOL    HW1 4454   6.980   1.214   6.534
 1185SOL    HW2 4455   6.854   1.170   6.440
 1186SOL     OW 4456   5.179   6.484   4.833
 1186SOL    HW1 4457   5.253   6.544   4.865
 1186SOL    HW2 4458   5.100   6.493   4.894
 1187SOL     OW 4459   6.176   0.226   5.687
 1187SOL    HW1 4460   6.225   0.212   5.773
 1187SOL    HW2 4461   6.084   0.187   5.694
 1188SOL     OW 4462   2.535   6.509   5.294
 1188SOL    HW1 4463   2.477   6.515   5.213
 1188SOL    HW2 4464   2.557   6.601   5.326
 1189SOL     OW 4465   6.217   3.509   3.284
 1189SOL    HW1 4466   6.290   3.523   3.350
 1189SOL    HW2 4467   6.167   3.425   3.307
 1190SOL     OW 4468   1.768   6.410   2.518
 1190SOL    HW1 4469   1.682   6.406   2.467
 1190SOL    HW2 4470   1.844   6.385   2.458
 1191SOL     OW 4471   4.397   5.446   2.727
 1191SOL    HW1 4472   4.455   5.365   2.736
 1191SOL    HW2 4473   4.353   5.445   2.637
 1192SOL     OW 4474   4.450   6.051   3.208
 1192SOL    HW1 4475   4.521   5.981   3.194
 1192SOL    HW2 4476   4.448   6.112   3.129
 1193SOL     OW 4477   6.595   5.068   3.631
 1193SOL    HW1 4478   6.676   5.014   3.655
 1193SOL    HW2 4479   6.562   5.116   3.712
 1194SOL     OW 4480   4.443   0.828   1.286
 1194SOL    HW1 4481   4.374   0.900   1.289
 1194SOL    HW2 4482   4.397   0.739   1.291
 1195SOL     OW 4483   6.019   2.639   2.509
 1195SOL    HW1 4484   6.027   2.574   2.435
 1195SOL    HW2 4485   6.108   2.651   2.554
 1196SOL     OW 4486   6.420   6.494   4.522
 1196SOL    HW1 4487   6.369   6.491   4.608
 1196SOL    HW2 4488   6.358   6.477   4.446
 1197SOL     OW 4489   3.040   6.594   0.786
 1197SOL    HW1 4490   3.054   6.510   0.733
 1197SOL    HW2 4491   3.029   6.570   0.883
 1198SOL     OW 4492   0.848   1.959   0.355
 1198SOL    HW1 4493   0.818   1.870   0.322
 1198SOL    HW2 4494   0.944   1.972   0.332
 1199SOL     OW 4495   5.036   4.895   2.053
 1199SOL    HW1 4496   5.057   4.818   2.113
 1199SOL    HW2 4497   4.975   4.865   1.980
 1200SOL     OW 4498   2.927   3.622   2.441
 1200SOL    HW1 4499   2.936   3.523   2.439
 1200SOL    HW2 4500   2.944   3.660   2.350
 1201SOL     OW 4501   1.760   1.896   4.269
 1201SOL    HW1 4502   1.737   1.993   4.259
 1201SOL    HW2 4503   1.836   1.873   4.207
 1202SOL     OW 4504   0.254   5.645   6.394
 1202SOL    HW1 4505   0.275   5.666   6.298
 1202SOL    HW2 4506   0.154   5.645   6.406
 1203SOL     OW 4507   4.699   6.118   5.750
 1203SOL    HW1 4508   4.634   6.046   5.727
 1203SOL    HW2 4509   4.687   6.195   5.687
 1204SOL     OW 4510   1.775   0.611   2.324
 1204SOL    HW1 4511   1.683   0.576   2.340
 1204SOL    HW2 4512   1.832   0.538   2.287
 1205SOL     OW 4513   5.283   3.890   1.491
 1205SOL    HW1 4514   5.218   3.946   1.543
 1205SOL    HW2 4515   5.370   3.939   1.482
 1206SOL     OW 4516   3.189   3.149   5.020
 1206SOL    HW1 4517   3.091   3.142   5.007
 1206SOL    HW2 4518   3.209   3.156   5.118
 1207SOL     OW 4519   2.012   6.520   2.122
 1207SOL    HW1 4520   2.086   6.569   2.077
 1207SOL    HW2 4521   1.980   6.447   2.061
 1208SOL     OW 4522   3.363   3.398   6.689
 1208SOL    HW1 4523   3.358   3.396   6.589
 1208SOL    HW2 4524   3.374   3.304   6.723
 1209SOL     OW 4525   3.473   6.930   5.514
 1209SOL    HW1 4526   3.403   6.887   5.458
 1209SOL    HW2 4527   3.562   6.920   5.470
 1210SOL     OW 4528   3.058   1.106   3.125
 1210SOL    HW1 4529   3.060   1.010   3.153
 1210SOL    HW2 4530   3.012   1.160   3.195
 1211SOL     OW 4531   0.824   3.859   0.621
 1211SOL    HW1 4532   0.895   3.876   0.691
 1211SOL    HW2 4533   0.751   3.804   0.661
 1212SOL     OW 4534   0.854   6.963   6.698
 1212SOL    HW1 4535   0.842   6.874   6.655
 1212SOL    HW2 4536   0.952   6.980   6.713
 1213SOL     OW 4537   5.594   2.651   0.545
 1213SOL    HW1 4538   5.510   2.636   0.598
 1213SOL    HW2 4539   5.632   2.741   0.568
 1214SOL     OW 4540   0.092   2.339   1.185
 1214SOL    HW1 4541   0.163   2.305   1.246
 1214SOL    HW2 4542   0.109   2.435   1.163
 1215SOL     OW 4543   0.770   4.437   4.516
 1215SOL    HW1 4544   0.804   4.483   4.598
 1215SOL    HW2 4545   0.792   4.339   4.522
 1216SOL     OW 4546   4.468   0.278   6.487
 1216SOL    HW1 4547   4.528   0.327   6.551
 1216SOL    HW2 4548   4.374   0.285   6.518
 1217SOL     OW 4549   2.274   4.542   0.576
 1217SOL    HW1 4550   2.229   4.453   0.575
 1217SOL    HW2 4551   2.373   4.529   0.588
 1218SOL     OW 4552   1.462   4.208   3.758
 1218SOL    HW1 4553   1.412   4.121   3.750
 1218SOL    HW2 4554   1.545   4.193   3.811
 1219SOL     OW 4555   4.113   5.740   2.200
 1219SOL    HW1 4556   4.169   5.665   2.166
 1219SOL    HW2 4557   4.154   5.828   2.174
 1220SOL     OW 4558   1.159   4.399   2.431
 1220SOL    HW1 4559   1.112   4.455   2.499
 1220SOL    HW2 4560   1.250   4.436   2.415
 1221SOL     OW 4561   5.895   3.645   6.207
 1221SOL    HW1 4562   5.824   3.611   6.269
 1221SOL    HW2 4563   5.963   3.696   6.259
 1222SOL     OW 4564   0.150   6.157   0.013
 1222SOL    HW1 4565   0.108   6.131   0.100
 1222SOL    HW2 4566   0.190   6.248   0.021
 1223SOL     OW 4567   3.285   6.346   0.264
 1223SOL    HW1 4568   3.234   6.260   0.255
 1223SOL    HW2 4569   3.285   6.394   0.177
 1224SOL     OW 4570   2.668   0.051   1.327
 1224SOL    HW1 4571   2.682   0.067   1.424
 1224SOL    HW2 4572   2.632   0.134   1.283
 1225SOL     OW 4573   3.249   4.389   6.327
 1225SOL    HW1 4574   3.262   4.302   6.279
 1225SOL    HW2 4575   3.279   4.464   6.269
 1226SOL     OW 4576   1.758   4.950   1.270
 1226SOL    HW1 4577   1.787   5.032   1.320
 1226SOL    HW2 4578   1.793   4.868   1.317
 1227SOL     OW 4579   7.027   4.081   6.401
 1227SOL    HW1 4580   0.098   4.073   6.388
 1227SOL    HW2 4581   7.007   4.097   6.497
 1228SOL     OW 4582   4.728   1.963   6.033
 1228SOL    HW1 4583   4.644   1.920   6.065
 1228SOL    HW2 4584   4.799   1.894   6.023
 1229SOL     OW 4585   3.421   4.925   6.561
 1229SOL    HW1 4586   3.430   4.890   6.468
 1229SOL    HW2 4587   3.513   4.941   6.600
 1230SOL     OW 4588   4.432   6.732   3.408
 1230SOL    HW1 4589   4.463   6.638   3.422
 1230SOL    HW2 4590   4.496   6.780   3.348
 1231SOL     OW 4591   2.080   3.304   5.008
 1231SOL    HW1 4592   2.105   3.399   5.030
 1231SOL    HW2 4593   1.988   3.302   4.968
 1232SOL     OW 4594   1.376   2.859   5.077
 1232SOL    HW1 4595   1.399   2.953   5.050
 1232SOL    HW2 4596   1.443   2.796   5.040
 1233SOL     OW 4597   0.724   3.809   5.202
 1233SOL    HW1 4598   0.638   3.768   5.172
 1233SOL    HW2 4599   0.788   3.814   5.125
 1234SOL     OW 4600   5.734   4.115   4.405
 1234SOL    HW1 4601   5.775   4.193   4.453
 1234SOL    HW2 4602   5.644   4.096   4.445
 1235SOL     OW 4603   6.433   5.348   3.432
 1235SOL    HW1 4604   6.419   5.356   3.530
 1235SOL    HW2 4605   6.493   5.421   3.400
 1236SOL     OW 4606   5.716   0.307   0.060
 1236SOL    HW1 4607   5.673   0.357   7.012
 1236SOL    HW2 4608   5.774   0.234   0.023
 1237SOL     OW 4609   3.028   5.006   6.522
 1237SOL    HW1 4610   3.084   4.938   6.568
 1237SOL    HW2 4611   2.955   4.959   6.471
 1238SOL     OW 4612   1.742   1.560   0.951
 1238SOL    HW1 4613   1.705   1.553   0.859
 1238SOL    HW2 4614   1.805   1.637   0.956
 1239SOL     OW 4615   6.738   6.078   6.597
 1239SOL    HW1 4616   6.644   6.050   6.578
 1239SOL    HW2 4617   6.759   6.062   6.694
 1240SOL     OW 4618   4.901   6.130   1.778
 1240SOL    HW1 4619   4.982   6.095   1.730
 1240SOL    HW2 4620   4.885   6.225   1.751
 1241SOL     OW 4621   6.468   3.744   4.149
 1241SOL    HW1 4622   6.532   3.673   4.120
 1241SOL    HW2 4623   6.412   3.710   4.225
 1242SOL     OW 4624   2.395   3.876   0.543
 1242SOL    HW1 4625   2.476   3.820   0.531
 1242SOL    HW2 4626   2.326   3.850   0.476
 1243SOL     OW 4627   2.183   4.952   5.210
 1243SOL    HW1 4628   2.113   4.993   5.152
 1243SOL    HW2 4629   2.263   4.929   5.155
 1244SOL     OW 4630   0.694   1.033   3.877
 1244SOL    HW1 4631   0.631   1.012   3.802
 1244SOL    HW2 4632   0.762   1.100   3.845
 1245SOL     OW 4633   3.319   3.663   0.143
 1245SOL    HW1 4634   3.418   3.654   0.132
 1245SOL    HW2 4635   3.296   3.758   0.162
 1246SOL     OW 4636   2.011   5.994   2.239
 1246SOL    HW1 4637   1.959   6.074   2.271
 1246SOL    HW2 4638   2.108   6.018   2.232
 1247SOL     OW 4639   1.972   6.456   6.284
 1247SOL    HW1 4640   1.999   6.360   6.284
 1247SOL    HW2 4641   1.908   6.472   6.209
 1248SOL     OW 4642   1.945   5.322   3.942
 1248SOL    HW1 4643   1.935   5.225   3.919
 1248SOL    HW2 4644   1.865   5.353   3.992
 1249SOL     OW 4645   5.668   2.971   3.390
 1249SOL    HW1 4646   5.722   2.997   3.471
 1249SOL    HW2 4647   5.726   2.974   3.309
 1250SOL     OW 4648   1.307   4.247   4.394
 1250SOL    HW1 4649   1.311   4.163   4.339
 1250SOL    HW2 4650   1.236   4.307   4.358
 1251SOL     OW 4651   3.863   0.053   4.808
 1251SOL    HW1 4652   3.878   0.118   4.882
 1251SOL    HW2 4653   3.792   0.089   4.746
 1252SOL     OW 4654   3.625   4.299   5.555
 1252SOL    HW1 4655   3.580   4.349   5.629
 1252SOL    HW2 4656   3.570   4.305   5.472
 1253SOL     OW 4657   3.837   5.209   3.011
 1253SOL    HW1 4658   3.828   5.299   3.054
 1253SOL    HW2 4659   3.809   5.215   2.915
 1254SOL     OW 4660   6.506   1.902   2.868
 1254SOL    HW1 4661   6.584   1.948   2.826
 1254SOL    HW2 4662   6.422   1.953   2.846
 1255SOL     OW 4663   6.987   6.874   6.706
 1255SOL    HW1 4664   6.979   6.941   6.780
 1255SOL    HW2 4665   6.895   6.841   6.682
 1256SOL     OW 4666   4.633   0.618   3.166
 1256SOL    HW1 4667   4.541   0.629   3.204
 1256SOL    HW2 4668   4.699   0.662   3.226
 1257SOL     OW 4669   6.611   1.205   3.851
 1257SOL    HW1 4670   6.577   1.231   3.941
 1257SOL    HW2 4671   6.559   1.127   3.817
 1258SOL     OW 4672   0.056   6.986   3.502
 1258SOL    HW1 4673   7.027   6.968   3.582
 1258SOL    HW2 4674   0.110   6.905   3.479
 1259SOL     OW 4675   4.109   2.060   4.396
 1259SOL    HW1 4676   4.050   2.062   4.315
 1259SOL    HW2 4677   4.178   1.989   4.384
 1260SOL     OW 4678   1.169   0.707   6.984
 1260SOL    HW1 4679   1.096   0.773   6.967
 1260SOL    HW2 4680   1.241   0.718   6.916
 1261SOL     OW 4681   6.814   5.037   1.036
 1261SOL    HW1 4682   6.769   4.948   1.039
 1261SOL    HW2 4683   6.868   5.050   1.119
 1262SOL     OW 4684   5.440   5.806   0.848
 1262SOL    HW1 4685   5.396   5.895   0.836
 1262SOL    HW2 4686   5.447   5.785   0.946
 1263SOL     OW 4687   1.202   2.296   3.452
 1263SOL    HW1 4688   1.194   2.396   3.447
 1263SOL    HW2 4689   1.258   2.272   3.532
 1264SOL     OW 4690   0.822   2.781   5.383
 1264SOL    HW1 4691   0.905   2.726   5.383
 1264SOL    HW2 4692   0.753   2.737   5.439
 1265SOL     OW 4693   6.004   6.655   4.651
 1265SOL    HW1 4694   5.956   6.675   4.736
 1265SOL    HW2 4695   5.939   6.621   4.583
 1266SOL     OW 4696   1.938   0.771   5.120
 1266SOL    HW1 4697   1.955   0.703   5.048
 1266SOL    HW2 4698   2.021   0.783   5.174
 1267SOL     OW 4699   4.020   0.121   2.446
 1267SOL    HW1 4700   4.016   0.116   2.347
 1267SOL    HW2 4701   4.054   0.034   2.482
 1268SOL     OW 4702   4.388   2.620   5.276
 1268SOL    HW1 4703   4.358   2.715   5.270
 1268SOL    HW2 4704   4.309   2.560   5.286
 1269SOL     OW 4705   6.066   1.941   4.510
 1269SOL    HW1 4706   6.116   2.009   4.457
 1269SOL    HW2 4707   6.074   1.962   4.608
 1270SOL     OW 4708   6.863   5.269   3.253
 1270SOL    HW1 4709   6.822   5.293   3.340
 1270SOL    HW2 4710   6.909   5.180   3.261
 1271SOL     OW 4711   1.316   1.290   1.501
 1271SOL    HW1 4712   1.317   1.195   1.471
 1271SOL    HW2 4713   1.251   1.342   1.446
 1272SOL     OW 4714   6.597   4.344   0.110
 1272SOL    HW1 4715   6.592   4.246   0.132
 1272SOL    HW2 4716   6.666   4.359   0.040
 1273SOL     OW 4717   1.355   4.558   5.069
 1273SOL    HW1 4718   1.451   4.570   5.045
 1273SOL    HW2 4719   1.310   4.647   5.070
 1274SOL     OW 4720   0.494   5.235   2.748
 1274SOL    HW1 4721   0.567   5.167   2.750
 1274SOL    HW2 4722   0.500   5.289   2.664
 1275SOL     OW 4723   2.519   0.910   2.638
 1275SOL    HW1 4724   2.521   0.963   2.553
 1275SOL    HW2 4725   2.430   0.923   2.682
 1276SOL     OW 4726   5.386   4.916   3.814
 1276SOL    HW1 4727   5.481   4.886   3.818
 1276SOL    HW2 4728   5.382   5.013   3.792
 1277SOL     OW 4729   0.232   6.295   0.556
 1277SOL    HW1 4730   0.330   6.312   0.562
 1277SOL    HW2 4731   0.187   6.374   0.516
 1278SOL     OW 4732   1.114   5.488   2.690
 1278SOL    HW1 4733   1.116   5.473   2.789
 1278SOL    HW2 4734   1.208   5.493   2.656
 1279SOL     OW 4735   1.979   2.414   0.242
 1279SOL    HW1 4736   1.898   2.416   0.301
 1279SOL    HW2 4737   2.040   2.489   0.267
 1280SOL     OW 4738   1.881   2.082   3.563
 1280SOL    HW1 4739   1.887   2.163   3.622
 1280SOL    HW2 4740   1.963   2.026   3.576
 1281SOL     OW 4741   4.318   6.055   4.201
 1281SOL    HW1 4742   4.359   6.070   4.111
 1281SOL    HW2 4743   4.342   6.130   4.262
 1282SOL     OW 4744   6.752   2.554   1.475
 1282SOL    HW1 4745   6.658   2.588   1.468
 1282SOL    HW2 4746   6.801   2.576   1.391
 1283SOL     OW 4747   6.621   3.334   4.987
 1283SOL    HW1 4748   6.580   3.371   5.070
 1283SOL    HW2 4749   6.708   3.380   4.970
 1284SOL     OW 4750   4.050   1.767   2.212
 1284SOL    HW1 4751   3.980   1.796   2.277
 1284SOL    HW2 4752   4.069   1.670   2.225
 1285SOL     OW 4753   3.935   1.279   5.283
 1285SOL    HW1 4754   3.847   1.247   5.247
 1285SOL    HW2 4755   3.995   1.303   5.207
 1286SOL     OW 4756   4.633   1.843   1.947
 1286SOL    HW1 4757   4.694   1.869   2.022
 1286SOL    HW2 4758   4.644   1.745   1.929
 1287SOL     OW 4759   6.524   4.545   4.840
 1287SOL    HW1 4760   6.538   4.507   4.931
 1287SOL    HW2 4761   6.449   4.612   4.843
 1288SOL     OW 4762   4.503   4.234   6.810
 1288SOL    HW1 4763   4.540   4.166   6.747
 1288SOL    HW2 4764   4.411   4.207   6.839
 1289SOL     OW 4765   6.997   0.118   1.685
 1289SOL    HW1 4766   7.016   0.163   1.773
 1289SOL    HW2 4767   0.054   0.113   1.632
 1290SOL     OW 4768   1.452   7.022   6.252
 1290SOL    HW1 4769   1.525   0.014   6.317
 1290SOL    HW2 4770   1.450   6.924   6.233
 1291SOL     OW 4771   6.732   5.290   2.985
 1291SOL    HW1 4772   6.664   5.225   3.019
 1291SOL    HW2 4773   6.797   5.311   3.058
 1292SOL     OW 4774   1.071   6.572   2.341
 1292SOL    HW1 4775   1.075   6.519   2.426
 1292SOL    HW2 4776   0.984   6.621   2.337
 1293SOL     OW 4777   3.084   1.512   0.040
 1293SOL    HW1 4778   3.091   1.419   0.005
 1293SOL    HW2 4779   3.056   1.573   6.994
 1294SOL     OW 4780   2.459   3.665   5.390
 1294SOL    HW1 4781   2.530   3.720   5.346
 1294SOL    HW2 4782   2.472   3.569   5.367
 1295SOL     OW 4783   6.488   4.547   0.683
 1295SOL    HW1 4784   6.491   4.454   0.646
 1295SOL    HW2 4785   6.575   4.569   0.726
 1296SOL     OW 4786   5.436   0.034   5.606
 1296SOL    HW1 4787   5.393   0.034   5.516
 1296SOL    HW2 4788   5.477   0.124   5.623
 1297SOL     OW 4789   0.716   0.142   2.049
 1297SOL    HW1 4790   0.657   0.065   2.025
 1297SOL    HW2 4791   0.713   0.210   1.976
 1298SOL     OW 4792   5.136   6.431   2.446
 1298SOL    HW1 4793   5.086   6.346   2.462
 1298SOL    HW2 4794   5.111   6.498   2.516
 1299SOL     OW 4795   1.167   3.454   5.279
 1299SOL    HW1 4796   1.160   3.553   5.265
 1299SOL    HW2 4797   1.249   3.433   5.332
 1300SOL     OW 4798   1.326   4.507   2.103
 1300SOL    HW1 4799   1.333   4.414   2.067
 1300SOL    HW2 4800   1.234   4.522   2.140
 1301SOL     OW 4801   0.742   0.456   1.079
 1301SOL    HW1 4802   0.651   0.424   1.104
 1301SOL    HW2 4803   0.790   0.488   1.161
 1302SOL     OW 4804   5.346   6.905   4.420
 1302SOL    HW1 4805   5.340   6.812   4.384
 1302SOL    HW2 4806   5.255   6.947   4.419
 1303SOL     OW 4807   3.930   6.126   1.489
 1303SOL    HW1 4808   3.922   6.130   1.389
 1303SOL    HW2 4809   3.980   6.206   1.521
 1304SOL     OW 4810   0.837   1.385   0.710
 1304SOL    HW1 4811   0.905   1.456   0.726
 1304SOL    HW2 4812   0.774   1.382   0.787
 1305SOL     OW 4813   5.280   3.744   6.397
 1305SOL    HW1 4814   5.278   3.843   6.386
 1305SOL    HW2 4815   5.364   3.707   6.358
 1306SOL     OW 4816   2.580   5.441   4.244
 1306SOL    HW1 4817   2.502   5.413   4.301
 1306SOL    HW2 4818   2.546   5.481   4.159
 1307SOL     OW 4819   2.904   2.292   3.367
 1307SOL    HW1 4820   2.855   2.237   3.434
 1307SOL    HW2 4821   2.861   2.382   3.360
 1308SOL     OW 4822   0.359   5.260   5.739
 1308SOL    HW1 4823   0.416   5.241   5.659
 1308SOL    HW2 4824   0.336   5.358   5.741
 1309SOL     OW 4825   5.322   4.067   6.576
 1309SOL    HW1 4826   5.377   4.016   6.642
 1309SOL    HW2 4827   5.256   4.124   6.624
 1310SOL     OW 4828   1.233   3.844   3.380
 1310SOL    HW1 4829   1.289   3.876   3.303
 1310SOL    HW2 4830   1.246   3.905   3.458
 1311SOL     OW 4831   6.934   5.931   0.693
 1311SOL    HW1 4832   6.990   6.003   0.735
 1311SOL    HW2 4833   6.991   5.875   0.633
 1312SOL     OW 4834   2.420   0.518   6.350
 1312SOL    HW1 4835   2.390   0.431   6.388
 1312SOL    HW2 4836   2.414   0.589   6.420
 1313SOL     OW 4837   6.475   5.932   2.798
 1313SOL    HW1 4838   6.486   5.857   2.733
 1313SOL    HW2 4839   6.479   6.019   2.750
 1314SOL     OW 4840   2.588   1.620   5.149
 1314SOL    HW1 4841   2.574   1.667   5.236
 1314SOL    HW2 4842   2.504   1.623   5.096
 1315SOL     OW 4843   5.966   1.499   3.699
 1315SOL    HW1 4844   5.939   1.570   3.764
 1315SOL    HW2 4845   5.987   1.415   3.749
 1316SOL     OW 4846   4.387   0.740   4.969
 1316SOL    HW1 4847   4.407   0.792   4.885
 1316SOL    HW2 4848   4.294   0.705   4.964
 1317SOL     OW 4849   3.049   3.566   5.974
 1317SOL    HW1 4850   3.122   3.497   5.968
 1317SOL    HW2 4851   2.975   3.540   5.913
 1318SOL     OW 4852   1.995   2.488   6.289
 1318SOL    HW1 4853   2.017   2.453   6.198
 1318SOL    HW2 4854   2.007   2.588   6.291
 1319SOL     OW 4855   6.957   6.823   0.502
 1319SOL    HW1 4856   6.864   6.818   0.537
 1319SOL    HW2 4857   7.011   6.884   0.560
 1320SOL     OW 4858   3.299   2.837   5.839
 1320SOL    HW1 4859   3.299   2.744   5.802
 1320SOL    HW2 4860   3.261   2.836   5.932
 1321SOL     OW 4861   5.155   2.511   6.839
 1321SOL    HW1 4862   5.219   2.454   6.788
 1321SOL    HW2 4863   5.182   2.607   6.830
 1322SOL     OW 4864   3.308   1.501   0.720
 1322SOL    HW1 4865   3.227   1.537   0.674
 1322SOL    HW2 4866   3.388   1.510   0.660
 1323SOL     OW 4867   3.686   6.888   0.724
 1323SOL    HW1 4868   3.724   6.816   0.667
 1323SOL    HW2 4869   3.743   6.902   0.804
 1324SOL     OW 4870   1.562   3.384   0.024
 1324SOL    HW1 4871   1.605   3.329   6.980
 1324SOL    HW2 4872   1.538   3.474   7.015
 1325SOL     OW 4873   2.634   5.336   6.148
 1325SOL    HW1 4874   2.694   5.353   6.226
 1325SOL    HW2 4875   2.657   5.399   6.074
 1326SOL     OW 4876   5.162   3.172   3.659
 1326SOL    HW1 4877   5.068   3.153   3.689
 1326SOL    HW2 4878   5.225   3.113   3.710
 1327SOL     OW 4879   6.276   5.892   1.386
 1327SOL    HW1 4880   6.248   5.961   1.453
 1327SOL    HW2 4881   6.356   5.842   1.421
 1328SOL     OW 4882   1.613   3.364   5.779
 1328SOL    HW1 4883   1.709   3.373   5.806
 1328SOL    HW2 4884   1.565   3.307   5.846
 1329SOL     OW 4885   0.720   2.998   3.032
 1329SOL    HW1 4886   0.646   2.990   2.965
 1329SOL    HW2 4887   0.754   3.092   3.033
 1330SOL     OW 4888   6.387   3.157   1.611
 1330SOL    HW1 4889   6.479   3.196   1.619
 1330SOL    HW2 4890   6.393   3.058   1.614
 1331SOL     OW 4891   4.513   1.869   2.864
 1331SOL    HW1 4892   4.475   1.946   2.812
 1331SOL    HW2 4893   4.610   1.860   2.842
 1332SOL     OW 4894   1.578   6.014   0.296
 1332SOL    HW1 4895   1.484   6.001   0.328
 1332SOL    HW2 4896   1.615   5.926   0.266
 1333SOL     OW 4897   3.686   4.111   3.132
 1333SOL    HW1 4898   3.725   4.174   3.199
 1333SOL    HW2 4899   3.690   4.153   3.041
 1334SOL     OW 4900   0.050   3.334   2.363
 1334SOL    HW1 4901   0.067   3.319   2.266
 1334SOL    HW2 4902   0.135   3.361   2.408
 1335SOL     OW 4903   1.450   3.471   2.170
 1335SOL    HW1 4904   1.442   3.533   2.092
 1335SOL    HW2 4905   1.500   3.517   2.244
 1336SOL     OW 4906   3.308   0.662   5.353
 1336SOL    HW1 4907   3.213   0.669   5.324
 1336SOL    HW2 4908   3.314   0.681   5.451
 1337SOL     OW 4909   0.011   1.128   3.543
 1337SOL    HW1 4910   7.000   1.185   3.615
 1337SOL    HW2 4911   0.091   1.173   3.504
 1338SOL     OW 4912   6.407   4.531   5.540
 1338SOL    HW1 4913   6.456   4.565   5.460
 1338SOL    HW2 4914   6.467   4.471   5.592
 1339SOL     OW 4915   0.339   0.821   6.889
 1339SOL    HW1 4916   0.336   0.721   6.901
 1339SOL    HW2 4917   0.423   0.845   6.839
 1340SOL     OW 4918   4.468   2.352   1.627
 1340SOL    HW1 4919   4.473   2.416   1.704
 1340SOL    HW2 4920   4.454   2.259   1.662
 1341SOL     OW 4921   4.739   7.003   7.008
 1341SOL    HW1 4922   4.690   6.925   6.969
 1341SOL    HW2 4923   4.786   6.974   0.064
 1342SOL     OW 4924   2.327   6.335   1.204
 1342SOL    HW1 4925   2.304   6.255   1.149
 1342SOL    HW2 4926   2.268   6.412   1.179
 1343SOL     OW 4927   5.869   6.112   3.582
 1343SOL    HW1 4928   5.868   6.172   3.502
 1343SOL    HW2 4929   5.950   6.054   3.579
 1344SOL     OW 4930   0.119   0.358   5.058
 1344SOL    HW1 4931   0.206   0.332   5.018
 1344SOL    HW2 4932   0.134   0.425   5.130
 1345SOL     OW 4933   0.114   6.112   1.231
 1345SOL    HW1 4934   0.187   6.097   1.298
 1345SOL    HW2 4935   0.056   6.030   1.225
 1346SOL     OW 4936   2.799   5.177   5.896
 1346SOL    HW1 4937   2.764   5.268   5.918
 1346SOL    HW2 4938   2.816   5.170   5.797
 1347SOL     OW 4939   1.244   6.655   6.703
 1347SOL    HW1 4940   1.150   6.622   6.705
 1347SOL    HW2 4941   1.264   6.694   6.613
 1348SOL     OW 4942   0.791   6.524   5.197
 1348SOL    HW1 4943   0.701   6.480   5.195
 1348SOL    HW2 4944   0.852   6.472   5.256
 1349SOL     OW 4945   4.923   3.170   3.791
 1349SOL    HW1 4946   4.929   3.074   3.819
 1349SOL    HW2 4947   4.906   3.227   3.871
 1350SOL     OW 4948   3.806   3.612   0.472
 1350SOL    HW1 4949   3.872   3.558   0.524
 1350SOL    HW2 4950   3.792   3.701   0.518
 1351SOL     OW 4951   6.638   2.455   5.564
 1351SOL    HW1 4952   6.683   2.470   5.476
 1351SOL    HW2 4953   6.656   2.533   5.625
 1352SOL     OW 4954   0.037   0.309   2.267
 1352SOL    HW1 4955   7.005   0.345   2.339
 1352SOL    HW2 4956   7.027   0.330   2.177
 1353SOL     OW 4957   0.764   0.999   0.844
 1353SOL    HW1 4958   0.813   1.045   0.770
 1353SOL    HW2 4959   0.695   0.938   0.806
 1354SOL     OW 4960   5.237   5.151   2.189
 1354SOL    HW1 4961   5.221   5.183   2.095
 1354SOL    HW2 4962   5.272   5.227   2.244
 1355SOL     OW 4963   6.285   3.535   5.150
 1355SOL    HW1 4964   6.285   3.565   5.055
 1355SOL    HW2 4965   6.241   3.445   5.156
 1356SOL     OW 4966   3.318   3.151   1.136
 1356SOL    HW1 4967   3.323   3.067   1.189
 1356SOL    HW2 4968   3.402   3.204   1.149
 1357SOL     OW 4969   6.917   3.554   5.698
 1357SOL    HW1 4970   6.884   3.544   5.604
 1357SOL    HW2 4971   6.840   3.571   5.759
 1358SOL     OW 4972   1.575   6.588   6.794
 1358SOL    HW1 4973   1.608   6.553   6.707
 1358SOL    HW2 4974   1.565   6.687   6.788
 1359SOL     OW 4975   6.968   4.374   1.896
 1359SOL    HW1 4976   6.907   4.335   1.827
 1359SOL    HW2 4977   6.917   4.439   1.953
 1360SOL     OW 4978   2.269   2.357   6.929
 1360SOL    HW1 4979   2.330   2.423   6.885
 1360SOL    HW2 4980   2.291   2.352   7.027
 1361SOL     OW 4981   6.732   5.177   4.669
 1361SOL    HW1 4982   6.789   5.097   4.686
 1361SOL    HW2 4983   6.714   5.185   4.571
 1362SOL     OW 4984   3.328   2.948   2.873
 1362SOL    HW1 4985   3.305   2.985   2.783
 1362SOL    HW2 4986   3.308   2.850   2.875
 1363SOL     OW 4987   0.768   6.114   5.212
 1363SOL    HW1 4988   0.766   6.095   5.114
 1363SOL    HW2 4989   0.676   6.141   5.243
 1364SOL     OW 4990   3.732   4.174   1.296
 1364SOL    HW1 4991   3.671   4.155   1.220
 1364SOL    HW2 4992   3.791   4.094   1.312
 1365SOL     OW 4993   0.242   3.603   6.953
 1365SOL    HW1 4994   0.194   3.624   6.868
 1365SOL    HW2 4995   0.201   3.522   6.995
 1366SOL     OW 4996   2.602   7.015   5.237
 1366SOL    HW1 4997   2.666   0.058   5.208
 1366SOL    HW2 4998   2.605   6.938   5.173
 1367SOL     OW 4999   1.887   0.884   2.582
 1367SOL    HW1 5000   1.952   0.809   2.586
 1367SOL    HW2 5001   1.937   0.971   2.581
 1368SOL     OW 5002   5.683   6.647   4.169
 1368SOL    HW1 5003   5.683   6.645   4.269
 1368SOL    HW2 5004   5.648   6.560   4.135
 1369SOL     OW 5005   0.732   0.694   3.110
 1369SOL    HW1 5006   0.691   0.676   3.200
 1369SOL    HW2 5007   0.667   0.747   3.055
 1370SOL     OW 5008   2.411   1.067   1.474
 1370SOL    HW1 5009   2.350   1.107   1.541
 1370SOL    HW2 5010   2.437   0.975   1.503
 1371SOL     OW 5011   3.996   0.767   6.483
 1371SOL    HW1 5012   3.995   0.834   6.408
 1371SOL    HW2 5013   4.051   0.688   6.456
 1372SOL     OW 5014   3.296   2.100   2.133
 1372SOL    HW1 5015   3.242   2.184   2.131
 1372SOL    HW2 5016   3.234   2.022   2.143
 1373SOL     OW 5017   1.448   5.869   1.115
 1373SOL    HW1 5018   1.452   5.931   1.036
 1373SOL    HW2 5019   1.541   5.849   1.146
 1374SOL     OW 5020   4.870   2.504   0.525
 1374SOL    HW1 5021   4.938   2.571   0.497
 1374SOL    HW2 5022   4.904   2.453   0.604
 1375SOL     OW 5023   0.530   4.082   5.944
 1375SOL    HW1 5024   0.468   4.109   5.871
 1375SOL    HW2 5025   0.624   4.105   5.918
 1376SOL     OW 5026   4.794   1.569   2.245
 1376SOL    HW1 5027   4.810   1.644   2.309
 1376SOL    HW2 5028   4.881   1.535   2.210
 1377SOL     OW 5029   0.554   5.237   4.958
 1377SOL    HW1 5030   0.485   5.166   4.966
 1377SOL    HW2 5031   0.541   5.305   5.030
 1378SOL     OW 5032   1.295   2.261   0.519
 1378SOL    HW1 5033   1.237   2.335   0.485
 1378SOL    HW2 5034   1.371   2.300   0.572
 1379SOL     OW 5035   3.885   5.930   1.677
 1379SOL    HW1 5036   3.935   5.951   1.761
 1379SOL    HW2 5037   3.909   5.996   1.606
 1380SOL     OW 5038   6.327   6.754   2.900
 1380SOL    HW1 5039   6.365   6.794   2.817
 1380SOL    HW2 5040   6.387   6.775   2.977
 1381SOL     OW 5041   5.999   1.544   1.351
 1381SOL    HW1 5042   5.944   1.468   1.388
 1381SOL    HW2 5043   6.093   1.514   1.340
 1382SOL     OW 5044   6.301   4.757   6.342
 1382SOL    HW1 5045   6.372   4.721   6.281
 1382SOL    HW2 5046   6.211   4.737   6.304
 1383SOL     OW 5047   2.686   0.199   0.573
 1383SOL    HW1 5048   2.631   0.177   0.492
 1383SOL    HW2 5049   2.770   0.244   0.545
 1384SOL     OW 5050   3.005   1.866   2.542
 1384SOL    HW1 5051   3.032   1.904   2.630
 1384SOL    HW2 5052   2.964   1.937   2.485
 1385SOL     OW 5053   5.633   3.179   2.747
 1385SOL    HW1 5054   5.631   3.171   2.847
 1385SOL    HW2 5055   5.560   3.241   2.718
 1386SOL     OW 5056   2.103   2.521   4.091
 1386SOL    HW1 5057   2.032   2.518   4.020
 1386SOL    HW2 5058   2.073   2.582   4.164
 1387SOL     OW 5059   2.648   0.779   5.283
 1387SOL    HW1 5060   2.657   0.681   5.264
 1387SOL    HW2 5061   2.571   0.816   5.231
 1388SOL     OW 5062   6.589   0.711   5.158
 1388SOL    HW1 5063   6.548   0.717   5.249
 1388SOL    HW2 5064   6.646   0.629   5.152
 1389SOL     OW 5065   6.716   0.660   4.680
 1389SOL    HW1 5066   6.629   0.686   4.724
 1389SOL    HW2 5067   6.738   0.566   4.703
 1390SOL     OW 5068   4.662   2.725   2.337
 1390SOL    HW1 5069   4.708   2.719   2.248
 1390SOL    HW2 5070   4.584   2.661   2.338
 1391SOL     OW 5071   6.098   1.207   4.760
 1391SOL    HW1 5072   6.019   1.199   4.701
 1391SOL    HW2 5073   6.130   1.116   4.787
 1392SOL     OW 5074   4.313   5.406   6.132
 1392SOL    HW1 5075   4.250   5.370   6.063
 1392SOL    HW2 5076   4.265   5.472   6.190
 1393SOL     OW 5077   6.122   0.630   6.263
 1393SOL    HW1 5078   6.054   0.557   6.259
 1393SOL    HW2 5079   6.199   0.607   6.204
 1394SOL     OW 5080   3.955   0.025   3.927
 1394SOL    HW1 5081   3.993   0.117   3.918
 1394SOL    HW2 5082   3.975   7.017   4.018
 1395SOL     OW 5083   1.046   5.257   2.297
 1395SOL    HW1 5084   1.031   5.355   2.308
 1395SOL    HW2 5085   1.074   5.217   2.384
 1396SOL     OW 5086   2.059   1.584   3.967
 1396SOL    HW1 5087   2.087   1.543   3.880
 1396SOL    HW2 5088   1.970   1.547   3.994
 1397SOL     OW 5089   0.905   5.569   4.525
 1397SOL    HW1 5090   0.891   5.619   4.439
 1397SOL    HW2 5091   0.917   5.634   4.600
 1398SOL     OW 5092   1.124   6.546   0.688
 1398SOL    HW1 5093   1.123   6.557   0.788
 1398SOL    HW2 5094   1.050   6.600   0.648
 1399SOL     OW 5095   4.213   0.409   0.239
 1399SOL    HW1 5096   4.266   0.376   0.161
 1399SOL    HW2 5097   4.172   0.331   0.286
 1400SOL     OW 5098   6.923   0.488   4.951
 1400SOL    HW1 5099   6.995   0.420   4.935
 1400SOL    HW2 5100   6.835   0.449   4.924
 1401SOL     OW 5101   5.378   0.170   2.451
 1401SOL    HW1 5102   5.421   0.261   2.450
 1401SOL    HW2 5103   5.370   0.138   2.545
 1402SOL     OW 5104   6.991   4.952   2.702
 1402SOL    HW1 5105   6.903   4.908   2.720
 1402SOL    HW2 5106   7.009   5.021   2.772
 1403SOL     OW 5107   3.350   3.400   6.416
 1403SOL    HW1 5108   3.261   3.423   6.378
 1403SOL    HW2 5109   3.369   3.303   6.401
 1404SOL     OW 5110   3.643   6.600   0.578
 1404SOL    HW1 5111   3.559   6.593   0.524
 1404SOL    HW2 5112   3.720   6.619   0.519
 1405SOL     OW 5113   0.862   3.924   1.392
 1405SOL    HW1 5114   0.823   4.010   1.360
 1405SOL    HW2 5115   0.795   3.875   1.448
 1406SOL     OW 5116   2.073   3.361   0.663
 1406SOL    HW1 5117   2.082   3.387   0.759
 1406SOL    HW2 5118   2.148   3.401   0.610
 1407SOL     OW 5119   0.083   3.143   1.284
 1407SOL    HW1 5120   0.133   3.094   1.356
 1407SOL    HW2 5121   0.134   3.225   1.259
 1408SOL     OW 5122   5.569   6.524   1.165
 1408SOL    HW1 5123   5.541   6.608   1.119
 1408SOL    HW2 5124   5.489   6.480   1.207
 1409SOL     OW 5125   6.765   1.070   5.843
 1409SOL    HW1 5126   6.806   0.983   5.817
 1409SOL    HW2 5127   6.674   1.054   5.882
 1410SOL     OW 5128   3.598   0.951   6.057
 1410SOL    HW1 5129   3.614   0.989   5.966
 1410SOL    HW2 5130   3.513   0.988   6.094
 1411SOL     OW 5131   3.407   5.196   6.673
 1411SOL    HW1 5132   3.347   5.132   6.626
 1411SOL    HW2 5133   3.502   5.182   6.645
 1412SOL     OW 5134   2.519   2.869   6.779
 1412SOL    HW1 5135   2.446   2.936   6.793
 1412SOL    HW2 5136   2.494   2.782   6.822
 1413SOL     OW 5137   1.397   2.156   4.991
 1413SOL    HW1 5138   1.318   2.153   4.930
 1413SOL    HW2 5139   1.480   2.133   4.940
 1414SOL     OW 5140   0.611   4.391   2.810
 1414SOL    HW1 5141   0.680   4.358   2.875
 1414SOL    HW2 5142   0.635   4.360   2.718
 1415SOL     OW 5143   2.713   1.474   4.859
 1415SOL    HW1 5144   2.713   1.568   4.894
 1415SOL    HW2 5145   2.635   1.425   4.896
 1416SOL     OW 5146   4.519   0.504   4.849
 1416SOL    HW1 5147   4.460   0.555   4.912
 1416SOL    HW2 5148   4.465   0.437   4.799
 1417SOL     OW 5149   3.518   3.590   6.104
 1417SOL    HW1 5150   3.466   3.587   6.019
 1417SOL    HW2 5151   3.537   3.497   6.135
 1418SOL     OW 5152   4.045   4.315   5.549
 1418SOL    HW1 5153   4.002   4.405   5.540
 1418SOL    HW2 5154   4.132   4.325   5.599
 1419SOL     OW 5155   1.344   5.663   2.156
 1419SOL    HW1 5156   1.368   5.567   2.169
 1419SOL    HW2 5157   1.298   5.674   2.068
 1420SOL     OW 5158   2.607   6.628   3.060
 1420SOL    HW1 5159   2.570   6.667   2.975
 1420SOL    HW2 5160   2.532   6.609   3.123
 1421SOL     OW 5161   1.137   4.860   5.919
 1421SOL    HW1 5162   1.146   4.761   5.910
 1421SOL    HW2 5163   1.101   4.899   5.834
 1422SOL     OW 5164   2.255   3.192   6.495
 1422SOL    HW1 5165   2.225   3.178   6.401
 1422SOL    HW2 5166   2.354   3.202   6.498
 1423SOL     OW 5167   4.064   0.907   4.773
 1423SOL    HW1 5168   4.134   0.952   4.828
 1423SOL    HW2 5169   3.991   0.971   4.753
 1424SOL     OW 5170   6.182   2.972   0.819
 1424SOL    HW1 5171   6.176   3.054   0.762
 1424SOL    HW2 5172   6.272   2.968   0.862
 1425SOL     OW 5173   5.494   0.055   3.371
 1425SOL    HW1 5174   5.477   0.079   3.466
 1425SOL    HW2 5175   5.483   0.135   3.313
 1426SOL     OW 5176   3.726   1.203   7.012
 1426SOL    HW1 5177   3.706   1.229   6.917
 1426SOL    HW2 5178   3.714   1.104   7.023
 1427SOL     OW 5179   1.311   0.587   3.618
 1427SOL    HW1 5180   1.351   0.508   3.664
 1427SOL    HW2 5181   1.384   0.651   3.593
 1428SOL     OW 5182   1.064   2.779   3.785
 1428SOL    HW1 5183   0.986   2.839   3.802
 1428SOL    HW2 5184   1.115   2.766   3.870
 1429SOL     OW 5185   6.409   1.264   1.749
 1429SOL    HW1 5186   6.424   1.225   1.839
 1429SOL    HW2 5187   6.493   1.310   1.719
 1430SOL     OW 5188   2.032   3.458   4.319
 1430SOL    HW1 5189   2.112   3.400   4.305
 1430SOL    HW2 5190   1.961   3.408   4.368
 1431SOL     OW 5191   3.026   1.229   0.223
 1431SOL    HW1 5192   2.975   1.144   0.239
 1431SOL    HW2 5193   3.031   1.248   0.125
 1432SOL     OW 5194   3.290   0.514   2.327
 1432SOL    HW1 5195   3.387   0.493   2.327
 1432SOL    HW2 5196   3.273   0.593   2.387
 1433SOL     OW 5197   2.653   0.353   3.934
 1433SOL    HW1 5198   2.690   0.392   4.019
 1433SOL    HW2 5199   2.673   0.415   3.858
 1434SOL     OW 5200   6.356   4.147   0.287
 1434SOL    HW1 5201   6.391   4.088   0.359
 1434SOL    HW2 5202   6.386   4.241   0.303
 1435SOL     OW 5203   1.455   0.401   3.784
 1435SOL    HW1 5204   1.498   0.385   3.872
 1435SOL    HW2 5205   1.397   0.323   3.760
 1436SOL     OW 5206   5.292   0.977   0.599
 1436SOL    HW1 5207   5.211   0.937   0.643
 1436SOL    HW2 5208   5.374   0.935   0.638
 1437SOL     OW 5209   4.199   0.622   6.989
 1437SOL    HW1 5210   4.178   0.656   0.053
 1437SOL    HW2 5211   4.294   0.643   6.967
 1438SOL     OW 5212   1.972   0.411   2.446
 1438SOL    HW1 5213   1.991   0.409   2.348
 1438SOL    HW2 5214   1.946   0.504   2.472
 1439SOL     OW 5215   0.305   4.532   6.845
 1439SOL    HW1 5216   0.286   4.593   6.768
 1439SOL    HW2 5217   0.276   4.576   6.930
 1440SOL     OW 5218   3.660   3.142   2.834
 1440SOL    HW1 5219   3.703   3.085   2.904
 1440SOL    HW2 5220   3.653   3.090   2.749
 1441SOL     OW 5221   6.597   2.726   4.383
 1441SOL    HW1 5222   6.509   2.736   4.337
 1441SOL    HW2 5223   6.649   2.652   4.340
 1442SOL     OW 5224   5.442   6.645   6.869
 1442SOL    HW1 5225   5.538   6.663   6.851
 1442SOL    HW2 5226   5.404   6.586   6.797
 1443SOL     OW 5227   1.024   2.473   3.093
 1443SOL    HW1 5228   1.015   2.526   3.009
 1443SOL    HW2 5229   1.083   2.522   3.157
 1444SOL     OW 5230   5.754   0.843   5.061
 1444SOL    HW1 5231   5.757   0.750   5.097
 1444SOL    HW2 5232   5.662   0.863   5.027
 1445SOL     OW 5233   6.267   2.207   0.798
 1445SOL    HW1 5234   6.342   2.144   0.817
 1445SOL    HW2 5235   6.180   2.158   0.799
 1446SOL     OW 5236   3.882   0.307   0.757
 1446SOL    HW1 5237   3.981   0.303   0.746
 1446SOL    HW2 5238   3.860   0.341   0.849
 1447SOL     OW 5239   5.242   1.351   5.094
 1447SOL    HW1 5240   5.333   1.317   5.071
 1447SOL    HW2 5241   5.220   1.430   5.036
 1448SOL     OW 5242   5.761   0.030   6.743
 1448SOL    HW1 5243   5.763   6.965   6.704
 1448SOL    HW2 5244   5.788   0.026   6.839
 1449SOL     OW 5245   4.715   5.536   0.910
 1449SOL    HW1 5246   4.631   5.568   0.954
 1449SOL    HW2 5247   4.710   5.555   0.811
 1450SOL     OW 5248   5.449   2.209   4.067
 1450SOL    HW1 5249   5.440   2.305   4.091
 1450SOL    HW2 5250   5.393   2.189   3.987
 1451SOL     OW 5251   1.388   0.030   1.951
 1451SOL    HW1 5252   1.430   0.042   1.862
 1451SOL    HW2 5253   1.345   0.116   1.979
 1452SOL     OW 5254   4.379   0.201   4.927
 1452SOL    HW1 5255   4.371   0.133   4.854
 1452SOL    HW2 5256   4.475   0.207   4.956
 1453SOL     OW 5257   4.699   4.396   4.354
 1453SOL    HW1 5258   4.612   4.435   4.385
 1453SOL    HW2 5259   4.768   4.408   4.426
 1454SOL     OW 5260   4.607   4.061   1.193
 1454SOL    HW1 5261   4.568   4.018   1.274
 1454SOL    HW2 5262   4.699   4.026   1.177
 1455SOL     OW 5263   2.239   2.258   1.354
 1455SOL    HW1 5264   2.308   2.192   1.325
 1455SOL    HW2 5265   2.273   2.351   1.339
 1456SOL     OW 5266   6.731   5.301   4.153
 1456SOL    HW1 5267   6.798   5.371   4.178
 1456SOL    HW2 5268   6.642   5.324   4.193
 1457SOL     OW 5269   1.700   0.359   3.688
 1457SOL    HW1 5270   1.694   0.315   3.598
 1457SOL    HW2 5271   1.608   0.378   3.722
 1458SOL     OW 5272   6.817   5.315   0.074
 1458SOL    HW1 5273   6.855   5.248   0.138
 1458SOL    HW2 5274   6.718   5.321   0.087
 1459SOL     OW 5275   2.534   0.251   1.133
 1459SOL    HW1 5276   2.532   0.350   1.120
 1459SOL    HW2 5277   2.532   0.205   1.044
 1460SOL     OW 5278   0.805   6.320   0.783
 1460SOL    HW1 5279   0.781   6.312   0.880
 1460SOL    HW2 5280   0.893   6.277   0.767
 1461SOL     OW 5281   4.453   4.665   1.601
 1461SOL    HW1 5282   4.550   4.686   1.617
 1461SOL    HW2 5283   4.426   4.589   1.661
 1462SOL     OW 5284   5.103   0.520   5.241
 1462SOL    HW1 5285   5.186   0.478   5.207
 1462SOL    HW2 5286   5.081   0.600   5.186
 1463SOL     OW 5287   0.360   1.280   5.084
 1463SOL    HW1 5288   0.357   1.194   5.135
 1463SOL    HW2 5289   0.394   1.353   5.144
 1464SOL     OW 5290   0.246   7.002   1.629
 1464SOL    HW1 5291   0.331   6.997   1.681
 1464SOL    HW2 5292   0.199   6.914   1.633
 1465SOL     OW 5293   0.235   0.008   4.685
 1465SOL    HW1 5294   0.245   0.107   4.668
 1465SOL    HW2 5295   0.243   6.987   4.598
 1466SOL     OW 5296   5.488   4.796   4.375
 1466SOL    HW1 5297   5.398   4.755   4.357
 1466SOL    HW2 5298   5.560   4.735   4.341
 1467SOL     OW 5299   6.004   4.002   2.758
 1467SOL    HW1 5300   6.056   4.043   2.682
 1467SOL    HW2 5301   5.941   4.070   2.795
 1468SOL     OW 5302   5.406   6.153   2.964
 1468SOL    HW1 5303   5.414   6.152   2.864
 1468SOL    HW2 5304   5.492   6.185   3.004
 1469SOL     OW 5305   0.175   0.875   2.482
 1469SOL    HW1 5306   0.206   0.969   2.493
 1469SOL    HW2 5307   0.219   0.834   2.402
 1470SOL     OW 5308   0.367   0.815   3.372
 1470SOL    HW1 5309   0.385   0.905   3.332
 1470SOL    HW2 5310   0.349   0.825   3.470
 1471SOL     OW 5311   6.244   0.711   0.449
 1471SOL    HW1 5312   6.229   0.741   0.543
 1471SOL    HW2 5313   6.260   0.612   0.447
 1472SOL     OW 5314   4.525   5.798   5.182
 1472SOL    HW1 5315   4.518   5.785   5.280
 1472SOL    HW2 5316   4.433   5.802   5.142
 1473SOL     OW 5317   5.920   4.330   3.336
 1473SOL    HW1 5318   5.910   4.429   3.341
 1473SOL    HW2 5319   5.948   4.295   3.426
 1474SOL     OW 5320   4.608   5.161   3.870
 1474SOL    HW1 5321   4.579   5.232   3.805
 1474SOL    HW2 5322   4.527   5.118   3.909
 1475SOL     OW 5323   0.071   0.815   3.174
 1475SOL    HW1 5324   0.023   0.780   3.092
 1475SOL    HW2 5325   0.009   0.874   3.225
 1476SOL     OW 5326   6.125   1.865   1.450
 1476SOL    HW1 5327   6.054   1.895   1.514
 1476SOL    HW2 5328   6.084   1.845   1.361
 1477SOL     OW 5329   3.014   6.336   3.297
 1477SOL    HW1 5330   2.936   6.397   3.295
 1477SOL    HW2 5331   3.095   6.386   3.330
 1478SOL     OW 5332   6.901   4.994   2.063
 1478SOL    HW1 5333   6.813   5.039   2.049
 1478SOL    HW2 5334   6.953   5.043   2.133
 1479SOL     OW 5335   0.952   5.287   0.941
 1479SOL    HW1 5336   0.909   5.213   0.994
 1479SOL    HW2 5337   0.936   5.374   0.987
 1480SOL     OW 5338   2.827   1.002   0.293
 1480SOL    HW1 5339   2.860   0.938   0.363
 1480SOL    HW2 5340   2.842   0.961   0.202
 1481SOL     OW 5341   6.901   2.299   5.996
 1481SOL    HW1 5342   6.994   2.279   6.025
 1481SOL    HW2 5343   6.839   2.288   6.073
 1482SOL     OW 5344   5.804   1.304   6.288
 1482SOL    HW1 5345   5.893   1.267   6.261
 1482SOL    HW2 5346   5.764   1.246   6.359
 1483SOL     OW 5347   6.131   2.762   6.436
 1483SOL    HW1 5348   6.072   2.779   6.515
 1483SOL    HW2 5349   6.152   2.848   6.391
 1484SOL     OW 5350   6.955   6.677   3.038
 1484SOL    HW1 5351   6.865   6.713   3.018
 1484SOL    HW2 5352   7.014   6.750   3.074
 1485SOL     OW 5353   5.780   2.760   3.783
 1485SOL    HW1 5354   5.727   2.793   3.705
 1485SOL    HW2 5355   5.719   2.712   3.847
 1486SOL     OW 5356   5.052   2.661   1.682
 1486SOL    HW1 5357   5.030   2.567   1.706
 1486SOL    HW2 5358   4.972   2.706   1.644
 1487SOL     OW 5359   6.655   1.248   5.489
 1487SOL    HW1 5360   6.749   1.218   5.501
 1487SOL    HW2 5361   6.593   1.180   5.528
 1488SOL     OW 5362   4.732   2.253   2.709
 1488SOL    HW1 5363   4.655   2.317   2.714
 1488SOL    HW2 5364   4.710   2.171   2.761
 1489SOL     OW 5365   4.047   4.912   5.019
 1489SOL    HW1 5366   3.959   4.959   5.009
 1489SOL    HW2 5367   4.088   4.899   4.929
 1490SOL     OW 5368   2.368   2.373   0.760
 1490SOL    HW1 5369   2.425   2.420   0.692
 1490SOL    HW2 5370   2.421   2.357   0.843
 1491SOL     OW 5371   6.968   2.293   5.672
 1491SOL    HW1 5372   6.896   2.233   5.706
 1491SOL    HW2 5373   6.936   2.388   5.676
 1492SOL     OW 5374   5.361   2.637   2.026
 1492SOL    HW1 5375   5.384   2.682   1.940
 1492SOL    HW2 5376   5.388   2.695   2.103
 1493SOL     OW 5377   5.484   0.798   5.053
 1493SOL    HW1 5378   5.394   0.785   5.010
 1493SOL    HW2 5379   5.472   0.825   5.148
 1494SOL     OW 5380   5.192   2.232   3.924
 1494SOL    HW1 5381   5.142   2.306   3.969
 1494SOL    HW2 5382   5.203   2.254   3.827
 1495SOL     OW 5383   1.955   2.477   2.337
 1495SOL    HW1 5384   1.873   2.422   2.353
 1495SOL    HW2 5385   1.953   2.557   2.398
 1496SOL     OW 5386   0.870   1.509   3.148
 1496SOL    HW1 5387   0.949   1.537   3.203
 1496SOL    HW2 5388   0.879   1.412   3.124
 1497SOL     OW 5389   5.252   4.395   5.779
 1497SOL    HW1 5390   5.332   4.454   5.786
 1497SOL    HW2 5391   5.251   4.332   5.857
 1498SOL     OW 5392   1.809   5.514   0.070
 1498SOL    HW1 5393   1.813   5.602   0.023
 1498SOL    HW2 5394   1.757   5.524   0.155
 1499SOL     OW 5395   0.238   4.623   4.980
 1499SOL    HW1 5396   0.177   4.549   4.950
 1499SOL    HW2 5397   0.333   4.591   4.979
 1500SOL     OW 5398   3.802   6.711   5.398
 1500SOL    HW1 5399   3.798   6.763   5.484
 1500SOL    HW2 5400   3.840   6.620   5.416
 1501SOL     OW 5401   4.210   0.376   6.413
 1501SOL    HW1 5402   4.251   0.441   6.477
 1501SOL    HW2 5403   4.155   0.425   6.346
 1502SOL     OW 5404   6.943   6.456   0.162
 1502SOL    HW1 5405   0.006   6.464   0.121
 1502SOL    HW2 5406   6.899   6.373   0.127
 1503SOL     OW 5407   3.349   3.804   5.307
 1503SOL    HW1 5408   3.258   3.768   5.286
 1503SOL    HW2 5409   3.362   3.805   5.406
 1504SOL     OW 5410   2.826   6.197   4.383
 1504SOL    HW1 5411   2.869   6.287   4.387
 1504SOL    HW2 5412   2.857   6.149   4.301
 1505SOL     OW 5413   4.757   5.006   1.582
 1505SOL    HW1 5414   4.839   4.968   1.538
 1505SOL    HW2 5415   4.730   5.091   1.536
 1506SOL     OW 5416   0.699   6.236   3.095
 1506SOL    HW1 5417   0.680   6.311   3.032
 1506SOL    HW2 5418   0.797   6.218   3.098
 1507SOL     OW 5419   2.002   1.034   6.433
 1507SOL    HW1 5420   1.974   1.103   6.367
 1507SOL    HW2 5421   2.064   0.968   6.389
 1508SOL     OW 5422   4.672   6.930   0.382
 1508SOL    HW1 5423   4.593   6.870   0.396
 1508SOL    HW2 5424   4.753   6.890   0.425
 1509SOL     OW 5425   5.347   1.482   0.388
 1509SOL    HW1 5426   5.253   1.465   0.359
 1509SOL    HW2 5427   5.410   1.430   0.330
 1510SOL     OW 5428   0.082   2.087   3.764
 1510SOL    HW1 5429   7.026   2.059   3.717
 1510SOL    HW2 5430   0.141   2.136   3.699
 1511SOL     OW 5431   1.231   2.752   0.474
 1511SOL    HW1 5432   1.249   2.848   0.454
 1511SOL    HW2 5433   1.296   2.719   0.542
 1512SOL     OW 5434   5.601   0.121   2.301
 1512SOL    HW1 5435   5.515   0.114   2.351
 1512SOL    HW2 5436   5.663   0.183   2.350
 1513SOL     OW 5437   3.470   1.296   2.606
 1513SOL    HW1 5438   3.378   1.268   2.633
 1513SOL    HW2 5439   3.464   1.351   2.523
 1514SOL     OW 5440   5.513   1.116   5.872
 1514SOL    HW1 5441   5.562   1.104   5.959
 1514SOL    HW2 5442   5.576   1.153   5.804
 1515SOL     OW 5443   6.526   5.125   4.870
 1515SOL    HW1 5444   6.587   5.131   4.791
 1515SOL    HW2 5445   6.547   5.043   4.922
 1516SOL     OW 5446   0.647   1.378   0.896
 1516SOL    HW1 5447   0.677   1.309   0.962
 1516SOL    HW2 5448   0.629   1.464   0.943
 1517SOL     OW 5449   3.423   4.944   3.471
 1517SOL    HW1 5450   3.506   4.987   3.507
 1517SOL    HW2 5451   3.442   4.903   3.382
 1518SOL     OW 5452   1.345   4.413   1.678
 1518SOL    HW1 5453   1.246   4.425   1.690
 1518SOL    HW2 5454   1.362   4.341   1.612
 1519SOL     OW 5455   0.043   4.908   0.931
 1519SOL    HW1 5456   0.004   4.819   0.955
 1519SOL    HW2 5457   7.026   4.979   0.985
 1520SOL     OW 5458   1.382   2.741   2.715
 1520SOL    HW1 5459   1.367   2.665   2.778
 1520SOL    HW2 5460   1.433   2.709   2.635
 1521SOL     OW 5461   2.553   4.115   5.979
 1521SOL    HW1 5462   2.634   4.160   5.939
 1521SOL    HW2 5463   2.550   4.020   5.949
 1522SOL     OW 5464   0.703   2.527   6.539
 1522SOL    HW1 5465   0.660   2.608   6.499
 1522SOL    HW2 5466   0.710   2.538   6.638
 1523SOL     OW 5467   6.691   1.482   0.566
 1523SOL    HW1 5468   6.643   1.505   0.481
 1523SOL    HW2 5469   6.629   1.495   0.643
 1524SOL     OW 5470   6.338   1.212   3.015
 1524SOL    HW1 5471   6.311   1.116   3.027
 1524SOL    HW2 5472   6.360   1.229   2.919
 1525SOL     OW 5473   4.952   1.789   5.952
 1525SOL    HW1 5474   4.941   1.755   5.859
 1525SOL    HW2 5475   5.049   1.805   5.971
 1526SOL     OW 5476   6.830   1.809   0.724
 1526SOL    HW1 5477   6.912   1.753   0.715
 1526SOL    HW2 5478   6.855   1.904   0.745
 1527SOL     OW 5479   3.073   1.917   5.520
 1527SOL    HW1 5480   3.113   2.008   5.521
 1527SOL    HW2 5481   3.031   1.900   5.431
 1528SOL     OW 5482   5.079   5.873   3.343
 1528SOL    HW1 5483   4.999   5.827   3.304
 1528SOL    HW2 5484   5.106   5.949   3.283
 1529SOL     OW 5485   3.007   0.847   5.016
 1529SOL    HW1 5486   3.060   0.843   4.931
 1529SOL    HW2 5487   3.055   0.903   5.083
 1530SOL     OW 5488   3.228   6.928   2.254
 1530SOL    HW1 5489   3.165   6.885   2.188
 1530SOL    HW2 5490   3.274   7.005   2.211
 1531SOL     OW 5491   6.610   0.061   5.867
 1531SOL    HW1 5492   6.589   7.006   5.918
 1531SOL    HW2 5493   6.562   0.060   5.780
 1532SOL     OW 5494   3.601   2.151   5.211
 1532SOL    HW1 5495   3.585   2.125   5.115
 1532SOL    HW2 5496   3.578   2.075   5.271
 1533SOL     OW 5497   5.493   2.869   6.941
 1533SOL    HW1 5498   5.498   2.877   0.013
 1533SOL    HW2 5499   5.479   2.959   6.901
 1534SOL     OW 5500   6.837   6.696   1.579
 1534SOL    HW1 5501   6.845   6.753   1.661
 1534SOL    HW2 5502   6.854   6.601   1.604
 1535SOL     OW 5503   4.718   5.456   3.836
 1535SOL    HW1 5504   4.664   5.506   3.903
 1535SOL    HW2 5505   4.657   5.418   3.766
 1536SOL     OW 5506   3.098   5.784   3.558
 1536SOL    HW1 5507   3.144   5.731   3.487
 1536SOL    HW2 5508   3.081   5.727   3.638
 1537SOL     OW 5509   2.276   5.285   4.192
 1537SOL    HW1 5510   2.270   5.385   4.187
 1537SOL    HW2 5511   2.350   5.259   4.253
 1538SOL     OW 5512   3.028   4.915   6.884
 1538SOL    HW1 5513   3.082   4.882   6.806
 1538SOL    HW2 5514   2.936   4.940   6.853
 1539SOL     OW 5515   3.337   4.872   2.043
 1539SOL    HW1 5516   3.429   4.833   2.033
 1539SOL    HW2 5517   3.297   4.886   1.953
 1540SOL     OW 5518   6.708   6.964   5.555
 1540SOL    HW1 5519   6.777   7.020   5.601
 1540SOL    HW2 5520   6.748   6.876   5.530
 1541SOL     OW 5521   4.476   2.040   0.816
 1541SOL    HW1 5522   4.552   2.009   0.874
 1541SOL    HW2 5523   4.416   2.099   0.870
 1542SOL     OW 5524   0.856   6.315   1.330
 1542SOL    HW1 5525   0.903   6.241   1.377
 1542SOL    HW2 5526   0.897   6.402   1.356
 1543SOL     OW 5527   3.345   3.868   4.355
 1543SOL    HW1 5528   3.338   3.927   4.436
 1543SOL    HW2 5529   3.425   3.894   4.302
 1544SOL     OW 5530   3.646   3.838   2.703
 1544SOL    HW1 5531   3.717   3.882   2.758
 1544SOL    HW2 5532   3.561   3.833   2.754
 1545SOL     OW 5533   6.888   0.436   4.498
 1545SOL    HW1 5534   6.964   0.490   4.533
 1545SOL    HW2 5535   6.896   0.427   4.399
 1546SOL     OW 5536   0.378   6.488   5.908
 1546SOL    HW1 5537   0.438   6.485   5.988
 1546SOL    HW2 5538   0.427   6.531   5.831
 1547SOL     OW 5539   3.837   6.089   6.678
 1547SOL    HW1 5540   3.880   6.070   6.589
 1547SOL    HW2 5541   3.891   6.047   6.750
 1548SOL     OW 5542   6.375   4.358   3.852
 1548SOL    HW1 5543   6.381   4.258   3.857
 1548SOL    HW2 5544   6.424   4.391   3.771
 1549SOL     OW 5545   6.199   1.615   1.624
 1549SOL    HW1 5546   6.141   1.680   1.575
 1549SOL    HW2 5547   6.141   1.554   1.678
 1550SOL     OW 5548   2.502   6.127   3.248
 1550SOL    HW1 5549   2.433   6.137   3.176
 1550SOL    HW2 5550   2.571   6.061   3.220
 1551SOL     OW 5551   0.620   3.305   1.226
 1551SOL    HW1 5552   0.653   3.290   1.132
 1551SOL    HW2 5553   0.625   3.218   1.276
 1552SOL     OW 5554   0.958   0.019   0.692
 1552SOL    HW1 5555   1.044   6.999   0.675
 1552SOL    HW2 5556   0.977   0.108   0.735
 1553SOL     OW 5557   5.731   1.741   5.980
 1553SOL    HW1 5558   5.729   1.655   6.031
 1553SOL    HW2 5559   5.825   1.774   5.974
 1554SOL     OW 5560   3.044   1.661   1.329
 1554SOL    HW1 5561   2.962   1.666   1.385
 1554SOL    HW2 5562   3.123   1.638   1.386
 1555SOL     OW 5563   3.975   0.953   6.303
 1555SOL    HW1 5564   3.896   0.969   6.243
 1555SOL    HW2 5565   4.059   0.980   6.255
 1556SOL     OW 5566   3.359   1.887   6.911
 1556SOL    HW1 5567   3.455   1.895   6.938
 1556SOL    HW2 5568   3.301   1.937   6.976
 1557SOL     OW 5569   1.779   3.018   0.349
 1557SOL    HW1 5570   1.876   3.000   0.333
 1557SOL    HW2 5571   1.741   2.948   0.410
 1558SOL     OW 5572   5.689   3.200   5.918
 1558SOL    HW1 5573   5.706   3.106   5.946
 1558SOL    HW2 5574   5.735   3.218   5.831
 1559SOL     OW 5575   2.571   4.974   3.633
 1559SOL    HW1 5576   2.482   4.936   3.607
 1559SOL    HW2 5577   2.603   5.036   3.562
 1560SOL     OW 5578   3.879   1.826   0.931
 1560SOL    HW1 5579   3.968   1.781   0.926
 1560SOL    HW2 5580   3.891   1.925   0.940
 1561SOL     OW 5581   6.172   5.893   1.133
 1561SOL    HW1 5582   6.220   5.916   1.218
 1561SOL    HW2 5583   6.088   5.947   1.127
 1562SOL     OW 5584   3.260   0.208   2.491
 1562SOL    HW1 5585   3.180   0.267   2.483
 1562SOL    HW2 5586   3.251   0.151   2.573
 1563SOL     OW 5587   2.820   2.300   3.984
 1563SOL    HW1 5588   2.791   2.219   3.933
 1563SOL    HW2 5589   2.862   2.366   3.922
 1564SOL     OW 5590   0.859   1.465   2.770
 1564SOL    HW1 5591   0.774   1.413   2.760
 1564SOL    HW2 5592   0.841   1.549   2.821
 1565SOL     OW 5593   4.276   1.308   4.878
 1565SOL    HW1 5594   4.370   1.334   4.856
 1565SOL    HW2 5595   4.216   1.332   4.801
 1566SOL     OW 5596   5.866   4.786   3.159
 1566SOL    HW1 5597   5.906   4.834   3.080
 1566SOL    HW2 5598   5.767   4.777   3.146
 1567SOL     OW 5599   5.309   0.942   4.643
 1567SOL    HW1 5600   5.330   1.011   4.574
 1567SOL    HW2 5601   5.316   0.851   4.603
 1568SOL     OW 5602   2.991   5.205   1.314
 1568SOL    HW1 5603   3.056   5.134   1.288
 1568SOL    HW2 5604   2.968   5.195   1.411
 1569SOL     OW 5605   2.959   1.172   2.881
 1569SOL    HW1 5606   2.949   1.270   2.866
 1569SOL    HW2 5607   2.995   1.155   2.973
 1570SOL     OW 5608   3.138   5.822   6.287
 1570SOL    HW1 5609   3.184   5.884   6.351
 1570SOL    HW2 5610   3.201   5.749   6.261
 1571SOL     OW 5611   0.407   2.919   3.544
 1571SOL    HW1 5612   0.428   3.015   3.564
 1571SOL    HW2 5613   0.410   2.866   3.629
 1572SOL     OW 5614   2.817   5.188   2.557
 1572SOL    HW1 5615   2.821   5.270   2.500
 1572SOL    HW2 5616   2.723   5.152   2.555
 1573SOL     OW 5617   5.689   5.901   0.012
 1573SOL    HW1 5618   5.662   5.968   0.081
 1573SOL    HW2 5619   5.666   5.809   0.044
 1574SOL     OW 5620   0.347   3.855   3.345
 1574SOL    HW1 5621   0.390   3.938   3.382
 1574SOL    HW2 5622   0.415   3.801   3.296
 1575SOL     OW 5623   6.977   2.549   0.302
 1575SOL    HW1 5624   6.951   2.502   0.386
 1575SOL    HW2 5625   0.047   2.540   0.287
 1576SOL     OW 5626   1.082   6.877   1.496
 1576SOL    HW1 5627   1.118   6.831   1.415
 1576SOL    HW2 5628   0.987   6.903   1.480
 1577SOL     OW 5629   3.702   5.809   5.345
 1577SOL    HW1 5630   3.618   5.761   5.367
 1577SOL    HW2 5631   3.775   5.742   5.326
 1578SOL     OW 5632   4.982   1.211   1.147
 1578SOL    HW1 5633   4.918   1.172   1.213
 1578SOL    HW2 5634   5.040   1.278   1.192
 1579SOL     OW 5635   2.098   2.724   1.518
 1579SOL    HW1 5636   2.179   2.708   1.575
 1579SOL    HW2 5637   2.038   2.791   1.562
 1580SOL     OW 5638   3.058   3.499   2.745
 1580SOL    HW1 5639   3.156   3.503   2.765
 1580SOL    HW2 5640   3.018   3.589   2.759
 1581SOL     OW 5641   6.314   4.894   5.638
 1581SOL    HW1 5642   6.258   4.831   5.583
 1581SOL    HW2 5643   6.379   4.941   5.578
 1582SOL     OW 5644   4.426   6.257   5.050
 1582SOL    HW1 5645   4.495   6.190   5.026
 1582SOL    HW2 5646   4.387   6.235   5.140
 1583SOL     OW 5647   1.147   4.890   4.671
 1583SOL    HW1 5648   1.180   4.958   4.605
 1583SOL    HW2 5649   1.081   4.830   4.626
 1584SOL     OW 5650   0.333   4.622   0.279
 1584SOL    HW1 5651   0.367   4.528   0.280
 1584SOL    HW2 5652   0.396   4.681   0.330
 1585SOL     OW 5653   4.238   6.355   3.494
 1585SOL    HW1 5654   4.254   6.339   3.591
 1585SOL    HW2 5655   4.287   6.286   3.440
 1586SOL     OW 5656   3.527   5.943   3.632
 1586SOL    HW1 5657   3.572   5.916   3.547
 1586SOL    HW2 5658   3.552   6.036   3.656
 1587SOL     OW 5659   3.128   6.058   6.660
 1587SOL    HW1 5660   3.195   6.121   6.700
 1587SOL    HW2 5661   3.044   6.108   6.639
 1588SOL     OW 5662   6.830   1.534   3.643
 1588SOL    HW1 5663   6.740   1.520   3.682
 1588SOL    HW2 5664   6.900   1.524   3.714
 1589SOL     OW 5665   6.618   4.365   4.119
 1589SOL    HW1 5666   6.607   4.460   4.150
 1589SOL    HW2 5667   6.536   4.313   4.144
 1590SOL     OW 5668   6.560   2.488   3.924
 1590SOL    HW1 5669   6.636   2.473   3.987
 1590SOL    HW2 5670   6.488   2.541   3.969
 1591SOL     OW 5671   1.454   6.145   1.407
 1591SOL    HW1 5672   1.497   6.175   1.322
 1591SOL    HW2 5673   1.356   6.168   1.405
 1592SOL     OW 5674   0.120   4.404   6.247
 1592SOL    HW1 5675   0.191   4.380   6.182
 1592SOL    HW2 5676   0.045   4.338   6.241
 1593SOL     OW 5677   3.456   0.027   7.017
 1593SOL    HW1 5678   3.468   6.958   6.993
 1593SOL    HW2 5679   3.358   0.049   7.018
 1594SOL     OW 5680   5.712   0.308   2.468
 1594SOL    HW1 5681   5.776   0.341   2.399
 1594SOL    HW2 5682   5.630   0.364   2.467
 1595SOL     OW 5683   0.149   3.835   0.373
 1595SOL    HW1 5684   0.245   3.820   0.349
 1595SOL    HW2 5685   0.097   3.857   0.290
 1596SOL     OW 5686   4.396   4.662   3.609
 1596SOL    HW1 5687   4.428   4.581   3.658
 1596SOL    HW2 5688   4.326   4.709   3.664
 1597SOL     OW 5689   3.999   6.101   6.466
 1597SOL    HW1 5690   3.945   6.168   6.415
 1597SOL    HW2 5691   4.096   6.126   6.461
 1598SOL     OW 5692   1.448   4.508   0.127
 1598SOL    HW1 5693   1.380   4.576   0.154
 1598SOL    HW2 5694   1.410   4.449   0.055
 1599SOL     OW 5695   4.681   5.800   2.740
 1599SOL    HW1 5696   4.591   5.820   2.701
 1599SOL    HW2 5697   4.681   5.820   2.837
 1600SOL     OW 5698   3.916   0.355   2.229
 1600SOL    HW1 5699   3.835   0.377   2.175
 1600SOL    HW2 5700   3.963   0.277   2.188
 1601SOL     OW 5701   6.371   0.387   5.592
 1601SOL    HW1 5702   6.294   0.353   5.646
 1601SOL    HW2 5703   6.457   0.359   5.636
 1602SOL     OW 5704   3.575   5.687   3.784
 1602SOL    HW1 5705   3.670   5.695   3.814
 1602SOL    HW2 5706   3.553   5.763   3.724
 1603SOL     OW 5707   3.429   5.527   3.287
 1603SOL    HW1 5708   3.462   5.598   3.225
 1603SOL    HW2 5709   3.492   5.449   3.284
 1604SOL     OW 5710   4.212   5.281   1.803
 1604SOL    HW1 5711   4.169   5.371   1.788
 1604SOL    HW2 5712   4.209   5.259   1.900
 1605SOL     OW 5713   4.546   5.283   0.887
 1605SOL    HW1 5714   4.563   5.341   0.807
 1605SOL    HW2 5715   4.484   5.331   0.950
 1606SOL     OW 5716   3.339   5.764   4.703
 1606SOL    HW1 5717   3.423   5.819   4.708
 1606SOL    HW2 5718   3.333   5.721   4.613
 1607SOL     OW 5719   4.459   5.718   2.897
 1607SOL    HW1 5720   4.410   5.646   2.849
 1607SOL    HW2 5721   4.435   5.807   2.857
 1608SOL     OW 5722   5.541   1.598   3.199
 1608SOL    HW1 5723   5.548   1.642   3.110
 1608SOL    HW2 5724   5.557   1.499   3.189
 1609SOL     OW 5725   2.542   6.839   1.235
 1609SOL    HW1 5726   2.602   6.906   1.280
 1609SOL    HW2 5727   2.598   6.778   1.178
 1610SOL     OW 5728   5.550   6.745   0.972
 1610SOL    HW1 5729   5.462   6.768   0.931
 1610SOL    HW2 5730   5.624   6.767   0.907
 1611SOL     OW 5731   1.358   4.648   1.071
 1611SOL    HW1 5732   1.264   4.659   1.105
 1611SOL    HW2 5733   1.415   4.722   1.106
 1612SOL     OW 5734   3.881   0.401   1.806
 1612SOL    HW1 5735   3.881   0.479   1.742
 1612SOL    HW2 5736   3.825   0.424   1.885
 1613SOL     OW 5737   6.758   5.949   2.414
 1613SOL    HW1 5738   6.769   6.031   2.470
 1613SOL    HW2 5739   6.844   5.899   2.410
 1614SOL     OW 5740   6.423   1.661   6.303
 1614SOL    HW1 5741   6.339   1.610   6.325
 1614SOL    HW2 5742   6.500   1.620   6.351
 1615SOL     OW 5743   1.105   4.016   6.593
 1615SOL    HW1 5744   1.019   4.022   6.643
 1615SOL    HW2 5745   1.086   3.995   6.497
 1616SOL     OW 5746   1.732   1.318   4.934
 1616SOL    HW1 5747   1.703   1.379   4.861
 1616SOL    HW2 5748   1.730   1.223   4.901
 1617SOL     OW 5749   6.387   6.650   3.236
 1617SOL    HW1 5750   6.312   6.602   3.189
 1617SOL    HW2 5751   6.359   6.672   3.329
 1618SOL     OW 5752   3.070   5.683   3.143
 1618SOL    HW1 5753   3.112   5.644   3.225
 1618SOL    HW2 5754   3.109   5.773   3.125
 1619SOL     OW 5755   1.443   4.058   0.251
 1619SOL    HW1 5756   1.416   4.036   0.157
 1619SOL    HW2 5757   1.395   4.141   0.280
 1620SOL     OW 5758   3.423   5.303   5.178
 1620SOL    HW1 5759   3.409   5.381   5.116
 1620SOL    HW2 5760   3.510   5.313   5.225
 1621SOL     OW 5761   5.147   5.947   0.409
 1621SOL    HW1 5762   5.121   6.040   0.381
 1621SOL    HW2 5763   5.239   5.949   0.449
 1622SOL     OW 5764   6.619   4.477   4.461
 1622SOL    HW1 5765   6.680   4.511   4.533
 1622SOL    HW2 5766   6.526   4.510   4.477
 1623SOL     OW 5767   0.113   2.213   3.248
 1623SOL    HW1 5768   0.065   2.276   3.186
 1623SOL    HW2 5769   0.129   2.258   3.335
 1624SOL     OW 5770   4.189   2.257   1.103
 1624SOL    HW1 5771   4.099   2.219   1.122
 1624SOL    HW2 5772   4.190   2.355   1.123
 1625SOL     OW 5773   0.479   6.172   1.185
 1625SOL    HW1 5774   0.477   6.073   1.199
 1625SOL    HW2 5775   0.441   6.219   1.264
 1626SOL     OW 5776   2.866   2.425   1.629
 1626SOL    HW1 5777   2.768   2.432   1.646
 1626SOL    HW2 5778   2.916   2.455   1.709
 1627SOL     OW 5779   3.989   1.965   5.309
 1627SOL    HW1 5780   4.082   1.965   5.345
 1627SOL    HW2 5781   3.948   2.055   5.321
 1628SOL     OW 5782   5.198   6.403   0.791
 1628SOL    HW1 5783   5.281   6.364   0.830
 1628SOL    HW2 5784   5.219   6.491   0.749
 1629SOL     OW 5785   1.903   0.599   3.670
 1629SOL    HW1 5786   1.845   0.520   3.649
 1629SOL    HW2 5787   1.856   0.657   3.737
 1630SOL     OW 5788   0.398   4.088   6.888
 1630SOL    HW1 5789   0.474   4.084   6.822
 1630SOL    HW2 5790   0.433   4.076   6.980
 1631SOL     OW 5791   6.442   3.933   0.139
 1631SOL    HW1 5792   6.388   3.849   0.147
 1631SOL    HW2 5793   6.385   4.011   0.165
 1632SOL     OW 5794   6.479   5.726   2.604
 1632SOL    HW1 5795   6.432   5.638   2.610
 1632SOL    HW2 5796   6.566   5.715   2.557
 1633SOL     OW 5797   5.696   3.845   4.455
 1633SOL    HW1 5798   5.779   3.797   4.485
 1633SOL    HW2 5799   5.722   3.930   4.409
 1634SOL     OW 5800   6.875   1.715   4.634
 1634SOL    HW1 5801   6.854   1.790   4.697
 1634SOL    HW2 5802   6.971   1.690   4.643
 1635SOL     OW 5803   4.012   6.525   2.735
 1635SOL    HW1 5804   3.920   6.532   2.774
 1635SOL    HW2 5805   4.014   6.449   2.669
 1636SOL     OW 5806   6.213   6.124   1.546
 1636SOL    HW1 5807   6.196   6.064   1.624
 1636SOL    HW2 5808   6.163   6.209   1.558
 1637SOL     OW 5809   0.903   0.364   2.301
 1637SOL    HW1 5810   0.840   0.442   2.297
 1637SOL    HW2 5811   0.867   0.296   2.365
 1638SOL     OW 5812   6.119   2.336   2.052
 1638SOL    HW1 5813   6.042   2.273   2.063
 1638SOL    HW2 5814   6.155   2.328   1.959
 1639SOL     OW 5815   5.563   2.402   2.728
 1639SOL    HW1 5816   5.550   2.498   2.706
 1639SOL    HW2 5817   5.503   2.346   2.672
 1640SOL     OW 5818   7.016   0.327   6.996
 1640SOL    HW1 5819   6.988   0.403   0.026
 1640SOL    HW2 5820   6.971   0.243   7.027
 1641SOL     OW 5821   6.387   2.430   3.222
 1641SOL    HW1 5822   6.298   2.390   3.246
 1641SOL    HW2 5823   6.460   2.368   3.252
 1642SOL     OW 5824   6.888   2.643   6.234
 1642SOL    HW1 5825   6.887   2.698   6.150
 1642SOL    HW2 5826   6.979   2.601   6.245
 1643SOL     OW 5827   2.425   5.922   3.838
 1643SOL    HW1 5828   2.367   5.841   3.833
 1643SOL    HW2 5829   2.497   5.917   3.768
 1644SOL     OW 5830   5.860   2.856   1.651
 1644SOL    HW1 5831   5.946   2.852   1.599
 1644SOL    HW2 5832   5.807   2.774   1.633
 1645SOL     OW 5833   2.207   0.793   5.203
 1645SOL    HW1 5834   2.253   0.850   5.134
 1645SOL    HW2 5835   2.249   0.810   5.293
 1646SOL     OW 5836   1.118   4.864   0.902
 1646SOL    HW1 5837   1.166   4.897   0.983
 1646SOL    HW2 5838   1.084   4.772   0.919
 1647SOL     OW 5839   5.578   2.670   3.930
 1647SOL    HW1 5840   5.512   2.601   3.900
 1647SOL    HW2 5841   5.534   2.732   3.994
 1648SOL     OW 5842   5.415   6.150   1.205
 1648SOL    HW1 5843   5.335   6.099   1.172
 1648SOL    HW2 5844   5.495   6.090   1.203
 1649SOL     OW 5845   3.678   0.307   3.280
 1649SOL    HW1 5846   3.602   0.304   3.344
 1649SOL    HW2 5847   3.756   0.354   3.322
 1650SOL     OW 5848   2.562   4.110   6.951
 1650SOL    HW1 5849   2.622   4.170   7.005
 1650SOL    HW2 5850   2.618   4.042   6.903
 1651SOL     OW 5851   0.871   2.793   3.395
 1651SOL    HW1 5852   0.811   2.718   3.421
 1651SOL    HW2 5853   0.876   2.799   3.295
 1652SOL     OW 5854   0.053   3.299   1.809
 1652SOL    HW1 5855   0.015   3.376   1.757
 1652SOL    HW2 5856   7.012   3.228   1.818
 1653SOL     OW 5857   0.225   4.738   3.345
 1653SOL    HW1 5858   0.248   4.806   3.414
 1653SOL    HW2 5859   0.125   4.729   3.339
 1654SOL     OW 5860   6.976   2.857   2.765
 1654SOL    HW1 5861   6.914   2.877   2.689
 1654SOL    HW2 5862   0.014   2.932   2.775
 1655SOL     OW 5863   6.684   0.244   5.364
 1655SOL    HW1 5864   6.590   0.272   5.349
 1655SOL    HW2 5865   6.686   0.162   5.422
 1656SOL     OW 5866   1.942   4.415   3.341
 1656SOL    HW1 5867   1.911   4.490   3.282
 1656SOL    HW2 5868   1.926   4.328   3.295
 1657SOL     OW 5869   0.991   7.005   5.412
 1657SOL    HW1 5870   0.976   0.054   5.474
 1657SOL    HW2 5871   1.064   7.027   5.347
 1658SOL     OW 5872   5.895   7.016   6.130
 1658SOL    HW1 5873   5.933   6.976   6.046
 1658SOL    HW2 5874   5.887   0.087   6.119
 1659SOL     OW 5875   4.287   6.740   6.349
 1659SOL    HW1 5876   4.275   6.821   6.293
 1659SOL    HW2 5877   4.384   6.715   6.351
 1660SOL     OW 5878   2.498   0.451   2.559
 1660SOL    HW1 5879   2.562   0.428   2.633
 1660SOL    HW2 5880   2.417   0.393   2.567
 1661SOL     OW 5881   4.486   4.565   2.551
 1661SOL    HW1 5882   4.514   4.612   2.635
 1661SOL    HW2 5883   4.498   4.627   2.473
 1662SOL     OW 5884   0.141   1.684   4.647
 1662SOL    HW1 5885   0.159   1.600   4.698
 1662SOL    HW2 5886   0.227   1.726   4.621
 1663SOL     OW 5887   4.864   4.796   7.012
 1663SOL    HW1 5888   4.784   4.783   6.953
 1663SOL    HW2 5889   4.946   4.805   6.955
 1664SOL     OW 5890   1.252   6.922   5.673
 1664SOL    HW1 5891   1.216   7.015   5.676
 1664SOL    HW2 5892   1.260   6.892   5.578
 1665SOL     OW 5893   2.657   4.429   0.321
 1665SOL    HW1 5894   2.646   4.520   0.280
 1665SOL    HW2 5895   2.743   4.427   0.373
 1666SOL     OW 5896   5.841   6.528   6.084
 1666SOL    HW1 5897   5.838   6.621   6.047
 1666SOL    HW2 5898   5.767   6.474   6.046
 1667SOL     OW 5899   0.319   6.039   1.463
 1667SOL    HW1 5900   0.349   5.948   1.492
 1667SOL    HW2 5901   0.365   6.109   1.519
 1668SOL     OW 5902   5.688   4.424   2.738
 1668SOL    HW1 5903   5.613   4.369   2.699
 1668SOL    HW2 5904   5.751   4.451   2.665
 1669SOL     OW 5905   6.117   3.732   5.568
 1669SOL    HW1 5906   6.192   3.688   5.518
 1669SOL    HW2 5907   6.051   3.769   5.503
 1670SOL     OW 5908   2.232   4.639   6.612
 1670SOL    HW1 5909   2.142   4.644   6.656
 1670SOL    HW2 5910   2.278   4.555   6.639
 1671SOL     OW 5911   6.151   2.444   0.996
 1671SOL    HW1 5912   6.246   2.432   0.969
 1671SOL    HW2 5913   6.092   2.431   0.916
 1672SOL     OW 5914   0.438   3.498   0.117
 1672SOL    HW1 5915   0.391   3.540   0.039
 1672SOL    HW2 5916   0.475   3.569   0.176
 1673SOL     OW 5917   1.782   0.825   4.469
 1673SOL    HW1 5918   1.791   0.909   4.416
 1673SOL    HW2 5919   1.742   0.845   4.558
 1674SOL     OW 5920   4.787   1.798   2.417
 1674SOL    HW1 5921   4.734   1.749   2.487
 1674SOL    HW2 5922   4.793   1.895   2.441
 1675SOL     OW 5923   5.547   0.663   1.149
 1675SOL    HW1 5924   5.609   0.670   1.071
 1675SOL    HW2 5925   5.460   0.707   1.127
 1676SOL     OW 5926   1.098   2.051   2.334
 1676SOL    HW1 5927   1.048   2.084   2.254
 1676SOL    HW2 5928   1.035   2.045   2.412
 1677SOL     OW 5929   3.821   2.982   3.701
 1677SOL    HW1 5930   3.767   3.038   3.638
 1677SOL    HW2 5931   3.883   3.041   3.753
 1678SOL     OW 5932   0.855   7.007   1.410
 1678SOL    HW1 5933   0.779   6.964   1.460
 1678SOL    HW2 5934   0.822   0.062   1.365
 1679SOL     OW 5935   0.890   2.047   6.503
 1679SOL    HW1 5936   0.921   2.132   6.460
 1679SOL    HW2 5937   0.794   2.031   6.479
 1680SOL     OW 5938   5.313   2.750   3.779
 1680SOL    HW1 5939   5.330   2.697   3.695
 1680SOL    HW2 5940   5.306   2.688   3.857
 1681SOL     OW 5941   2.377   5.865   4.558
 1681SOL    HW1 5942   2.468   5.844   4.594
 1681SOL    HW2 5943   2.309   5.807   4.604
 1682SOL     OW 5944   2.918   0.544   4.340
 1682SOL    HW1 5945   2.885   0.631   4.377
 1682SOL    HW2 5946   2.987   0.506   4.401
 1683SOL     OW 5947   6.282   4.972   2.715
 1683SOL    HW1 5948   6.207   4.928   2.665
 1683SOL    HW2 5949   6.262   4.971   2.813
 1684SOL     OW 5950   2.532   4.554   1.911
 1684SOL    HW1 5951   2.621   4.584   1.946
 1684SOL    HW2 5952   2.462   4.621   1.937
 1685SOL     OW 5953   6.896   1.802   5.261
 1685SOL    HW1 5954   6.942   1.841   5.342
 1685SOL    HW2 5955   6.819   1.746   5.290
 1686SOL     OW 5956   4.437   5.892   2.671
 1686SOL    HW1 5957   4.366   5.828   2.641
 1686SOL    HW2 5958   4.436   5.973   2.612
 1687SOL     OW 5959   5.519   4.299   1.791
 1687SOL    HW1 5960   5.438   4.297   1.732
 1687SOL    HW2 5961   5.491   4.313   1.886
 1688SOL     OW 5962   1.220   0.864   2.738
 1688SOL    HW1 5963   1.280   0.865   2.658
 1688SOL    HW2 5964   1.266   0.907   2.816
 1689SOL     OW 5965   4.649   0.736   1.019
 1689SOL    HW1 5966   4.668   0.750   1.116
 1689SOL    HW2 5967   4.680   0.815   0.967
 1690SOL     OW 5968   0.442   4.300   3.795
 1690SOL    HW1 5969   0.434   4.379   3.856
 1690SOL    HW2 5970   0.380   4.310   3.718
 1691SOL     OW 5971   4.696   2.807   5.274
 1691SOL    HW1 5972   4.678   2.898   5.312
 1691SOL    HW2 5973   4.678   2.738   5.345
 1692SOL     OW 5974   5.105   5.101   1.635
 1692SOL    HW1 5975   5.073   5.196   1.631
 1692SOL    HW2 5976   5.048   5.044   1.576
 1693SOL     OW 5977   5.444   0.133   5.049
 1693SOL    HW1 5978   5.435   0.079   4.965
 1693SOL    HW2 5979   5.530   0.184   5.047
 1694SOL     OW 5980   5.013   1.842   5.667
 1694SOL    HW1 5981   5.057   1.752   5.673
 1694SOL    HW2 5982   5.047   1.900   5.741
 1695SOL     OW 5983   4.392   1.100   6.823
 1695SOL    HW1 5984   4.315   1.040   6.849
 1695SOL    HW2 5985   4.373   1.141   6.734
 1696SOL     OW 5986   5.151   6.245   0.394
 1696SOL    HW1 5987   5.250   6.257   0.402
 1696SOL    HW2 5988   5.106   6.290   0.471
 1697SOL     OW 5989   5.053   1.991   2.059
 1697SOL    HW1 5990   5.086   1.935   1.983
 1697SOL    HW2 5991   5.040   2.085   2.028
 1698SOL     OW 5992   4.066   0.787   1.623
 1698SOL    HW1 5993   4.117   0.716   1.575
 1698SOL    HW2 5994   4.100   0.877   1.595
 1699SOL     OW 5995   2.646   6.517   0.124
 1699SOL    HW1 5996   2.606   6.489   0.037
 1699SOL    HW2 5997   2.586   6.582   0.170
 1700SOL     OW 5998   6.315   2.442   2.737
 1700SOL    HW1 5999   6.327   2.490   2.825
 1700SOL    HW2 6000   6.228   2.393   2.738
 1701SOL     OW 6001   0.155   5.593   4.569
 1701SOL    HW1 6002   0.226   5.524   4.562
 1701SOL    HW2 6003   0.176   5.654   4.646
 1702SOL     OW 6004   2.160   2.231   6.328
 1702SOL    HW1 6005   2.100   2.310   6.314
 1702SOL    HW2 6006   2.136   2.159   6.263
 1703SOL     OW 6007   2.153   1.931   1.254
 1703SOL    HW1 6008   2.081   1.971   1.310
 1703SOL    HW2 6009   2.223   2.001   1.234
 1704SOL     OW 6010   3.002   2.372   1.034
 1704SOL    HW1 6011   2.923   2.363   1.094
 1704SOL    HW2 6012   3.070   2.303   1.058
 1705SOL     OW 6013   3.883   2.343   0.785
 1705SOL    HW1 6014   3.873   2.442   0.793
 1705SOL    HW2 6015   3.890   2.318   0.688
 1706SOL     OW 6016   5.128   2.041   6.916
 1706SOL    HW1 6017   5.085   2.081   6.836
 1706SOL    HW2 6018   5.196   2.103   6.953
 1707SOL     OW 6019   4.498   1.731   2.433
 1707SOL    HW1 6020   4.537   1.671   2.503
 1707SOL    HW2 6021   4.523   1.698   2.342
 1708SOL     OW 6022   3.108   4.804   2.185
 1708SOL    HW1 6023   3.193   4.815   2.134
 1708SOL    HW2 6024   3.128   4.762   2.274
 1709SOL     OW 6025   4.780   5.161   0.960
 1709SOL    HW1 6026   4.848   5.221   0.918
 1709SOL    HW2 6027   4.690   5.180   0.921
 1710SOL     OW 6028   4.926   4.913   3.206
 1710SOL    HW1 6029   5.009   4.967   3.197
 1710SOL    HW2 6030   4.916   4.854   3.125
 1711SOL     OW 6031   4.037   4.392   6.677
 1711SOL    HW1 6032   3.953   4.408   6.728
 1711SOL    HW2 6033   4.115   4.397   6.739
 1712SOL     OW 6034   0.595   1.484   2.506
 1712SOL    HW1 6035   0.686   1.484   2.463
 1712SOL    HW2 6036   0.576   1.574   2.544
 1713SOL     OW 6037   4.021   0.827   3.144
 1713SOL    HW1 6038   3.989   0.857   3.234
 1713SOL    HW2 6039   4.103   0.878   3.119
 1714SOL     OW 6040   3.377   3.358   0.170
 1714SOL    HW1 6041   3.419   3.449   0.169
 1714SOL    HW2 6042   3.315   3.348   0.093
 1715SOL     OW 6043   2.083   6.829   2.816
 1715SOL    HW1 6044   2.089   6.819   2.717
 1715SOL    HW2 6045   1.989   6.812   2.845
 1716SOL     OW 6046   4.894   1.337   3.631
 1716SOL    HW1 6047   4.986   1.357   3.597
 1716SOL    HW2 6048   4.888   1.359   3.728
 1717SOL     OW 6049   3.119   6.660   5.197
 1717SOL    HW1 6050   3.143   6.564   5.202
 1717SOL    HW2 6051   3.029   6.674   5.238
 1718SOL     OW 6052   1.125   3.076   1.082
 1718SOL    HW1 6053   1.030   3.095   1.105
 1718SOL    HW2 6054   1.149   2.983   1.112
 1719SOL     OW 6055   1.225   5.155   2.815
 1719SOL    HW1 6056   1.130   5.169   2.841
 1719SOL    HW2 6057   1.256   5.065   2.847
 1720SOL     OW 6058   0.813   2.857   6.011
 1720SOL    HW1 6059   0.871   2.783   6.044
 1720SOL    HW2 6060   0.864   2.915   5.948
 1721SOL     OW 6061   1.222   1.937   0.669
 1721SOL    HW1 6062   1.123   1.941   0.658
 1721SOL    HW2 6063   1.266   1.996   0.601
 1722SOL     OW 6064   2.470   2.489   3.602
 1722SOL    HW1 6065   2.512   2.500   3.692
 1722SOL    HW2 6066   2.440   2.394   3.591
 1723SOL     OW 6067   5.945   3.877   0.697
 1723SOL    HW1 6068   5.957   3.908   0.603
 1723SOL    HW2 6069   6.020   3.816   0.722
 1724SOL     OW 6070   6.010   2.327   1.276
 1724SOL    HW1 6071   5.942   2.317   1.349
 1724SOL    HW2 6072   6.101   2.308   1.313
 1725SOL     OW 6073   1.665   6.044   6.688
 1725SOL    HW1 6074   1.736   6.077   6.749
 1725SOL    HW2 6075   1.583   6.020   6.741
 1726SOL     OW 6076   5.606   4.489   3.009
 1726SOL    HW1 6077   5.645   4.430   3.079
 1726SOL    HW2 6078   5.637   4.458   2.919
 1727SOL     OW 6079   3.085   3.840   3.104
 1727SOL    HW1 6080   3.097   3.914   3.170
 1727SOL    HW2 6081   3.061   3.880   3.015
 1728SOL     OW 6082   5.283   2.588   3.992
 1728SOL    HW1 6083   5.286   2.659   4.062
 1728SOL    HW2 6084   5.207   2.525   4.011
 1729SOL     OW 6085   1.315   3.032   2.683
 1729SOL    HW1 6086   1.326   2.932   2.679
 1729SOL    HW2 6087   1.392   3.072   2.733
 1730SOL     OW 6088   2.139   5.201   4.464
 1730SOL    HW1 6089   2.228   5.224   4.424
 1730SOL    HW2 6090   2.068   5.253   4.417
 1731SOL     OW 6091   6.291   5.008   3.718
 1731SOL    HW1 6092   6.383   5.022   3.754
 1731SOL    HW2 6093   6.255   5.094   3.684
 1732SOL     OW 6094   2.845   3.464   5.795
 1732SOL    HW1 6095   2.870   3.463   5.698
 1732SOL    HW2 6096   2.793   3.382   5.818
 1733SOL     OW 6097   2.084   3.516   6.350
 1733SOL    HW1 6098   2.136   3.431   6.350
 1733SOL    HW2 6099   1.986   3.495   6.345
 1734SOL     OW 6100   6.696   3.288   1.157
 1734SOL    HW1 6101   6.722   3.252   1.246
 1734SOL    HW2 6102   6.769   3.272   1.091
 1735SOL     OW 6103   3.818   5.151   6.257
 1735SOL    HW1 6104   3.794   5.240   6.297
 1735SOL    HW2 6105   3.769   5.140   6.170
 1736SOL     OW 6106   5.361   2.668   0.695
 1736SOL    HW1 6107   5.340   2.765   0.683
 1736SOL    HW2 6108   5.276   2.616   0.708
 1737SOL     OW 6109   4.546   1.743   5.160
 1737SOL    HW1 6110   4.565   1.687   5.079
 1737SOL    HW2 6111   4.561   1.839   5.138
 1738SOL     OW 6112   1.442   3.126   3.934
 1738SOL    HW1 6113   1.502   3.064   3.884
 1738SOL    HW2 6114   1.358   3.079   3.960
 1739SOL     OW 6115   5.625   0.810   3.578
 1739SOL    HW1 6116   5.671   0.734   3.625
 1739SOL    HW2 6117   5.641   0.802   3.479
 1740SOL     OW 6118   6.230   2.969   4.802
 1740SOL    HW1 6119   6.237   2.966   4.902
 1740SOL    HW2 6120   6.313   2.932   4.761
 1741SOL     OW 6121   0.046   2.058   4.594
 1741SOL    HW1 6122   7.009   1.986   4.571
 1741SOL    HW2 6123   0.108   2.025   4.665
 1742SOL     OW 6124   6.321   6.008   6.245
 1742SOL    HW1 6125   6.363   6.097   6.258
 1742SOL    HW2 6126   6.377   5.953   6.184
 1743SOL     OW 6127   1.841   1.521   2.401
 1743SOL    HW1 6128   1.927   1.474   2.383
 1743SOL    HW2 6129   1.781   1.512   2.322
 1744SOL     OW 6130   3.564   1.994   4.947
 1744SOL    HW1 6131   3.616   2.036   4.872
 1744SOL    HW2 6132   3.468   2.019   4.938
 1745SOL     OW 6133   6.171   6.653   1.052
 1745SOL    HW1 6134   6.178   6.557   1.024
 1745SOL    HW2 6135   6.075   6.680   1.053
 1746SOL     OW 6136   2.438   4.541   3.384
 1746SOL    HW1 6137   2.458   4.489   3.301
 1746SOL    HW2 6138   2.357   4.504   3.429
 1747SOL     OW 6139   4.487   0.203   2.336
 1747SOL    HW1 6140   4.394   0.241   2.331
 1747SOL    HW2 6141   4.552   0.276   2.353
 1748SOL     OW 6142   6.621   3.090   5.109
 1748SOL    HW1 6143   6.644   3.181   5.076
 1748SOL    HW2 6144   6.606   3.094   5.208
 1749SOL     OW 6145   0.851   4.974   1.041
 1749SOL    HW1 6146   0.829   4.919   1.121
 1749SOL    HW2 6147   0.949   4.969   1.022
 1750SOL     OW 6148   3.942   0.185   6.031
 1750SOL    HW1 6149   3.985   0.275   6.034
 1750SOL    HW2 6150   3.998   0.122   5.978
 1751SOL     OW 6151   6.171   3.151   5.246
 1751SOL    HW1 6152   6.239   3.135   5.175
 1751SOL    HW2 6153   6.119   3.234   5.225
 1752SOL     OW 6154   6.726   0.405   2.255
 1752SOL    HW1 6155   6.796   0.395   2.184
 1752SOL    HW2 6156   6.769   0.412   2.345
 1753SOL     OW 6157   6.243   1.498   2.019
 1753SOL    HW1 6158   6.195   1.413   2.043
 1753SOL    HW2 6159   6.178   1.573   2.014
 1754SOL     OW 6160   2.842   5.516   4.259
 1754SOL    HW1 6161   2.875   5.544   4.350
 1754SOL    HW2 6162   2.753   5.473   4.268
 1755SOL     OW 6163   6.195   6.860   4.580
 1755SOL    HW1 6164   6.129   6.794   4.613
 1755SOL    HW2 6165   6.287   6.820   4.582
 1756SOL     OW 6166   4.685   6.305   0.365
 1756SOL    HW1 6167   4.675   6.396   0.405
 1756SOL    HW2 6168   4.680   6.236   0.437
 1757SOL     OW 6169   2.257   5.334   5.239
 1757SOL    HW1 6170   2.244   5.405   5.170
 1757SOL    HW2 6171   2.290   5.251   5.196
 1758SOL     OW 6172   1.846   6.092   4.570
 1758SOL    HW1 6173   1.859   6.037   4.653
 1758SOL    HW2 6174   1.916   6.163   4.566
 1759SOL     OW 6175   1.376   6.571   0.496
 1759SOL    HW1 6176   1.307   6.551   0.427
 1759SOL    HW2 6177   1.467   6.552   0.460
 1760SOL     OW 6178   0.048   0.913   4.479
 1760SOL    HW1 6179   6.999   0.849   4.479
 1760SOL    HW2 6180   0.014   1.007   4.475
 1761SOL     OW 6181   5.755   1.282   2.643
 1761SOL    HW1 6182   5.833   1.239   2.689
 1761SOL    HW2 6183   5.717   1.218   2.575
 1762SOL     OW 6184   0.879   1.432   5.616
 1762SOL    HW1 6185   0.953   1.466   5.557
 1762SOL    HW2 6186   0.832   1.509   5.659
 1763SOL     OW 6187   0.489   3.734   3.688
 1763SOL    HW1 6188   0.550   3.737   3.767
 1763SOL    HW2 6189   0.435   3.818   3.685
 1764SOL     OW 6190   1.111   5.499   2.972
 1764SOL    HW1 6191   1.104   5.411   3.019
 1764SOL    HW2 6192   1.193   5.548   3.003
 1765SOL     OW 6193   5.632   3.564   2.495
 1765SOL    HW1 6194   5.592   3.578   2.586
 1765SOL    HW2 6195   5.619   3.647   2.440
 1766SOL     OW 6196   4.332   4.725   3.927
 1766SOL    HW1 6197   4.234   4.711   3.940
 1766SOL    HW2 6198   4.381   4.641   3.952
 1767SOL     OW 6199   0.483   4.425   2.425
 1767SOL    HW1 6200   0.504   4.399   2.519
 1767SOL    HW2 6201   0.535   4.506   2.399
 1768SOL     OW 6202   5.189   5.566   2.322
 1768SOL    HW1 6203   5.189   5.666   2.333
 1768SOL    HW2 6204   5.100   5.529   2.348
 1769SOL     OW 6205   6.049   0.241   0.430
 1769SOL    HW1 6206   6.016   0.326   0.387
 1769SOL    HW2 6207   5.991   0.165   0.401
 1770SOL     OW 6208   1.642   5.097   0.898
 1770SOL    HW1 6209   1.625   5.019   0.958
 1770SOL    HW2 6210   1.721   5.078   0.840
 1771SOL     OW 6211   1.998   2.909   5.936
 1771SOL    HW1 6212   1.936   2.961   5.878
 1771SOL    HW2 6213   1.985   2.811   5.921
 1772SOL     OW 6214   2.183   4.083   2.541
 1772SOL    HW1 6215   2.203   4.065   2.637
 1772SOL    HW2 6216   2.129   4.008   2.503
 1773SOL     OW 6217   2.072   6.200   6.497
 1773SOL    HW1 6218   2.030   6.290   6.490
 1773SOL    HW2 6219   2.072   6.155   6.407
 1774SOL     OW 6220   5.611   5.670   0.693
 1774SOL    HW1 6221   5.555   5.721   0.759
 1774SOL    HW2 6222   5.661   5.735   0.635
 1775SOL     OW 6223   2.274   5.388   0.221
 1775SOL    HW1 6224   2.217   5.392   0.139
 1775SOL    HW2 6225   2.256   5.468   0.278
 1776SOL     OW 6226   4.691   2.315   5.088
 1776SOL    HW1 6227   4.688   2.325   5.187
 1776SOL    HW2 6228   4.628   2.381   5.046
 1777SOL     OW 6229   4.936   6.509   0.019
 1777SOL    HW1 6230   4.949   6.410   0.018
 1777SOL    HW2 6231   5.001   6.550   0.084
 1778SOL     OW 6232   5.808   0.035   4.010
 1778SOL    HW1 6233   5.838   0.102   3.942
 1778SOL    HW2 6234   5.855   0.051   4.096
 1779SOL     OW 6235   5.302   0.304   4.083
 1779SOL    HW1 6236   5.221   0.363   4.074
 1779SOL    HW2 6237   5.273   0.211   4.107
 1780SOL     OW 6238   1.982   5.095   5.021
 1780SOL    HW1 6239   2.036   5.178   5.005
 1780SOL    HW2 6240   1.951   5.058   4.933
 1781SOL     OW 6241   4.218   1.042   4.956
 1781SOL    HW1 6242   4.249   1.137   4.949
 1781SOL    HW2 6243   4.199   1.019   5.051
 1782SOL     OW 6244   6.713   1.381   2.639
 1782SOL    HW1 6245   6.766   1.418   2.714
 1782SOL    HW2 6246   6.770   1.318   2.585
 1783SOL     OW 6247   1.724   3.910   6.252
 1783SOL    HW1 6248   1.727   3.994   6.306
 1783SOL    HW2 6249   1.634   3.904   6.207
 1784SOL     OW 6250   2.776   6.818   1.742
 1784SOL    HW1 6251   2.688   6.818   1.788
 1784SOL    HW2 6252   2.767   6.776   1.651
 1785SOL     OW 6253   1.479   6.795   4.902
 1785SOL    HW1 6254   1.437   6.708   4.874
 1785SOL    HW2 6255   1.510   6.788   4.997
 1786SOL     OW 6256   1.196   6.518   0.969
 1786SOL    HW1 6257   1.239   6.557   1.050
 1786SOL    HW2 6258   1.099   6.500   0.988
 1787SOL     OW 6259   2.633   3.268   6.160
 1787SOL    HW1 6260   2.645   3.342   6.226
 1787SOL    HW2 6261   2.667   3.182   6.199
 1788SOL     OW 6262   4.481   3.900   1.382
 1788SOL    HW1 6263   4.562   3.892   1.440
 1788SOL    HW2 6264   4.401   3.920   1.438
 1789SOL     OW 6265   6.123   3.815   2.271
 1789SOL    HW1 6266   6.168   3.726   2.270
 1789SOL    HW2 6267   6.068   3.824   2.354
 1790SOL     OW 6268   2.010   2.030   4.337
 1790SOL    HW1 6269   1.969   1.988   4.418
 1790SOL    HW2 6270   1.972   2.121   4.324
 1791SOL     OW 6271   5.100   0.188   3.479
 1791SOL    HW1 6272   5.088   0.285   3.455
 1791SOL    HW2 6273   5.116   0.135   3.396
 1792SOL     OW 6274   0.379   2.124   5.941
 1792SOL    HW1 6275   0.477   2.108   5.929
 1792SOL    HW2 6276   0.332   2.036   5.947
 1793SOL     OW 6277   0.650   0.950   5.925
 1793SOL    HW1 6278   0.611   1.014   5.858
 1793SOL    HW2 6279   0.609   0.860   5.913
 1794SOL     OW 6280   1.192   0.338   5.899
 1794SOL    HW1 6281   1.283   0.314   5.932
 1794SOL    HW2 6282   1.167   0.429   5.932
 1795SOL     OW 6283   5.560   4.516   1.125
 1795SOL    HW1 6284   5.557   4.420   1.153
 1795SOL    HW2 6285   5.600   4.570   1.199
 1796SOL     OW 6286   0.607   0.458   6.832
 1796SOL    HW1 6287   0.564   0.456   6.742
 1796SOL    HW2 6288   0.690   0.402   6.832
 1797SOL     OW 6289   2.007   4.949   5.461
 1797SOL    HW1 6290   1.950   5.027   5.433
 1797SOL    HW2 6291   2.052   4.910   5.381
 1798SOL     OW 6292   2.665   3.824   5.275
 1798SOL    HW1 6293   2.588   3.875   5.236
 1798SOL    HW2 6294   2.750   3.875   5.258
 1799SOL     OW 6295   3.162   1.509   0.967
 1799SOL    HW1 6296   3.224   1.513   0.889
 1799SOL    HW2 6297   3.215   1.513   1.052
 1800SOL     OW 6298   5.761   3.480   5.205
 1800SOL    HW1 6299   5.706   3.401   5.231
 1800SOL    HW2 6300   5.725   3.519   5.120
 1801SOL     OW 6301   0.804   0.368   3.207
 1801SOL    HW1 6302   0.804   0.466   3.186
 1801SOL    HW2 6303   0.884   0.345   3.261
 1802SOL     OW 6304   6.897   5.089   4.072
 1802SOL    HW1 6305   6.843   5.159   4.118
 1802SOL    HW2 6306   6.973   5.131   4.024
 1803SOL     OW 6307   0.163   0.232   3.566
 1803SOL    HW1 6308   0.212   0.218   3.652
 1803SOL    HW2 6309   0.130   0.145   3.532
 1804SOL     OW 6310   2.396   3.365   6.042
 1804SOL    HW1 6311   2.410   3.364   5.943
 1804SOL    HW2 6312   2.476   3.324   6.087
 1805SOL     OW 6313   6.574   5.241   0.596
 1805SOL    HW1 6314   6.547   5.146   0.609
 1805SOL    HW2 6315   6.615   5.276   0.680
 1806SOL     OW 6316   0.310   1.336   1.216
 1806SOL    HW1 6317   0.342   1.304   1.126
 1806SOL    HW2 6318   0.388   1.368   1.270
 1807SOL     OW 6319   0.087   2.552   2.524
 1807SOL    HW1 6320   0.086   2.595   2.434
 1807SOL    HW2 6321   0.050   2.460   2.517
 1808SOL     OW 6322   5.328   1.894   6.237
 1808SOL    HW1 6323   5.284   1.912   6.325
 1808SOL    HW2 6324   5.372   1.804   6.239
 1809SOL     OW 6325   4.667   0.301   5.286
 1809SOL    HW1 6326   4.667   0.255   5.375
 1809SOL    HW2 6327   4.589   0.363   5.280
 1810SOL     OW 6328   0.967   0.742   4.593
 1810SOL    HW1 6329   0.905   0.691   4.534
 1810SOL    HW2 6330   1.055   0.693   4.598
 1811SOL     OW 6331   3.545   5.591   1.883
 1811SOL    HW1 6332   3.602   5.658   1.836
 1811SOL    HW2 6333   3.559   5.501   1.843
 1812SOL     OW 6334   4.682   6.550   6.168
 1812SOL    HW1 6335   4.667   6.451   6.163
 1812SOL    HW2 6336   4.779   6.570   6.155
 1813SOL     OW 6337   4.952   4.471   1.985
 1813SOL    HW1 6338   4.852   4.473   1.975
 1813SOL    HW2 6339   4.988   4.387   1.944
 1814SOL     OW 6340   6.820   6.325   0.431
 1814SOL    HW1 6341   6.895   6.320   0.497
 1814SOL    HW2 6342   6.769   6.239   0.432
 1815SOL     OW 6343   5.367   6.403   1.273
 1815SOL    HW1 6344   5.288   6.432   1.219
 1815SOL    HW2 6345   5.397   6.313   1.242
 1816SOL     OW 6346   4.175   5.079   5.223
 1816SOL    HW1 6347   4.147   5.007   5.160
 1816SOL    HW2 6348   4.127   5.068   5.310
 1817SOL     OW 6349   0.042   2.373   3.878
 1817SOL    HW1 6350   0.118   2.434   3.903
 1817SOL    HW2 6351   0.078   2.282   3.859
 1818SOL     OW 6352   2.535   1.160   0.603
 1818SOL    HW1 6353   2.444   1.130   0.632
 1818SOL    HW2 6354   2.535   1.175   0.504
 1819SOL     OW 6355   1.915   4.326   2.553
 1819SOL    HW1 6356   1.857   4.274   2.491
 1819SOL    HW2 6357   2.009   4.325   2.520
 1820SOL     OW 6358   3.175   0.093   5.227
 1820SOL    HW1 6359   3.183   0.108   5.128
 1820SOL    HW2 6360   3.182   0.181   5.275
 1821SOL     OW 6361   3.660   1.843   2.339
 1821SOL    HW1 6362   3.750   1.864   2.376
 1821SOL    HW2 6363   3.627   1.920   2.286
 1822SOL     OW 6364   6.863   3.096   3.098
 1822SOL    HW1 6365   6.882   3.136   3.187
 1822SOL    HW2 6366   6.949   3.073   3.052
 1823SOL     OW 6367   4.388   6.564   1.729
 1823SOL    HW1 6368   4.466   6.565   1.790
 1823SOL    HW2 6369   4.305   6.589   1.779
 1824SOL     OW 6370   4.327   3.053   1.712
 1824SOL    HW1 6371   4.407   3.039   1.771
 1824SOL    HW2 6372   4.306   3.151   1.708
 1825SOL     OW 6373   1.029   2.544   5.302
 1825SOL    HW1 6374   1.071   2.519   5.390
 1825SOL    HW2 6375   1.099   2.555   5.233
 1826SOL     OW 6376   3.462   2.101   1.862
 1826SOL    HW1 6377   3.374   2.135   1.893
 1826SOL    HW2 6378   3.529   2.175   1.864
 1827SOL     OW 6379   5.797   6.016   0.602
 1827SOL    HW1 6380   5.818   6.000   0.506
 1827SOL    HW2 6381   5.870   5.979   0.659
 1828SOL     OW 6382   1.649   3.697   5.222
 1828SOL    HW1 6383   1.622   3.777   5.277
 1828SOL    HW2 6384   1.728   3.721   5.165
 1829SOL     OW 6385   3.722   0.449   2.056
 1829SOL    HW1 6386   3.691   0.544   2.054
 1829SOL    HW2 6387   3.652   0.390   2.018
 1830SOL     OW 6388   5.507   0.782   6.029
 1830SOL    HW1 6389   5.487   0.696   6.076
 1830SOL    HW2 6390   5.548   0.846   6.095
 1831SOL     OW 6391   3.499   5.200   0.233
 1831SOL    HW1 6392   3.405   5.168   0.242
 1831SOL    HW2 6393   3.555   5.129   0.191
 1832SOL     OW 6394   2.618   2.828   0.241
 1832SOL    HW1 6395   2.550   2.891   0.203
 1832SOL    HW2 6396   2.694   2.881   0.278
 1833SOL     OW 6397   5.549   1.489   6.755
 1833SOL    HW1 6398   5.566   1.495   6.853
 1833SOL    HW2 6399   5.596   1.408   6.718
 1834SOL     OW 6400   0.404   2.726   5.474
 1834SOL    HW1 6401   0.502   2.728   5.494
 1834SOL    HW2 6402   0.385   2.778   5.391
 1835SOL     OW 6403   6.451   6.657   1.456
 1835SOL    HW1 6404   6.391   6.699   1.524
 1835SOL    HW2 6405   6.507   6.587   1.500
 1836SOL     OW 6406   5.120   2.589   2.264
 1836SOL    HW1 6407   5.123   2.689   2.267
 1836SOL    HW2 6408   5.103   2.560   2.169
 1837SOL     OW 6409   3.410   1.969   6.530
 1837SOL    HW1 6410   3.361   1.910   6.466
 1837SOL    HW2 6411   3.345   2.009   6.595
 1838SOL     OW 6412   5.237   0.631   0.867
 1838SOL    HW1 6413   5.184   0.679   0.937
 1838SOL    HW2 6414   5.184   0.627   0.783
 1839SOL     OW 6415   0.280   0.338   0.617
 1839SOL    HW1 6416   0.236   0.329   0.528
 1839SOL    HW2 6417   0.243   0.270   0.680
 1840SOL     OW 6418   4.623   6.376   3.945
 1840SOL    HW1 6419   4.674   6.429   3.878
 1840SOL    HW2 6420   4.571   6.437   4.004
 1841SOL     OW 6421   1.502   1.163   2.011
 1841SOL    HW1 6422   1.435   1.095   2.039
 1841SOL    HW2 6423   1.455   1.244   1.976
 1842SOL     OW 6424   1.271   5.715   1.245
 1842SOL    HW1 6425   1.222   5.758   1.321
 1842SOL    HW2 6426   1.354   5.768   1.225
 1843SOL     OW 6427   2.572   0.938   5.870
 1843SOL    HW1 6428   2.521   0.939   5.956
 1843SOL    HW2 6429   2.569   0.847   5.830
 1844SOL     OW 6430   6.224   2.860   6.072
 1844SOL    HW1 6431   6.192   2.918   5.997
 1844SOL    HW2 6432   6.322   2.874   6.086
 1845SOL     OW 6433   0.960   2.078   2.787
 1845SOL    HW1 6434   1.026   2.137   2.834
 1845SOL    HW2 6435   0.970   1.984   2.820
 1846SOL     OW 6436   2.855   1.162   1.311
 1846SOL    HW1 6437   2.898   1.238   1.359
 1846SOL    HW2 6438   2.809   1.196   1.229
 1847SOL     OW 6439   1.502   5.662   5.668
 1847SOL    HW1 6440   1.585   5.711   5.694
 1847SOL    HW2 6441   1.435   5.667   5.742
 1848SOL     OW 6442   4.032   6.501   3.332
 1848SOL    HW1 6443   4.101   6.467   3.397
 1848SOL    HW2 6444   4.023   6.436   3.257
 1849SOL     OW 6445   4.661   2.464   2.154
 1849SOL    HW1 6446   4.667   2.554   2.112
 1849SOL    HW2 6447   4.587   2.463   2.221
 1850SOL     OW 6448   4.156   2.127   0.583
 1850SOL    HW1 6449   4.149   2.099   0.487
 1850SOL    HW2 6450   4.162   2.227   0.588
 1851SOL     OW 6451   6.937   4.443   5.002
 1851SOL    HW1 6452   6.870   4.369   4.995
 1851SOL    HW2 6453   6.996   4.427   5.082
 1852SOL     OW 6454   0.565   0.315   2.740
 1852SOL    HW1 6455   0.637   0.280   2.801
 1852SOL    HW2 6456   0.515   0.388   2.787
 1853SOL     OW 6457   0.115   2.227   6.062
 1853SOL    HW1 6458   0.145   2.241   6.156
 1853SOL    HW2 6459   0.189   2.184   6.010
 1854SOL     OW 6460   0.835   6.666   3.600
 1854SOL    HW1 6461   0.768   6.737   3.623
 1854SOL    HW2 6462   0.893   6.647   3.679
 1855SOL     OW 6463   5.542   3.299   4.729
 1855SOL    HW1 6464   5.514   3.311   4.634
 1855SOL    HW2 6465   5.474   3.243   4.777
 1856SOL     OW 6466   3.850   3.245   0.271
 1856SOL    HW1 6467   3.938   3.200   0.286
 1856SOL    HW2 6468   3.798   3.195   0.203
 1857SOL     OW 6469   3.604   1.166   6.761
 1857SOL    HW1 6470   3.556   1.094   6.711
 1857SOL    HW2 6471   3.557   1.253   6.747
 1858SOL     OW 6472   4.829   2.478   3.972
 1858SOL    HW1 6473   4.743   2.469   4.023
 1858SOL    HW2 6474   4.817   2.544   3.899
 1859SOL     OW 6475   6.268   1.396   4.114
 1859SOL    HW1 6476   6.289   1.427   4.022
 1859SOL    HW2 6477   6.349   1.354   4.155
 1860SOL     OW 6478   2.253   0.848   6.127
 1860SOL    HW1 6479   2.197   0.908   6.070
 1860SOL    HW2 6480   2.224   0.753   6.112
 1861SOL     OW 6481   6.767   6.651   4.509
 1861SOL    HW1 6482   6.775   6.659   4.609
 1861SOL    HW2 6483   6.792   6.559   4.481
 1862SOL     OW 6484   2.718   5.445   5.219
 1862SOL    HW1 6485   2.696   5.505   5.296
 1862SOL    HW2 6486   2.751   5.358   5.254
 1863SOL     OW 6487   0.174   2.607   1.174
 1863SOL    HW1 6488   0.242   2.584   1.105
 1863SOL    HW2 6489   0.169   2.707   1.183
 1864SOL     OW 6490   3.827   5.805   2.300
 1864SOL    HW1 6491   3.855   5.873   2.369
 1864SOL    HW2 6492   3.903   5.742   2.284
 1865SOL     OW 6493   6.157   2.255   5.828
 1865SOL    HW1 6494   6.218   2.284   5.755
 1865SOL    HW2 6495   6.200   2.275   5.917
 1866SOL     OW 6496   0.431   5.241   3.318
 1866SOL    HW1 6497   0.416   5.150   3.355
 1866SOL    HW2 6498   0.502   5.237   3.247
 1867SOL     OW 6499   0.764   2.629   1.540
 1867SOL    HW1 6500   0.729   2.537   1.559
 1867SOL    HW2 6501   0.688   2.695   1.547
 1868SOL     OW 6502   5.497   3.470   0.055
 1868SOL    HW1 6503   5.424   3.533   0.028
 1868SOL    HW2 6504   5.579   3.489   0.000
 1869SOL     OW 6505   4.644   0.788   4.464
 1869SOL    HW1 6506   4.653   0.768   4.366
 1869SOL    HW2 6507   4.724   0.754   4.513
 1870SOL     OW 6508   6.351   6.359   5.552
 1870SOL    HW1 6509   6.392   6.280   5.596
 1870SOL    HW2 6510   6.348   6.436   5.616
 1871SOL     OW 6511   0.369   6.604   6.894
 1871SOL    HW1 6512   0.319   6.578   6.976
 1871SOL    HW2 6513   0.369   6.528   6.829
 1872SOL     OW 6514   2.876   3.007   1.535
 1872SOL    HW1 6515   2.905   2.979   1.627
 1872SOL    HW2 6516   2.786   3.049   1.539
 1873SOL     OW 6517   6.342   1.117   0.446
 1873SOL    HW1 6518   6.261   1.175   0.453
 1873SOL    HW2 6519   6.405   1.138   0.520
 1874SOL     OW 6520   0.602   5.405   0.632
 1874SOL    HW1 6521   0.662   5.329   0.605
 1874SOL    HW2 6522   0.507   5.381   0.611
 1875SOL     OW 6523   0.053   5.741   1.623
 1875SOL    HW1 6524   0.011   5.690   1.548
 1875SOL    HW2 6525   0.001   5.725   1.707
 1876SOL     OW 6526   0.482   5.558   1.376
 1876SOL    HW1 6527   0.558   5.546   1.311
 1876SOL    HW2 6528   0.497   5.501   1.456
 1877SOL     OW 6529   1.097   1.542   2.372
 1877SOL    HW1 6530   1.117   1.634   2.338
 1877SOL    HW2 6531   1.066   1.484   2.296
 1878SOL     OW 6532   5.432   4.137   4.195
 1878SOL    HW1 6533   5.504   4.187   4.147
 1878SOL    HW2 6534   5.453   4.135   4.293
 1879SOL     OW 6535   4.548   6.179   4.323
 1879SOL    HW1 6536   4.525   6.101   4.381
 1879SOL    HW2 6537   4.508   6.262   4.361
 1880SOL     OW 6538   0.135   1.389   4.054
 1880SOL    HW1 6539   0.195   1.327   4.004
 1880SOL    HW2 6540   0.080   1.337   4.120
 1881SOL     OW 6541   1.800   1.831   3.886
 1881SOL    HW1 6542   1.832   1.757   3.827
 1881SOL    HW2 6543   1.856   1.834   3.968
 1882SOL     OW 6544   1.739   5.283   0.318
 1882SOL    HW1 6545   1.677   5.304   0.394
 1882SOL    HW2 6546   1.687   5.250   0.240
 1883SOL     OW 6547   2.022   2.420   2.996
 1883SOL    HW1 6548   1.995   2.509   3.033
 1883SOL    HW2 6549   2.038   2.429   2.897
 1884SOL     OW 6550   4.360   1.086   0.396
 1884SOL    HW1 6551   4.408   1.173   0.396
 1884SOL    HW2 6552   4.313   1.074   0.309
 1885SOL     OW 6553   0.053   1.696   0.690
 1885SOL    HW1 6554   0.031   1.604   0.656
 1885SOL    HW2 6555   0.077   1.755   0.613
 1886SOL     OW 6556   3.400   2.408   6.488
 1886SOL    HW1 6557   3.349   2.366   6.413
 1886SOL    HW2 6558   3.463   2.341   6.527
 1887SOL     OW 6559   0.750   6.384   4.845
 1887SOL    HW1 6560   0.767   6.479   4.871
 1887SOL    HW2 6561   0.665   6.353   4.888
 1888SOL     OW 6562   1.846   1.971   5.350
 1888SOL    HW1 6563   1.912   2.029   5.398
 1888SOL    HW2 6564   1.878   1.877   5.348
 1889SOL     OW 6565   2.991   2.711   6.888
 1889SOL    HW1 6566   2.986   2.621   6.844
 1889SOL    HW2 6567   2.989   2.700   6.987
 1890SOL     OW 6568   6.331   6.046   6.851
 1890SOL    HW1 6569   6.376   6.051   6.762
 1890SOL    HW2 6570   6.322   5.950   6.878
 1891SOL     OW 6571   5.181   3.526   6.565
 1891SOL    HW1 6572   5.125   3.463   6.512
 1891SOL    HW2 6573   5.230   3.587   6.502
 1892SOL     OW 6574   3.882   0.113   1.746
 1892SOL    HW1 6575   3.850   0.199   1.784
 1892SOL    HW2 6576   3.835   0.037   1.791
 1893SOL     OW 6577   2.943   1.530   5.122
 1893SOL    HW1 6578   2.980   1.465   5.055
 1893SOL    HW2 6579   2.866   1.487   5.170
 1894SOL     OW 6580   5.096   4.088   1.283
 1894SOL    HW1 6581   5.034   4.016   1.315
 1894SOL    HW2 6582   5.053   4.140   1.209
 1895SOL     OW 6583   4.375   0.284   3.789
 1895SOL    HW1 6584   4.383   0.382   3.807
 1895SOL    HW2 6585   4.443   0.257   3.721
 1896SOL     OW 6586   6.168   1.928   6.206
 1896SOL    HW1 6587   6.263   1.908   6.182
 1896SOL    HW2 6588   6.154   1.906   6.303
 1897SOL     OW 6589   5.521   5.360   3.592
 1897SOL    HW1 6590   5.594   5.414   3.633
 1897SOL    HW2 6591   5.508   5.388   3.497
 1898SOL     OW 6592   5.786   6.576   6.821
 1898SOL    HW1 6593   5.713   6.544   6.759
 1898SOL    HW2 6594   5.869   6.522   6.805
 1899SOL     OW 6595   1.327   2.281   2.810
 1899SOL    HW1 6596   1.296   2.193   2.775
 1899SOL    HW2 6597   1.397   2.267   2.880
 1900SOL     OW 6598   2.818   6.363   1.685
 1900SOL    HW1 6599   2.901   6.395   1.641
 1900SOL    HW2 6600   2.832   6.359   1.784
 1901SOL     OW 6601   1.644   1.525   6.305
 1901SOL    HW1 6602   1.699   1.490   6.381
 1901SOL    HW2 6603   1.585   1.598   6.338
 1902SOL     OW 6604   2.037   2.565   5.021
 1902SOL    HW1 6605   2.085   2.650   5.039
 1902SOL    HW2 6606   1.951   2.563   5.073
 1903SOL     OW 6607   6.553   3.960   4.016
 1903SOL    HW1 6608   6.535   3.880   4.072
 1903SOL    HW2 6609   6.651   3.971   4.002
 1904SOL     OW 6610   0.506   0.571   4.667
 1904SOL    HW1 6611   0.483   0.511   4.590
 1904SOL    HW2 6612   0.576   0.527   4.724
 1905SOL     OW 6613   6.463   2.867   4.693
 1905SOL    HW1 6614   6.418   2.778   4.703
 1905SOL    HW2 6615   6.557   2.853   4.664
 1906SOL     OW 6616   2.815   6.094   6.922
 1906SOL    HW1 6617   2.721   6.065   6.940
 1906SOL    HW2 6618   2.847   6.151   6.998
 1907SOL     OW 6619   4.143   6.058   3.281
 1907SOL    HW1 6620   4.141   6.029   3.377
 1907SOL    HW2 6621   4.237   6.054   3.247
 1908SOL     OW 6622   4.878   0.281   6.620
 1908SOL    HW1 6623   4.799   0.339   6.642
 1908SOL    HW2 6624   4.953   0.305   6.682
 1909SOL     OW 6625   4.064   5.209   4.512
 1909SOL    HW1 6626   4.071   5.285   4.447
 1909SOL    HW2 6627   3.992   5.229   4.579
 1910SOL     OW 6628   5.034   2.801   4.542
 1910SOL    HW1 6629   5.079   2.763   4.623
 1910SOL    HW2 6630   4.952   2.851   4.570
 1911SOL     OW 6631   0.002   3.701   6.133
 1911SOL    HW1 6632   0.041   3.736   6.047
 1911SOL    HW2 6633   6.932   3.721   6.135
 1912SOL     OW 6634   2.714   6.236   3.407
 1912SOL    HW1 6635   2.633   6.210   3.354
 1912SOL    HW2 6636   2.752   6.321   3.371
 1913SOL     OW 6637   1.056   4.221   5.460
 1913SOL    HW1 6638   1.045   4.262   5.550
 1913SOL    HW2 6639   1.150   4.190   5.448
 1914SOL     OW 6640   4.585   1.249   5.522
 1914SOL    HW1 6641   4.615   1.161   5.556
 1914SOL    HW2 6642   4.507   1.237   5.461
 1915SOL     OW 6643   3.494   0.447   5.363
 1915SOL    HW1 6644   3.473   0.405   5.274
 1915SOL    HW2 6645   3.447   0.535   5.370
 1916SOL     OW 6646   4.020   6.681   1.617
 1916SOL    HW1 6647   4.004   6.603   1.557
 1916SOL    HW2 6648   4.001   6.656   1.711
 1917SOL     OW 6649   3.453   2.916   4.201
 1917SOL    HW1 6650   3.494   2.875   4.119
 1917SOL    HW2 6651   3.526   2.943   4.264
 1918SOL     OW 6652   6.222   6.450   4.724
 1918SOL    HW1 6653   6.275   6.403   4.795
 1918SOL    HW2 6654   6.196   6.541   4.756
 1919SOL     OW 6655   6.760   6.820   1.849
 1919SOL    HW1 6656   6.794   6.798   1.940
 1919SOL    HW2 6657   6.688   6.756   1.825
 1920SOL     OW 6658   0.090   6.157   4.265
 1920SOL    HW1 6659   0.023   6.221   4.301
 1920SOL    HW2 6660   0.050   6.104   4.190
 1921SOL     OW 6661   0.788   6.731   6.562
 1921SOL    HW1 6662   0.748   6.748   6.472
 1921SOL    HW2 6663   0.760   6.640   6.594
 1922SOL     OW 6664   3.519   4.429   1.173
 1922SOL    HW1 6665   3.557   4.443   1.264
 1922SOL    HW2 6666   3.594   4.416   1.107
 1923SOL     OW 6667   1.887   2.798   0.980
 1923SOL    HW1 6668   1.977   2.812   1.020
 1923SOL    HW2 6669   1.818   2.843   1.036
 1924SOL     OW 6670   1.181   3.395   1.930
 1924SOL    HW1 6671   1.147   3.366   2.019
 1924SOL    HW2 6672   1.253   3.333   1.899
 1925SOL     OW 6673   3.396   4.087   0.493
 1925SOL    HW1 6674   3.389   4.052   0.586
 1925SOL    HW2 6675   3.479   4.051   0.450
 1926SOL     OW 6676   0.872   0.269   3.716
 1926SOL    HW1 6677   0.957   0.319   3.699
 1926SOL    HW2 6678   0.818   0.264   3.632
 1927SOL     OW 6679   4.224   3.971   0.462
 1927SOL    HW1 6680   4.165   3.921   0.399
 1927SOL    HW2 6681   4.285   4.031   0.409
 1928SOL     OW 6682   6.935   5.108   5.648
 1928SOL    HW1 6683   6.971   5.108   5.555
 1928SOL    HW2 6684   6.835   5.108   5.645
 1929SOL     OW 6685   1.521   6.792   3.306
 1929SOL    HW1 6686   1.516   6.790   3.206
 1929SOL    HW2 6687   1.477   6.711   3.343
 1930SOL     OW 6688   6.501   4.891   6.695
 1930SOL    HW1 6689   6.441   4.951   6.642
 1930SOL    HW2 6690   6.576   4.945   6.734
 1931SOL     OW 6691   0.707   2.227   5.110
 1931SOL    HW1 6692   0.636   2.238   5.041
 1931SOL    HW2 6693   0.783   2.288   5.090
 1932SOL     OW 6694   5.571   2.925   2.694
 1932SOL    HW1 6695   5.604   3.019   2.708
 1932SOL    HW2 6696   5.638   2.873   2.642
 1933SOL     OW 6697   2.575   4.478   1.168
 1933SOL    HW1 6698   2.666   4.508   1.138
 1933SOL    HW2 6699   2.539   4.544   1.234
 1934SOL     OW 6700   0.388   6.295   4.825
 1934SOL    HW1 6701   0.356   6.371   4.882
 1934SOL    HW2 6702   0.441   6.331   4.749
 1935SOL     OW 6703   2.500   1.229   3.850
 1935SOL    HW1 6704   2.418   1.283   3.868
 1935SOL    HW2 6705   2.520   1.171   3.929
 1936SOL     OW 6706   6.656   6.075   5.889
 1936SOL    HW1 6707   6.683   6.051   5.795
 1936SOL    HW2 6708   6.706   6.158   5.917
 1937SOL     OW 6709   4.731   0.431   2.603
 1937SOL    HW1 6710   4.654   0.380   2.640
 1937SOL    HW2 6711   4.723   0.527   2.630
 1938SOL     OW 6712   5.443   0.512   3.683
 1938SOL    HW1 6713   5.461   0.518   3.585
 1938SOL    HW2 6714   5.345   0.520   3.700
 1939SOL     OW 6715   2.212   0.566   3.186
 1939SOL    HW1 6716   2.119   0.550   3.153
 1939SOL    HW2 6717   2.272   0.584   3.108
 1940SOL     OW 6718   6.536   5.313   0.114
 1940SOL    HW1 6719   6.505   5.368   0.036
 1940SOL    HW2 6720   6.530   5.216   0.089
 1941SOL     OW 6721   5.302   5.070   3.237
 1941SOL    HW1 6722   5.269   4.988   3.283
 1941SOL    HW2 6723   5.278   5.066   3.140
 1942SOL     OW 6724   6.555   5.116   3.107
 1942SOL    HW1 6725   6.554   5.121   3.207
 1942SOL    HW2 6726   6.465   5.143   3.072
 1943SOL     OW 6727   3.342   5.430   2.234
 1943SOL    HW1 6728   3.438   5.434   2.264
 1943SOL    HW2 6729   3.293   5.508   2.273
 1944SOL     OW 6730   6.723   0.767   1.686
 1944SOL    HW1 6731   6.676   0.692   1.640
 1944SOL    HW2 6732   6.656   0.826   1.730
 1945SOL     OW 6733   2.798   4.957   4.078
 1945SOL    HW1 6734   2.725   4.962   4.010
 1945SOL    HW2 6735   2.819   5.049   4.112
 1946SOL     OW 6736   1.935   0.400   6.985
 1946SOL    HW1 6737   1.984   0.347   6.916
 1946SOL    HW2 6738   1.962   0.496   6.978
 1947SOL     OW 6739   5.513   6.777   4.002
 1947SOL    HW1 6740   5.582   6.727   4.055
 1947SOL    HW2 6741   5.511   6.872   4.031
 1948SOL     OW 6742   6.215   4.120   5.964
 1948SOL    HW1 6743   6.312   4.141   5.970
 1948SOL    HW2 6744   6.197   4.033   6.009
 1949SOL     OW 6745   5.399   3.905   6.806
 1949SOL    HW1 6746   5.465   3.925   6.878
 1949SOL    HW2 6747   5.308   3.895   6.846
 1950SOL     OW 6748   2.807   4.452   0.900
 1950SOL    HW1 6749   2.734   4.389   0.924
 1950SOL    HW2 6750   2.807   4.529   0.964
 1951SOL     OW 6751   6.803   2.350   0.094
 1951SOL    HW1 6752   6.867   2.290   0.143
 1951SOL    HW2 6753   6.736   2.386   0.158
 1952SOL     OW 6754   4.069   2.202   5.508
 1952SOL    HW1 6755   4.138   2.148   5.555
 1952SOL    HW2 6756   4.112   2.255   5.435
 1953SOL     OW 6757   0.204   3.295   5.352
 1953SOL    HW1 6758   0.261   3.218   5.380
 1953SOL    HW2 6759   0.261   3.376   5.339
 1954SOL     OW 6760   2.196   1.948   3.726
 1954SOL    HW1 6761   2.151   1.990   3.804
 1954SOL    HW2 6762   2.149   1.863   3.701
 1955SOL     OW 6763   6.481   5.931   2.350
 1955SOL    HW1 6764   6.429   5.982   2.419
 1955SOL    HW2 6765   6.569   5.903   2.389
 1956SOL     OW 6766   6.089   6.733   2.513
 1956SOL    HW1 6767   6.062   6.657   2.572
 1956SOL    HW2 6768   6.052   6.719   2.422
 1957SOL     OW 6769   0.734   6.976   5.302
 1957SOL    HW1 6770   0.824   6.988   5.344
 1957SOL    HW2 6771   0.745   6.953   5.205
 1958SOL     OW 6772   4.844   3.346   6.033
 1958SOL    HW1 6773   4.799   3.388   5.954
 1958SOL    HW2 6774   4.942   3.338   6.016
 1959SOL     OW 6775   1.753   2.044   6.629
 1959SOL    HW1 6776   1.777   1.999   6.543
 1959SOL    HW2 6777   1.714   2.135   6.610
 1960SOL     OW 6778   5.063   6.588   1.802
 1960SOL    HW1 6779   5.001   6.539   1.742
 1960SOL    HW2 6780   5.063   6.545   1.892
 1961SOL     OW 6781   6.122   5.219   4.417
 1961SOL    HW1 6782   6.109   5.317   4.426
 1961SOL    HW2 6783   6.112   5.176   4.507
 1962SOL     OW 6784   0.268   6.305   3.208
 1962SOL    HW1 6785   0.173   6.301   3.176
 1962SOL    HW2 6786   0.304   6.212   3.220
 1963SOL     OW 6787   1.526   0.098   2.768
 1963SOL    HW1 6788   1.514   0.084   2.866
 1963SOL    HW2 6789   1.472   0.031   2.717
 1964SOL     OW 6790   5.389   4.052   2.685
 1964SOL    HW1 6791   5.462   4.069   2.752
 1964SOL    HW2 6792   5.375   3.954   2.674
 1965SOL     OW 6793   2.232   5.387   3.584
 1965SOL    HW1 6794   2.277   5.331   3.653
 1965SOL    HW2 6795   2.266   5.481   3.591
 1966SOL     OW 6796   6.355   5.782   5.860
 1966SOL    HW1 6797   6.382   5.851   5.927
 1966SOL    HW2 6798   6.267   5.742   5.887
 1967SOL     OW 6799   4.600   2.473   4.766
 1967SOL    HW1 6800   4.558   2.406   4.706
 1967SOL    HW2 6801   4.563   2.463   4.858
 1968SOL     OW 6802   3.251   5.388   5.589
 1968SOL    HW1 6803   3.209   5.327   5.657
 1968SOL    HW2 6804   3.225   5.482   5.609
 1969SOL     OW 6805   6.493   2.510   1.580
 1969SOL    HW1 6806   6.412   2.569   1.585
 1969SOL    HW2 6807   6.506   2.464   1.668
 1970SOL     OW 6808   2.073   0.372   3.460
 1970SOL    HW1 6809   2.029   0.336   3.542
 1970SOL    HW2 6810   2.112   0.462   3.480
 1971SOL     OW 6811   0.414   0.028   6.049
 1971SOL    HW1 6812   0.316   0.038   6.064
 1971SOL    HW2 6813   0.464   0.071   6.125
 1972SOL     OW 6814   1.162   4.568   4.388
 1972SOL    HW1 6815   1.190   4.571   4.484
 1972SOL    HW2 6816   1.108   4.485   4.372
 1973SOL     OW 6817   2.771   3.127   0.599
 1973SOL    HW1 6818   2.846   3.186   0.631
 1973SOL    HW2 6819   2.685   3.177   0.605
 1974SOL     OW 6820   5.713   0.687   4.289
 1974SOL    HW1 6821   5.659   0.770   4.275
 1974SOL    HW2 6822   5.733   0.645   4.200
 1975SOL     OW 6823   3.215   1.068   3.426
 1975SOL    HW1 6824   3.227   1.160   3.464
 1975SOL    HW2 6825   3.290   1.009   3.456
 1976SOL     OW 6826   6.875   4.858   0.230
 1976SOL    HW1 6827   6.968   4.823   0.232
 1976SOL    HW2 6828   6.819   4.803   0.168
 1977SOL     OW 6829   2.009   2.928   4.989
 1977SOL    HW1 6830   2.038   2.900   5.081
 1977SOL    HW2 6831   1.937   2.996   4.997
 1978SOL     OW 6832   6.770   1.424   4.979
 1978SOL    HW1 6833   6.775   1.329   5.010
 1978SOL    HW2 6834   6.855   1.471   5.002
 1979SOL     OW 6835   6.172   5.262   3.644
 1979SOL    HW1 6836   6.144   5.281   3.550
 1979SOL    HW2 6837   6.237   5.333   3.674
 1980SOL     OW 6838   4.240   0.267   1.429
 1980SOL    HW1 6839   4.275   0.178   1.399
 1980SOL    HW2 6840   4.197   0.314   1.352
 1981SOL     OW 6841   4.732   3.095   1.646
 1981SOL    HW1 6842   4.672   3.116   1.724
 1981SOL    HW2 6843   4.774   3.006   1.659
 1982SOL     OW 6844   5.651   6.897   4.654
 1982SOL    HW1 6845   5.555   6.900   4.628
 1982SOL    HW2 6846   5.659   6.869   4.749
 1983SOL     OW 6847   0.796   3.526   2.895
 1983SOL    HW1 6848   0.834   3.559   2.982
 1983SOL    HW2 6849   0.860   3.461   2.853
 1984SOL     OW 6850   4.120   0.427   5.974
 1984SOL    HW1 6851   4.177   0.397   5.898
 1984SOL    HW2 6852   4.167   0.500   6.024
 1985SOL     OW 6853   1.519   0.190   1.447
 1985SOL    HW1 6854   1.427   0.150   1.442
 1985SOL    HW2 6855   1.513   0.280   1.490
 1986SOL     OW 6856   1.142   1.840   6.224
 1986SOL    HW1 6857   1.191   1.773   6.169
 1986SOL    HW2 6858   1.095   1.905   6.164
 1987SOL     OW 6859   2.704   3.461   6.355
 1987SOL    HW1 6860   2.804   3.467   6.357
 1987SOL    HW2 6861   2.668   3.489   6.444
 1988SOL     OW 6862   5.068   2.950   0.522
 1988SOL    HW1 6863   5.138   2.936   0.592
 1988SOL    HW2 6864   4.980   2.918   0.557
 1989SOL     OW 6865   2.599   0.462   4.376
 1989SOL    HW1 6866   2.644   0.440   4.290
 1989SOL    HW2 6867   2.554   0.551   4.368
 1990SOL     OW 6868   2.527   1.034   2.399
 1990SOL    HW1 6869   2.475   1.045   2.315
 1990SOL    HW2 6870   2.624   1.017   2.377
 1991SOL     OW 6871   3.945   5.448   4.427
 1991SOL    HW1 6872   4.000   5.531   4.416
 1991SOL    HW2 6873   3.909   5.445   4.520
 1992SOL     OW 6874   2.213   6.563   5.399
 1992SOL    HW1 6875   2.261   6.589   5.483
 1992SOL    HW2 6876   2.245   6.619   5.323
 1993SOL     OW 6877   3.881   3.282   5.316
 1993SOL    HW1 6878   3.828   3.333   5.248
 1993SOL    HW2 6879   3.971   3.323   5.326
 1994SOL     OW 6880   6.343   2.397   2.201
 1994SOL    HW1 6881   6.313   2.366   2.291
 1994SOL    HW2 6882   6.282   2.361   2.131
 1995SOL     OW 6883   5.191   2.516   1.325
 1995SOL    HW1 6884   5.284   2.482   1.311
 1995SOL    HW2 6885   5.143   2.457   1.390
 1996SOL     OW 6886   2.923   4.396   7.025
 1996SOL    HW1 6887   2.922   4.492   0.022
 1996SOL    HW2 6888   3.015   4.370   6.994
 1997SOL     OW 6889   5.630   1.018   3.736
 1997SOL    HW1 6890   5.543   1.027   3.784
 1997SOL    HW2 6891   5.622   0.945   3.667
 1998SOL     OW 6892   3.069   4.854   5.131
 1998SOL    HW1 6893   2.979   4.847   5.174
 1998SOL    HW2 6894   3.094   4.766   5.091
 1999SOL     OW 6895   1.711   0.937   2.368
 1999SOL    HW1 6896   1.772   0.909   2.443
 1999SOL    HW2 6897   1.662   1.020   2.395
 2000SOL     OW 6898   3.892   2.109   4.712
 2000SOL    HW1 6899   3.940   2.192   4.741
 2000SOL    HW2 6900   3.797   2.132   4.690
 2001SOL     OW 6901   3.349   2.709   0.482
 2001SOL    HW1 6902   3.314   2.785   0.426
 2001SOL    HW2 6903   3.279   2.638   0.489
 2002SOL     OW 6904   1.743   4.739   4.741
 2002SOL    HW1 6905   1.799   4.676   4.794
 2002SOL    HW2 6906   1.741   4.709   4.645
 2003SOL     OW 6907   6.220   5.770   3.763
 2003SOL    HW1 6908   6.319   5.780   3.776
 2003SOL    HW2 6909   6.201   5.682   3.719
 2004SOL     OW 6910   3.260   0.734   6.038
 2004SOL    HW1 6911   3.167   0.727   6.074
 2004SOL    HW2 6912   3.296   0.826   6.055
 2005SOL     OW 6913   3.134   6.218   5.892
 2005SOL    HW1 6914   3.160   6.164   5.972
 2005SOL    HW2 6915   3.198   6.295   5.881
 2006SOL     OW 6916   3.898   4.845   3.804
 2006SOL    HW1 6917   3.920   4.829   3.900
 2006SOL    HW2 6918   3.872   4.941   3.791
 2007SOL     OW 6919   6.022   5.143   0.380
 2007SOL    HW1 6920   5.939   5.162   0.328
 2007SOL    HW2 6921   6.011   5.176   0.474
 2008SOL     OW 6922   0.434   5.767   3.876
 2008SOL    HW1 6923   0.424   5.678   3.920
 2008SOL    HW2 6924   0.519   5.810   3.906
 2009SOL     OW 6925   0.773   0.332   1.860
 2009SOL    HW1 6926   0.858   0.360   1.905
 2009SOL    HW2 6927   0.794   0.279   1.778
 2010SOL     OW 6928   1.739   6.901   0.834
 2010SOL    HW1 6929   1.684   6.854   0.765
 2010SOL    HW2 6930   1.688   6.980   0.869
 2011SOL     OW 6931   6.960   2.586   5.382
 2011SOL    HW1 6932   6.894   2.510   5.376
 2011SOL    HW2 6933   6.997   2.591   5.474
 2012SOL     OW 6934   0.984   3.710   1.232
 2012SOL    HW1 6935   0.903   3.651   1.227
 2012SOL    HW2 6936   0.957   3.801   1.264
 2013SOL     OW 6937   4.147   1.495   2.148
 2013SOL    HW1 6938   4.232   1.537   2.114
 2013SOL    HW2 6939   4.108   1.437   2.076
 2014SOL     OW 6940   2.608   5.904   3.633
 2014SOL    HW1 6941   2.693   5.920   3.584
 2014SOL    HW2 6942   2.530   5.926   3.574
 2015SOL     OW 6943   3.242   6.857   6.808
 2015SOL    HW1 6944   3.311   6.832   6.876
 2015SOL    HW2 6945   3.286   6.886   6.724
 2016SOL     OW 6946   6.650   5.004   3.979
 2016SOL    HW1 6947   6.643   4.911   3.943
 2016SOL    HW2 6948   6.745   5.021   4.007
 2017SOL     OW 6949   2.844   5.683   2.285
 2017SOL    HW1 6950   2.942   5.666   2.298
 2017SOL    HW2 6951   2.814   5.756   2.346
 2018SOL     OW 6952   0.769   5.233   5.632
 2018SOL    HW1 6953   0.780   5.136   5.654
 2018SOL    HW2 6954   0.812   5.288   5.704
 2019SOL     OW 6955   6.275   1.664   2.302
 2019SOL    HW1 6956   6.336   1.716   2.241
 2019SOL    HW2 6957   6.287   1.566   2.286
 2020SOL     OW 6958   2.265   6.132   3.118
 2020SOL    HW1 6959   2.270   6.036   3.090
 2020SOL    HW2 6960   2.176   6.150   3.159
 2021SOL     OW 6961   1.019   6.629   1.613
 2021SOL    HW1 6962   1.056   6.610   1.704
 2021SOL    HW2 6963   1.046   6.721   1.585
 2022SOL     OW 6964   2.472   3.857   1.282
 2022SOL    HW1 6965   2.544   3.819   1.225
 2022SOL    HW2 6966   2.453   3.952   1.254
 2023SOL     OW 6967   6.867   0.821   5.799
 2023SOL    HW1 6968   6.959   0.818   5.760
 2023SOL    HW2 6969   6.805   0.766   5.742
 2024SOL     OW 6970   5.766   1.161   3.506
 2024SOL    HW1 6971   5.676   1.132   3.475
 2024SOL    HW2 6972   5.756   1.214   3.590
 2025SOL     OW 6973   6.729   0.999   1.336
 2025SOL    HW1 6974   6.633   1.026   1.332
 2025SOL    HW2 6975   6.757   0.990   1.432
 2026SOL     OW 6976   1.647   1.723   5.504
 2026SOL    HW1 6977   1.568   1.747   5.447
 2026SOL    HW2 6978   1.638   1.629   5.536
 2027SOL     OW 6979   0.622   1.284   2.687
 2027SOL    HW1 6980   0.553   1.212   2.678
 2027SOL    HW2 6981   0.594   1.364   2.635
 2028SOL     OW 6982   4.064   2.772   6.865
 2028SOL    HW1 6983   4.079   2.790   6.768
 2028SOL    HW2 6984   3.998   2.837   6.902
 2029SOL     OW 6985   1.548   0.376   0.167
 2029SOL    HW1 6986   1.539   0.280   0.144
 2029SOL    HW2 6987   1.467   0.426   0.135
 2030SOL     OW 6988   1.821   0.818   3.320
 2030SOL    HW1 6989   1.773   0.876   3.254
 2030SOL    HW2 6990   1.791   0.723   3.309
 2031SOL     OW 6991   4.876   6.942   2.474
 2031SOL    HW1 6992   4.919   0.005   2.471
 2031SOL    HW2 6993   4.947   6.872   2.464
 2032SOL     OW 6994   5.061   6.613   1.282
 2032SOL    HW1 6995   5.079   6.540   1.215
 2032SOL    HW2 6996   5.142   6.623   1.341
 2033SOL     OW 6997   5.777   5.163   0.198
 2033SOL    HW1 6998   5.720   5.232   0.154
 2033SOL    HW2 6999   5.723   5.113   0.266
 2034SOL     OW 7000   2.061   0.490   2.849
 2034SOL    HW1 7001   2.019   0.454   2.932
 2034SOL    HW2 7002   2.027   0.440   2.769
 2035SOL     OW 7003   1.285   2.936   2.030
 2035SOL    HW1 7004   1.254   2.908   2.121
 2035SOL    HW2 7005   1.241   3.022   2.005
 2036SOL     OW 7006   1.687   4.682   0.666
 2036SOL    HW1 7007   1.636   4.750   0.718
 2036SOL    HW2 7008   1.679   4.593   0.710
 2037SOL     OW 7009   0.045   1.406   6.248
 2037SOL    HW1 7010   0.030   1.504   6.244
 2037SOL    HW2 7011   7.014   1.366   6.319
 2038SOL     OW 7012   0.616   0.832   4.875
 2038SOL    HW1 7013   0.560   0.774   4.816
 2038SOL    HW2 7014   0.582   0.826   4.969
 2039SOL     OW 7015   0.840   5.845   2.416
 2039SOL    HW1 7016   0.774   5.917   2.396
 2039SOL    HW2 7017   0.884   5.815   2.332
 2040SOL     OW 7018   4.047   3.370   4.825
 2040SOL    HW1 7019   4.076   3.362   4.730
 2040SOL    HW2 7020   3.947   3.372   4.829
 2041SOL     OW 7021   5.970   4.311   6.038
 2041SOL    HW1 7022   6.026   4.247   6.091
 2041SOL    HW2 7023   6.027   4.356   5.970
 2042SOL     OW 7024   3.952   5.421   6.842
 2042SOL    HW1 7025   3.975   5.498   6.782
 2042SOL    HW2 7026   4.023   5.350   6.835
 2043SOL     OW 7027   5.021   4.632   2.206
 2043SOL    HW1 7028   5.015   4.560   2.137
 2043SOL    HW2 7029   4.931   4.649   2.245
 2044SOL     OW 7030   6.590   0.651   1.499
 2044SOL    HW1 7031   6.603   0.566   1.449
 2044SOL    HW2 7032   6.534   0.714   1.445
 2045SOL     OW 7033   1.893   5.264   6.225
 2045SOL    HW1 7034   1.854   5.295   6.139
 2045SOL    HW2 7035   1.980   5.217   6.207
 2046SOL     OW 7036   6.050   0.467   5.084
 2046SOL    HW1 7037   5.990   0.483   5.006
 2046SOL    HW2 7038   6.084   0.554   5.118
 2047SOL     OW 7039   5.361   2.681   0.159
 2047SOL    HW1 7040   5.312   2.594   0.156
 2047SOL    HW2 7041   5.456   2.665   0.184
 2048SOL     OW 7042   4.402   0.199   5.586
 2048SOL    HW1 7043   4.368   0.120   5.637
 2048SOL    HW2 7044   4.486   0.174   5.538
 2049SOL     OW 7045   5.084   0.076   0.263
 2049SOL    HW1 7046   5.018   0.004   0.239
 2049SOL    HW2 7047   5.162   0.071   0.201
 2050SOL     OW 7048   5.863   2.273   4.107
 2050SOL    HW1 7049   5.845   2.253   4.011
 2050SOL    HW2 7050   5.849   2.189   4.161
 2051SOL     OW 7051   1.794   5.064   0.653
 2051SOL    HW1 7052   1.726   5.061   0.580
 2051SOL    HW2 7053   1.840   5.153   0.652
 2052SOL     OW 7054   0.921   3.435   0.303
 2052SOL    HW1 7055   0.984   3.500   0.346
 2052SOL    HW2 7056   0.971   3.351   0.282
 2053SOL     OW 7057   5.594   0.569   0.347
 2053SOL    HW1 7058   5.664   0.570   0.275
 2053SOL    HW2 7059   5.611   0.643   0.411
 2054SOL     OW 7060   6.043   2.754   0.921
 2054SOL    HW1 7061   6.018   2.685   0.853
 2054SOL    HW2 7062   6.097   2.826   0.877
 2055SOL     OW 7063   5.616   2.987   4.014
 2055SOL    HW1 7064   5.658   3.043   4.085
 2055SOL    HW2 7065   5.538   2.938   4.053
 2056SOL     OW 7066   1.429   0.902   3.278
 2056SOL    HW1 7067   1.375   0.935   3.356
 2056SOL    HW2 7068   1.386   0.820   3.240
 2057SOL     OW 7069   0.198   2.634   4.301
 2057SOL    HW1 7070   0.281   2.605   4.350
 2057SOL    HW2 7071   0.163   2.718   4.343
 2058SOL     OW 7072   6.805   2.091   1.952
 2058SOL    HW1 7073   6.892   2.140   1.948
 2058SOL    HW2 7074   6.793   2.038   1.868
 2059SOL     OW 7075   1.582   1.553   6.884
 2059SOL    HW1 7076   1.524   1.588   6.810
 2059SOL    HW2 7077   1.610   1.628   6.943
 2060SOL     OW 7078   0.945   5.203   2.589
 2060SOL    HW1 7079   0.968   5.279   2.650
 2060SOL    HW2 7080   0.847   5.208   2.566
 2061SOL     OW 7081   6.699   1.648   1.815
 2061SOL    HW1 7082   6.746   1.645   1.903
 2061SOL    HW2 7083   6.613   1.598   1.821
 2062SOL     OW 7084   4.375   0.690   3.288
 2062SOL    HW1 7085   4.345   0.724   3.377
 2062SOL    HW2 7086   4.307   0.625   3.253
 2063SOL     OW 7087   2.191   2.606   6.539
 2063SOL    HW1 7088   2.233   2.516   6.526
 2063SOL    HW2 7089   2.119   2.600   6.608
 2064SOL     OW 7090   0.726   2.470   0.063
 2064SOL    HW1 7091   0.725   2.484   6.992
 2064SOL    HW2 7092   0.705   2.375   0.084
 2065SOL     OW 7093   6.256   3.307   2.112
 2065SOL    HW1 7094   6.328   3.368   2.146
 2065SOL    HW2 7095   6.285   3.265   2.026
 2066SOL     OW 7096   1.592   6.463   4.446
 2066SOL    HW1 7097   1.565   6.553   4.479
 2066SOL    HW2 7098   1.690   6.464   4.423
 2067SOL     OW 7099   6.699   0.053   1.428
 2067SOL    HW1 7100   6.709   6.990   1.386
 2067SOL    HW2 7101   6.736   0.052   1.520
 2068SOL     OW 7102   1.818   1.917   5.016
 2068SOL    HW1 7103   1.904   1.901   5.064
 2068SOL    HW2 7104   1.804   2.015   5.004
 2069SOL     OW 7105   0.535   2.082   1.676
 2069SOL    HW1 7106   0.505   2.107   1.768
 2069SOL    HW2 7107   0.630   2.110   1.662
 2070SOL     OW 7108   0.870   1.157   2.727
 2070SOL    HW1 7109   0.919   1.169   2.641
 2070SOL    HW2 7110   0.776   1.191   2.717
 2071SOL     OW 7111   1.574   6.720   4.455
 2071SOL    HW1 7112   1.599   6.814   4.481
 2071SOL    HW2 7113   1.529   6.722   4.366
 2072SOL     OW 7114   5.030   5.369   1.551
 2072SOL    HW1 7115   5.120   5.398   1.518
 2072SOL    HW2 7116   5.000   5.431   1.624
 2073SOL     OW 7117   2.749   6.787   6.009
 2073SOL    HW1 7118   2.689   6.863   5.989
 2073SOL    HW2 7119   2.736   6.757   6.104
 2074SOL     OW 7120   5.605   1.228   2.076
 2074SOL    HW1 7121   5.521   1.276   2.102
 2074SOL    HW2 7122   5.680   1.294   2.066
 2075SOL     OW 7123   4.607   3.785   6.602
 2075SOL    HW1 7124   4.685   3.727   6.578
 2075SOL    HW2 7125   4.528   3.759   6.547
 2076SOL     OW 7126   4.907   0.310   1.206
 2076SOL    HW1 7127   4.885   0.335   1.111
 2076SOL    HW2 7128   4.998   0.271   1.209
 2077SOL     OW 7129   5.662   0.667   2.554
 2077SOL    HW1 7130   5.564   0.647   2.554
 2077SOL    HW2 7131   5.703   0.634   2.639
 2078SOL     OW 7132   3.188   5.352   5.308
 2078SOL    HW1 7133   3.266   5.317   5.256
 2078SOL    HW2 7134   3.219   5.376   5.401
 2079SOL     OW 7135   5.425   1.194   3.969
 2079SOL    HW1 7136   5.502   1.257   3.957
 2079SOL    HW2 7137   5.370   1.191   3.886
 2080SOL     OW 7138   2.709   2.320   4.263
 2080SOL    HW1 7139   2.734   2.344   4.169
 2080SOL    HW2 7140   2.790   2.286   4.311
 2081SOL     OW 7141   0.731   6.771   5.095
 2081SOL    HW1 7142   0.662   6.749   5.026
 2081SOL    HW2 7143   0.766   6.686   5.134
 2082SOL     OW 7144   5.550   0.667   1.521
 2082SOL    HW1 7145   5.477   0.599   1.522
 2082SOL    HW2 7146   5.516   0.752   1.482
 2083SOL     OW 7147   3.136   5.621   5.658
 2083SOL    HW1 7148   3.089   5.684   5.720
 2083SOL    HW2 7149   3.122   5.652   5.563
 2084SOL     OW 7150   6.978   2.691   3.384
 2084SOL    HW1 7151   0.001   2.776   3.382
 2084SOL    HW2 7152   7.020   2.628   3.450
 2085SOL     OW 7153   5.468   6.987   5.985
 2085SOL    HW1 7154   5.473   0.057   6.003
 2085SOL    HW2 7155   5.438   6.939   6.067
 2086SOL     OW 7156   3.035   5.157   0.718
 2086SOL    HW1 7157   3.132   5.137   0.732
 2086SOL    HW2 7158   3.019   5.255   0.734
 2087SOL     OW 7159   4.974   0.158   3.979
 2087SOL    HW1 7160   5.037   0.103   4.033
 2087SOL    HW2 7161   5.006   0.253   3.978
 2088SOL     OW 7162   3.192   0.068   0.590
 2088SOL    HW1 7163   3.283   0.045   0.627
 2088SOL    HW2 7164   3.127   7.026   0.617
 2089SOL     OW 7165   3.953   0.521   6.885
 2089SOL    HW1 7166   3.973   0.509   6.788
 2089SOL    HW2 7167   4.031   0.564   6.930
 2090SOL     OW 7168   3.420   3.277   4.523
 2090SOL    HW1 7169   3.387   3.214   4.594
 2090SOL    HW2 7170   3.518   3.293   4.536
 2091SOL     OW 7171   2.033   4.735   0.954
 2091SOL    HW1 7172   1.985   4.745   0.866
 2091SOL    HW2 7173   2.022   4.819   1.007
 2092SOL     OW 7174   6.228   6.295   0.625
 2092SOL    HW1 7175   6.258   6.228   0.557
 2092SOL    HW2 7176   6.217   6.385   0.581
 2093SOL     OW 7177   1.225   2.761   1.585
 2093SOL    HW1 7178   1.142   2.705   1.583
 2093SOL    HW2 7179   1.278   2.738   1.666
 2094SOL     OW 7180   5.926   6.934   2.317
 2094SOL    HW1 7181   5.968   6.843   2.311
 2094SOL    HW2 7182   5.941   6.972   2.408
 2095SOL     OW 7183   6.260   5.055   5.039
 2095SOL    HW1 7184   6.314   5.136   5.064
 2095SOL    HW2 7185   6.164   5.072   5.059
 2096SOL     OW 7186   4.680   4.394   2.799
 2096SOL    HW1 7187   4.751   4.330   2.828
 2096SOL    HW2 7188   4.702   4.429   2.708
 2097SOL     OW 7189   0.319   2.638   0.341
 2097SOL    HW1 7190   0.351   2.695   0.265
 2097SOL    HW2 7191   0.282   2.697   0.413
 2098SOL     OW 7192   4.366   0.535   4.252
 2098SOL    HW1 7193   4.288   0.584   4.211
 2098SOL    HW2 7194   4.351   0.437   4.245
 2099SOL     OW 7195   3.134   1.938   4.215
 2099SOL    HW1 7196   3.141   1.840   4.194
 2099SOL    HW2 7197   3.073   1.952   4.292
 2100SOL     OW 7198   4.632   4.062   6.625
 2100SOL    HW1 7199   4.648   3.963   6.619
 2100SOL    HW2 7200   4.687   4.108   6.555
 2101SOL     OW 7201   6.997   7.018   3.799
 2101SOL    HW1 7202   6.947   6.935   3.824
 2101SOL    HW2 7203   6.946   0.070   3.833
 2102SOL     OW 7204   0.237   4.959   2.418
 2102SOL    HW1 7205   0.170   4.898   2.459
 2102SOL    HW2 7206   0.201   4.996   2.333
 2103SOL     OW 7207   3.462   3.919   6.421
 2103SOL    HW1 7208   3.507   3.992   6.472
 2103SOL    HW2 7209   3.525   3.842   6.410
 2104SOL     OW 7210   1.143   3.632   5.610
 2104SOL    HW1 7211   1.228   3.672   5.575
 2104SOL    HW2 7212   1.144   3.631   5.710
 2105SOL     OW 7213   5.829   5.576   1.604
 2105SOL    HW1 7214   5.802   5.569   1.700
 2105SOL    HW2 7215   5.925   5.604   1.598
 2106SOL     OW 7216   4.769   5.637   6.878
 2106SOL    HW1 7217   4.860   5.632   6.837
 2106SOL    HW2 7218   4.778   5.639   6.978
 2107SOL     OW 7219   4.152   4.181   6.316
 2107SOL    HW1 7220   4.215   4.137   6.253
 2107SOL    HW2 7221   4.062   4.188   6.273
 2108SOL     OW 7222   5.494   4.986   6.156
 2108SOL    HW1 7223   5.588   4.972   6.188
 2108SOL    HW2 7224   5.444   5.038   6.225
 2109SOL     OW 7225   5.632   6.857   3.022
 2109SOL    HW1 7226   5.670   6.855   3.115
 2109SOL    HW2 7227   5.533   6.846   3.027
 2110SOL     OW 7228   2.488   4.608   6.370
 2110SOL    HW1 7229   2.463   4.648   6.282
 2110SOL    HW2 7230   2.408   4.564   6.411
 2111SOL     OW 7231   1.022   2.814   0.090
 2111SOL    HW1 7232   0.969   2.839   0.171
 2111SOL    HW2 7233   1.051   2.897   0.042
 2112SOL     OW 7234   4.577   3.202   1.459
 2112SOL    HW1 7235   4.639   3.161   1.526
 2112SOL    HW2 7236   4.498   3.142   1.445
 2113SOL     OW 7237   0.098   0.604   2.573
 2113SOL    HW1 7238   0.122   0.673   2.506
 2113SOL    HW2 7239   0.118   0.638   2.665
 2114SOL     OW 7240   2.048   4.019   6.836
 2114SOL    HW1 7241   1.991   4.097   6.860
 2114SOL    HW2 7242   2.068   4.022   6.738
 2115SOL     OW 7243   2.485   4.910   2.359
 2115SOL    HW1 7244   2.561   4.846   2.363
 2115SOL    HW2 7245   2.416   4.885   2.427
 2116SOL     OW 7246   0.110   4.130   3.240
 2116SOL    HW1 7247   0.015   4.107   3.218
 2116SOL    HW2 7248   0.169   4.101   3.165
 2117SOL     OW 7249   0.439   5.033   0.729
 2117SOL    HW1 7250   0.391   5.120   0.734
 2117SOL    HW2 7251   0.373   4.958   0.728
 2118SOL     OW 7252   6.867   3.811   2.044
 2118SOL    HW1 7253   6.875   3.838   1.948
 2118SOL    HW2 7254   6.797   3.740   2.052
 2119SOL     OW 7255   2.884   6.300   1.359
 2119SOL    HW1 7256   2.873   6.355   1.276
 2119SOL    HW2 7257   2.794   6.271   1.392
 2120SOL     OW 7258   6.985   5.196   2.243
 2120SOL    HW1 7259   6.955   5.285   2.209
 2120SOL    HW2 7260   6.972   5.192   2.342
 2121SOL     OW 7261   0.773   5.166   4.807
 2121SOL    HW1 7262   0.828   5.155   4.889
 2121SOL    HW2 7263   0.682   5.197   4.832
 2122SOL     OW 7264   4.787   4.223   4.893
 2122SOL    HW1 7265   4.718   4.281   4.851
 2122SOL    HW2 7266   4.839   4.275   4.961
 2123SOL     OW 7267   6.250   4.762   3.475
 2123SOL    HW1 7268   6.202   4.682   3.510
 2123SOL    HW2 7269   6.191   4.842   3.483
 2124SOL     OW 7270   1.805   2.246   0.576
 2124SOL    HW1 7271   1.765   2.221   0.664
 2124SOL    HW2 7272   1.904   2.233   0.580
 2125SOL     OW 7273   3.018   6.875   0.755
 2125SOL    HW1 7274   3.019   6.788   0.803
 2125SOL    HW2 7275   2.931   6.885   0.706
 2126SOL     OW 7276   2.841   0.786   0.470
 2126SOL    HW1 7277   2.774   0.714   0.488
 2126SOL    HW2 7278   2.932   0.755   0.497
 2127SOL     OW 7279   5.422   3.449   5.080
 2127SOL    HW1 7280   5.376   3.530   5.116
 2127SOL    HW2 7281   5.436   3.460   4.981
 2128SOL     OW 7282   0.456   5.086   4.574
 2128SOL    HW1 7283   0.533   5.031   4.605
 2128SOL    HW2 7284   0.488   5.156   4.510
 2129SOL     OW 7285   3.949   2.001   5.875
 2129SOL    HW1 7286   4.048   1.995   5.860
 2129SOL    HW2 7287   3.927   1.960   5.964
 2130SOL     OW 7288   4.379   6.235   2.230
 2130SOL    HW1 7289   4.316   6.311   2.213
 2130SOL    HW2 7290   4.469   6.259   2.193
 2131SOL     OW 7291   6.756   1.965   0.404
 2131SOL    HW1 7292   6.667   1.952   0.360
 2131SOL    HW2 7293   6.744   2.022   0.486
 2132SOL     OW 7294   2.261   3.163   0.669
 2132SOL    HW1 7295   2.294   3.142   0.577
 2132SOL    HW2 7296   2.174   3.213   0.662
 2133SOL     OW 7297   3.170   2.519   5.897
 2133SOL    HW1 7298   3.133   2.564   5.816
 2133SOL    HW2 7299   3.114   2.544   5.977
 2134SOL     OW 7300   1.133   0.186   0.418
 2134SOL    HW1 7301   1.039   0.152   0.423
 2134SOL    HW2 7302   1.185   0.131   0.354
 2135SOL     OW 7303   0.541   3.681   3.957
 2135SOL    HW1 7304   0.442   3.676   3.968
 2135SOL    HW2 7305   0.579   3.588   3.962
 2136SOL     OW 7306   2.217   5.602   2.244
 2136SOL    HW1 7307   2.262   5.544   2.176
 2136SOL    HW2 7308   2.127   5.628   2.212
 2137SOL     OW 7309   2.314   5.669   3.865
 2137SOL    HW1 7310   2.401   5.640   3.905
 2137SOL    HW2 7311   2.240   5.651   3.930
 2138SOL     OW 7312   5.094   1.527   2.266
 2138SOL    HW1 7313   5.092   1.452   2.332
 2138SOL    HW2 7314   5.150   1.601   2.302
 2139SOL     OW 7315   2.614   0.809   5.551
 2139SOL    HW1 7316   2.626   0.779   5.456
 2139SOL    HW2 7317   2.553   0.746   5.598
 2140SOL     OW 7318   2.511   1.137   5.589
 2140SOL    HW1 7319   2.511   1.184   5.678
 2140SOL    HW2 7320   2.531   1.040   5.603
 2141SOL     OW 7321   6.393   4.492   2.579
 2141SOL    HW1 7322   6.410   4.393   2.576
 2141SOL    HW2 7323   6.377   4.519   2.674
 2142SOL     OW 7324   1.897   1.258   2.833
 2142SOL    HW1 7325   1.884   1.160   2.849
 2142SOL    HW2 7326   1.827   1.310   2.883
 2143SOL     OW 7327   1.547   4.756   0.393
 2143SOL    HW1 7328   1.571   4.705   0.476
 2143SOL    HW2 7329   1.596   4.843   0.392
 2144SOL     OW 7330   6.014   5.887   4.259
 2144SOL    HW1 7331   6.100   5.931   4.286
 2144SOL    HW2 7332   6.031   5.794   4.229
 2145SOL     OW 7333   4.346   0.103   3.464
 2145SOL    HW1 7334   4.309   0.182   3.415
 2145SOL    HW2 7335   4.435   0.126   3.503
 2146SOL     OW 7336   2.010   2.693   0.735
 2146SOL    HW1 7337   1.964   2.724   0.818
 2146SOL    HW2 7338   2.047   2.601   0.749
 2147SOL     OW 7339   5.910   0.863   4.802
 2147SOL    HW1 7340   5.868   0.839   4.890
 2147SOL    HW2 7341   5.854   0.826   4.727
 2148SOL     OW 7342   0.249   3.274   6.661
 2148SOL    HW1 7343   0.199   3.321   6.587
 2148SOL    HW2 7344   0.335   3.322   6.679
 2149SOL     OW 7345   0.441   0.149   0.013
 2149SOL    HW1 7346   0.490   0.208   0.078
 2149SOL    HW2 7347   0.346   0.140   0.042
 2150SOL     OW 7348   2.456   3.425   1.211
 2150SOL    HW1 7349   2.401   3.345   1.184
 2150SOL    HW2 7350   2.425   3.505   1.160
 2151SOL     OW 7351   1.195   5.526   0.392
 2151SOL    HW1 7352   1.153   5.555   0.478
 2151SOL    HW2 7353   1.294   5.515   0.405
 2152SOL     OW 7354   3.873   5.717   3.790
 2152SOL    HW1 7355   3.915   5.778   3.722
 2152SOL    HW2 7356   3.924   5.724   3.876
 2153SOL     OW 7357   4.669   1.377   3.449
 2153SOL    HW1 7358   4.749   1.362   3.508
 2153SOL    HW2 7359   4.586   1.380   3.505
 2154SOL     OW 7360   3.126   6.977   3.117
 2154SOL    HW1 7361   3.144   6.956   3.021
 2154SOL    HW2 7362   3.093   6.894   3.163
 2155SOL     OW 7363   4.977   6.857   1.123
 2155SOL    HW1 7364   4.925   6.914   1.186
 2155SOL    HW2 7365   5.005   6.773   1.170
 2156SOL     OW 7366   5.531   1.911   3.988
 2156SOL    HW1 7367   5.624   1.924   3.953
 2156SOL    HW2 7368   5.521   1.958   4.076
 2157SOL     OW 7369   3.503   5.774   4.044
 2157SOL    HW1 7370   3.408   5.795   4.024
 2157SOL    HW2 7371   3.546   5.731   3.965
 2158SOL     OW 7372   3.658   0.406   0.058
 2158SOL    HW1 7373   3.741   0.443   0.101
 2158SOL    HW2 7374   3.578   0.456   0.093
 2159SOL     OW 7375   1.217   0.537   5.655
 2159SOL    HW1 7376   1.248   0.446   5.627
 2159SOL    HW2 7377   1.117   0.537   5.663
 2160SOL     OW 7378   5.613   6.120   0.187
 2160SOL    HW1 7379   5.712   6.123   0.203
 2160SOL    HW2 7380   5.574   6.211   0.198
 2161SOL     OW 7381   1.267   2.563   2.501
 2161SOL    HW1 7382   1.176   2.524   2.512
 2161SOL    HW2 7383   1.275   2.646   2.555
 2162SOL     OW 7384   0.982   7.028   2.143
 2162SOL    HW1 7385   0.966   6.955   2.209
 2162SOL    HW2 7386   0.896   0.045   2.120
 2163SOL     OW 7387   1.604   3.131   2.464
 2163SOL    HW1 7388   1.571   3.193   2.535
 2163SOL    HW2 7389   1.629   3.043   2.505
 2164SOL     OW 7390   1.601   2.703   2.554
 2164SOL    HW1 7391   1.631   2.796   2.574
 2164SOL    HW2 7392   1.617   2.682   2.458
 2165SOL     OW 7393   0.229   1.610   3.900
 2165SOL    HW1 7394   0.179   1.555   3.968
 2165SOL    HW2 7395   0.224   1.706   3.925
 2166SOL     OW 7396   6.778   3.957   2.652
 2166SOL    HW1 7397   6.747   3.865   2.627
 2166SOL    HW2 7398   6.784   3.964   2.751
 2167SOL     OW 7399   2.663   1.943   3.735
 2167SOL    HW1 7400   2.612   2.005   3.795
 2167SOL    HW2 7401   2.744   1.909   3.783
 2168SOL     OW 7402   1.982   1.679   2.976
 2168SOL    HW1 7403   1.966   1.613   2.902
 2168SOL    HW2 7404   2.069   1.659   3.020
 2169SOL     OW 7405   0.509   0.381   1.813
 2169SOL    HW1 7406   0.503   0.334   1.725
 2169SOL    HW2 7407   0.603   0.376   1.847
 2170SOL     OW 7408   0.559   4.081   5.601
 2170SOL    HW1 7409   0.560   3.982   5.610
 2170SOL    HW2 7410   0.630   4.110   5.536
 2171SOL     OW 7411   0.538   5.378   1.587
 2171SOL    HW1 7412   0.614   5.390   1.650
 2171SOL    HW2 7413   0.462   5.333   1.634
 2172SOL     OW 7414   1.250   1.715   4.723
 2172SOL    HW1 7415   1.258   1.815   4.727
 2172SOL    HW2 7416   1.282   1.683   4.634
 2173SOL     OW 7417   5.682   0.263   5.060
 2173SOL    HW1 7418   5.684   0.355   5.021
 2173SOL    HW2 7419   5.731   0.264   5.148
 2174SOL     OW 7420   0.040   6.483   5.584
 2174SOL    HW1 7421   7.002   6.426   5.634
 2174SOL    HW2 7422   0.117   6.504   5.644
 2175SOL     OW 7423   2.863   4.010   5.262
 2175SOL    HW1 7424   2.815   4.096   5.278
 2175SOL    HW2 7425   2.925   4.020   5.184
 2176SOL     OW 7426   5.656   2.061   1.594
 2176SOL    HW1 7427   5.572   2.050   1.541
 2176SOL    HW2 7428   5.734   2.067   1.532
 2177SOL     OW 7429   0.354   0.209   3.763
 2177SOL    HW1 7430   0.383   0.305   3.766
 2177SOL    HW2 7431   0.414   0.154   3.820
 2178SOL     OW 7432   0.887   2.083   2.522
 2178SOL    HW1 7433   0.919   2.088   2.617
 2178SOL    HW2 7434   0.839   1.997   2.507
 2179SOL     OW 7435   1.420   4.261   6.273
 2179SOL    HW1 7436   1.472   4.187   6.232
 2179SOL    HW2 7437   1.334   4.225   6.310
 2180SOL     OW 7438   0.889   6.395   2.213
 2180SOL    HW1 7439   0.988   6.405   2.222
 2180SOL    HW2 7440   0.847   6.387   2.304
 2181SOL     OW 7441   4.067   4.807   4.512
 2181SOL    HW1 7442   4.133   4.748   4.465
 2181SOL    HW2 7443   4.007   4.851   4.444
 2182SOL     OW 7444   0.254   5.212   2.535
 2182SOL    HW1 7445   0.216   5.222   2.627
 2182SOL    HW2 7446   0.233   5.121   2.500
 2183SOL     OW 7447   3.362   2.787   0.074
 2183SOL    HW1 7448   3.267   2.757   0.082
 2183SOL    HW2 7449   3.396   2.815   0.164
 2184SOL     OW 7450   6.399   1.212   6.552
 2184SOL    HW1 7451   6.372   1.261   6.635
 2184SOL    HW2 7452   6.390   1.114   6.567
 2185SOL     OW 7453   0.706   0.624   0.056
 2185SOL    HW1 7454   0.699   0.673   6.997
 2185SOL    HW2 7455   0.796   0.580   0.063
 2186SOL     OW 7456   0.106   4.807   5.488
 2186SOL    HW1 7457   0.065   4.890   5.451
 2186SOL    HW2 7458   0.115   4.816   5.587
 2187SOL     OW 7459   0.374   5.569   3.164
 2187SOL    HW1 7460   0.398   5.516   3.082
 2187SOL    HW2 7461   0.447   5.560   3.232
 2188SOL     OW 7462   2.179   0.495   1.050
 2188SOL    HW1 7463   2.193   0.411   0.997
 2188SOL    HW2 7464   2.116   0.477   1.126
 2189SOL     OW 7465   2.671   1.933   1.247
 2189SOL    HW1 7466   2.726   1.900   1.323
 2189SOL    HW2 7467   2.707   1.896   1.161
 2190SOL     OW 7468   6.180   4.281   2.293
 2190SOL    HW1 7469   6.229   4.361   2.259
 2190SOL    HW2 7470   6.104   4.260   2.232
 2191SOL     OW 7471   2.888   0.340   0.455
 2191SOL    HW1 7472   2.831   0.371   0.380
 2191SOL    HW2 7473   2.962   0.283   0.420
 2192SOL     OW 7474   4.385   1.254   0.959
 2192SOL    HW1 7475   4.347   1.263   0.867
 2192SOL    HW2 7476   4.314   1.273   1.027
 2193SOL     OW 7477   1.242   6.454   6.151
 2193SOL    HW1 7478   1.209   6.491   6.237
 2193SOL    HW2 7479   1.340   6.473   6.142
 2194SOL     OW 7480   0.739   3.523   6.200
 2194SOL    HW1 7481   0.687   3.606   6.177
 2194SOL    HW2 7482   0.691   3.443   6.164
 2195SOL     OW 7483   0.620   4.043   6.229
 2195SOL    HW1 7484   0.554   4.053   6.155
 2195SOL    HW2 7485   0.706   4.008   6.192
 2196SOL     OW 7486   2.866   6.563   5.557
 2196SOL    HW1 7487   2.946   6.504   5.567
 2196SOL    HW2 7488   2.840   6.600   5.646
 2197SOL     OW 7489   2.868   5.164   5.626
 2197SOL    HW1 7490   2.779   5.176   5.583
 2197SOL    HW2 7491   2.924   5.102   5.571
 2198SOL     OW 7492   0.572   1.025   6.504
 2198SOL    HW1 7493   0.570   0.994   6.409
 2198SOL    HW2 7494   0.665   1.017   6.540
 2199SOL     OW 7495   4.497   6.421   4.439
 2199SOL    HW1 7496   4.417   6.436   4.381
 2199SOL    HW2 7497   4.508   6.499   4.502
 2200SOL     OW 7498   2.793   1.952   4.458
 2200SOL    HW1 7499   2.821   2.047   4.447
 2200SOL    HW2 7500   2.712   1.934   4.402
 2201SOL     OW 7501   6.206   4.012   3.672
 2201SOL    HW1 7502   6.145   3.940   3.640
 2201SOL    HW2 7503   6.224   4.000   3.770
 2202SOL     OW 7504   3.963   5.767   1.931
 2202SOL    HW1 7505   3.924   5.680   1.900
 2202SOL    HW2 7506   3.998   5.756   2.025
 2203SOL     OW 7507   2.142   3.440   0.912
 2203SOL    HW1 7508   2.063   3.379   0.925
 2203SOL    HW2 7509   2.194   3.445   0.997
 2204SOL     OW 7510   5.217   3.094   1.266
 2204SOL    HW1 7511   5.230   3.050   1.177
 2204SOL    HW2 7512   5.304   3.099   1.314
 2205SOL     OW 7513   0.790   5.092   0.389
 2205SOL    HW1 7514   0.861   5.129   0.450
 2205SOL    HW2 7515   0.703   5.087   0.439
 2206SOL     OW 7516   2.658   2.099   5.967
 2206SOL    HW1 7517   2.644   2.179   6.025
 2206SOL    HW2 7518   2.754   2.093   5.941
 2207SOL     OW 7519   4.998   6.039   0.704
 2207SOL    HW1 7520   5.093   6.058   0.731
 2207SOL    HW2 7521   4.941   6.031   0.785
 2208SOL     OW 7522   0.776   5.950   4.261
 2208SOL    HW1 7523   0.807   6.041   4.235
 2208SOL    HW2 7524   0.692   5.957   4.315
 2209SOL     OW 7525   3.143   5.724   4.234
 2209SOL    HW1 7526   3.220   5.662   4.250
 2209SOL    HW2 7527   3.134   5.787   4.311
 2210SOL     OW 7528   4.799   6.279   1.222
 2210SOL    HW1 7529   4.812   6.377   1.239
 2210SOL    HW2 7530   4.719   6.267   1.162
 2211SOL     OW 7531   0.192   1.565   0.926
 2211SOL    HW1 7532   0.115   1.566   0.990
 2211SOL    HW2 7533   0.162   1.601   0.838
 2212SOL     OW 7534   2.729   5.969   6.545
 2212SOL    HW1 7535   2.759   5.883   6.585
 2212SOL    HW2 7536   2.649   5.953   6.487
 2213SOL     OW 7537   3.423   2.081   4.402
 2213SOL    HW1 7538   3.436   1.984   4.380
 2213SOL    HW2 7539   3.385   2.089   4.494
 2214SOL     OW 7540   4.050   3.543   6.566
 2214SOL    HW1 7541   4.094   3.457   6.591
 2214SOL    HW2 7542   4.081   3.571   6.474
 2215SOL     OW 7543   4.526   0.014   6.590
 2215SOL    HW1 7544   4.541   0.038   6.686
 2215SOL    HW2 7545   4.514   0.097   6.536
 2216SOL     OW 7546   0.793   6.896   6.258
 2216SOL    HW1 7547   0.798   6.948   6.172
 2216SOL    HW2 7548   0.772   6.958   6.333
 2217SOL     OW 7549   3.988   0.272   3.410
 2217SOL    HW1 7550   4.015   0.277   3.314
 2217SOL    HW2 7551   3.959   0.363   3.441
 2218SOL     OW 7552   0.549   5.254   6.151
 2218SOL    HW1 7553   0.471   5.229   6.209
 2218SOL    HW2 7554   0.563   5.183   6.083
 2219SOL     OW 7555   5.497   0.836   0.753
 2219SOL    HW1 7556   5.490   0.880   0.842
 2219SOL    HW2 7557   5.517   0.739   0.765
 2220SOL     OW 7558   0.703   5.917   5.539
 2220SOL    HW1 7559   0.685   6.012   5.514
 2220SOL    HW2 7560   0.616   5.868   5.547
 2221SOL     OW 7561   6.881   1.245   3.745
 2221SOL    HW1 7562   6.894   1.326   3.803
 2221SOL    HW2 7563   6.786   1.213   3.755
 2222SOL     OW 7564   4.777   5.756   1.684
 2222SOL    HW1 7565   4.704   5.812   1.723
 2222SOL    HW2 7566   4.820   5.805   1.608
 2223SOL     OW 7567   6.896   6.311   5.701
 2223SOL    HW1 7568   6.865   6.230   5.651
 2223SOL    HW2 7569   6.875   6.299   5.798
 2224SOL     OW 7570   5.747   3.947   0.909
 2224SOL    HW1 7571   5.824   3.885   0.900
 2224SOL    HW2 7572   5.771   4.020   0.973
 2225SOL     OW 7573   0.397   6.952   3.350
 2225SOL    HW1 7574   0.357   0.013   3.326
 2225SOL    HW2 7575   0.326   6.882   3.345
 2226SOL     OW 7576   2.282   5.309   0.637
 2226SOL    HW1 7577   2.373   5.350   0.642
 2226SOL    HW2 7578   2.226   5.344   0.712
 2227SOL     OW 7579   4.238   1.953   2.123
 2227SOL    HW1 7580   4.175   1.881   2.154
 2227SOL    HW2 7581   4.208   2.041   2.160
 2228SOL     OW 7582   5.226   4.793   0.049
 2228SOL    HW1 7583   5.322   4.767   0.039
 2228SOL    HW2 7584   5.219   4.893   0.052
 2229SOL     OW 7585   3.517   3.580   4.209
 2229SOL    HW1 7586   3.576   3.660   4.199
 2229SOL    HW2 7587   3.457   3.592   4.288
 2230SOL     OW 7588   5.287   6.563   0.596
 2230SOL    HW1 7589   5.309   6.497   0.525
 2230SOL    HW2 7590   5.314   6.655   0.566
 2231SOL     OW 7591   1.250   0.206   6.730
 2231SOL    HW1 7592   1.325   0.252   6.682
 2231SOL    HW2 7593   1.163   0.242   6.696
 2232SOL     OW 7594   1.479   0.584   5.546
 2232SOL    HW1 7595   1.383   0.560   5.555
 2232SOL    HW2 7596   1.533   0.532   5.612
 2233SOL     OW 7597   2.721   4.060   0.665
 2233SOL    HW1 7598   2.707   3.961   0.662
 2233SOL    HW2 7599   2.762   4.085   0.752
 2234SOL     OW 7600   4.318   1.359   0.717
 2234SOL    HW1 7601   4.224   1.344   0.689
 2234SOL    HW2 7602   4.346   1.452   0.690
 2235SOL     OW 7603   2.279   1.020   2.719
 2235SOL    HW1 7604   2.322   1.070   2.794
 2235SOL    HW2 7605   2.263   1.081   2.642
 2236SOL     OW 7606   2.172   4.194   5.483
 2236SOL    HW1 7607   2.229   4.115   5.506
 2236SOL    HW2 7608   2.105   4.209   5.555
 2237SOL     OW 7609   6.156   4.777   5.091
 2237SOL    HW1 7610   6.205   4.703   5.045
 2237SOL    HW2 7611   6.209   4.862   5.084
 2238SOL     OW 7612   5.293   4.259   2.337
 2238SOL    HW1 7613   5.327   4.312   2.415
 2238SOL    HW2 7614   5.322   4.303   2.252
 2239SOL     OW 7615   3.925   6.853   3.551
 2239SOL    HW1 7616   4.024   6.850   3.563
 2239SOL    HW2 7617   3.901   6.921   3.482
 2240SOL     OW 7618   4.729   5.189   3.374
 2240SOL    HW1 7619   4.778   5.175   3.460
 2240SOL    HW2 7620   4.663   5.263   3.385
 2241SOL     OW 7621   0.349   0.152   1.960
 2241SOL    HW1 7622   0.335   0.204   2.044
 2241SOL    HW2 7623   0.371   0.214   1.885
 2242SOL     OW 7624   4.868   3.009   2.818
 2242SOL    HW1 7625   4.783   2.979   2.861
 2242SOL    HW2 7626   4.900   2.939   2.755
 2243SOL     OW 7627   1.453   6.504   0.750
 2243SOL    HW1 7628   1.409   6.518   0.661
 2243SOL    HW2 7629   1.411   6.565   0.817
 2244SOL     OW 7630   2.395   0.375   0.560
 2244SOL    HW1 7631   2.399   0.324   0.646
 2244SOL    HW2 7632   2.314   0.349   0.509
 2245SOL     OW 7633   0.569   0.435   0.203
 2245SOL    HW1 7634   0.620   0.485   0.133
 2245SOL    HW2 7635   0.486   0.487   0.226
 2246SOL     OW 7636   2.194   1.197   5.196
 2246SOL    HW1 7637   2.110   1.154   5.164
 2246SOL    HW2 7638   2.272   1.157   5.148
 2247SOL     OW 7639   3.203   4.064   2.687
 2247SOL    HW1 7640   3.153   4.018   2.614
 2247SOL    HW2 7641   3.297   4.081   2.658
 2248SOL     OW 7642   5.565   3.980   5.353
 2248SOL    HW1 7643   5.481   3.949   5.308
 2248SOL    HW2 7644   5.644   3.945   5.303
 2249SOL     OW 7645   2.330   6.797   3.839
 2249SOL    HW1 7646   2.329   6.707   3.795
 2249SOL    HW2 7647   2.404   6.852   3.802
 2250SOL     OW 7648   4.457   4.320   6.365
 2250SOL    HW1 7649   4.403   4.396   6.328
 2250SOL    HW2 7650   4.493   4.265   6.290
 2251SOL     OW 7651   5.257   6.881   5.737
 2251SOL    HW1 7652   5.316   6.938   5.681
 2251SOL    HW2 7653   5.294   6.788   5.741
 2252SOL     OW 7654   4.681   1.626   2.636
 2252SOL    HW1 7655   4.634   1.564   2.699
 2252SOL    HW2 7656   4.729   1.573   2.566
 2253SOL     OW 7657   0.538   3.513   0.697
 2253SOL    HW1 7658   0.569   3.522   0.792
 2253SOL    HW2 7659   0.457   3.454   0.695
 2254SOL     OW 7660   3.598   3.583   2.844
 2254SOL    HW1 7661   3.512   3.614   2.885
 2254SOL    HW2 7662   3.644   3.661   2.801
 2255SOL     OW 7663   2.990   4.120   5.738
 2255SOL    HW1 7664   2.997   4.167   5.650
 2255SOL    HW2 7665   3.072   4.141   5.793
 2256SOL     OW 7666   5.028   6.461   2.047
 2256SOL    HW1 7667   4.947   6.421   2.004
 2256SOL    HW2 7668   5.000   6.537   2.105
 2257SOL     OW 7669   0.098   1.459   4.812
 2257SOL    HW1 7670   0.041   1.469   4.894
 2257SOL    HW2 7671   0.154   1.376   4.820
 2258SOL     OW 7672   2.366   6.446   4.416
 2258SOL    HW1 7673   2.284   6.458   4.471
 2258SOL    HW2 7674   2.368   6.513   4.342
 2259SOL     OW 7675   6.376   2.093   4.627
 2259SOL    HW1 7676   6.423   2.104   4.714
 2259SOL    HW2 7677   6.441   2.066   4.556
 2260SOL     OW 7678   1.206   3.756   1.423
 2260SOL    HW1 7679   1.146   3.747   1.343
 2260SOL    HW2 7680   1.186   3.683   1.488
 2261SOL     OW 7681   5.774   3.864   0.123
 2261SOL    HW1 7682   5.685   3.894   0.088
 2261SOL    HW2 7683   5.766   3.842   0.220
 2262SOL     OW 7684   6.357   0.467   4.737
 2262SOL    HW1 7685   6.337   0.448   4.833
 2262SOL    HW2 7686   6.410   0.391   4.698
 2263SOL     OW 7687   1.422   4.326   0.346
 2263SOL    HW1 7688   1.502   4.312   0.403
 2263SOL    HW2 7689   1.446   4.384   0.268
 2264SOL     OW 7690   1.761   6.890   6.303
 2264SOL    HW1 7691   1.777   6.933   6.215
 2264SOL    HW2 7692   1.801   6.947   6.376
 2265SOL     OW 7693   1.071   6.336   4.014
 2265SOL    HW1 7694   1.132   6.259   3.999
 2265SOL    HW2 7695   1.125   6.420   4.024
 2266SOL     OW 7696   4.592   1.553   6.666
 2266SOL    HW1 7697   4.687   1.550   6.638
 2266SOL    HW2 7698   4.546   1.469   6.639
 2267SOL     OW 7699   4.803   2.938   4.618
 2267SOL    HW1 7700   4.731   2.871   4.640
 2267SOL    HW2 7701   4.783   3.024   4.664
 2268SOL     OW 7702   6.719   4.450   5.984
 2268SOL    HW1 7703   6.629   4.408   5.973
 2268SOL    HW2 7704   6.778   4.420   5.909
 2269SOL     OW 7705   1.767   2.955   5.133
 2269SOL    HW1 7706   1.735   2.974   5.226
 2269SOL    HW2 7707   1.802   2.861   5.128
 2270SOL     OW 7708   5.026   2.218   6.397
 2270SOL    HW1 7709   5.042   2.259   6.307
 2270SOL    HW2 7710   4.933   2.183   6.403
 2271SOL     OW 7711   5.864   4.550   6.099
 2271SOL    HW1 7712   5.923   4.470   6.086
 2271SOL    HW2 7713   5.774   4.521   6.131
 2272SOL     OW 7714   6.186   1.186   5.878
 2272SOL    HW1 7715   6.097   1.148   5.903
 2272SOL    HW2 7716   6.235   1.213   5.961
 2273SOL     OW 7717   2.004   2.640   2.149
 2273SOL    HW1 7718   2.077   2.703   2.175
 2273SOL    HW2 7719   1.981   2.581   2.226
 2274SOL     OW 7720   0.594   1.054   0.346
 2274SOL    HW1 7721   0.680   1.093   0.314
 2274SOL    HW2 7722   0.590   0.957   0.321
 2275SOL     OW 7723   5.544   4.936   2.486
 2275SOL    HW1 7724   5.534   4.847   2.532
 2275SOL    HW2 7725   5.486   4.939   2.405
 2276SOL     OW 7726   1.702   1.508   1.418
 2276SOL    HW1 7727   1.612   1.536   1.452
 2276SOL    HW2 7728   1.716   1.411   1.438
 2277SOL     OW 7729   3.159   4.035   3.272
 2277SOL    HW1 7730   3.134   4.008   3.365
 2277SOL    HW2 7731   3.258   4.035   3.262
 2278SOL     OW 7732   0.797   2.127   3.680
 2278SOL    HW1 7733   0.809   2.183   3.598
 2278SOL    HW2 7734   0.791   2.186   3.761
 2279SOL     OW 7735   0.338   5.764   5.392
 2279SOL    HW1 7736   0.367   5.837   5.331
 2279SOL    HW2 7737   0.400   5.758   5.470
 2280SOL     OW 7738   4.827   1.393   4.987
 2280SOL    HW1 7739   4.864   1.347   5.067
 2280SOL    HW2 7740   4.856   1.345   4.904
 2281SOL     OW 7741   5.103   6.637   2.621
 2281SOL    HW1 7742   5.026   6.663   2.680
 2281SOL    HW2 7743   5.159   6.718   2.603
 2282SOL     OW 7744   4.194   5.702   5.419
 2282SOL    HW1 7745   4.210   5.618   5.368
 2282SOL    HW2 7746   4.104   5.698   5.464
 2283SOL     OW 7747   1.071   0.740   3.605
 2283SOL    HW1 7748   1.168   0.721   3.589
 2283SOL    HW2 7749   1.041   0.814   3.545
 2284SOL     OW 7750   1.304   3.165   6.238
 2284SOL    HW1 7751   1.382   3.106   6.257
 2284SOL    HW2 7752   1.281   3.218   6.320
 2285SOL     OW 7753   1.532   3.940   6.954
 2285SOL    HW1 7754   1.611   3.910   7.006
 2285SOL    HW2 7755   1.556   3.945   6.857
 2286SOL     OW 7756   4.898   6.239   3.725
 2286SOL    HW1 7757   4.968   6.299   3.687
 2286SOL    HW2 7758   4.865   6.276   3.812
 2287SOL     OW 7759   1.722   0.927   3.571
 2287SOL    HW1 7760   1.814   0.897   3.547
 2287SOL    HW2 7761   1.688   0.991   3.502
 2288SOL     OW 7762   0.104   5.634   3.550
 2288SOL    HW1 7763   0.191   5.651   3.596
 2288SOL    HW2 7764   0.119   5.629   3.452
 2289SOL     OW 7765   1.037   6.063   1.986
 2289SOL    HW1 7766   0.960   6.021   2.034
 2289SOL    HW2 7767   1.110   5.996   1.974
 2290SOL     OW 7768   1.021   5.115   1.285
 2290SOL    HW1 7769   0.923   5.132   1.291
 2290SOL    HW2 7770   1.070   5.200   1.306
 2291SOL     OW 7771   3.166   1.719   5.696
 2291SOL    HW1 7772   3.128   1.797   5.647
 2291SOL    HW2 7773   3.266   1.722   5.689
 2292SOL     OW 7774   1.274   0.976   4.604
 2292SOL    HW1 7775   1.288   0.881   4.632
 2292SOL    HW2 7776   1.178   1.001   4.618
 2293SOL     OW 7777   5.270   5.673   1.912
 2293SOL    HW1 7778   5.367   5.688   1.929
 2293SOL    HW2 7779   5.250   5.687   1.815
 2294SOL     OW 7780   4.264   6.675   6.730
 2294SOL    HW1 7781   4.184   6.701   6.784
 2294SOL    HW2 7782   4.307   6.757   6.692
 2295SOL     OW 7783   0.631   2.104   1.100
 2295SOL    HW1 7784   0.534   2.120   1.116
 2295SOL    HW2 7785   0.647   2.093   1.002
 2296SOL     OW 7786   3.093   6.967   0.256
 2296SOL    HW1 7787   3.079   0.031   0.294
 2296SOL    HW2 7788   3.189   6.955   0.233
 2297SOL     OW 7789   4.085   4.773   5.562
 2297SOL    HW1 7790   4.003   4.719   5.582
 2297SOL    HW2 7791   4.121   4.747   5.472
 2298SOL     OW 7792   3.739   2.088   1.450
 2298SOL    HW1 7793   3.765   1.996   1.419
 2298SOL    HW2 7794   3.813   2.127   1.505
 2299SOL     OW 7795   5.196   6.248   6.999
 2299SOL    HW1 7796   5.228   6.154   6.991
 2299SOL    HW2 7797   5.096   6.250   7.002
 2300SOL     OW 7798   1.824   5.157   1.439
 2300SOL    HW1 7799   1.808   5.255   1.455
 2300SOL    HW2 7800   1.846   5.113   1.526
 2301SOL     OW 7801   3.783   3.405   2.774
 2301SOL    HW1 7802   3.717   3.466   2.817
 2301SOL    HW2 7803   3.778   3.315   2.817
 2302SOL     OW 7804   3.080   5.479   2.946
 2302SOL    HW1 7805   3.094   5.545   3.020
 2302SOL    HW2 7806   2.990   5.494   2.905
 2303SOL     OW 7807   1.215   3.027   4.375
 2303SOL    HW1 7808   1.254   3.095   4.437
 2303SOL    HW2 7809   1.116   3.024   4.387
 2304SOL     OW 7810   2.374   1.038   3.632
 2304SOL    HW1 7811   2.364   1.069   3.726
 2304SOL    HW2 7812   2.284   1.032   3.589
 2305SOL     OW 7813   3.693   5.571   2.159
 2305SOL    HW1 7814   3.632   5.578   2.080
 2305SOL    HW2 7815   3.701   5.660   2.203
 2306SOL     OW 7816   1.881   4.429   1.636
 2306SOL    HW1 7817   1.881   4.361   1.709
 2306SOL    HW2 7818   1.788   4.444   1.604
 2307SOL     OW 7819   0.822   2.312   2.800
 2307SOL    HW1 7820   0.818   2.377   2.877
 2307SOL    HW2 7821   0.873   2.231   2.828
 2308SOL     OW 7822   0.755   0.757   6.820
 2308SOL    HW1 7823   0.672   0.810   6.804
 2308SOL    HW2 7824   0.753   0.673   6.765
 2309SOL     OW 7825   3.360   5.449   6.656
 2309SOL    HW1 7826   3.351   5.350   6.664
 2309SOL    HW2 7827   3.449   5.470   6.615
 2310SOL     OW 7828   5.924   1.172   1.665
 2310SOL    HW1 7829   5.885   1.082   1.643
 2310SOL    HW2 7830   6.009   1.160   1.716
 2311SOL     OW 7831   2.670   0.133   2.456
 2311SOL    HW1 7832   2.736   0.203   2.430
 2311SOL    HW2 7833   2.690   0.048   2.407
 2312SOL     OW 7834   4.234   0.338   2.742
 2312SOL    HW1 7835   4.184   0.254   2.761
 2312SOL    HW2 7836   4.169   0.414   2.731
 2313SOL     OW 7837   4.767   4.256   2.164
 2313SOL    HW1 7838   4.679   4.269   2.118
 2313SOL    HW2 7839   4.765   4.299   2.254
 2314SOL     OW 7840   6.059   0.783   3.758
 2314SOL    HW1 7841   5.971   0.821   3.787
 2314SOL    HW2 7842   6.112   0.855   3.712
 2315SOL     OW 7843   4.402   4.243   5.935
 2315SOL    HW1 7844   4.382   4.180   6.010
 2315SOL    HW2 7845   4.360   4.331   5.954
 2316SOL     OW 7846   2.908   1.289   6.008
 2316SOL    HW1 7847   2.883   1.233   5.930
 2316SOL    HW2 7848   2.997   1.331   5.992
 2317SOL     OW 7849   6.243   6.513   4.247
 2317SOL    HW1 7850   6.155   6.468   4.239
 2317SOL    HW2 7851   6.316   6.448   4.225
 2318SOL     OW 7852   2.329   4.357   4.419
 2318SOL    HW1 7853   2.311   4.336   4.515
 2318SOL    HW2 7854   2.390   4.437   4.413
 2319SOL     OW 7855   1.971   5.307   4.733
 2319SOL    HW1 7856   1.989   5.331   4.829
 2319SOL    HW2 7857   1.910   5.374   4.692
 2320SOL     OW 7858   1.030   3.368   5.601
 2320SOL    HW1 7859   1.079   3.453   5.586
 2320SOL    HW2 7860   1.058   3.300   5.534
 2321SOL     OW 7861   2.710   4.925   5.967
 2321SOL    HW1 7862   2.650   4.883   5.900
 2321SOL    HW2 7863   2.724   5.021   5.944
 2322SOL     OW 7864   2.149   3.741   2.226
 2322SOL    HW1 7865   2.171   3.783   2.138
 2322SOL    HW2 7866   2.232   3.705   2.268
 2323SOL     OW 7867   2.653   4.861   1.629
 2323SOL    HW1 7868   2.644   4.761   1.638
 2323SOL    HW2 7869   2.688   4.899   1.714
 2324SOL     OW 7870   0.472   5.798   2.148
 2324SOL    HW1 7871   0.498   5.864   2.077
 2324SOL    HW2 7872   0.412   5.729   2.108
 2325SOL     OW 7873   6.846   4.874   1.570
 2325SOL    HW1 7874   6.805   4.878   1.661
 2325SOL    HW2 7875   6.921   4.809   1.569
 2326SOL     OW 7876   1.467   6.747   0.144
 2326SOL    HW1 7877   1.429   6.768   0.054
 2326SOL    HW2 7878   1.469   6.648   0.156
 2327SOL     OW 7879   6.730   0.124   3.118
 2327SOL    HW1 7880   6.698   0.202   3.171
 2327SOL    HW2 7881   6.767   0.055   3.181
 2328SOL     OW 7882   1.469   2.088   2.086
 2328SOL    HW1 7883   1.441   2.132   2.171
 2328SOL    HW2 7884   1.408   2.116   2.012
 2329SOL     OW 7885   1.031   4.223   4.030
 2329SOL    HW1 7886   0.937   4.250   4.052
 2329SOL    HW2 7887   1.029   4.149   3.963
 2330SOL     OW 7888   6.517   2.660   0.382
 2330SOL    HW1 7889   6.433   2.663   0.438
 2330SOL    HW2 7890   6.591   2.705   0.431
 2331SOL     OW 7891   3.920   5.890   0.078
 2331SOL    HW1 7892   3.910   5.966   0.013
 2331SOL    HW2 7893   3.981   5.919   0.152
 2332SOL     OW 7894   6.240   6.933   5.794
 2332SOL    HW1 7895   6.270   6.918   5.700
 2332SOL    HW2 7896   6.298   7.002   5.837
 2333SOL     OW 7897   0.081   4.901   3.031
 2333SOL    HW1 7898   0.088   4.805   3.007
 2333SOL    HW2 7899   0.018   4.947   2.969
 2334SOL     OW 7900   1.547   1.014   6.264
 2334SOL    HW1 7901   1.636   0.969   6.254
 2334SOL    HW2 7902   1.517   1.005   6.359
 2335SOL     OW 7903   5.981   1.673   3.913
 2335SOL    HW1 7904   6.032   1.652   3.996
 2335SOL    HW2 7905   6.038   1.726   3.851
 2336SOL     OW 7906   2.493   1.682   4.098
 2336SOL    HW1 7907   2.558   1.617   4.139
 2336SOL    HW2 7908   2.514   1.694   4.001
 2337SOL     OW 7909   4.212   1.557   1.566
 2337SOL    HW1 7910   4.233   1.557   1.664
 2337SOL    HW2 7911   4.289   1.596   1.515
 2338SOL     OW 7912   0.898   3.401   4.016
 2338SOL    HW1 7913   0.964   3.473   3.996
 2338SOL    HW2 7914   0.811   3.422   3.971
 2339SOL     OW 7915   3.301   3.439   2.871
 2339SOL    HW1 7916   3.323   3.357   2.924
 2339SOL    HW2 7917   3.307   3.519   2.930
 2340SOL     OW 7918   1.012   5.409   6.741
 2340SOL    HW1 7919   0.956   5.422   6.823
 2340SOL    HW2 7920   1.045   5.315   6.738
 2341SOL     OW 7921   2.440   4.798   2.958
 2341SOL    HW1 7922   2.501   4.720   2.972
 2341SOL    HW2 7923   2.381   4.809   3.037
 2342SOL     OW 7924   2.802   6.602   4.196
 2342SOL    HW1 7925   2.784   6.612   4.098
 2342SOL    HW2 7926   2.725   6.637   4.248
 2343SOL     OW 7927   2.339   6.768   3.174
 2343SOL    HW1 7928   2.262   6.826   3.202
 2343SOL    HW2 7929   2.319   6.673   3.194
 2344SOL     OW 7930   6.816   5.187   0.517
 2344SOL    HW1 7931   6.857   5.130   0.588
 2344SOL    HW2 7932   6.722   5.209   0.543
 2345SOL     OW 7933   2.245   5.430   4.666
 2345SOL    HW1 7934   2.165   5.372   4.683
 2345SOL    HW2 7935   2.307   5.383   4.602
 2346SOL     OW 7936   4.162   3.307   5.862
 2346SOL    HW1 7937   4.132   3.212   5.876
 2346SOL    HW2 7938   4.239   3.327   5.921
 2347SOL     OW 7939   1.305   1.929   1.190
 2347SOL    HW1 7940   1.362   1.948   1.111
 2347SOL    HW2 7941   1.332   1.842   1.232
 2348SOL     OW 7942   1.809   6.104   3.629
 2348SOL    HW1 7943   1.785   6.137   3.720
 2348SOL    HW2 7944   1.849   6.179   3.576
 2349SOL     OW 7945   0.995   4.472   6.393
 2349SOL    HW1 7946   0.917   4.419   6.360
 2349SOL    HW2 7947   0.984   4.493   6.490
 2350SOL     OW 7948   5.802   3.581   5.775
 2350SOL    HW1 7949   5.861   3.591   5.695
 2350SOL    HW2 7950   5.712   3.618   5.754
 2351SOL     OW 7951   2.977   4.911   3.297
 2351SOL    HW1 7952   2.913   4.986   3.281
 2351SOL    HW2 7953   3.048   4.911   3.227
 2352SOL     OW 7954   6.467   3.031   3.805
 2352SOL    HW1 7955   6.526   3.064   3.878
 2352SOL    HW2 7956   6.523   2.990   3.733
 2353SOL     OW 7957   4.328   5.314   5.407
 2353SOL    HW1 7958   4.406   5.271   5.361
 2353SOL    HW2 7959   4.291   5.252   5.476
 2354SOL     OW 7960   2.546   2.374   4.485
 2354SOL    HW1 7961   2.574   2.402   4.577
 2354SOL    HW2 7962   2.623   2.385   4.422
 2355SOL     OW 7963   2.179   6.149   5.117
 2355SOL    HW1 7964   2.099   6.146   5.056
 2355SOL    HW2 7965   2.258   6.180   5.065
 2356SOL     OW 7966   1.097   3.082   0.023
 2356SOL    HW1 7967   1.185   3.125   0.003
 2356SOL    HW2 7968   1.026   3.153   0.027
 2357SOL     OW 7969   3.735   1.522   1.595
 2357SOL    HW1 7970   3.777   1.581   1.665
 2357SOL    HW2 7971   3.789   1.526   1.511
 2358SOL     OW 7972   2.514   4.900   5.738
 2358SOL    HW1 7973   2.443   4.837   5.706
 2358SOL    HW2 7974   2.478   4.994   5.737
 2359SOL     OW 7975   0.600   0.263   5.250
 2359SOL    HW1 7976   0.522   0.220   5.296
 2359SOL    HW2 7977   0.567   0.320   5.174
 2360SOL     OW 7978   6.637   3.792   0.700
 2360SOL    HW1 7979   6.699   3.714   0.698
 2360SOL    HW2 7980   6.683   3.872   0.661
 2361SOL     OW 7981   2.866   1.431   6.284
 2361SOL    HW1 7982   2.840   1.372   6.207
 2361SOL    HW2 7983   2.838   1.525   6.265
 2362SOL     OW 7984   2.975   5.290   3.784
 2362SOL    HW1 7985   2.965   5.198   3.821
 2362SOL    HW2 7986   3.003   5.352   3.858
 2363SOL     OW 7987   3.812   1.929   3.688
 2363SOL    HW1 7988   3.787   2.012   3.738
 2363SOL    HW2 7989   3.772   1.933   3.596
 2364SOL     OW 7990   1.110   2.690   1.997
 2364SOL    HW1 7991   1.103   2.610   1.938
 2364SOL    HW2 7992   1.179   2.673   2.068
 2365SOL     OW 7993   6.541   2.056   6.725
 2365SOL    HW1 7994   6.519   2.150   6.698
 2365SOL    HW2 7995   6.566   2.004   6.643
 2366SOL     OW 7996   3.504   5.009   0.650
 2366SOL    HW1 7997   3.541   4.951   0.577
 2366SOL    HW2 7998   3.579   5.053   0.699
 2367SOL     OW 7999   2.040   3.475   0.101
 2367SOL    HW1 8000   2.107   3.469   0.026
 2367SOL    HW2 8001   2.040   3.389   0.151
 2368SOL     OW 8002   5.552   7.028   4.091
 2368SOL    HW1 8003   5.557   0.018   4.189
 2368SOL    HW2 8004   5.644   0.006   4.051
 2369SOL     OW 8005   1.975   6.881   4.300
 2369SOL    HW1 8006   2.067   6.919   4.303
 2369SOL    HW2 8007   1.980   6.783   4.279
 2370SOL     OW 8008   5.718   3.355   6.774
 2370SOL    HW1 8009   5.699   3.353   6.676
 2370SOL    HW2 8010   5.680   3.439   6.813
 2371SOL     OW 8011   2.419   6.478   2.070
 2371SOL    HW1 8012   2.460   6.535   2.141
 2371SOL    HW2 8013   2.358   6.534   2.014
 2372SOL     OW 8014   0.177   2.566   1.796
 2372SOL    HW1 8015   0.134   2.519   1.718
 2372SOL    HW2 8016   0.273   2.583   1.775
 2373SOL     OW 8017   1.870   3.513   5.812
 2373SOL    HW1 8018   1.862   3.612   5.822
 2373SOL    HW2 8019   1.946   3.480   5.869
 2374SOL     OW 8020   6.550   2.290   5.001
 2374SOL    HW1 8021   6.583   2.249   4.916
 2374SOL    HW2 8022   6.587   2.239   5.079
 2375SOL     OW 8023   3.300   5.618   5.905
 2375SOL    HW1 8024   3.229   5.570   5.958
 2375SOL    HW2 8025   3.262   5.647   5.817
 2376SOL     OW 8026   6.002   3.737   3.852
 2376SOL    HW1 8027   6.080   3.738   3.915
 2376SOL    HW2 8028   5.923   3.779   3.896
 2377SOL     OW 8029   3.089   3.909   3.783
 2377SOL    HW1 8030   3.086   3.972   3.860
 2377SOL    HW2 8031   3.068   3.817   3.814
 2378SOL     OW 8032   4.992   2.072   0.126
 2378SOL    HW1 8033   5.044   2.052   0.043
 2378SOL    HW2 8034   4.907   2.118   0.101
 2379SOL     OW 8035   6.683   1.078   0.159
 2379SOL    HW1 8036   6.726   1.159   0.119
 2379SOL    HW2 8037   6.684   1.085   0.258
 2380SOL     OW 8038   6.858   2.566   0.620
 2380SOL    HW1 8039   6.860   2.589   0.717
 2380SOL    HW2 8040   6.919   2.489   0.602
 2381SOL     OW 8041   1.995   5.950   3.371
 2381SOL    HW1 8042   2.061   5.886   3.333
 2381SOL    HW2 8043   1.971   5.923   3.464
 2382SOL     OW 8044   1.712   3.625   4.494
 2382SOL    HW1 8045   1.780   3.552   4.494
 2382SOL    HW2 8046   1.665   3.627   4.582
 2383SOL     OW 8047   6.540   6.859   1.260
 2383SOL    HW1 8048   6.499   6.887   1.173
 2383SOL    HW2 8049   6.476   6.800   1.309
 2384SOL     OW 8050   4.797   1.895   2.163
 2384SOL    HW1 8051   4.791   1.859   2.256
 2384SOL    HW2 8052   4.893   1.902   2.136
 2385SOL     OW 8053   0.231   0.437   0.095
 2385SOL    HW1 8054   0.134   0.462   0.094
 2385SOL    HW2 8055   0.273   0.463   0.008
 2386SOL     OW 8056   5.386   5.770   4.626
 2386SOL    HW1 8057   5.405   5.748   4.722
 2386SOL    HW2 8058   5.427   5.701   4.567
 2387SOL     OW 8059   1.957   1.192   4.623
 2387SOL    HW1 8060   1.898   1.161   4.698
 2387SOL    HW2 8061   2.034   1.128   4.613
 2388SOL     OW 8062   6.686   2.782   4.006
 2388SOL    HW1 8063   6.689   2.881   3.992
 2388SOL    HW2 8064   6.687   2.762   4.104
 2389SOL     OW 8065   4.530   4.453   3.738
 2389SOL    HW1 8066   4.575   4.442   3.827
 2389SOL    HW2 8067   4.584   4.406   3.668
 2390SOL     OW 8068   4.071   3.508   2.738
 2390SOL    HW1 8069   3.982   3.485   2.778
 2390SOL    HW2 8070   4.091   3.445   2.663
 2391SOL     OW 8071   5.028   4.589   5.928
 2391SOL    HW1 8072   5.126   4.606   5.923
 2391SOL    HW2 8073   4.992   4.572   5.836
 2392SOL     OW 8074   2.576   7.012   6.559
 2392SOL    HW1 8075   2.546   6.990   6.652
 2392SOL    HW2 8076   2.673   0.007   6.560
 2393SOL     OW 8077   4.760   4.418   5.923
 2393SOL    HW1 8078   4.831   4.430   5.993
 2393SOL    HW2 8079   4.671   4.445   5.962
 2394SOL     OW 8080   6.911   3.711   4.908
 2394SOL    HW1 8081   6.906   3.613   4.927
 2394SOL    HW2 8082   6.945   3.725   4.815
 2395SOL     OW 8083   4.817   7.008   5.844
 2395SOL    HW1 8084   4.788   0.071   5.817
 2395SOL    HW2 8085   4.858   7.012   5.935
 2396SOL     OW 8086   3.921   5.082   0.712
 2396SOL    HW1 8087   3.878   5.059   0.624
 2396SOL    HW2 8088   4.008   5.128   0.695
 2397SOL     OW 8089   0.278   4.066   4.417
 2397SOL    HW1 8090   0.262   4.096   4.323
 2397SOL    HW2 8091   0.242   4.135   4.480
 2398SOL     OW 8092   5.227   3.981   0.067
 2398SOL    HW1 8093   5.192   4.061   0.116
 2398SOL    HW2 8094   5.197   3.898   0.114
 2399SOL     OW 8095   4.043   0.930   1.036
 2399SOL    HW1 8096   4.140   0.905   1.029
 2399SOL    HW2 8097   3.989   0.868   0.978
 2400SOL     OW 8098   2.376   4.109   0.715
 2400SOL    HW1 8099   2.401   4.040   0.648
 2400SOL    HW2 8100   2.376   4.069   0.807
 2401SOL     OW 8101   5.602   5.788   6.692
 2401SOL    HW1 8102   5.675   5.794   6.759
 2401SOL    HW2 8103   5.555   5.700   6.702
 2402SOL     OW 8104   0.767   0.130   4.377
 2402SOL    HW1 8105   0.674   0.094   4.391
 2402SOL    HW2 8106   0.816   0.071   4.313
 2403SOL     OW 8107   0.969   2.593   5.789
 2403SOL    HW1 8108   0.980   2.599   5.888
 2403SOL    HW2 8109   0.974   2.685   5.749
 2404SOL     OW 8110   2.370   1.358   1.187
 2404SOL    HW1 8111   2.464   1.363   1.222
 2404SOL    HW2 8112   2.306   1.363   1.264
 2405SOL     OW 8113   3.463   4.078   2.593
 2405SOL    HW1 8114   3.504   4.117   2.511
 2405SOL    HW2 8115   3.535   4.061   2.661
 2406SOL     OW 8116   3.591   1.303   1.272
 2406SOL    HW1 8117   3.507   1.314   1.218
 2406SOL    HW2 8118   3.591   1.213   1.316
 2407SOL     OW 8119   5.802   2.185   3.866
 2407SOL    HW1 8120   5.859   2.210   3.788
 2407SOL    HW2 8121   5.817   2.088   3.888
 2408SOL     OW 8122   4.477   4.497   2.231
 2408SOL    HW1 8123   4.400   4.510   2.293
 2408SOL    HW2 8124   4.482   4.400   2.206
 2409SOL     OW 8125   2.556   3.780   1.537
 2409SOL    HW1 8126   2.545   3.818   1.445
 2409SOL    HW2 8127   2.641   3.814   1.577
 2410SOL     OW 8128   4.132   3.511   4.143
 2410SOL    HW1 8129   4.125   3.420   4.103
 2410SOL    HW2 8130   4.122   3.580   4.071
 2411SOL     OW 8131   5.525   6.509   4.819
 2411SOL    HW1 8132   5.549   6.472   4.909
 2411SOL    HW2 8133   5.517   6.608   4.825
 2412SOL     OW 8134   5.793   3.844   1.612
 2412SOL    HW1 8135   5.708   3.887   1.642
 2412SOL    HW2 8136   5.786   3.821   1.515
 2413SOL     OW 8137   5.639   0.270   1.530
 2413SOL    HW1 8138   5.636   0.250   1.432
 2413SOL    HW2 8139   5.725   0.316   1.552
 2414SOL     OW 8140   4.856   3.935   3.828
 2414SOL    HW1 8141   4.933   3.981   3.872
 2414SOL    HW2 8142   4.832   3.983   3.743
 2415SOL     OW 8143   5.997   1.393   2.393
 2415SOL    HW1 8144   6.080   1.430   2.434
 2415SOL    HW2 8145   5.996   1.294   2.403
 2416SOL     OW 8146   5.590   1.939   5.889
 2416SOL    HW1 8147   5.641   1.861   5.925
 2416SOL    HW2 8148   5.562   1.999   5.964
 2417SOL     OW 8149   2.957   3.217   4.900
 2417SOL    HW1 8150   2.907   3.219   4.813
 2417SOL    HW2 8151   2.896   3.187   4.973
 2418SOL     OW 8152   3.601   3.228   4.239
 2418SOL    HW1 8153   3.614   3.145   4.294
 2418SOL    HW2 8154   3.679   3.240   4.178
 2419SOL     OW 8155   0.668   6.535   3.231
 2419SOL    HW1 8156   0.603   6.492   3.169
 2419SOL    HW2 8157   0.640   6.630   3.248
 2420SOL     OW 8158   2.720   0.356   1.752
 2420SOL    HW1 8159   2.758   0.439   1.794
 2420SOL    HW2 8160   2.621   0.358   1.760
 2421SOL     OW 8161   1.828   3.059   4.305
 2421SOL    HW1 8162   1.919   3.100   4.314
 2421SOL    HW2 8163   1.769   3.120   4.253
 2422SOL     OW 8164   5.051   2.062   0.925
 2422SOL    HW1 8165   5.038   2.047   0.827
 2422SOL    HW2 8166   5.148   2.054   0.948
 2423SOL     OW 8167   2.890   6.251   2.515
 2423SOL    HW1 8168   2.870   6.174   2.576
 2423SOL    HW2 8169   2.979   6.236   2.472
 2424SOL     OW 8170   5.713   1.271   0.300
 2424SOL    HW1 8171   5.634   1.326   0.271
 2424SOL    HW2 8172   5.697   1.175   0.276
 2425SOL     OW 8173   6.305   0.592   4.201
 2425SOL    HW1 8174   6.399   0.623   4.216
 2425SOL    HW2 8175   6.305   0.494   4.184
 2426SOL     OW 8176   2.505   4.947   4.755
 2426SOL    HW1 8177   2.588   5.002   4.744
 2426SOL    HW2 8178   2.531   4.851   4.772
 2427SOL     OW 8179   6.153   6.276   5.009
 2427SOL    HW1 8180   6.102   6.234   5.084
 2427SOL    HW2 8181   6.193   6.204   4.952
 2428SOL     OW 8182   0.518   0.543   1.584
 2428SOL    HW1 8183   0.490   0.532   1.679
 2428SOL    HW2 8184   0.599   0.603   1.580
 2429SOL     OW 8185   5.557   5.682   1.108
 2429SOL    HW1 8186   5.633   5.733   1.149
 2429SOL    HW2 8187   5.592   5.604   1.058
 2430SOL     OW 8188   5.750   0.545   2.314
 2430SOL    HW1 8189   5.708   0.596   2.389
 2430SOL    HW2 8190   5.685   0.536   2.239
 2431SOL     OW 8191   4.098   0.847   2.163
 2431SOL    HW1 8192   4.064   0.763   2.120
 2431SOL    HW2 8193   4.058   0.926   2.118
 2432SOL     OW 8194   4.449   6.121   1.897
 2432SOL    HW1 8195   4.414   6.213   1.881
 2432SOL    HW2 8196   4.432   6.094   1.992
 2433SOL     OW 8197   4.562   0.407   6.987
 2433SOL    HW1 8198   4.639   0.424   0.021
 2433SOL    HW2 8199   4.484   0.375   0.012
 2434SOL     OW 8200   3.809   1.221   6.308
 2434SOL    HW1 8201   3.829   1.192   6.214
 2434SOL    HW2 8202   3.890   1.207   6.365
 2435SOL     OW 8203   6.422   5.638   5.212
 2435SOL    HW1 8204   6.365   5.716   5.185
 2435SOL    HW2 8205   6.365   5.570   5.258
 2436SOL     OW 8206   2.463   5.956   0.422
 2436SOL    HW1 8207   2.465   5.856   0.415
 2436SOL    HW2 8208   2.402   5.983   0.496
 2437SOL     OW 8209   0.158   6.067   5.733
 2437SOL    HW1 8210   0.145   6.146   5.794
 2437SOL    HW2 8211   0.099   5.992   5.762
 2438SOL     OW 8212   3.040   2.371   0.736
 2438SOL    HW1 8213   3.014   2.369   0.832
 2438SOL    HW2 8214   2.960   2.353   0.679
 2439SOL     OW 8215   5.870   3.961   5.467
 2439SOL    HW1 8216   5.792   3.962   5.405
 2439SOL    HW2 8217   5.954   3.977   5.416
 2440SOL     OW 8218   5.696   5.261   5.769
 2440SOL    HW1 8219   5.697   5.165   5.740
 2440SOL    HW2 8220   5.613   5.304   5.735
 2441SOL     OW 8221   5.785   2.331   0.469
 2441SOL    HW1 8222   5.771   2.341   0.370
 2441SOL    HW2 8223   5.881   2.309   0.486
 2442SOL     OW 8224   0.833   3.768   4.745
 2442SOL    HW1 8225   0.869   3.777   4.838
 2442SOL    HW2 8226   0.908   3.746   4.683
 2443SOL     OW 8227   2.729   4.546   6.285
 2443SOL    HW1 8228   2.748   4.459   6.331
 2443SOL    HW2 8229   2.646   4.586   6.323
 2444SOL     OW 8230   2.277   3.642   6.023
 2444SOL    HW1 8231   2.277   3.711   6.095
 2444SOL    HW2 8232   2.341   3.569   6.047
 2445SOL     OW 8233   0.451   0.716   1.027
 2445SOL    HW1 8234   0.411   0.651   0.963
 2445SOL    HW2 8235   0.385   0.789   1.046
 2446SOL     OW 8236   6.324   4.796   5.327
 2446SOL    HW1 8237   6.369   4.883   5.347
 2446SOL    HW2 8238   6.227   4.812   5.307
 2447SOL     OW 8239   0.761   1.707   0.402
 2447SOL    HW1 8240   0.861   1.701   0.399
 2447SOL    HW2 8241   0.725   1.637   0.463
 2448SOL     OW 8242   1.173   0.332   4.576
 2448SOL    HW1 8243   1.206   0.262   4.513
 2448SOL    HW2 8244   1.079   0.357   4.553
 2449SOL     OW 8245   0.233   3.663   5.709
 2449SOL    HW1 8246   0.168   3.700   5.643
 2449SOL    HW2 8247   0.218   3.565   5.720
 2450SOL     OW 8248   2.199   3.839   3.049
 2450SOL    HW1 8249   2.175   3.751   3.007
 2450SOL    HW2 8250   2.171   3.838   3.145
 2451SOL     OW 8251   2.056   5.945   3.937
 2451SOL    HW1 8252   2.134   5.937   3.998
 2451SOL    HW2 8253   2.011   6.033   3.951
 2452SOL     OW 8254   0.832   2.483   4.327
 2452SOL    HW1 8255   0.824   2.562   4.267
 2452SOL    HW2 8256   0.929   2.465   4.344
 2453SOL     OW 8257   6.950   3.931   1.563
 2453SOL    HW1 8258   0.002   3.952   1.507
 2453SOL    HW2 8259   6.898   3.856   1.520
 2454SOL     OW 8260   2.937   0.804   2.262
 2454SOL    HW1 8261   3.021   0.858   2.269
 2454SOL    HW2 8262   2.947   0.719   2.313
 2455SOL     OW 8263   5.843   5.895   0.346
 2455SOL    HW1 8264   5.773   5.827   0.366
 2455SOL    HW2 8265   5.931   5.864   0.384
 2456SOL     OW 8266   4.558   6.853   1.155
 2456SOL    HW1 8267   4.537   6.920   1.226
 2456SOL    HW2 8268   4.616   6.781   1.194
 2457SOL     OW 8269   5.522   6.538   1.602
 2457SOL    HW1 8270   5.464   6.576   1.674
 2457SOL    HW2 8271   5.465   6.509   1.525
 2458SOL     OW 8272   0.568   5.453   3.736
 2458SOL    HW1 8273   0.615   5.533   3.701
 2458SOL    HW2 8274   0.500   5.422   3.668
 2459SOL     OW 8275   2.264   0.274   0.894
 2459SOL    HW1 8276   2.205   0.241   0.820
 2459SOL    HW2 8277   2.355   0.295   0.858
 2460SOL     OW 8278   3.066   5.680   1.638
 2460SOL    HW1 8279   3.104   5.738   1.709
 2460SOL    HW2 8280   3.120   5.689   1.554
 2461SOL     OW 8281   5.428   1.063   2.420
 2461SOL    HW1 8282   5.385   1.143   2.379
 2461SOL    HW2 8283   5.519   1.050   2.380
 2462SOL     OW 8284   2.151   4.836   6.103
 2462SOL    HW1 8285   2.091   4.882   6.168
 2462SOL    HW2 8286   2.113   4.746   6.081
 2463SOL     OW 8287   6.754   1.679   4.022
 2463SOL    HW1 8288   6.672   1.735   4.019
 2463SOL    HW2 8289   6.742   1.607   4.091
 2464SOL     OW 8290   1.600   3.267   1.024
 2464SOL    HW1 8291   1.501   3.270   1.033
 2464SOL    HW2 8292   1.625   3.269   0.927
 2465SOL     OW 8293   6.313   5.474   3.728
 2465SOL    HW1 8294   6.364   5.520   3.801
 2465SOL    HW2 8295   6.323   5.526   3.643
 2466SOL     OW 8296   3.466   1.461   2.404
 2466SOL    HW1 8297   3.513   1.540   2.444
 2466SOL    HW2 8298   3.533   1.403   2.357
 2467SOL     OW 8299   6.852   1.366   5.761
 2467SOL    HW1 8300   6.806   1.277   5.765
 2467SOL    HW2 8301   6.858   1.405   5.853
 2468SOL     OW 8302   0.297   4.553   0.700
 2468SOL    HW1 8303   0.344   4.480   0.650
 2468SOL    HW2 8304   0.331   4.556   0.794
 2469SOL     OW 8305   2.931   3.070   5.811
 2469SOL    HW1 8306   3.006   3.112   5.761
 2469SOL    HW2 8307   2.876   3.141   5.854
 2470SOL     OW 8308   5.495   2.992   0.164
 2470SOL    HW1 8309   5.457   3.063   0.104
 2470SOL    HW2 8310   5.442   2.987   0.249
 2471SOL     OW 8311   1.112   0.276   3.379
 2471SOL    HW1 8312   1.073   0.184   3.381
 2471SOL    HW2 8313   1.051   0.339   3.427
 2472SOL     OW 8314   6.004   1.574   3.240
 2472SOL    HW1 8315   5.942   1.496   3.251
 2472SOL    HW2 8316   6.038   1.601   3.330
 2473SOL     OW 8317   0.948   6.887   4.987
 2473SOL    HW1 8318   0.951   6.986   4.995
 2473SOL    HW2 8319   0.860   6.853   5.023
 2474SOL     OW 8320   5.710   5.357   4.841
 2474SOL    HW1 8321   5.673   5.399   4.758
 2474SOL    HW2 8322   5.760   5.274   4.818
 2475SOL     OW 8323   4.015   2.361   0.262
 2475SOL    HW1 8324   3.971   2.323   0.343
 2475SOL    HW2 8325   4.113   2.342   0.265
 2476SOL     OW 8326   0.225   2.201   4.037
 2476SOL    HW1 8327   0.225   2.118   4.092
 2476SOL    HW2 8328   0.200   2.279   4.095
 2477SOL     OW 8329   4.487   4.900   1.474
 2477SOL    HW1 8330   4.467   4.814   1.520
 2477SOL    HW2 8331   4.485   4.975   1.541
 2478SOL     OW 8332   6.339   6.788   3.486
 2478SOL    HW1 8333   6.411   6.857   3.474
 2478SOL    HW2 8334   6.359   6.731   3.565
 2479SOL     OW 8335   0.567   3.688   0.237
 2479SOL    HW1 8336   0.667   3.692   0.234
 2479SOL    HW2 8337   0.535   3.714   0.328
 2480SOL     OW 8338   0.698   3.911   1.704
 2480SOL    HW1 8339   0.696   3.812   1.690
 2480SOL    HW2 8340   0.786   3.937   1.745
 2481SOL     OW 8341   4.298   5.450   2.467
 2481SOL    HW1 8342   4.208   5.406   2.469
 2481SOL    HW2 8343   4.347   5.421   2.385
 2482SOL     OW 8344   4.429   2.477   4.123
 2482SOL    HW1 8345   4.356   2.408   4.127
 2482SOL    HW2 8346   4.408   2.544   4.053
 2483SOL     OW 8347   0.639   1.878   6.453
 2483SOL    HW1 8348   0.681   1.788   6.447
 2483SOL    HW2 8349   0.646   1.912   6.547
 2484SOL     OW 8350   3.119   2.186   6.367
 2484SOL    HW1 8351   3.207   2.161   6.327
 2484SOL    HW2 8352   3.096   2.280   6.343
 2485SOL     OW 8353   0.402   6.127   2.402
 2485SOL    HW1 8354   0.382   6.029   2.411
 2485SOL    HW2 8355   0.373   6.158   2.311
 2486SOL     OW 8356   0.792   4.910   3.296
 2486SOL    HW1 8357   0.840   4.898   3.383
 2486SOL    HW2 8358   0.735   4.830   3.277
 2487SOL     OW 8359   3.197   0.978   0.925
 2487SOL    HW1 8360   3.179   1.035   1.005
 2487SOL    HW2 8361   3.213   1.037   0.846
 2488SOL     OW 8362   3.460   6.204   6.478
 2488SOL    HW1 8363   3.515   6.154   6.412
 2488SOL    HW2 8364   3.456   6.301   6.452
 2489SOL     OW 8365   0.157   5.928   4.104
 2489SOL    HW1 8366   0.200   5.878   4.179
 2489SOL    HW2 8367   0.205   6.014   4.089
 2490SOL     OW 8368   5.135   3.586   1.565
 2490SOL    HW1 8369   5.204   3.658   1.553
 2490SOL    HW2 8370   5.181   3.501   1.591
 2491SOL     OW 8371   1.019   4.214   2.731
 2491SOL    HW1 8372   1.000   4.275   2.808
 2491SOL    HW2 8373   0.940   4.154   2.717
 2492SOL     OW 8374   4.550   2.651   5.992
 2492SOL    HW1 8375   4.476   2.672   6.056
 2492SOL    HW2 8376   4.519   2.669   5.899
 2493SOL     OW 8377   6.158   1.653   4.124
 2493SOL    HW1 8378   6.207   1.566   4.125
 2493SOL    HW2 8379   6.225   1.728   4.126
 2494SOL     OW 8380   4.948   3.766   1.309
 2494SOL    HW1 8381   5.017   3.694   1.298
 2494SOL    HW2 8382   4.877   3.734   1.371
 2495SOL     OW 8383   5.770   1.563   4.109
 2495SOL    HW1 8384   5.838   1.515   4.164
 2495SOL    HW2 8385   5.810   1.588   4.021
 2496SOL     OW 8386   0.996   6.130   6.783
 2496SOL    HW1 8387   1.005   6.038   6.745
 2496SOL    HW2 8388   1.086   6.173   6.789
 2497SOL     OW 8389   5.528   2.063   6.121
 2497SOL    HW1 8390   5.599   2.096   6.184
 2497SOL    HW2 8391   5.465   2.004   6.170
 2498SOL     OW 8392   1.132   4.036   4.711
 2498SOL    HW1 8393   1.217   4.084   4.692
 2498SOL    HW2 8394   1.149   3.963   4.777
 2499SOL     OW 8395   6.017   0.666   5.973
 2499SOL    HW1 8396   6.100   0.706   6.012
 2499SOL    HW2 8397   6.025   0.663   5.873
 2500SOL     OW 8398   4.609   3.356   6.437
 2500SOL    HW1 8399   4.530   3.382   6.492
 2500SOL    HW2 8400   4.681   3.320   6.497
 2501SOL     OW 8401   6.489   4.788   0.542
 2501SOL    HW1 8402   6.490   4.696   0.582
 2501SOL    HW2 8403   6.417   4.793   0.473
 2502SOL     OW 8404   2.131   6.937   3.247
 2502SOL    HW1 8405   2.173   7.008   3.304
 2502SOL    HW2 8406   2.032   6.942   3.257
 2503SOL     OW 8407   4.870   6.213   4.617
 2503SOL    HW1 8408   4.884   6.186   4.521
 2503SOL    HW2 8409   4.959   6.227   4.661
 2504SOL     OW 8410   1.986   4.167   3.203
 2504SOL    HW1 8411   1.959   4.090   3.146
 2504SOL    HW2 8412   2.063   4.139   3.261
 2505SOL     OW 8413   4.507   4.937   4.010
 2505SOL    HW1 8414   4.417   4.894   4.007
 2505SOL    HW2 8415   4.574   4.872   4.048
 2506SOL     OW 8416   0.333   1.323   0.943
 2506SOL    HW1 8417   0.380   1.336   0.855
 2506SOL    HW2 8418   0.284   1.407   0.967
 2507SOL     OW 8419   6.482   5.801   1.186
 2507SOL    HW1 8420   6.412   5.865   1.152
 2507SOL    HW2 8421   6.545   5.851   1.245
 2508SOL     OW 8422   2.349   2.514   2.122
 2508SOL    HW1 8423   2.436   2.496   2.167
 2508SOL    HW2 8424   2.278   2.455   2.161
 2509SOL     OW 8425   5.214   1.847   3.352
 2509SOL    HW1 8426   5.298   1.885   3.391
 2509SOL    HW2 8427   5.166   1.793   3.421
 2510SOL     OW 8428   3.335   5.886   0.909
 2510SOL    HW1 8429   3.317   5.870   1.005
 2510SOL    HW2 8430   3.265   5.841   0.853
 2511SOL     OW 8431   0.895   6.732   4.497
 2511SOL    HW1 8432   0.846   6.645   4.495
 2511SOL    HW2 8433   0.943   6.740   4.585
 2512SOL     OW 8434   4.859   3.085   4.330
 2512SOL    HW1 8435   4.805   3.003   4.315
 2512SOL    HW2 8436   4.923   3.070   4.405
 2513SOL     OW 8437   0.349   4.970   1.526
 2513SOL    HW1 8438   0.332   5.034   1.601
 2513SOL    HW2 8439   0.438   4.927   1.538
 2514SOL     OW 8440   0.926   2.053   4.033
 2514SOL    HW1 8441   0.855   1.984   4.017
 2514SOL    HW2 8442   1.004   2.036   3.972
 2515SOL     OW 8443   1.000   4.817   0.415
 2515SOL    HW1 8444   0.957   4.857   0.334
 2515SOL    HW2 8445   1.092   4.855   0.425
 2516SOL     OW 8446   4.922   6.301   4.096
 2516SOL    HW1 8447   4.844   6.252   4.136
 2516SOL    HW2 8448   5.007   6.266   4.135
 2517SOL     OW 8449   2.682   4.934   0.483
 2517SOL    HW1 8450   2.703   5.008   0.547
 2517SOL    HW2 8451   2.723   4.955   0.394
 2518SOL     OW 8452   2.646   1.790   5.933
 2518SOL    HW1 8453   2.651   1.884   5.900
 2518SOL    HW2 8454   2.583   1.787   6.011
 2519SOL     OW 8455   5.311   4.402   4.927
 2519SOL    HW1 8456   5.372   4.327   4.904
 2519SOL    HW2 8457   5.270   4.439   4.843
 2520SOL     OW 8458   2.616   5.061   2.173
 2520SOL    HW1 8459   2.580   5.003   2.247
 2520SOL    HW2 8460   2.649   5.003   2.099
 2521SOL     OW 8461   5.964   6.958   5.879
 2521SOL    HW1 8462   5.926   0.008   5.829
 2521SOL    HW2 8463   6.061   6.947   5.856
 2522SOL     OW 8464   1.108   3.191   5.421
 2522SOL    HW1 8465   1.142   3.258   5.355
 2522SOL    HW2 8466   1.108   3.100   5.378
 2523SOL     OW 8467   6.616   2.923   6.890
 2523SOL    HW1 8468   6.618   2.932   6.791
 2523SOL    HW2 8469   6.639   2.829   6.915
 2524SOL     OW 8470   0.674   0.037   4.965
 2524SOL    HW1 8471   0.704   0.012   4.873
 2524SOL    HW2 8472   0.590   7.016   4.986
 2525SOL     OW 8473   1.882   4.331   2.863
 2525SOL    HW1 8474   1.902   4.398   2.791
 2525SOL    HW2 8475   1.968   4.300   2.904
 2526SOL     OW 8476   0.564   1.879   5.730
 2526SOL    HW1 8477   0.577   1.954   5.795
 2526SOL    HW2 8478   0.538   1.917   5.642
 2527SOL     OW 8479   5.769   6.795   3.769
 2527SOL    HW1 8480   5.692   6.735   3.746
 2527SOL    HW2 8481   5.792   6.784   3.865
 2528SOL     OW 8482   5.971   5.182   0.637
 2528SOL    HW1 8483   5.883   5.142   0.664
 2528SOL    HW2 8484   6.020   5.211   0.719
 2529SOL     OW 8485   5.303   3.944   5.266
 2529SOL    HW1 8486   5.307   4.012   5.193
 2529SOL    HW2 8487   5.209   3.933   5.296
 2530SOL     OW 8488   1.232   6.801   3.935
 2530SOL    HW1 8489   1.251   6.769   3.842
 2530SOL    HW2 8490   1.177   6.884   3.932
 2531SOL     OW 8491   5.101   1.393   0.348
 2531SOL    HW1 8492   5.012   1.436   0.364
 2531SOL    HW2 8493   5.088   1.300   0.315
 2532SOL     OW 8494   1.528   4.444   5.874
 2532SOL    HW1 8495   1.624   4.454   5.848
 2532SOL    HW2 8496   1.476   4.523   5.843
 2533SOL     OW 8497   5.918   6.672   5.244
 2533SOL    HW1 8498   6.011   6.650   5.216
 2533SOL    HW2 8499   5.874   6.591   5.283
 2534SOL     OW 8500   6.708   1.810   3.765
 2534SOL    HW1 8501   6.686   1.798   3.668
 2534SOL    HW2 8502   6.744   1.724   3.802
 2535SOL     OW 8503   2.128   0.891   2.937
 2535SOL    HW1 8504   2.052   0.845   2.893
 2535SOL    HW2 8505   2.203   0.903   2.872
 2536SOL     OW 8506   6.328   0.737   3.924
 2536SOL    HW1 8507   6.402   0.670   3.918
 2536SOL    HW2 8508   6.248   0.703   3.873
 2537SOL     OW 8509   4.341   5.206   1.476
 2537SOL    HW1 8510   4.316   5.302   1.487
 2537SOL    HW2 8511   4.420   5.199   1.415
 2538SOL     OW 8512   1.618   4.603   5.050
 2538SOL    HW1 8513   1.670   4.677   5.093
 2538SOL    HW2 8514   1.676   4.523   5.038
 2539SOL     OW 8515   2.681   0.520   5.969
 2539SOL    HW1 8516   2.768   0.519   5.919
 2539SOL    HW2 8517   2.685   0.589   6.040
 2540SOL     OW 8518   5.782   1.801   2.232
 2540SOL    HW1 8519   5.871   1.794   2.277
 2540SOL    HW2 8520   5.794   1.788   2.134
 2541SOL     OW 8521   0.383   0.040   5.673
 2541SOL    HW1 8522   0.456   0.052   5.604
 2541SOL    HW2 8523   0.419   0.063   5.763
 2542SOL     OW 8524   3.439   1.589   4.063
 2542SOL    HW1 8525   3.413   1.531   3.986
 2542SOL    HW2 8526   3.485   1.671   4.029
 2543SOL     OW 8527   0.276   2.290   4.760
 2543SOL    HW1 8528   0.225   2.332   4.835
 2543SOL    HW2 8529   0.231   2.312   4.673
 2544SOL     OW 8530   6.216   5.871   2.862
 2544SOL    HW1 8531   6.311   5.887   2.835
 2544SOL    HW2 8532   6.183   5.786   2.821
 2545SOL     OW 8533   6.414   2.060   0.175
 2545SOL    HW1 8534   6.330   2.048   0.123
 2545SOL    HW2 8535   6.443   1.972   0.212
 2546SOL     OW 8536   6.444   4.227   2.617
 2546SOL    HW1 8537   6.513   4.185   2.559
 2546SOL    HW2 8538   6.385   4.156   2.656
 2547SOL     OW 8539   5.594   3.608   0.993
 2547SOL    HW1 8540   5.685   3.644   1.015
 2547SOL    HW2 8541   5.553   3.569   1.076
 2548SOL     OW 8542   0.409   6.561   5.634
 2548SOL    HW1 8543   0.468   6.641   5.629
 2548SOL    HW2 8544   0.315   6.590   5.654
 2549SOL     OW 8545   3.108   3.226   0.452
 2549SOL    HW1 8546   3.066   3.239   0.541
 2549SOL    HW2 8547   3.196   3.273   0.449
 2550SOL     OW 8548   4.139   6.334   6.502
 2550SOL    HW1 8549   4.174   6.340   6.408
 2550SOL    HW2 8550   4.069   6.404   6.516
 2551SOL     OW 8551   3.669   5.089   0.849
 2551SOL    HW1 8552   3.652   5.187   0.863
 2551SOL    HW2 8553   3.747   5.077   0.788
 2552SOL     OW 8554   2.271   5.576   1.853
 2552SOL    HW1 8555   2.265   5.579   1.753
 2552SOL    HW2 8556   2.191   5.621   1.893
 2553SOL     OW 8557   4.262   1.295   0.030
 2553SOL    HW1 8558   4.319   1.375   0.010
 2553SOL    HW2 8559   4.231   1.255   6.972
 2554SOL     OW 8560   1.498   5.992   1.635
 2554SOL    HW1 8561   1.571   5.934   1.597
 2554SOL    HW2 8562   1.490   6.075   1.580
 2555SOL     OW 8563   5.818   6.868   4.454
 2555SOL    HW1 8564   5.784   6.903   4.541
 2555SOL    HW2 8565   5.854   6.776   4.467
 2556SOL     OW 8566   3.749   0.039   0.430
 2556SOL    HW1 8567   3.706   7.011   0.359
 2556SOL    HW2 8568   3.810   0.106   0.388
 2557SOL     OW 8569   2.836   0.916   0.016
 2557SOL    HW1 8570   2.757   0.868   7.008
 2557SOL    HW2 8571   2.864   0.987   6.980
 2558SOL     OW 8572   5.232   3.349   1.187
 2558SOL    HW1 8573   5.217   3.253   1.210
 2558SOL    HW2 8574   5.145   3.398   1.187
 2559SOL     OW 8575   0.772   4.221   4.103
 2559SOL    HW1 8576   0.674   4.201   4.103
 2559SOL    HW2 8577   0.811   4.199   4.192
 2560SOL     OW 8578   4.697   2.212   3.759
 2560SOL    HW1 8579   4.728   2.209   3.664
 2560SOL    HW2 8580   4.775   2.197   3.820
 2561SOL     OW 8581   3.973   0.115   4.425
 2561SOL    HW1 8582   3.936   0.208   4.422
 2561SOL    HW2 8583   4.019   0.100   4.512
 2562SOL     OW 8584   2.163   6.364   4.141
 2562SOL    HW1 8585   2.235   6.350   4.208
 2562SOL    HW2 8586   2.202   6.357   4.049
 2563SOL     OW 8587   3.766   2.430   6.343
 2563SOL    HW1 8588   3.720   2.404   6.427
 2563SOL    HW2 8589   3.736   2.521   6.315
 2564SOL     OW 8590   1.353   1.952   0.100
 2564SOL    HW1 8591   1.442   1.968   0.055
 2564SOL    HW2 8592   1.349   2.005   0.184
 2565SOL     OW 8593   1.033   1.568   0.712
 2565SOL    HW1 8594   1.127   1.537   0.726
 2565SOL    HW2 8595   1.018   1.654   0.761
 2566SOL     OW 8596   2.865   0.748   1.068
 2566SOL    HW1 8597   2.821   0.815   1.009
 2566SOL    HW2 8598   2.817   0.743   1.156
 2567SOL     OW 8599   2.009   1.378   0.046
 2567SOL    HW1 8600   2.048   1.397   6.984
 2567SOL    HW2 8601   1.913   1.406   0.047
 2568SOL     OW 8602   3.428   6.634   0.436
 2568SOL    HW1 8603   3.428   6.733   0.422
 2568SOL    HW2 8604   3.339   6.597   0.408
 2569SOL     OW 8605   1.945   0.267   0.952
 2569SOL    HW1 8606   1.995   0.187   0.983
 2569SOL    HW2 8607   1.924   0.326   1.030
 2570SOL     OW 8608   0.128   5.758   4.799
 2570SOL    HW1 8609   0.151   5.838   4.854
 2570SOL    HW2 8610   0.038   5.772   4.757
 2571SOL     OW 8611   3.341   3.602   4.436
 2571SOL    HW1 8612   3.331   3.697   4.407
 2571SOL    HW2 8613   3.281   3.544   4.381
 2572SOL     OW 8614   1.822   5.393   2.306
 2572SOL    HW1 8615   1.768   5.405   2.389
 2572SOL    HW2 8616   1.760   5.392   2.227
 2573SOL     OW 8617   0.050   1.848   4.356
 2573SOL    HW1 8618   7.024   1.869   4.275
 2573SOL    HW2 8619   0.099   1.762   4.343
 2574SOL     OW 8620   0.859   3.877   2.142
 2574SOL    HW1 8621   0.901   3.797   2.099
 2574SOL    HW2 8622   0.822   3.938   2.072
 2575SOL     OW 8623   5.702   3.594   6.897
 2575SOL    HW1 8624   5.663   3.668   6.842
 2575SOL    HW2 8625   5.789   3.625   6.936
 2576SOL     OW 8626   1.938   0.248   3.687
 2576SOL    HW1 8627   1.843   0.271   3.665
 2576SOL    HW2 8628   1.940   0.184   3.764
 2577SOL     OW 8629   2.234   5.976   1.688
 2577SOL    HW1 8630   2.202   5.993   1.782
 2577SOL    HW2 8631   2.156   5.954   1.630
 2578SOL     OW 8632   4.761   1.989   3.931
 2578SOL    HW1 8633   4.760   2.011   4.029
 2578SOL    HW2 8634   4.855   1.967   3.903
 2579SOL     OW 8635   6.797   1.445   6.078
 2579SOL    HW1 8636   6.799   1.544   6.088
 2579SOL    HW2 8637   6.720   1.418   6.020
 2580SOL     OW 8638   1.518   2.059   6.017
 2580SOL    HW1 8639   1.419   2.049   6.008
 2580SOL    HW2 8640   1.548   2.142   5.969
 2581SOL     OW 8641   6.511   6.958   4.408
 2581SOL    HW1 8642   6.423   6.997   4.435
 2581SOL    HW2 8643   6.580   0.002   4.403
 2582SOL     OW 8644   0.207   5.195   2.801
 2582SOL    HW1 8645   0.301   5.215   2.773
 2582SOL    HW2 8646   0.203   5.184   2.900
 2583SOL     OW 8647   1.936   0.947   6.901
 2583SOL    HW1 8648   1.893   1.036   6.887
 2583SOL    HW2 8649   2.032   0.951   6.873
 2584SOL     OW 8650   5.233   7.013   2.038
 2584SOL    HW1 8651   5.269   6.921   2.022
 2584SOL    HW2 8652   5.134   7.012   2.026
 2585SOL     OW 8653   4.316   1.263   1.578
 2585SOL    HW1 8654   4.351   1.211   1.656
 2585SOL    HW2 8655   4.359   1.353   1.575
 2586SOL     OW 8656   6.525   1.982   4.435
 2586SOL    HW1 8657   6.473   1.897   4.444
 2586SOL    HW2 8658   6.622   1.962   4.443
 2587SOL     OW 8659   6.577   6.598   2.632
 2587SOL    HW1 8660   6.581   6.696   2.616
 2587SOL    HW2 8661   6.664   6.557   2.605
 2588SOL     OW 8662   5.073   0.565   1.737
 2588SOL    HW1 8663   5.022   0.482   1.715
 2588SOL    HW2 8664   5.094   0.614   1.653
 2589SOL     OW 8665   5.692   6.286   0.544
 2589SOL    HW1 8666   5.713   6.189   0.558
 2589SOL    HW2 8667   5.758   6.326   0.481
 2590SOL     OW 8668   4.115   6.380   2.480
 2590SOL    HW1 8669   4.162   6.407   2.396
 2590SOL    HW2 8670   4.137   6.284   2.501
 2591SOL     OW 8671   5.422   0.433   1.601
 2591SOL    HW1 8672   5.342   0.421   1.542
 2591SOL    HW2 8673   5.489   0.362   1.580
 2592SOL     OW 8674   3.221   5.211   1.769
 2592SOL    HW1 8675   3.139   5.241   1.721
 2592SOL    HW2 8676   3.295   5.276   1.754
 2593SOL     OW 8677   3.191   6.807   2.537
 2593SOL    HW1 8678   3.220   6.857   2.456
 2593SOL    HW2 8679   3.197   6.708   2.519
 2594SOL     OW 8680   1.062   6.250   6.126
 2594SOL    HW1 8681   0.995   6.247   6.200
 2594SOL    HW2 8682   1.139   6.309   6.153
 2595SOL     OW 8683   6.241   3.372   4.143
 2595SOL    HW1 8684   6.159   3.357   4.088
 2595SOL    HW2 8685   6.217   3.424   4.225
 2596SOL     OW 8686   4.376   1.877   1.874
 2596SOL    HW1 8687   4.471   1.861   1.902
 2596SOL    HW2 8688   4.332   1.939   1.940
 2597SOL     OW 8689   2.060   2.553   6.770
 2597SOL    HW1 8690   2.056   2.454   6.782
 2597SOL    HW2 8691   1.971   2.587   6.741
 2598SOL     OW 8692   5.954   2.757   2.862
 2598SOL    HW1 8693   5.905   2.837   2.828
 2598SOL    HW2 8694   5.957   2.687   2.791
 2599SOL     OW 8695   4.521   4.440   6.623
 2599SOL    HW1 8696   4.487   4.403   6.537
 2599SOL    HW2 8697   4.503   4.376   6.697
 2600SOL     OW 8698   6.888   3.636   3.650
 2600SOL    HW1 8699   6.883   3.715   3.588
 2600SOL    HW2 8700   6.797   3.596   3.659
 2601SOL     OW 8701   3.580   3.264   5.794
 2601SOL    HW1 8702   3.517   3.330   5.753
 2601SOL    HW2 8703   3.545   3.171   5.782
 2602SOL     OW 8704   6.066   5.731   5.498
 2602SOL    HW1 8705   6.057   5.778   5.410
 2602SOL    HW2 8706   6.162   5.727   5.524
 2603SOL     OW 8707   2.542   3.084   0.039
 2603SOL    HW1 8708   2.464   3.058   7.011
 2603SOL    HW2 8709   2.620   3.106   7.007
 2604SOL     OW 8710   5.661   1.456   1.805
 2604SOL    HW1 8711   5.651   1.545   1.759
 2604SOL    HW2 8712   5.576   1.404   1.793
 2605SOL     OW 8713   4.914   4.456   3.775
 2605SOL    HW1 8714   4.923   4.398   3.856
 2605SOL    HW2 8715   4.829   4.510   3.782
 2606SOL     OW 8716   0.087   4.864   1.910
 2606SOL    HW1 8717   0.008   4.901   1.959
 2606SOL    HW2 8718   0.148   4.819   1.976
 2607SOL     OW 8719   0.770   1.946   4.857
 2607SOL    HW1 8720   0.702   1.916   4.924
 2607SOL    HW2 8721   0.728   2.013   4.795
 2608SOL     OW 8722   5.128   0.177   0.660
 2608SOL    HW1 8723   5.036   0.139   0.653
 2608SOL    HW2 8724   5.144   0.240   0.583
 2609SOL     OW 8725   0.133   2.322   4.524
 2609SOL    HW1 8726   0.073   2.248   4.552
 2609SOL    HW2 8727   0.089   2.410   4.542
 2610SOL     OW 8728   5.873   6.052   4.800
 2610SOL    HW1 8729   5.913   6.143   4.785
 2610SOL    HW2 8730   5.887   5.995   4.719
 2611SOL     OW 8731   3.387   6.237   1.556
 2611SOL    HW1 8732   3.353   6.322   1.517
 2611SOL    HW2 8733   3.445   6.190   1.490
 2612SOL     OW 8734   6.262   0.044   4.412
 2612SOL    HW1 8735   6.210   0.126   4.434
 2612SOL    HW2 8736   6.229   6.996   4.468
 2613SOL     OW 8737   4.179   0.573   0.760
 2613SOL    HW1 8738   4.087   0.603   0.783
 2613SOL    HW2 8739   4.175   0.490   0.704
 2614SOL     OW 8740   0.077   6.241   6.462
 2614SOL    HW1 8741   0.138   6.317   6.439
 2614SOL    HW2 8742   0.073   6.230   6.561
 2615SOL     OW 8743   5.489   5.162   1.861
 2615SOL    HW1 8744   5.582   5.164   1.899
 2615SOL    HW2 8745   5.435   5.236   1.901
 2616SOL     OW 8746   3.758   3.403   2.492
 2616SOL    HW1 8747   3.780   3.380   2.586
 2616SOL    HW2 8748   3.783   3.327   2.432
 2617SOL     OW 8749   3.644   0.343   1.293
 2617SOL    HW1 8750   3.560   0.392   1.318
 2617SOL    HW2 8751   3.645   0.255   1.339
 2618SOL     OW 8752   0.899   0.644   0.660
 2618SOL    HW1 8753   0.854   0.638   0.571
 2618SOL    HW2 8754   0.829   0.653   0.731
 2619SOL     OW 8755   5.220   1.575   1.470
 2619SOL    HW1 8756   5.171   1.651   1.426
 2619SOL    HW2 8757   5.293   1.612   1.528
 2620SOL     OW 8758   1.761   4.235   4.162
 2620SOL    HW1 8759   1.813   4.225   4.247
 2620SOL    HW2 8760   1.823   4.238   4.085
 2621SOL     OW 8761   1.055   4.330   4.290
 2621SOL    HW1 8762   1.065   4.323   4.191
 2621SOL    HW2 8763   0.982   4.268   4.320
 2622SOL     OW 8764   2.960   3.408   6.369
 2622SOL    HW1 8765   3.036   3.413   6.304
 2622SOL    HW2 8766   2.961   3.319   6.414
 2623SOL     OW 8767   3.239   1.073   5.687
 2623SOL    HW1 8768   3.333   1.075   5.651
 2623SOL    HW2 8769   3.234   1.131   5.769
 2624SOL     OW 8770   6.327   2.304   4.003
 2624SOL    HW1 8771   6.385   2.355   3.939
 2624SOL    HW2 8772   6.354   2.325   4.097
 2625SOL     OW 8773   4.485   0.512   5.531
 2625SOL    HW1 8774   4.516   0.603   5.561
 2625SOL    HW2 8775   4.552   0.443   5.559
 2626SOL     OW 8776   2.229   6.287   2.277
 2626SOL    HW1 8777   2.272   6.376   2.264
 2626SOL    HW2 8778   2.271   6.240   2.355
 2627SOL     OW 8779   6.999   0.213   4.689
 2627SOL    HW1 8780   6.923   0.278   4.693
 2627SOL    HW2 8781   6.997   0.155   4.770
 2628SOL     OW 8782   3.503   5.728   5.606
 2628SOL    HW1 8783   3.582   5.711   5.665
 2628SOL    HW2 8784   3.430   5.771   5.660
 2629SOL     OW 8785   3.636   4.368   1.442
 2629SOL    HW1 8786   3.682   4.377   1.530
 2629SOL    HW2 8787   3.666   4.283   1.398
 2630SOL     OW 8788   2.696   2.284   2.403
 2630SOL    HW1 8789   2.680   2.325   2.313
 2630SOL    HW2 8790   2.746   2.199   2.392
 2631SOL     OW 8791   4.619   6.771   4.255
 2631SOL    HW1 8792   4.684   6.847   4.250
 2631SOL    HW2 8793   4.526   6.807   4.247
 2632SOL     OW 8794   5.133   1.635   0.794
 2632SOL    HW1 8795   5.113   1.548   0.750
 2632SOL    HW2 8796   5.218   1.672   0.757
 2633SOL     OW 8797   6.657   2.440   6.560
 2633SOL    HW1 8798   6.651   2.530   6.516
 2633SOL    HW2 8799   6.642   2.369   6.491
 2634SOL     OW 8800   2.420   5.727   1.280
 2634SOL    HW1 8801   2.442   5.723   1.378
 2634SOL    HW2 8802   2.402   5.634   1.247
 2635SOL     OW 8803   5.352   4.658   3.681
 2635SOL    HW1 8804   5.266   4.607   3.673
 2635SOL    HW2 8805   5.333   4.747   3.723
 2636SOL     OW 8806   6.129   0.708   5.197
 2636SOL    HW1 8807   6.129   0.670   5.289
 2636SOL    HW2 8808   6.101   0.803   5.199
 2637SOL     OW 8809   4.720   6.530   2.471
 2637SOL    HW1 8810   4.763   6.603   2.419
 2637SOL    HW2 8811   4.675   6.568   2.552
 2638SOL     OW 8812   5.755   5.805   1.259
 2638SOL    HW1 8813   5.708   5.798   1.347
 2638SOL    HW2 8814   5.827   5.737   1.254
 2639SOL     OW 8815   6.702   6.598   0.427
 2639SOL    HW1 8816   6.753   6.668   0.376
 2639SOL    HW2 8817   6.743   6.508   0.408
 2640SOL     OW 8818   6.697   6.765   6.217
 2640SOL    HW1 8819   6.793   6.776   6.193
 2640SOL    HW2 8820   6.640   6.821   6.157
 2641SOL     OW 8821   5.732   5.016   0.738
 2641SOL    HW1 8822   5.658   4.980   0.683
 2641SOL    HW2 8823   5.801   4.946   0.753
 2642SOL     OW 8824   6.182   0.011   3.879
 2642SOL    HW1 8825   6.196   7.017   3.975
 2642SOL    HW2 8826   6.261   0.061   3.844
 2643SOL     OW 8827   0.690   0.724   2.804
 2643SOL    HW1 8828   0.744   0.640   2.801
 2643SOL    HW2 8829   0.716   0.783   2.728
 2644SOL     OW 8830   0.208   4.976   6.152
 2644SOL    HW1 8831   0.141   5.006   6.085
 2644SOL    HW2 8832   0.169   4.902   6.207
 2645SOL     OW 8833   5.440   5.391   5.450
 2645SOL    HW1 8834   5.531   5.408   5.413
 2645SOL    HW2 8835   5.442   5.402   5.549
 2646SOL     OW 8836   6.443   6.465   6.761
 2646SOL    HW1 8837   6.528   6.454   6.709
 2646SOL    HW2 8838   6.457   6.433   6.855
 2647SOL     OW 8839   3.602   2.189   0.813
 2647SOL    HW1 8840   3.678   2.143   0.860
 2647SOL    HW2 8841   3.582   2.275   0.859
 2648SOL     OW 8842   3.730   0.576   2.630
 2648SOL    HW1 8843   3.791   0.547   2.556
 2648SOL    HW2 8844   3.683   0.496   2.668
 2649SOL     OW 8845   3.885   2.470   5.682
 2649SOL    HW1 8846   3.794   2.481   5.720
 2649SOL    HW2 8847   3.945   2.427   5.750
 2650SOL     OW 8848   0.499   6.492   1.564
 2650SOL    HW1 8849   0.491   6.438   1.648
 2650SOL    HW2 8850   0.587   6.540   1.563
 2651SOL     OW 8851   0.532   0.457   3.427
 2651SOL    HW1 8852   0.447   0.451   3.374
 2651SOL    HW2 8853   0.580   0.541   3.403
 2652SOL     OW 8854   3.192   3.302   2.295
 2652SOL    HW1 8855   3.208   3.371   2.225
 2652SOL    HW2 8856   3.248   3.322   2.375
 2653SOL     OW 8857   6.438   6.039   6.585
 2653SOL    HW1 8858   6.429   5.950   6.540
 2653SOL    HW2 8859   6.375   6.105   6.544
 2654SOL     OW 8860   5.911   2.540   6.299
 2654SOL    HW1 8861   6.005   2.563   6.274
 2654SOL    HW2 8862   5.856   2.528   6.217
 2655SOL     OW 8863   5.278   5.930   4.916
 2655SOL    HW1 8864   5.350   5.955   4.981
 2655SOL    HW2 8865   5.295   5.975   4.828
 2656SOL     OW 8866   5.691   3.627   3.983
 2656SOL    HW1 8867   5.634   3.691   4.034
 2656SOL    HW2 8868   5.640   3.543   3.967
 2657SOL     OW 8869   2.237   2.613   5.774
 2657SOL    HW1 8870   2.280   2.551   5.838
 2657SOL    HW2 8871   2.295   2.693   5.760
 2658SOL     OW 8872   5.842   4.542   5.617
 2658SOL    HW1 8873   5.797   4.457   5.646
 2658SOL    HW2 8874   5.939   4.524   5.602
 2659SOL     OW 8875   0.019   2.817   3.701
 2659SOL    HW1 8876   0.079   2.753   3.652
 2659SOL    HW2 8877   6.976   2.766   3.750
 2660SOL     OW 8878   6.844   1.855   3.327
 2660SOL    HW1 8879   6.901   1.793   3.381
 2660SOL    HW2 8880   6.898   1.893   3.252
 2661SOL     OW 8881   4.335   5.934   1.072
 2661SOL    HW1 8882   4.274   5.967   1.144
 2661SOL    HW2 8883   4.335   5.998   0.995
 2662SOL     OW 8884   3.253   6.677   3.859
 2662SOL    HW1 8885   3.241   6.722   3.948
 2662SOL    HW2 8886   3.272   6.580   3.874
 2663SOL     OW 8887   0.734   4.317   2.568
 2663SOL    HW1 8888   0.812   4.354   2.518
 2663SOL    HW2 8889   0.762   4.237   2.621
 2664SOL     OW 8890   4.159   3.613   1.652
 2664SOL    HW1 8891   4.163   3.624   1.752
 2664SOL    HW2 8892   4.204   3.690   1.608
 2665SOL     OW 8893   3.846   1.085   4.681
 2665SOL    HW1 8894   3.759   1.134   4.669
 2665SOL    HW2 8895   3.919   1.135   4.635
 2666SOL     OW 8896   5.435   5.874   1.485
 2666SOL    HW1 8897   5.373   5.906   1.558
 2666SOL    HW2 8898   5.523   5.850   1.525
 2667SOL     OW 8899   1.204   4.617   3.865
 2667SOL    HW1 8900   1.112   4.604   3.903
 2667SOL    HW2 8901   1.248   4.695   3.910
 2668SOL     OW 8902   0.192   2.469   5.870
 2668SOL    HW1 8903   0.118   2.405   5.892
 2668SOL    HW2 8904   0.178   2.554   5.921
 2669SOL     OW 8905   4.351   4.868   5.526
 2669SOL    HW1 8906   4.280   4.808   5.565
 2669SOL    HW2 8907   4.401   4.912   5.600
 2670SOL     OW 8908   1.562   0.590   6.770
 2670SOL    HW1 8909   1.580   0.555   6.862
 2670SOL    HW2 8910   1.646   0.586   6.716
 2671SOL     OW 8911   2.829   3.785   5.924
 2671SOL    HW1 8912   2.906   3.779   5.860
 2671SOL    HW2 8913   2.827   3.703   5.982
 2672SOL     OW 8914   0.949   4.545   0.708
 2672SOL    HW1 8915   0.907   4.476   0.649
 2672SOL    HW2 8916   0.915   4.635   0.682
 2673SOL     OW 8917   4.479   1.964   3.191
 2673SOL    HW1 8918   4.420   2.017   3.130
 2673SOL    HW2 8919   4.423   1.907   3.250
 2674SOL     OW 8920   5.116   5.298   5.669
 2674SOL    HW1 8921   5.081   5.389   5.692
 2674SOL    HW2 8922   5.118   5.288   5.569
 2675SOL     OW 8923   0.296   3.951   5.639
 2675SOL    HW1 8924   0.338   3.867   5.605
 2675SOL    HW2 8925   0.353   4.029   5.615
 2676SOL     OW 8926   4.308   0.693   1.815
 2676SOL    HW1 8927   4.360   0.711   1.899
 2676SOL    HW2 8928   4.258   0.607   1.825
 2677SOL     OW 8929   2.197   5.108   2.669
 2677SOL    HW1 8930   2.242   5.138   2.585
 2677SOL    HW2 8931   2.104   5.077   2.648
 2678SOL     OW 8932   0.856   5.004   5.943
 2678SOL    HW1 8933   0.932   5.069   5.947
 2678SOL    HW2 8934   0.886   4.916   5.980
 2679SOL     OW 8935   2.695   4.238   1.166
 2679SOL    HW1 8936   2.750   4.242   1.250
 2679SOL    HW2 8937   2.627   4.311   1.166
 2680SOL     OW 8938   1.068   2.263   1.621
 2680SOL    HW1 8939   1.044   2.218   1.534
 2680SOL    HW2 8940   1.167   2.267   1.630
 2681SOL     OW 8941   1.324   1.927   2.468
 2681SOL    HW1 8942   1.418   1.901   2.443
 2681SOL    HW2 8943   1.296   2.005   2.413
 2682SOL     OW 8944   6.396   1.988   3.469
 2682SOL    HW1 8945   6.353   2.069   3.509
 2682SOL    HW2 8946   6.372   1.981   3.372
 2683SOL     OW 8947   1.184   0.071   1.609
 2683SOL    HW1 8948   1.157   7.003   1.592
 2683SOL    HW2 8949   1.275   0.073   1.650
 2684SOL     OW 8950   2.398   6.508   3.172
 2684SOL    HW1 8951   2.380   6.439   3.103
 2684SOL    HW2 8952   2.368   6.475   3.262
 2685SOL     OW 8953   5.515   5.713   5.098
 2685SOL    HW1 8954   5.600   5.667   5.126
 2685SOL    HW2 8955   5.482   5.770   5.173
 2686SOL     OW 8956   1.720   2.817   4.216
 2686SOL    HW1 8957   1.690   2.826   4.121
 2686SOL    HW2 8958   1.770   2.898   4.243
 2687SOL     OW 8959   4.671   5.543   2.683
 2687SOL    HW1 8960   4.638   5.634   2.708
 2687SOL    HW2 8961   4.601   5.475   2.705
 2688SOL     OW 8962   3.757   4.828   6.266
 2688SOL    HW1 8963   3.836   4.797   6.213
 2688SOL    HW2 8964   3.730   4.919   6.235
 2689SOL     OW 8965   6.951   3.045   4.203
 2689SOL    HW1 8966   6.951   3.071   4.106
 2689SOL    HW2 8967   6.857   3.040   4.236
 2690SOL     OW 8968   3.274   3.614   3.672
 2690SOL    HW1 8969   3.184   3.575   3.655
 2690SOL    HW2 8970   3.344   3.555   3.631
 2691SOL     OW 8971   1.212   5.764   1.940
 2691SOL    HW1 8972   1.205   5.844   1.881
 2691SOL    HW2 8973   1.155   5.690   1.904
 2692SOL     OW 8974   0.234   6.507   3.573
 2692SOL    HW1 8975   0.198   6.424   3.530
 2692SOL    HW2 8976   0.301   6.550   3.512
 2693SOL     OW 8977   1.697   4.018   3.077
 2693SOL    HW1 8978   1.785   3.987   3.041
 2693SOL    HW2 8979   1.669   4.102   3.031
 2694SOL     OW 8980   2.245   0.162   3.336
 2694SOL    HW1 8981   2.323   0.185   3.278
 2694SOL    HW2 8982   2.223   0.239   3.395
 2695SOL     OW 8983   3.910   1.880   3.187
 2695SOL    HW1 8984   3.855   1.804   3.218
 2695SOL    HW2 8985   4.007   1.854   3.187
 2696SOL     OW 8986   3.846   3.900   5.622
 2696SOL    HW1 8987   3.802   3.840   5.555
 2696SOL    HW2 8988   3.849   3.993   5.587
 2697SOL     OW 8989   2.534   2.129   4.605
 2697SOL    HW1 8990   2.533   2.206   4.542
 2697SOL    HW2 8991   2.491   2.050   4.562
 2698SOL     OW 8992   2.466   3.423   0.001
 2698SOL    HW1 8993   2.382   3.476   0.014
 2698SOL    HW2 8994   2.473   3.395   6.933
 2699SOL     OW 8995   3.677   5.771   1.717
 2699SOL    HW1 8996   3.753   5.836   1.710
 2699SOL    HW2 8997   3.612   5.788   1.643
 2700SOL     OW 8998   2.100   3.589   2.957
 2700SOL    HW1 8999   2.115   3.494   2.986
 2700SOL    HW2 9000   2.069   3.591   2.862
 2701SOL     OW 9001   3.485   0.004   6.222
 2701SOL    HW1 9002   3.572   0.053   6.221
 2701SOL    HW2 9003   3.445   0.008   6.314
 2702SOL     OW 9004   6.889   0.314   3.407
 2702SOL    HW1 9005   6.973   0.364   3.384
 2702SOL    HW2 9006   6.861   0.337   3.501
 2703SOL     OW 9007   2.108   1.250   2.330
 2703SOL    HW1 9008   2.133   1.346   2.340
 2703SOL    HW2 9009   2.031   1.241   2.266
 2704SOL     OW 9010   1.942   5.385   1.043
 2704SOL    HW1 9011   1.935   5.446   1.122
 2704SOL    HW2 9012   1.861   5.326   1.040
 2705SOL     OW 9013   0.326   4.932   3.162
 2705SOL    HW1 9014   0.316   4.875   3.244
 2705SOL    HW2 9015   0.254   4.909   3.097
 2706SOL     OW 9016   0.186   1.884   1.962
 2706SOL    HW1 9017   0.195   1.984   1.957
 2706SOL    HW2 9018   0.099   1.856   1.921
 2707SOL     OW 9019   2.269   1.307   5.967
 2707SOL    HW1 9020   2.362   1.281   5.994
 2707SOL    HW2 9021   2.243   1.259   5.883
 2708SOL     OW 9022   2.103   2.443   0.793
 2708SOL    HW1 9023   2.192   2.415   0.829
 2708SOL    HW2 9024   2.032   2.421   0.859
 2709SOL     OW 9025   4.714   6.345   0.863
 2709SOL    HW1 9026   4.689   6.286   0.787
 2709SOL    HW2 9027   4.762   6.426   0.829
 2710SOL     OW 9028   5.707   3.838   2.648
 2710SOL    HW1 9029   5.693   3.754   2.700
 2710SOL    HW2 9030   5.669   3.915   2.700
 2711SOL     OW 9031   1.193   0.165   2.161
 2711SOL    HW1 9032   1.158   0.254   2.130
 2711SOL    HW2 9033   1.124   0.095   2.147
 2712SOL     OW 9034   2.916   4.709   0.377
 2712SOL    HW1 9035   2.992   4.725   0.441
 2712SOL    HW2 9036   2.839   4.768   0.403
 2713SOL     OW 9037   2.218   3.149   5.169
 2713SOL    HW1 9038   2.287   3.090   5.127
 2713SOL    HW2 9039   2.179   3.210   5.099
 2714SOL     OW 9040   5.383   0.000   5.299
 2714SOL    HW1 9041   5.401   0.054   5.217
 2714SOL    HW2 9042   5.287   7.001   5.301
 2715SOL     OW 9043   6.870   0.977   6.575
 2715SOL    HW1 9044   6.802   1.045   6.602
 2715SOL    HW2 9045   6.943   0.974   6.644
 2716SOL     OW 9046   0.317   0.124   2.615
 2716SOL    HW1 9047   0.244   0.092   2.555
 2716SOL    HW2 9048   0.302   0.220   2.638
 2717SOL     OW 9049   0.997   0.704   3.212
 2717SOL    HW1 9050   0.902   0.712   3.181
 2717SOL    HW2 9051   1.058   0.733   3.138
 2718SOL     OW 9052   1.598   4.729   3.315
 2718SOL    HW1 9053   1.666   4.718   3.387
 2718SOL    HW2 9054   1.533   4.652   3.319
 2719SOL     OW 9055   4.039   5.270   1.560
 2719SOL    HW1 9056   3.980   5.346   1.586
 2719SOL    HW2 9057   3.996   5.218   1.486
 2720SOL     OW 9058   1.217   6.120   3.893
 2720SOL    HW1 9059   1.272   6.062   3.953
 2720SOL    HW2 9060   1.270   6.147   3.813
 2721SOL     OW 9061   4.048   6.954   4.162
 2721SOL    HW1 9062   4.023   7.010   4.241
 2721SOL    HW2 9063   4.144   6.927   4.170
 2722SOL     OW 9064   1.556   5.784   2.057
 2722SOL    HW1 9065   1.485   5.759   2.122
 2722SOL    HW2 9066   1.645   5.787   2.104
 2723SOL     OW 9067   1.337   1.581   5.484
 2723SOL    HW1 9068   1.369   1.563   5.577
 2723SOL    HW2 9069   1.381   1.518   5.420
 2724SOL     OW 9070   3.674   5.370   6.149
 2724SOL    HW1 9071   3.599   5.411   6.201
 2724SOL    HW2 9072   3.697   5.429   6.072
 2725SOL     OW 9073   2.811   4.821   3.495
 2725SOL    HW1 9074   2.862   4.841   3.578
 2725SOL    HW2 9075   2.871   4.827   3.416
 2726SOL     OW 9076   4.979   5.551   1.746
 2726SOL    HW1 9077   5.058   5.612   1.740
 2726SOL    HW2 9078   4.895   5.606   1.747
 2727SOL     OW 9079   2.225   5.742   3.377
 2727SOL    HW1 9080   2.221   5.683   3.457
 2727SOL    HW2 9081   2.302   5.715   3.319
 2728SOL     OW 9082   3.743   0.470   6.067
 2728SOL    HW1 9083   3.739   0.398   6.136
 2728SOL    HW2 9084   3.729   0.559   6.111
 2729SOL     OW 9085   5.789   4.994   2.659
 2729SOL    HW1 9086   5.713   4.964   2.602
 2729SOL    HW2 9087   5.872   5.001   2.603
 2730SOL     OW 9088   1.973   5.482   1.679
 2730SOL    HW1 9089   2.022   5.424   1.743
 2730SOL    HW2 9090   2.037   5.543   1.633
 2731SOL     OW 9091   3.047   3.635   1.452
 2731SOL    HW1 9092   3.061   3.582   1.536
 2731SOL    HW2 9093   3.066   3.731   1.470
 2732SOL     OW 9094   6.383   2.175   2.938
 2732SOL    HW1 9095   6.324   2.239   2.986
 2732SOL    HW2 9096   6.328   2.120   2.875
 2733SOL     OW 9097   1.358   0.319   5.560
 2733SOL    HW1 9098   1.316   0.233   5.589
 2733SOL    HW2 9099   1.453   0.303   5.533
 2734SOL     OW 9100   2.255   5.793   4.314
 2734SOL    HW1 9101   2.272   5.839   4.227
 2734SOL    HW2 9102   2.331   5.811   4.376
 2735SOL     OW 9103   1.681   4.386   2.126
 2735SOL    HW1 9104   1.596   4.390   2.073
 2735SOL    HW2 9105   1.754   4.432   2.075
 2736SOL     OW 9106   4.192   0.324   5.450
 2736SOL    HW1 9107   4.283   0.289   5.474
 2736SOL    HW2 9108   4.189   0.422   5.466
 2737SOL     OW 9109   4.363   3.474   6.047
 2737SOL    HW1 9110   4.405   3.532   5.977
 2737SOL    HW2 9111   4.427   3.401   6.072
 2738SOL     OW 9112   5.941   5.131   3.820
 2738SOL    HW1 9113   5.987   5.196   3.760
 2738SOL    HW2 9114   5.843   5.153   3.824
 2739SOL     OW 9115   6.305   2.777   1.080
 2739SOL    HW1 9116   6.361   2.852   1.045
 2739SOL    HW2 9117   6.228   2.760   1.018
 2740SOL     OW 9118   6.532   2.186   3.210
 2740SOL    HW1 9119   6.570   2.217   3.122
 2740SOL    HW2 9120   6.466   2.113   3.194
 2741SOL     OW 9121   0.466   2.410   5.908
 2741SOL    HW1 9122   0.521   2.380   5.830
 2741SOL    HW2 9123   0.372   2.425   5.878
 2742SOL     OW 9124   2.166   6.594   6.094
 2742SOL    HW1 9125   2.260   6.581   6.125
 2742SOL    HW2 9126   2.105   6.532   6.144
 2743SOL     OW 9127   5.123   4.504   0.883
 2743SOL    HW1 9128   5.192   4.565   0.844
 2743SOL    HW2 9129   5.087   4.444   0.812
 2744SOL     OW 9130   3.766   1.441   6.581
 2744SOL    HW1 9131   3.733   1.438   6.486
 2744SOL    HW2 9132   3.866   1.437   6.582
 2745SOL     OW 9133   2.470   5.974   0.735
 2745SOL    HW1 9134   2.399   6.030   0.778
 2745SOL    HW2 9135   2.543   6.033   0.703
 2746SOL     OW 9136   1.536   1.756   6.448
 2746SOL    HW1 9137   1.533   1.826   6.377
 2746SOL    HW2 9138   1.608   1.779   6.514
 2747SOL     OW 9139   4.658   5.880   3.996
 2747SOL    HW1 9140   4.690   5.908   3.906
 2747SOL    HW2 9141   4.627   5.784   3.993
 2748SOL     OW 9142   3.699   1.313   4.178
 2748SOL    HW1 9143   3.731   1.225   4.214
 2748SOL    HW2 9144   3.599   1.310   4.167
 2749SOL     OW 9145   4.870   5.336   4.336
 2749SOL    HW1 9146   4.774   5.361   4.324
 2749SOL    HW2 9147   4.925   5.381   4.265
 2750SOL     OW 9148   0.658   6.043   2.362
 2750SOL    HW1 9149   0.710   6.126   2.380
 2750SOL    HW2 9150   0.560   6.065   2.358
 2751SOL     OW 9151   0.999   6.564   6.654
 2751SOL    HW1 9152   0.949   6.507   6.720
 2751SOL    HW2 9153   0.947   6.648   6.637
 2752SOL     OW 9154   6.105   6.290   5.427
 2752SOL    HW1 9155   6.194   6.316   5.465
 2752SOL    HW2 9156   6.044   6.261   5.501
 2753SOL     OW 9157   2.663   5.570   5.605
 2753SOL    HW1 9158   2.647   5.498   5.672
 2753SOL    HW2 9159   2.580   5.585   5.551
 2754SOL     OW 9160   1.195   6.319   4.385
 2754SOL    HW1 9161   1.240   6.358   4.304
 2754SOL    HW2 9162   1.248   6.241   4.418
 2755SOL     OW 9163   4.010   6.011   2.420
 2755SOL    HW1 9164   3.951   6.078   2.375
 2755SOL    HW2 9165   4.065   6.057   2.490
 2756SOL     OW 9166   0.673   2.665   5.572
 2756SOL    HW1 9167   0.648   2.710   5.657
 2756SOL    HW2 9168   0.713   2.575   5.591
 2757SOL     OW 9169   4.335   3.503   6.983
 2757SOL    HW1 9170   4.297   3.591   6.955
 2757SOL    HW2 9171   4.435   3.509   6.986
 2758SOL     OW 9172   7.015   6.666   1.846
 2758SOL    HW1 9173   0.027   6.749   1.886
 2758SOL    HW2 9174   0.061   6.607   1.812
 2759SOL     OW 9175   3.177   3.799   6.064
 2759SOL    HW1 9176   3.126   3.816   6.148
 2759SOL    HW2 9177   3.139   3.719   6.017
 2760SOL     OW 9178   5.625   6.294   3.130
 2760SOL    HW1 9179   5.539   6.340   3.154
 2760SOL    HW2 9180   5.680   6.354   3.071
 2761SOL     OW 9181   1.151   2.583   3.497
 2761SOL    HW1 9182   1.224   2.616   3.557
 2761SOL    HW2 9183   1.064   2.624   3.525
 2762SOL     OW 9184   2.403   2.467   0.393
 2762SOL    HW1 9185   2.382   2.373   0.421
 2762SOL    HW2 9186   2.369   2.530   0.463
 2763SOL     OW 9187   6.490   1.629   4.187
 2763SOL    HW1 9188   6.431   1.709   4.174
 2763SOL    HW2 9189   6.466   1.583   4.273
 2764SOL     OW 9190   0.626   3.025   2.496
 2764SOL    HW1 9191   0.641   3.113   2.451
 2764SOL    HW2 9192   0.666   2.952   2.442
 2765SOL     OW 9193   6.180   6.753   6.563
 2765SOL    HW1 9194   6.104   6.791   6.616
 2765SOL    HW2 9195   6.228   6.827   6.516
 2766SOL     OW 9196   4.757   0.491   0.116
 2766SOL    HW1 9197   4.825   0.420   0.135
 2766SOL    HW2 9198   4.801   0.565   0.064
 2767SOL     OW 9199   0.260   5.365   6.446
 2767SOL    HW1 9200   0.271   5.460   6.417
 2767SOL    HW2 9201   0.221   5.362   6.538
 2768SOL     OW 9202   3.869   0.131   1.483
 2768SOL    HW1 9203   3.874   0.124   1.582
 2768SOL    HW2 9204   3.896   0.223   1.454
 2769SOL     OW 9205   0.497   4.343   5.710
 2769SOL    HW1 9206   0.530   4.420   5.656
 2769SOL    HW2 9207   0.519   4.258   5.664
 2770SOL     OW 9208   2.731   6.171   0.755
 2770SOL    HW1 9209   2.820   6.216   0.753
 2770SOL    HW2 9210   2.679   6.202   0.834
 2771SOL     OW 9211   4.358   6.806   4.989
 2771SOL    HW1 9212   4.294   6.788   5.064
 2771SOL    HW2 9213   4.447   6.766   5.011
 2772SOL     OW 9214   4.678   0.739   3.534
 2772SOL    HW1 9215   4.729   0.653   3.532
 2772SOL    HW2 9216   4.619   0.741   3.614
 2773SOL     OW 9217   5.752   2.991   5.019
 2773SOL    HW1 9218   5.762   2.897   4.987
 2773SOL    HW2 9219   5.814   3.007   5.096
 2774SOL     OW 9220   5.976   1.783   4.301
 2774SOL    HW1 9221   6.038   1.724   4.250
 2774SOL    HW2 9222   6.025   1.823   4.379
 2775SOL     OW 9223   0.478   3.269   4.139
 2775SOL    HW1 9224   0.404   3.217   4.096
 2775SOL    HW2 9225   0.520   3.328   4.071
 2776SOL     OW 9226   5.005   5.051   6.020
 2776SOL    HW1 9227   5.060   5.083   5.943
 2776SOL    HW2 9228   5.049   4.970   6.061
 2777SOL     OW 9229   2.799   2.451   6.224
 2777SOL    HW1 9230   2.827   2.384   6.292
 2777SOL    HW2 9231   2.880   2.497   6.187
 2778SOL     OW 9232   2.792   0.519   6.325
 2778SOL    HW1 9233   2.704   0.564   6.310
 2778SOL    HW2 9234   2.798   0.487   6.419
 2779SOL     OW 9235   4.609   1.073   1.185
 2779SOL    HW1 9236   4.525   1.053   1.235
 2779SOL    HW2 9237   4.688   1.059   1.245
 2780SOL     OW 9238   6.990   1.544   5.058
 2780SOL    HW1 9239   6.988   1.555   5.157
 2780SOL    HW2 9240   0.037   1.600   5.020
 2781SOL     OW 9241   5.601   1.312   3.101
 2781SOL    HW1 9242   5.641   1.229   3.061
 2781SOL    HW2 9243   5.501   1.305   3.097
 2782SOL     OW 9244   5.407   0.291   5.949
 2782SOL    HW1 9245   5.392   0.370   5.891
 2782SOL    HW2 9246   5.475   0.313   6.019
 2783SOL     OW 9247   6.230   3.799   1.808
 2783SOL    HW1 9248   6.244   3.701   1.797
 2783SOL    HW2 9249   6.133   3.817   1.826
 2784SOL     OW 9250   0.884   2.574   0.879
 2784SOL    HW1 9251   0.904   2.546   0.786
 2784SOL    HW2 9252   0.945   2.650   0.905
 2785SOL     OW 9253   6.097   2.890   2.319
 2785SOL    HW1 9254   6.055   2.809   2.279
 2785SOL    HW2 9255   6.194   2.872   2.337
 2786SOL     OW 9256   0.777   5.994   6.489
 2786SOL    HW1 9257   0.770   5.985   6.589
 2786SOL    HW2 9258   0.686   6.001   6.450
 2787SOL     OW 9259   6.988   5.804   6.932
 2787SOL    HW1 9260   7.027   5.727   6.984
 2787SOL    HW2 9261   0.034   5.851   6.883
 2788SOL     OW 9262   3.010   6.820   6.192
 2788SOL    HW1 9263   2.920   6.864   6.192
 2788SOL    HW2 9264   3.026   6.776   6.104
 2789SOL     OW 9265   1.043   1.898   5.236
 2789SOL    HW1 9266   0.979   1.960   5.281
 2789SOL    HW2 9267   1.040   1.914   5.137
 2790SOL     OW 9268   1.354   5.398   2.217
 2790SOL    HW1 9269   1.263   5.409   2.177
 2790SOL    HW2 9270   1.375   5.301   2.227
 2791SOL     OW 9271   0.977   3.298   3.177
 2791SOL    HW1 9272   1.073   3.277   3.158
 2791SOL    HW2 9273   0.922   3.216   3.164
 2792SOL     OW 9274   3.599   1.247   5.818
 2792SOL    HW1 9275   3.558   1.338   5.813
 2792SOL    HW2 9276   3.554   1.187   5.752
 2793SOL     OW 9277   3.796   3.911   0.455
 2793SOL    HW1 9278   3.705   3.946   0.431
 2793SOL    HW2 9279   3.852   3.986   0.491
 2794SOL     OW 9280   0.751   2.545   6.827
 2794SOL    HW1 9281   0.687   2.619   6.847
 2794SOL    HW2 9282   0.844   2.581   6.822
 2795SOL     OW 9283   1.197   6.218   1.690
 2795SOL    HW1 9284   1.190   6.208   1.591
 2795SOL    HW2 9285   1.108   6.241   1.729
 2796SOL     OW 9286   1.927   5.502   6.365
 2796SOL    HW1 9287   1.917   5.411   6.326
 2796SOL    HW2 9288   1.856   5.562   6.330
 2797SOL     OW 9289   5.129   5.299   3.678
 2797SOL    HW1 9290   5.140   5.282   3.580
 2797SOL    HW2 9291   5.081   5.386   3.691
 2798SOL     OW 9292   5.032   1.154   1.516
 2798SOL    HW1 9293   5.131   1.166   1.516
 2798SOL    HW2 9294   4.987   1.239   1.543
 2799SOL     OW 9295   3.457   6.349   4.813
 2799SOL    HW1 9296   3.519   6.278   4.847
 2799SOL    HW2 9297   3.397   6.309   4.743
 2800SOL     OW 9298   5.846   0.240   6.028
 2800SOL    HW1 9299   5.837   0.257   5.930
 2800SOL    HW2 9300   5.821   0.323   6.079
 2801SOL     OW 9301   6.978   4.263   4.630
 2801SOL    HW1 9302   0.024   4.195   4.631
 2801SOL    HW2 9303   6.939   4.268   4.538
 2802SOL     OW 9304   1.789   4.768   5.188
 2802SOL    HW1 9305   1.753   4.801   5.275
 2802SOL    HW2 9306   1.882   4.736   5.200
 2803SOL     OW 9307   4.138   2.507   6.082
 2803SOL    HW1 9308   4.078   2.434   6.049
 2803SOL    HW2 9309   4.167   2.486   6.176
 2804SOL     OW 9310   6.841   2.388   4.030
 2804SOL    HW1 9311   6.926   2.393   3.977
 2804SOL    HW2 9312   6.801   2.297   4.020
 2805SOL     OW 9313   3.456   2.943   0.984
 2805SOL    HW1 9314   3.358   2.941   1.002
 2805SOL    HW2 9315   3.472   2.969   0.889
 2806SOL     OW 9316   0.066   3.416   6.072
 2806SOL    HW1 9317   0.061   3.511   6.102
 2806SOL    HW2 9318   0.024   3.357   6.141
 2807SOL     OW 9319   4.044   0.860   3.730
 2807SOL    HW1 9320   4.069   0.774   3.774
 2807SOL    HW2 9321   4.108   0.932   3.757
 2808SOL     OW 9322   0.295   4.558   5.660
 2808SOL    HW1 9323   0.313   4.486   5.727
 2808SOL    HW2 9324   0.233   4.626   5.700
 2809SOL     OW 9325   0.222   5.687   2.565
 2809SOL    HW1 9326   0.239   5.617   2.495
 2809SOL    HW2 9327   0.257   5.775   2.533
 2810SOL     OW 9328   2.281   6.960   2.945
 2810SOL    HW1 9329   2.197   6.935   2.896
 2810SOL    HW2 9330   2.305   6.887   3.009
 2811SOL     OW 9331   1.057   0.892   1.282
 2811SOL    HW1 9332   0.972   0.928   1.242
 2811SOL    HW2 9333   1.043   0.871   1.378
 2812SOL     OW 9334   1.140   1.234   0.929
 2812SOL    HW1 9335   1.235   1.266   0.922
 2812SOL    HW2 9336   1.122   1.165   0.859
 2813SOL     OW 9337   0.869   3.134   1.887
 2813SOL    HW1 9338   0.931   3.055   1.886
 2813SOL    HW2 9339   0.777   3.104   1.912
 2814SOL     OW 9340   2.597   4.175   0.414
 2814SOL    HW1 9341   2.633   4.146   0.503
 2814SOL    HW2 9342   2.630   4.267   0.393
 2815SOL     OW 9343   0.053   4.484   4.775
 2815SOL    HW1 9344   7.016   4.486   4.852
 2815SOL    HW2 9345   0.026   4.411   4.712
 2816SOL     OW 9346   0.494   5.711   5.633
 2816SOL    HW1 9347   0.540   5.628   5.665
 2816SOL    HW2 9348   0.450   5.757   5.710
 2817SOL     OW 9349   3.484   0.715   2.523
 2817SOL    HW1 9350   3.530   0.796   2.487
 2817SOL    HW2 9351   3.548   0.662   2.579
 2818SOL     OW 9352   2.172   0.337   0.440
 2818SOL    HW1 9353   2.102   0.291   0.387
 2818SOL    HW2 9354   2.156   0.436   0.438
 2819SOL     OW 9355   1.026   0.304   6.674
 2819SOL    HW1 9356   0.927   0.286   6.672
 2819SOL    HW2 9357   1.043   0.400   6.653
 2820SOL     OW 9358   1.620   2.661   6.813
 2820SOL    HW1 9359   1.556   2.696   6.883
 2820SOL    HW2 9360   1.621   2.561   6.816
 2821SOL     OW 9361   3.581   3.343   6.178
 2821SOL    HW1 9362   3.668   3.296   6.166
 2821SOL    HW2 9363   3.506   3.277   6.175
 2822SOL     OW 9364   4.726   3.006   0.212
 2822SOL    HW1 9365   4.758   2.916   0.182
 2822SOL    HW2 9366   4.639   2.997   0.260
 2823SOL     OW 9367   5.010   2.728   1.246
 2823SOL    HW1 9368   5.062   2.653   1.288
 2823SOL    HW2 9369   4.941   2.691   1.184
 2824SOL     OW 9370   1.217   3.720   4.398
 2824SOL    HW1 9371   1.278   3.763   4.465
 2824SOL    HW2 9372   1.216   3.621   4.412
 2825SOL     OW 9373   5.519   1.665   6.278
 2825SOL    HW1 9374   5.552   1.702   6.364
 2825SOL    HW2 9375   5.593   1.616   6.231
 2826SOL     OW 9376   2.466   2.532   6.320
 2826SOL    HW1 9377   2.555   2.552   6.280
 2826SOL    HW2 9378   2.435   2.610   6.374
 2827SOL     OW 9379   6.357   1.272   6.280
 2827SOL    HW1 9380   6.375   1.264   6.378
 2827SOL    HW2 9381   6.423   1.335   6.239
 2828SOL     OW 9382   1.651   3.741   1.061
 2828SOL    HW1 9383   1.721   3.696   1.006
 2828SOL    HW2 9384   1.646   3.838   1.034
 2829SOL     OW 9385   3.262   3.835   2.288
 2829SOL    HW1 9386   3.339   3.795   2.337
 2829SOL    HW2 9387   3.297   3.897   2.218
 2830SOL     OW 9388   3.235   5.955   5.150
 2830SOL    HW1 9389   3.230   6.008   5.235
 2830SOL    HW2 9390   3.187   6.004   5.077
 2831SOL     OW 9391   5.481   1.815   1.949
 2831SOL    HW1 9392   5.410   1.747   1.932
 2831SOL    HW2 9393   5.489   1.830   2.048
 2832SOL     OW 9394   0.869   3.709   1.851
 2832SOL    HW1 9395   0.958   3.674   1.821
 2832SOL    HW2 9396   0.812   3.633   1.882
 2833SOL     OW 9397   1.305   2.617   2.185
 2833SOL    HW1 9398   1.238   2.545   2.202
 2833SOL    HW2 9399   1.324   2.666   2.271
 2834SOL     OW 9400   3.820   6.299   4.599
 2834SOL    HW1 9401   3.789   6.223   4.656
 2834SOL    HW2 9402   3.895   6.347   4.645
 2835SOL     OW 9403   6.529   0.828   6.771
 2835SOL    HW1 9404   6.468   0.839   6.850
 2835SOL    HW2 9405   6.624   0.827   6.802
 2836SOL     OW 9406   3.048   5.754   2.584
 2836SOL    HW1 9407   3.105   5.691   2.531
 2836SOL    HW2 9408   2.951   5.735   2.566
 2837SOL     OW 9409   5.183   4.258   1.907
 2837SOL    HW1 9410   5.108   4.212   1.953
 2837SOL    HW2 9411   5.226   4.323   1.970
 2838SOL     OW 9412   6.663   4.558   6.765
 2838SOL    HW1 9413   6.651   4.651   6.799
 2838SOL    HW2 9414   6.573   4.513   6.759
 2839SOL     OW 9415   5.997   3.420   4.908
 2839SOL    HW1 9416   5.959   3.512   4.912
 2839SOL    HW2 9417   5.931   3.357   4.868
 2840SOL     OW 9418   6.963   6.849   4.431
 2840SOL    HW1 9419   6.906   6.780   4.476
 2840SOL    HW2 9420   6.944   6.850   4.333
 2841SOL     OW 9421   5.739   4.276   2.241
 2841SOL    HW1 9422   5.690   4.195   2.272
 2841SOL    HW2 9423   5.714   4.355   2.297
 2842SOL     OW 9424   1.095   0.423   3.683
 2842SOL    HW1 9425   1.140   0.410   3.771
 2842SOL    HW2 9426   1.154   0.476   3.623
 2843SOL     OW 9427   2.155   2.388   3.750
 2843SOL    HW1 9428   2.058   2.392   3.724
 2843SOL    HW2 9429   2.211   2.374   3.669
 2844SOL     OW 9430   4.978   3.707   0.456
 2844SOL    HW1 9431   4.899   3.673   0.506
 2844SOL    HW2 9432   5.030   3.630   0.418
 2845SOL     OW 9433   3.205   1.745   2.396
 2845SOL    HW1 9434   3.144   1.802   2.452
 2845SOL    HW2 9435   3.153   1.671   2.354
 2846SOL     OW 9436   6.738   0.134   6.659
 2846SOL    HW1 9437   6.718   0.110   6.754
 2846SOL    HW2 9438   6.673   0.087   6.598
 2847SOL     OW 9439   4.483   4.787   1.096
 2847SOL    HW1 9440   4.546   4.788   1.174
 2847SOL    HW2 9441   4.468   4.881   1.065
 2848SOL     OW 9442   0.778   4.211   5.384
 2848SOL    HW1 9443   0.878   4.202   5.383
 2848SOL    HW2 9444   0.746   4.228   5.291
 2849SOL     OW 9445   5.070   0.229   1.626
 2849SOL    HW1 9446   4.984   0.275   1.651
 2849SOL    HW2 9447   5.093   0.250   1.531
 2850SOL     OW 9448   1.525   0.737   2.240
 2850SOL    HW1 9449   1.469   0.708   2.317
 2850SOL    HW2 9450   1.612   0.773   2.274
 2851SOL     OW 9451   3.458   3.043   1.662
 2851SOL    HW1 9452   3.434   2.970   1.726
 2851SOL    HW2 9453   3.375   3.085   1.626
 2852SOL     OW 9454   6.528   4.769   5.760
 2852SOL    HW1 9455   6.442   4.820   5.757
 2852SOL    HW2 9456   6.529   4.702   5.686
 2853SOL     OW 9457   0.057   4.103   5.686
 2853SOL    HW1 9458   0.138   4.045   5.686
 2853SOL    HW2 9459   7.015   4.062   5.745
 2854SOL     OW 9460   4.255   0.623   5.705
 2854SOL    HW1 9461   4.194   0.611   5.626
 2854SOL    HW2 9462   4.291   0.534   5.733
 2855SOL     OW 9463   2.336   1.649   5.057
 2855SOL    HW1 9464   2.266   1.580   5.076
 2855SOL    HW2 9465   2.370   1.637   4.964
 2856SOL     OW 9466   1.017   5.543   3.838
 2856SOL    HW1 9467   0.998   5.519   3.743
 2856SOL    HW2 9468   0.930   5.558   3.887
 2857SOL     OW 9469   7.001   4.644   1.049
 2857SOL    HW1 9470   0.070   4.640   1.024
 2857SOL    HW2 9471   6.984   4.580   1.124
 2858SOL     OW 9472   4.746   4.617   2.237
 2858SOL    HW1 9473   4.717   4.593   2.144
 2858SOL    HW2 9474   4.722   4.542   2.300
 2859SOL     OW 9475   5.572   4.854   1.521
 2859SOL    HW1 9476   5.589   4.758   1.497
 2859SOL    HW2 9477   5.491   4.859   1.580
 2860SOL     OW 9478   0.865   0.189   2.492
 2860SOL    HW1 9479   0.794   0.148   2.549
 2860SOL    HW2 9480   0.944   0.128   2.487
 2861SOL     OW 9481   4.729   4.435   5.640
 2861SOL    HW1 9482   4.639   4.394   5.624
 2861SOL    HW2 9483   4.748   4.436   5.738
 2862SOL     OW 9484   4.583   2.950   6.898
 2862SOL    HW1 9485   4.634   3.012   6.958
 2862SOL    HW2 9486   4.646   2.891   6.849
 2863SOL     OW 9487   5.773   1.488   5.247
 2863SOL    HW1 9488   5.684   1.485   5.200
 2863SOL    HW2 9489   5.808   1.581   5.244
 2864SOL     OW 9490   3.979   4.370   0.428
 2864SOL    HW1 9491   3.976   4.458   0.476
 2864SOL    HW2 9492   4.003   4.385   0.332
 2865SOL     OW 9493   5.776   4.956   4.583
 2865SOL    HW1 9494   5.710   4.888   4.614
 2865SOL    HW2 9495   5.727   5.041   4.560
 2866SOL     OW 9496   3.905   4.152   0.197
 2866SOL    HW1 9497   3.957   4.091   0.257
 2866SOL    HW2 9498   3.966   4.219   0.156
 2867SOL     OW 9499   5.467   6.299   2.453
 2867SOL    HW1 9500   5.382   6.346   2.428
 2867SOL    HW2 9501   5.544   6.345   2.409
 2868SOL     OW 9502   0.678   6.996   5.751
 2868SOL    HW1 9503   0.773   7.022   5.739
 2868SOL    HW2 9504   0.642   0.013   5.833
 2869SOL     OW 9505   6.298   5.707   4.157
 2869SOL    HW1 9506   6.311   5.668   4.066
 2869SOL    HW2 9507   6.369   5.776   4.174
 2870SOL     OW 9508   6.596   2.211   2.331
 2870SOL    HW1 9509   6.562   2.229   2.423
 2870SOL    HW2 9510   6.690   2.244   2.323
 2871SOL     OW 9511   4.418   1.312   2.324
 2871SOL    HW1 9512   4.356   1.258   2.380
 2871SOL    HW2 9513   4.383   1.405   2.315
 2872SOL     OW 9514   2.324   2.079   2.312
 2872SOL    HW1 9515   2.373   2.125   2.386
 2872SOL    HW2 9516   2.385   2.064   2.235
 2873SOL     OW 9517   0.621   6.923   1.544
 2873SOL    HW1 9518   0.593   6.974   1.626
 2873SOL    HW2 9519   0.547   6.926   1.476
 2874SOL     OW 9520   2.501   1.198   3.370
 2874SOL    HW1 9521   2.598   1.175   3.367
 2874SOL    HW2 9522   2.460   1.179   3.280
 2875SOL     OW 9523   2.049   0.131   3.045
 2875SOL    HW1 9524   2.137   0.084   3.054
 2875SOL    HW2 9525   2.004   0.134   3.134
 2876SOL     OW 9526   1.828   0.115   1.774
 2876SOL    HW1 9527   1.912   0.155   1.813
 2876SOL    HW2 9528   1.842   0.098   1.676
 2877SOL     OW 9529   1.368   2.365   6.672
 2877SOL    HW1 9530   1.327   2.446   6.630
 2877SOL    HW2 9531   1.429   2.394   6.747
 2878SOL     OW 9532   4.018   3.313   4.002
 2878SOL    HW1 9533   3.963   3.235   4.034
 2878SOL    HW2 9534   3.989   3.338   3.910
 2879SOL     OW 9535   5.238   4.243   0.183
 2879SOL    HW1 9536   5.218   4.279   0.092
 2879SOL    HW2 9537   5.218   4.313   0.251
 2880SOL     OW 9538   2.132   1.023   3.452
 2880SOL    HW1 9539   2.077   1.098   3.415
 2880SOL    HW2 9540   2.111   0.939   3.401
 2881SOL     OW 9541   5.286   5.997   6.964
 2881SOL    HW1 9542   5.331   5.958   0.017
 2881SOL    HW2 9543   5.202   5.946   6.945
 2882SOL     OW 9544   4.398   6.117   0.172
 2882SOL    HW1 9545   4.300   6.130   0.193
 2882SOL    HW2 9546   4.444   6.206   0.174
 2883SOL     OW 9547   6.055   6.314   4.272
 2883SOL    HW1 9548   5.979   6.281   4.327
 2883SOL    HW2 9549   6.029   6.314   4.175
 2884SOL     OW 9550   5.921   5.080   4.218
 2884SOL    HW1 9551   5.937   4.989   4.179
 2884SOL    HW2 9552   5.968   5.088   4.306
 2885SOL     OW 9553   1.226   2.621   3.254
 2885SOL    HW1 9554   1.222   2.611   3.354
 2885SOL    HW2 9555   1.220   2.717   3.230
 2886SOL     OW 9556   2.212   4.393   5.288
 2886SOL    HW1 9557   2.200   4.322   5.358
 2886SOL    HW2 9558   2.291   4.370   5.231
 2887SOL     OW 9559   0.561   5.804   3.131
 2887SOL    HW1 9560   0.584   5.773   3.039
 2887SOL    HW2 9561   0.481   5.755   3.164
 2888SOL     OW 9562   6.059   6.979   6.366
 2888SOL    HW1 9563   6.039   7.022   6.454
 2888SOL    HW2 9564   5.996   7.014   6.296
 2889SOL     OW 9565   3.631   6.065   2.739
 2889SOL    HW1 9566   3.568   6.137   2.709
 2889SOL    HW2 9567   3.723   6.104   2.747
 2890SOL     OW 9568   1.023   2.113   1.403
 2890SOL    HW1 9569   1.111   2.131   1.359
 2890SOL    HW2 9570   0.988   2.024   1.374
 2891SOL     OW 9571   6.640   2.140   4.787
 2891SOL    HW1 9572   6.731   2.178   4.771
 2891SOL    HW2 9573   6.641   2.043   4.762
 2892SOL     OW 9574   5.568   4.076   2.316
 2892SOL    HW1 9575   5.579   3.978   2.297
 2892SOL    HW2 9576   5.471   4.100   2.313
 2893SOL     OW 9577   6.985   5.418   4.515
 2893SOL    HW1 9578   6.944   5.428   4.606
 2893SOL    HW2 9579   0.045   5.466   4.513
 2894SOL     OW 9580   1.969   5.329   2.574
 2894SOL    HW1 9581   1.900   5.363   2.510
 2894SOL    HW2 9582   1.927   5.315   2.664
 2895SOL     OW 9583   4.364   6.961   5.934
 2895SOL    HW1 9584   4.362   6.907   5.850
 2895SOL    HW2 9585   4.413   6.910   6.005
 2896SOL     OW 9586   5.096   0.027   4.474
 2896SOL    HW1 9587   5.122   0.120   4.501
 2896SOL    HW2 9588   5.022   7.023   4.533
 2897SOL     OW 9589   4.260   5.006   3.190
 2897SOL    HW1 9590   4.268   4.939   3.116
 2897SOL    HW2 9591   4.301   4.969   3.273
 2898SOL     OW 9592   5.490   2.651   2.615
 2898SOL    HW1 9593   5.458   2.744   2.635
 2898SOL    HW2 9594   5.451   2.620   2.528
 2899SOL     OW 9595   6.946   3.881   1.019
 2899SOL    HW1 9596   6.969   3.840   0.930
 2899SOL    HW2 9597   6.892   3.816   1.072
 2900SOL     OW 9598   2.704   3.264   5.897
 2900SOL    HW1 9599   2.658   3.190   5.847
 2900SOL    HW2 9600   2.677   3.261   5.993
 2901SOL     OW 9601   0.429   3.661   3.100
 2901SOL    HW1 9602   0.493   3.654   3.177
 2901SOL    HW2 9603   0.411   3.570   3.064
 2902SOL     OW 9604   6.916   6.341   4.300
 2902SOL    HW1 9605   6.951   6.411   4.239
 2902SOL    HW2 9606   6.818   6.357   4.317
 2903SOL     OW 9607   5.058   4.721   0.311
 2903SOL    HW1 9608   5.079   4.662   0.389
 2903SOL    HW2 9609   5.120   4.699   0.236
 2904SOL     OW 9610   2.362   3.947   5.441
 2904SOL    HW1 9611   2.434   3.988   5.497
 2904SOL    HW2 9612   2.397   3.927   5.350
 2905SOL     OW 9613   1.574   5.847   1.391
 2905SOL    HW1 9614   1.500   5.913   1.381
 2905SOL    HW2 9615   1.660   5.888   1.361
 2906SOL     OW 9616   6.232   6.076   4.280
 2906SOL    HW1 9617   6.158   6.100   4.218
 2906SOL    HW2 9618   6.235   6.141   4.355
 2907SOL     OW 9619   0.455   1.066   4.691
 2907SOL    HW1 9620   0.491   1.107   4.774
 2907SOL    HW2 9621   0.389   1.129   4.649
 2908SOL     OW 9622   4.360   6.887   2.905
 2908SOL    HW1 9623   4.420   6.810   2.923
 2908SOL    HW2 9624   4.279   6.856   2.855
 2909SOL     OW 9625   6.909   6.413   1.433
 2909SOL    HW1 9626   6.896   6.370   1.344
 2909SOL    HW2 9627   6.979   6.364   1.485
 2910SOL     OW 9628   0.356   0.891   3.992
 2910SOL    HW1 9629   0.415   0.812   3.974
 2910SOL    HW2 9630   0.402   0.954   4.054
 2911SOL     OW 9631   0.034   4.351   5.555
 2911SOL    HW1 9632   0.066   4.268   5.601
 2911SOL    HW2 9633   0.016   4.330   5.459
 2912SOL     OW 9634   1.042   1.605   1.871
 2912SOL    HW1 9635   0.965   1.662   1.898
 2912SOL    HW2 9636   1.075   1.634   1.781
 2913SOL     OW 9637   3.171   6.546   2.510
 2913SOL    HW1 9638   3.157   6.518   2.605
 2913SOL    HW2 9639   3.134   6.476   2.449
 2914SOL     OW 9640   4.303   5.585   0.699
 2914SOL    HW1 9641   4.248   5.515   0.744
 2914SOL    HW2 9642   4.332   5.653   0.767
 2915SOL     OW 9643   2.655   0.197   2.735
 2915SOL    HW1 9644   2.579   0.133   2.743
 2915SOL    HW2 9645   2.696   0.188   2.644
 2916SOL     OW 9646   1.424   5.979   6.794
 2916SOL    HW1 9647   1.360   5.911   6.829
 2916SOL    HW2 9648   1.375   6.062   6.769
 2917SOL     OW 9649   3.105   6.877   3.719
 2917SOL    HW1 9650   3.176   6.831   3.772
 2917SOL    HW2 9651   3.147   6.939   3.653
 2918SOL     OW 9652   4.798   2.716   1.587
 2918SOL    HW1 9653   4.790   2.618   1.568
 2918SOL    HW2 9654   4.755   2.768   1.514
 2919SOL     OW 9655   0.621   5.654   5.256
 2919SOL    HW1 9656   0.662   5.742   5.234
 2919SOL    HW2 9657   0.666   5.615   5.336
 2920SOL     OW 9658   1.721   2.521   2.757
 2920SOL    HW1 9659   1.699   2.588   2.686
 2920SOL    HW2 9660   1.735   2.431   2.715
 2921SOL     OW 9661   1.074   6.485   3.689
 2921SOL    HW1 9662   1.000   6.446   3.743
 2921SOL    HW2 9663   1.160   6.475   3.738
 2922SOL     OW 9664   3.726   6.203   4.166
 2922SOL    HW1 9665   3.646   6.160   4.123
 2922SOL    HW2 9666   3.793   6.226   4.096
 2923SOL     OW 9667   6.453   5.281   5.110
 2923SOL    HW1 9668   6.472   5.244   5.020
 2923SOL    HW2 9669   6.418   5.374   5.102
 2924SOL     OW 9670   6.101   1.806   5.519
 2924SOL    HW1 9671   6.141   1.897   5.510
 2924SOL    HW2 9672   6.168   1.737   5.488
 2925SOL     OW 9673   5.320   6.703   5.383
 2925SOL    HW1 9674   5.372   6.618   5.381
 2925SOL    HW2 9675   5.241   6.693   5.444
 2926SOL     OW 9676   6.327   2.927   4.436
 2926SOL    HW1 9677   6.386   2.879   4.501
 2926SOL    HW2 9678   6.231   2.919   4.465
 2927SOL     OW 9679   1.271   1.864   1.791
 2927SOL    HW1 9680   1.301   1.769   1.782
 2927SOL    HW2 9681   1.288   1.912   1.705
 2928SOL     OW 9682   6.280   2.939   0.178
 2928SOL    HW1 9683   6.379   2.921   0.178
 2928SOL    HW2 9684   6.261   3.018   0.119
 2929SOL     OW 9685   2.322   2.380   4.151
 2929SOL    HW1 9686   2.316   2.393   4.250
 2929SOL    HW2 9687   2.240   2.418   4.108
 2930SOL     OW 9688   0.658   3.823   4.223
 2930SOL    HW1 9689   0.581   3.885   4.235
 2930SOL    HW2 9690   0.673   3.807   4.125
 2931SOL     OW 9691   4.986   3.761   5.667
 2931SOL    HW1 9692   4.923   3.835   5.690
 2931SOL    HW2 9693   4.933   3.680   5.642
 2932SOL     OW 9694   6.007   4.901   1.128
 2932SOL    HW1 9695   6.093   4.941   1.161
 2932SOL    HW2 9696   5.963   4.965   1.066
 2933SOL     OW 9697   1.220   6.432   6.890
 2933SOL    HW1 9698   1.231   6.502   6.819
 2933SOL    HW2 9699   1.123   6.423   6.914
 2934SOL     OW 9700   3.608   4.334   0.896
 2934SOL    HW1 9701   3.515   4.300   0.888
 2934SOL    HW2 9702   3.665   4.291   0.826
 2935SOL     OW 9703   0.593   2.344   6.372
 2935SOL    HW1 9704   0.510   2.397   6.356
 2935SOL    HW2 9705   0.634   2.372   6.460
 2936SOL     OW 9706   4.882   5.909   1.513
 2936SOL    HW1 9707   4.964   5.866   1.474
 2936SOL    HW2 9708   4.884   6.007   1.494
 2937SOL     OW 9709   5.028   4.288   2.662
 2937SOL    HW1 9710   5.027   4.242   2.751
 2937SOL    HW2 9711   5.047   4.221   2.590
 2938SOL     OW 9712   0.133   5.389   6.158
 2938SOL    HW1 9713   0.171   5.340   6.236
 2938SOL    HW2 9714   0.113   5.325   6.084
 2939SOL     OW 9715   0.242   6.580   1.751
 2939SOL    HW1 9716   0.218   6.646   1.679
 2939SOL    HW2 9717   0.306   6.623   1.815
 2940SOL     OW 9718   4.223   6.664   3.976
 2940SOL    HW1 9719   4.141   6.633   4.026
 2940SOL    HW2 9720   4.196   6.731   3.907
 2941SOL     OW 9721   1.753   4.933   3.209
 2941SOL    HW1 9722   1.833   4.963   3.262
 2941SOL    HW2 9723   1.716   4.849   3.248
 2942SOL     OW 9724   3.484   1.524   1.420
 2942SOL    HW1 9725   3.544   1.445   1.405
 2942SOL    HW2 9726   3.510   1.598   1.358
 2943SOL     OW 9727   6.130   4.075   2.998
 2943SOL    HW1 9728   6.145   4.172   2.978
 2943SOL    HW2 9729   6.091   4.031   2.918
 2944SOL     OW 9730   1.804   5.766   2.464
 2944SOL    HW1 9731   1.867   5.795   2.537
 2944SOL    HW2 9732   1.767   5.675   2.486
 2945SOL     OW 9733   4.475   4.602   0.910
 2945SOL    HW1 9734   4.509   4.673   0.972
 2945SOL    HW2 9735   4.487   4.512   0.952
 2946SOL     OW 9736   3.826   3.532   5.179
 2946SOL    HW1 9737   3.776   3.578   5.253
 2946SOL    HW2 9738   3.917   3.570   5.171
 2947SOL     OW 9739   6.388   6.085   0.783
 2947SOL    HW1 9740   6.335   6.170   0.773
 2947SOL    HW2 9741   6.329   6.014   0.821
 2948SOL     OW 9742   6.827   3.252   2.475
 2948SOL    HW1 9743   6.846   3.204   2.560
 2948SOL    HW2 9744   6.907   3.306   2.449
 2949SOL     OW 9745   1.737   6.241   0.523
 2949SOL    HW1 9746   1.805   6.314   0.514
 2949SOL    HW2 9747   1.743   6.180   0.443
 2950SOL     OW 9748   6.084   5.303   2.767
 2950SOL    HW1 9749   5.997   5.266   2.737
 2950SOL    HW2 9750   6.151   5.297   2.692
 2951SOL     OW 9751   0.006   1.228   1.586
 2951SOL    HW1 9752   6.966   1.196   1.653
 2951SOL    HW2 9753   6.990   1.293   1.523
 2952SOL     OW 9754   6.719   1.878   5.042
 2952SOL    HW1 9755   6.627   1.897   5.077
 2952SOL    HW2 9756   6.782   1.865   5.118
 2953SOL     OW 9757   1.261   4.801   3.412
 2953SOL    HW1 9758   1.179   4.858   3.422
 2953SOL    HW2 9759   1.325   4.821   3.486
 2954SOL     OW 9760   0.075   4.543   6.463
 2954SOL    HW1 9761   7.005   4.529   6.481
 2954SOL    HW2 9762   0.102   4.489   6.384
 2955SOL     OW 9763   1.975   4.237   5.741
 2955SOL    HW1 9764   2.031   4.158   5.768
 2955SOL    HW2 9765   2.033   4.319   5.737
 2956SOL     OW 9766   5.455   4.505   3.871
 2956SOL    HW1 9767   5.421   4.549   3.788
 2956SOL    HW2 9768   5.551   4.531   3.885
 2957SOL     OW 9769   2.210   5.240   1.125
 2957SOL    HW1 9770   2.137   5.307   1.137
 2957SOL    HW2 9771   2.209   5.177   1.202
 2958SOL     OW 9772   2.364   4.749   2.543
 2958SOL    HW1 9773   2.293   4.685   2.571
 2958SOL    HW2 9774   2.407   4.790   2.624
 2959SOL     OW 9775   6.743   3.509   3.300
 2959SOL    HW1 9776   6.657   3.494   3.251
 2959SOL    HW2 9777   6.786   3.421   3.322
 2960SOL     OW 9778   5.266   6.777   0.963
 2960SOL    HW1 9779   5.242   6.740   1.052
 2960SOL    HW2 9780   5.290   6.874   0.973
 2961SOL     OW 9781   5.543   3.490   1.927
 2961SOL    HW1 9782   5.587   3.401   1.939
 2961SOL    HW2 9783   5.599   3.561   1.971
 2962SOL     OW 9784   6.959   0.745   3.474
 2962SOL    HW1 9785   7.027   0.679   3.442
 2962SOL    HW2 9786   6.980   0.835   3.436
 2963SOL     OW 9787   1.438   0.862   4.982
 2963SOL    HW1 9788   1.440   0.953   4.940
 2963SOL    HW2 9789   1.525   0.845   5.028
 2964SOL     OW 9790   1.481   1.008   6.554
 2964SOL    HW1 9791   1.558   0.981   6.611
 2964SOL    HW2 9792   1.457   1.104   6.572
 2965SOL     OW 9793   0.027   6.849   5.572
 2965SOL    HW1 9794   0.051   6.939   5.538
 2965SOL    HW2 9795   6.979   6.811   5.519
 2966SOL     OW 9796   2.526   5.850   1.841
 2966SOL    HW1 9797   2.510   5.917   1.914
 2966SOL    HW2 9798   2.439   5.827   1.798
 2967SOL     OW 9799   5.185   0.442   4.599
 2967SOL    HW1 9800   5.241   0.415   4.521
 2967SOL    HW2 9801   5.127   0.365   4.627
 2968SOL     OW 9802   1.245   3.512   1.131
 2968SOL    HW1 9803   1.153   3.550   1.144
 2968SOL    HW2 9804   1.312   3.586   1.133
 2969SOL     OW 9805   4.614   3.298   5.402
 2969SOL    HW1 9806   4.537   3.361   5.387
 2969SOL    HW2 9807   4.698   3.342   5.372
 2970SOL     OW 9808   2.822   2.125   5.362
 2970SOL    HW1 9809   2.785   2.191   5.297
 2970SOL    HW2 9810   2.909   2.088   5.327
 2971SOL     OW 9811   5.148   3.023   6.238
 2971SOL    HW1 9812   5.140   2.941   6.181
 2971SOL    HW2 9813   5.131   3.104   6.182
 2972SOL     OW 9814   6.583   5.308   6.635
 2972SOL    HW1 9815   6.485   5.302   6.651
 2972SOL    HW2 9816   6.605   5.267   6.547
 2973SOL     OW 9817   4.470   1.080   3.673
 2973SOL    HW1 9818   4.473   0.997   3.617
 2973SOL    HW2 9819   4.389   1.134   3.648
 2974SOL     OW 9820   4.467   0.037   2.071
 2974SOL    HW1 9821   4.465   0.051   2.170
 2974SOL    HW2 9822   4.561   0.048   2.039
 2975SOL     OW 9823   5.097   3.845   4.384
 2975SOL    HW1 9824   5.014   3.799   4.352
 2975SOL    HW2 9825   5.156   3.779   4.431
 2976SOL     OW 9826   3.779   1.173   2.058
 2976SOL    HW1 9827   3.740   1.171   1.966
 2976SOL    HW2 9828   3.786   1.268   2.089
 2977SOL     OW 9829   1.014   0.430   2.011
 2977SOL    HW1 9830   0.949   0.390   2.075
 2977SOL    HW2 9831   1.084   0.480   2.062
 2978SOL     OW 9832   4.694   5.169   6.637
 2978SOL    HW1 9833   4.715   5.222   6.555
 2978SOL    HW2 9834   4.637   5.091   6.612
 2979SOL     OW 9835   2.629   1.009   4.421
 2979SOL    HW1 9836   2.599   1.099   4.451
 2979SOL    HW2 9837   2.729   1.005   4.424
 2980SOL     OW 9838   3.562   3.539   4.626
 2980SOL    HW1 9839   3.529   3.533   4.720
 2980SOL    HW2 9840   3.501   3.596   4.572
 2981SOL     OW 9841   2.155   0.874   1.511
 2981SOL    HW1 9842   2.220   0.829   1.451
 2981SOL    HW2 9843   2.071   0.821   1.516
 2982SOL     OW 9844   1.635   0.143   0.873
 2982SOL    HW1 9845   1.573   0.218   0.850
 2982SOL    HW2 9846   1.704   0.175   0.937
 2983SOL     OW 9847   6.371   2.967   5.636
 2983SOL    HW1 9848   6.299   3.036   5.624
 2983SOL    HW2 9849   6.417   2.952   5.548
 2984SOL     OW 9850   0.333   5.772   1.593
 2984SOL    HW1 9851   0.237   5.768   1.622
 2984SOL    HW2 9852   0.356   5.689   1.543
 2985SOL     OW 9853   6.831   0.398   5.579
 2985SOL    HW1 9854   6.756   0.428   5.638
 2985SOL    HW2 9855   6.794   0.354   5.497
 2986SOL     OW 9856   3.573   3.514   2.145
 2986SOL    HW1 9857   3.602   3.511   2.050
 2986SOL    HW2 9858   3.653   3.527   2.204
 2987SOL     OW 9859   1.925   5.955   5.513
 2987SOL    HW1 9860   2.009   5.905   5.490
 2987SOL    HW2 9861   1.919   6.037   5.455
 2988SOL     OW 9862   0.099   1.645   6.598
 2988SOL    HW1 9863   0.032   1.588   6.646
 2988SOL    HW2 9864   0.075   1.652   6.502
 2989SOL     OW 9865   5.047   3.194   4.557
 2989SOL    HW1 9866   5.137   3.153   4.569
 2989SOL    HW2 9867   4.993   3.182   4.641
 2990SOL     OW 9868   5.394   1.779   4.318
 2990SOL    HW1 9869   5.451   1.857   4.292
 2990SOL    HW2 9870   5.422   1.699   4.265
 2991SOL     OW 9871   0.269   3.372   0.918
 2991SOL    HW1 9872   0.254   3.375   0.819
 2991SOL    HW2 9873   0.348   3.429   0.941
 2992SOL     OW 9874   0.246   3.558   5.340
 2992SOL    HW1 9875   0.222   3.639   5.286
 2992SOL    HW2 9876   0.327   3.577   5.395
 2993SOL     OW 9877   2.072   3.962   0.671
 2993SOL    HW1 9878   2.132   3.953   0.591
 2993SOL    HW2 9879   1.983   3.997   0.643
 2994SOL     OW 9880   3.670   5.528   5.915
 2994SOL    HW1 9881   3.596   5.562   5.972
 2994SOL    HW2 9882   3.632   5.481   5.835
 2995SOL     OW 9883   4.346   0.168   0.770
 2995SOL    HW1 9884   4.351   0.268   0.772
 2995SOL    HW2 9885   4.431   0.129   0.805
 2996SOL     OW 9886   6.726   0.549   4.121
 2996SOL    HW1 9887   6.677   0.613   4.180
 2996SOL    HW2 9888   6.698   0.456   4.142
 2997SOL     OW 9889   4.991   6.528   4.395
 2997SOL    HW1 9890   5.056   6.453   4.402
 2997SOL    HW2 9891   4.904   6.494   4.360
 2998SOL     OW 9892   2.870   1.253   1.737
 2998SOL    HW1 9893   2.892   1.273   1.832
 2998SOL    HW2 9894   2.770   1.247   1.727
 2999SOL     OW 9895   2.773   4.651   1.070
 2999SOL    HW1 9896   2.858   4.699   1.095
 2999SOL    HW2 9897   2.696   4.715   1.075
 3000SOL     OW 9898   2.727   4.037   5.582
 3000SOL    HW1 9899   2.734   3.952   5.633
 3000SOL    HW2 9900   2.800   4.099   5.611
 3001SOL     OW 9901   5.551   0.392   6.159
 3001SOL    HW1 9902   5.501   0.472   6.191
 3001SOL    HW2 9903   5.647   0.416   6.144
 3002SOL     OW 9904   1.604   1.815   1.684
 3002SOL    HW1 9905   1.610   1.719   1.711
 3002SOL    HW2 9906   1.559   1.867   1.756
 3003SOL     OW 9907   1.726   6.453   0.152
 3003SOL    HW1 9908   1.775   6.478   0.068
 3003SOL    HW2 9909   1.740   6.355   0.170
 3004SOL     OW 9910   2.535   6.458   3.954
 3004SOL    HW1 9911   2.614   6.396   3.961
 3004SOL    HW2 9912   2.557   6.533   3.892
 3005SOL     OW 9913   1.097   2.005   0.253
 3005SOL    HW1 9914   1.183   2.036   0.293
 3005SOL    HW2 9915   1.084   2.047   0.163
 3006SOL     OW 9916   5.302   1.579   6.139
 3006SOL    HW1 9917   5.330   1.553   6.046
 3006SOL    HW2 9918   5.381   1.618   6.187
 3007SOL     OW 9919   5.877   5.550   0.011
 3007SOL    HW1 9920   5.880   5.469   6.979
 3007SOL    HW2 9921   5.879   5.633   6.982
 3008SOL     OW 9922   4.445   3.490   5.613
 3008SOL    HW1 9923   4.456   3.515   5.517
 3008SOL    HW2 9924   4.401   3.400   5.620
 3009SOL     OW 9925   6.593   3.515   1.983
 3009SOL    HW1 9926   6.684   3.504   2.024
 3009SOL    HW2 9927   6.523   3.500   2.053
 3010SOL     OW 9928   4.432   5.746   0.879
 3010SOL    HW1 9929   4.505   5.786   0.824
 3010SOL    HW2 9930   4.400   5.813   0.946
 3011SOL     OW 9931   6.507   0.633   0.972
 3011SOL    HW1 9932   6.594   0.615   1.019
 3011SOL    HW2 9933   6.449   0.552   0.978
 3012SOL     OW 9934   2.214   2.354   4.946
 3012SOL    HW1 9935   2.144   2.422   4.966
 3012SOL    HW2 9936   2.302   2.386   4.980
 3013SOL     OW 9937   0.050   4.771   4.698
 3013SOL    HW1 9938   0.117   4.794   4.627
 3013SOL    HW2 9939   0.081   4.690   4.748
 3014SOL     OW 9940   5.606   0.159   6.391
 3014SOL    HW1 9941   5.622   0.078   6.334
 3014SOL    HW2 9942   5.592   0.239   6.332
 3015SOL     OW 9943   1.439   0.764   6.485
 3015SOL    HW1 9944   1.470   0.851   6.521
 3015SOL    HW2 9945   1.501   0.731   6.414
 3016SOL     OW 9946   2.261   6.132   4.486
 3016SOL    HW1 9947   2.323   6.170   4.417
 3016SOL    HW2 9948   2.281   6.035   4.498
 3017SOL     OW 9949   1.146   5.403   0.127
 3017SOL    HW1 9950   1.065   5.380   0.181
 3017SOL    HW2 9951   1.203   5.467   0.178
 3018SOL     OW 9952   3.552   0.629   1.284
 3018SOL    HW1 9953   3.519   0.581   1.202
 3018SOL    HW2 9954   3.611   0.705   1.256
 3019SOL     OW 9955   1.928   0.563   5.933
 3019SOL    HW1 9956   1.939   0.477   5.883
 3019SOL    HW2 9957   1.908   0.636   5.869
 3020SOL     OW 9958   6.413   4.275   6.932
 3020SOL    HW1 9959   6.486   4.310   6.991
 3020SOL    HW2 9960   6.327   4.321   6.953
 3021SOL     OW 9961   4.129   0.624   4.946
 3021SOL    HW1 9962   4.148   0.526   4.945
 3021SOL    HW2 9963   4.102   0.653   4.855
 3022SOL     OW 9964   4.146   5.868   3.518
 3022SOL    HW1 9965   4.222   5.858   3.582
 3022SOL    HW2 9966   4.109   5.778   3.495
 3023SOL     OW 9967   5.680   5.158   4.112
 3023SOL    HW1 9968   5.767   5.128   4.149
 3023SOL    HW2 9969   5.606   5.101   4.149
 3024SOL     OW 9970   0.385   0.653   0.268
 3024SOL    HW1 9971   0.350   0.675   0.359
 3024SOL    HW2 9972   0.309   0.634   0.206
 3025SOL     OW 9973   4.283   5.513   0.057
 3025SOL    HW1 9974   4.268   5.599   0.008
 3025SOL    HW2 9975   4.358   5.526   0.122
 3026SOL     OW 9976   0.142   0.767   2.013
 3026SOL    HW1 9977   0.075   0.719   2.071
 3026SOL    HW2 9978   0.204   0.699   1.972
 3027SOL     OW 9979   4.426   0.445   0.401
 3027SOL    HW1 9980   4.438   0.357   0.446
 3027SOL    HW2 9981   4.352   0.438   0.334
 3028SOL     OW 9982   3.265   2.987   5.612
 3028SOL    HW1 9983   3.291   2.927   5.687
 3028SOL    HW2 9984   3.347   3.016   5.563
 3029SOL     OW 9985   6.746   3.355   4.537
 3029SOL    HW1 9986   6.764   3.320   4.629
 3029SOL    HW2 9987   6.827   3.405   4.504
 3030SOL     OW 9988   2.444   2.925   6.241
 3030SOL    HW1 9989   2.448   2.898   6.337
 3030SOL    HW2 9990   2.358   2.893   6.201
 3031SOL     OW 9991   1.292   5.686   0.911
 3031SOL    HW1 9992   1.336   5.666   0.998
 3031SOL    HW2 9993   1.204   5.730   0.928
 3032SOL     OW 9994   2.389   0.613   2.975
 3032SOL    HW1 9995   2.382   0.628   2.877
 3032SOL    HW2 9996   2.462   0.672   3.012
 3033SOL     OW 9997   0.542   1.479   5.512
 3033SOL    HW1 9998   0.618   1.509   5.455
 3033SOL    HW2 9999   0.457   1.516   5.477
 3034SOL     OW10000   6.442   4.100   3.821
 3034SOL    HW110001   6.533   4.108   3.779
 3034SOL    HW210002   6.448   4.046   3.904
 3035SOL     OW10003   0.397   3.212   0.251
 3035SOL    HW110004   0.364   3.143   0.187
 3035SOL    HW210005   0.433   3.290   0.200
 3036SOL     OW10006   3.421   1.911   5.265
 3036SOL    HW110007   3.400   1.923   5.168
 3036SOL    HW210008   3.362   1.840   5.303
 3037SOL     OW10009   1.041   5.851   6.707
 3037SOL    HW110010   1.072   5.835   6.614
 3037SOL    HW210011   0.956   5.801   6.723
 3038SOL     OW10012   5.669   4.643   6.288
 3038SOL    HW110013   5.618   4.580   6.231
 3038SOL    HW210014   5.766   4.619   6.286
 3039SOL     OW10015   6.730   3.748   6.128
 3039SOL    HW110016   6.643   3.752   6.078
 3039SOL    HW210017   6.735   3.824   6.191
 3040SOL     OW10018   5.716   4.974   6.519
 3040SOL    HW110019   5.713   5.004   6.423
 3040SOL    HW210020   5.690   4.877   6.523
 3041SOL     OW10021   1.378   4.621   5.760
 3041SOL    HW110022   1.289   4.616   5.805
 3041SOL    HW210023   1.365   4.626   5.661
 3042SOL     OW10024   0.453   5.100   4.244
 3042SOL    HW110025   0.505   5.142   4.318
 3042SOL    HW210026   0.364   5.072   4.277
 3043SOL     OW10027   2.263   5.671   0.868
 3043SOL    HW110028   2.333   5.600   0.875
 3043SOL    HW210029   2.222   5.685   0.958
 3044SOL     OW10030   4.074   3.786   4.571
 3044SOL    HW110031   3.995   3.724   4.565
 3044SOL    HW210032   4.114   3.778   4.663
 3045SOL     OW10033   4.405   1.671   2.128
 3045SOL    HW110034   4.489   1.634   2.089
 3045SOL    HW210035   4.404   1.770   2.118
 3046SOL     OW10036   5.057   6.706   0.798
 3046SOL    HW110037   5.033   6.794   0.840
 3046SOL    HW210038   5.156   6.693   0.805
 3047SOL     OW10039   5.692   1.242   4.726
 3047SOL    HW110040   5.697   1.313   4.655
 3047SOL    HW210041   5.769   1.179   4.714
 3048SOL     OW10042   3.993   4.821   1.255
 3048SOL    HW110043   4.089   4.840   1.237
 3048SOL    HW210044   3.948   4.904   1.288
 3049SOL     OW10045   1.162   1.790   2.233
 3049SOL    HW110046   1.251   1.817   2.196
 3049SOL    HW210047   1.114   1.871   2.266
 3050SOL     OW10048   3.591   2.218   0.050
 3050SOL    HW110049   3.670   2.273   0.076
 3050SOL    HW210050   3.565   2.239   6.984
 3051SOL     OW10051   2.325   5.095   5.411
 3051SOL    HW110052   2.302   5.026   5.341
 3051SOL    HW210053   2.259   5.090   5.485
 3052SOL     OW10054   6.476   0.294   2.327
 3052SOL    HW110055   6.556   0.351   2.312
 3052SOL    HW210056   6.414   0.340   2.391
 3053SOL     OW10057   0.850   4.255   0.277
 3053SOL    HW110058   0.841   4.337   0.220
 3053SOL    HW210059   0.798   4.181   0.236
 3054SOL     OW10060   4.775   0.659   2.912
 3054SOL    HW110061   4.726   0.662   2.999
 3054SOL    HW210062   4.713   0.631   2.839
 3055SOL     OW10063   5.847   6.280   6.937
 3055SOL    HW110064   5.765   6.262   6.883
 3055SOL    HW210065   5.928   6.255   6.883
 3056SOL     OW10066   4.567   1.420   5.784
 3056SOL    HW110067   4.474   1.382   5.781
 3056SOL    HW210068   4.622   1.378   5.711
 3057SOL     OW10069   5.126   3.889   2.861
 3057SOL    HW110070   5.089   3.797   2.874
 3057SOL    HW210071   5.204   3.884   2.799
 3058SOL     OW10072   0.632   4.411   6.121
 3058SOL    HW110073   0.534   4.402   6.102
 3058SOL    HW210074   0.657   4.507   6.125
 3059SOL     OW10075   1.554   1.726   2.700
 3059SOL    HW110076   1.535   1.644   2.646
 3059SOL    HW210077   1.648   1.721   2.735
 3060SOL     OW10078   5.774   4.737   4.177
 3060SOL    HW110079   5.809   4.810   4.119
 3060SOL    HW210080   5.847   4.706   4.239
 3061SOL     OW10081   6.083   0.307   3.911
 3061SOL    HW110082   6.074   0.229   3.848
 3061SOL    HW210083   6.087   0.392   3.858
 3062SOL     OW10084   4.182   4.451   0.837
 3062SOL    HW110085   4.213   4.531   0.785
 3062SOL    HW210086   4.259   4.389   0.851
 3063SOL     OW10087   0.431   4.612   2.762
 3063SOL    HW110088   0.345   4.580   2.721
 3063SOL    HW210089   0.486   4.534   2.789
 3064SOL     OW10090   4.799   2.548   6.616
 3064SOL    HW110091   4.891   2.541   6.576
 3064SOL    HW210092   4.753   2.460   6.609
 3065SOL     OW10093   5.943   1.911   7.001
 3065SOL    HW110094   5.974   1.959   6.919
 3065SOL    HW210095   5.907   1.822   6.976
 3066SOL     OW10096   5.123   6.967   4.924
 3066SOL    HW110097   5.132   6.933   5.017
 3066SOL    HW210098   5.213   6.989   4.887
 3067SOL     OW10099   1.460   2.731   5.380
 3067SOL    HW110100   1.441   2.633   5.380
 3067SOL    HW210101   1.378   2.781   5.405
 3068SOL     OW10102   6.860   0.790   0.619
 3068SOL    HW110103   6.765   0.763   0.632
 3068SOL    HW210104   6.876   0.811   0.523
 3069SOL     OW10105   5.157   6.352   3.796
 3069SOL    HW110106   5.121   6.435   3.838
 3069SOL    HW210107   5.171   6.282   3.866
 3070SOL     OW10108   1.747   0.818   0.846
 3070SOL    HW110109   1.826   0.815   0.786
 3070SOL    HW210110   1.701   0.729   0.846
 3071SOL     OW10111   5.867   4.824   5.315
 3071SOL    HW110112   5.878   4.801   5.218
 3071SOL    HW210113   5.795   4.767   5.355
 3072SOL     OW10114   1.901   6.683   6.430
 3072SOL    HW110115   1.920   6.610   6.363
 3072SOL    HW210116   1.843   6.753   6.387
 3073SOL     OW10117   0.501   5.117   1.758
 3073SOL    HW110118   0.565   5.099   1.684
 3073SOL    HW210119   0.504   5.042   1.824
 3074SOL     OW10120   3.402   2.781   1.745
 3074SOL    HW110121   3.458   2.738   1.673
 3074SOL    HW210122   3.309   2.745   1.741
 3075SOL     OW10123   2.942   5.140   1.592
 3075SOL    HW110124   2.942   5.040   1.586
 3075SOL    HW210125   2.868   5.170   1.652
 3076SOL     OW10126   0.660   0.871   5.340
 3076SOL    HW110127   0.600   0.925   5.282
 3076SOL    HW210128   0.715   0.809   5.283
 3077SOL     OW10129   0.205   4.110   2.215
 3077SOL    HW110130   0.108   4.088   2.207
 3077SOL    HW210131   0.253   4.083   2.132
 3078SOL     OW10132   6.929   3.050   1.789
 3078SOL    HW110133   6.855   2.987   1.767
 3078SOL    HW210134   6.979   3.017   1.869
 3079SOL     OW10135   2.210   3.752   5.543
 3079SOL    HW110136   2.266   3.814   5.489
 3079SOL    HW210137   2.266   3.675   5.575
 3080SOL     OW10138   3.264   4.431   1.080
 3080SOL    HW110139   3.347   4.464   1.124
 3080SOL    HW210140   3.282   4.343   1.037
 3081SOL     OW10141   1.518   3.790   0.284
 3081SOL    HW110142   1.528   3.784   0.384
 3081SOL    HW210143   1.482   3.880   0.259
 3082SOL     OW10144   5.142   5.526   4.870
 3082SOL    HW110145   5.129   5.427   4.864
 3082SOL    HW210146   5.122   5.567   4.781
 3083SOL     OW10147   4.031   5.491   1.885
 3083SOL    HW110148   4.088   5.573   1.891
 3083SOL    HW210149   3.978   5.492   1.800
 3084SOL     OW10150   6.960   4.562   4.073
 3084SOL    HW110151   6.955   4.661   4.082
 3084SOL    HW210152   6.902   4.532   3.997
 3085SOL     OW10153   6.157   5.779   0.273
 3085SOL    HW110154   6.097   5.700   0.274
 3085SOL    HW210155   6.180   5.805   0.367
 3086SOL     OW10156   6.291   6.249   6.462
 3086SOL    HW110157   6.350   6.268   6.384
 3086SOL    HW210158   6.252   6.335   6.496
 3087SOL     OW10159   3.556   0.067   2.118
 3087SOL    HW110160   3.472   0.048   2.066
 3087SOL    HW210161   3.534   0.126   2.196
 3088SOL     OW10162   2.159   3.315   5.722
 3088SOL    HW110163   2.130   3.353   5.810
 3088SOL    HW210164   2.137   3.380   5.649
 3089SOL     OW10165   4.530   5.241   6.134
 3089SOL    HW110166   4.441   5.280   6.156
 3089SOL    HW210167   4.532   5.145   6.163
 3090SOL     OW10168   0.426   2.550   2.165
 3090SOL    HW110169   0.419   2.639   2.120
 3090SOL    HW210170   0.460   2.562   2.258
 3091SOL     OW10171   0.589   3.068   1.367
 3091SOL    HW110172   0.505   3.030   1.407
 3091SOL    HW210173   0.646   2.993   1.332
 3092SOL     OW10174   6.042   1.305   2.123
 3092SOL    HW110175   5.967   1.352   2.076
 3092SOL    HW210176   6.033   1.318   2.221
 3093SOL     OW10177   6.534   5.462   6.891
 3093SOL    HW110178   6.602   5.529   6.862
 3093SOL    HW210179   6.479   5.434   6.812
 3094SOL     OW10180   2.120   1.836   6.981
 3094SOL    HW110181   2.214   1.865   6.961
 3094SOL    HW210182   2.078   1.800   6.898
 3095SOL     OW10183   1.792   4.060   5.876
 3095SOL    HW110184   1.850   4.133   5.842
 3095SOL    HW210185   1.817   3.974   5.831
 3096SOL     OW10186   0.743   3.055   4.135
 3096SOL    HW110187   0.715   3.120   4.205
 3096SOL    HW210188   0.715   2.963   4.160
 3097SOL     OW10189   5.023   3.005   5.274
 3097SOL    HW110190   5.063   2.987   5.363
 3097SOL    HW210191   4.985   2.920   5.237
 3098SOL     OW10192   2.169   3.252   3.495
 3098SOL    HW110193   2.090   3.195   3.517
 3098SOL    HW210194   2.157   3.291   3.404
 3099SOL     OW10195   0.517   6.351   4.571
 3099SOL    HW110196   0.511   6.273   4.509
 3099SOL    HW210197   0.594   6.409   4.545
 3100SOL     OW10198   5.843   4.936   1.573
 3100SOL    HW110199   5.770   4.958   1.509
 3100SOL    HW210200   5.895   5.019   1.594
 3101SOL     OW10201   4.198   6.806   5.202
 3101SOL    HW110202   4.188   6.722   5.256
 3101SOL    HW210203   4.114   6.860   5.209
 3102SOL     OW10204   6.679   5.147   2.011
 3102SOL    HW110205   6.635   5.113   2.094
 3102SOL    HW210206   6.637   5.234   1.984
 3103SOL     OW10207   3.306   1.253   1.757
 3103SOL    HW110208   3.388   1.298   1.720
 3103SOL    HW210209   3.275   1.182   1.694
 3104SOL     OW10210   4.682   1.635   4.951
 3104SOL    HW110211   4.734   1.552   4.971
 3104SOL    HW210212   4.742   1.715   4.957
 3105SOL     OW10213   5.946   3.697   0.026
 3105SOL    HW110214   5.933   3.604   0.062
 3105SOL    HW210215   5.871   3.755   0.059
 3106SOL     OW10216   5.415   1.402   5.667
 3106SOL    HW110217   5.388   1.314   5.707
 3106SOL    HW210218   5.506   1.393   5.627
 3107SOL     OW10219   3.189   1.819   5.010
 3107SOL    HW110220   3.158   1.770   5.091
 3107SOL    HW210221   3.280   1.787   4.984
 3108SOL     OW10222   2.323   4.198   3.149
 3108SOL    HW110223   2.340   4.297   3.145
 3108SOL    HW210224   2.370   4.153   3.073
 3109SOL     OW10225   6.959   6.325   4.584
 3109SOL    HW110226   7.004   6.237   4.601
 3109SOL    HW210227   6.904   6.318   4.501
 3110SOL     OW10228   0.679   5.126   3.175
 3110SOL    HW110229   0.710   5.049   3.232
 3110SOL    HW210230   0.656   5.093   3.084
 3111SOL     OW10231   5.742   4.382   3.698
 3111SOL    HW110232   5.794   4.334   3.768
 3111SOL    HW210233   5.800   4.450   3.653
 3112SOL     OW10234   3.428   1.293   6.181
 3112SOL    HW110235   3.475   1.372   6.142
 3112SOL    HW210236   3.416   1.306   6.280
 3113SOL     OW10237   2.081   6.592   3.216
 3113SOL    HW110238   2.025   6.518   3.178
 3113SOL    HW210239   2.023   6.667   3.246
 3114SOL     OW10240   4.647   1.466   6.045
 3114SOL    HW110241   4.729   1.410   6.050
 3114SOL    HW210242   4.599   1.446   5.959
 3115SOL     OW10243   4.731   5.492   5.479
 3115SOL    HW110244   4.784   5.414   5.446
 3115SOL    HW210245   4.761   5.575   5.432
 3116SOL     OW10246   0.891   0.884   0.245
 3116SOL    HW110247   0.927   0.922   0.160
 3116SOL    HW210248   0.791   0.887   0.243
 3117SOL     OW10249   4.549   0.714   6.586
 3117SOL    HW110250   4.508   0.804   6.573
 3117SOL    HW210251   4.640   0.724   6.626
 3118SOL     OW10252   1.111   1.814   3.198
 3118SOL    HW110253   1.061   1.852   3.119
 3118SOL    HW210254   1.045   1.788   3.268
 3119SOL     OW10255   4.619   5.807   4.894
 3119SOL    HW110256   4.608   5.724   4.839
 3119SOL    HW210257   4.593   5.789   4.988
 3120SOL     OW10258   2.562   5.846   6.138
 3120SOL    HW110259   2.588   5.932   6.181
 3120SOL    HW210260   2.587   5.770   6.198
 3121SOL     OW10261   3.538   1.816   3.961
 3121SOL    HW110262   3.534   1.904   4.009
 3121SOL    HW210263   3.448   1.794   3.924
 3122SOL     OW10264   5.323   4.900   4.814
 3122SOL    HW110265   5.394   4.969   4.799
 3122SOL    HW210266   5.276   4.882   4.727
 3123SOL     OW10267   1.800   1.249   3.241
 3123SOL    HW110268   1.864   1.232   3.316
 3123SOL    HW210269   1.733   1.317   3.269
 3124SOL     OW10270   4.735   0.357   4.415
 3124SOL    HW110271   4.721   0.261   4.392
 3124SOL    HW210272   4.682   0.380   4.497
 3125SOL     OW10273   1.663   1.240   5.263
 3125SOL    HW110274   1.746   1.189   5.284
 3125SOL    HW210275   1.675   1.287   5.175
 3126SOL     OW10276   5.470   4.803   5.592
 3126SOL    HW110277   5.392   4.832   5.537
 3126SOL    HW210278   5.532   4.747   5.536
 3127SOL     OW10279   0.297   1.009   5.262
 3127SOL    HW110280   0.308   0.952   5.344
 3127SOL    HW210281   0.232   0.966   5.200
 3128SOL     OW10282   3.697   0.909   0.705
 3128SOL    HW110283   3.732   0.829   0.755
 3128SOL    HW210284   3.609   0.936   0.743
 3129SOL     OW10285   4.424   3.720   0.329
 3129SOL    HW110286   4.335   3.683   0.303
 3129SOL    HW210287   4.422   3.743   0.427
 3130SOL     OW10288   6.909   5.430   2.047
 3130SOL    HW110289   6.831   5.427   1.984
 3130SOL    HW210290   6.988   5.388   2.003
 3131SOL     OW10291   6.326   4.569   2.833
 3131SOL    HW110292   6.229   4.565   2.857
 3131SOL    HW210293   6.381   4.591   2.914
 3132SOL     OW10294   4.463   4.250   0.162
 3132SOL    HW110295   4.515   4.296   0.091
 3132SOL    HW210296   4.526   4.209   0.229
 3133SOL     OW10297   4.281   0.282   4.245
 3133SOL    HW110298   4.304   0.226   4.166
 3133SOL    HW210299   4.310   0.235   4.329
 3134SOL     OW10300   5.364   5.233   2.587
 3134SOL    HW110301   5.277   5.184   2.586
 3134SOL    HW210302   5.347   5.331   2.590
 3135SOL     OW10303   4.528   5.636   6.521
 3135SOL    HW110304   4.514   5.665   6.616
 3135SOL    HW210305   4.441   5.643   6.471
 3136SOL     OW10306   6.727   1.347   3.445
 3136SOL    HW110307   6.745   1.397   3.529
 3136SOL    HW210308   6.773   1.392   3.369
 3137SOL     OW10309   5.799   6.664   6.533
 3137SOL    HW110310   5.833   6.690   6.443
 3137SOL    HW210311   5.790   6.564   6.537
 3138SOL     OW10312   6.034   6.242   4.673
 3138SOL    HW110313   5.959   6.286   4.625
 3138SOL    HW210314   6.105   6.309   4.692
 3139SOL     OW10315   2.387   5.444   1.192
 3139SOL    HW110316   2.323   5.402   1.128
 3139SOL    HW210317   2.345   5.450   1.283
 3140SOL     OW10318   6.838   6.387   6.671
 3140SOL    HW110319   6.812   6.295   6.699
 3140SOL    HW210320   6.794   6.454   6.732
 3141SOL     OW10321   6.399   1.581   6.678
 3141SOL    HW110322   6.433   1.543   6.764
 3141SOL    HW210323   6.468   1.568   6.606
 3142SOL     OW10324   4.204   0.695   4.110
 3142SOL    HW110325   4.164   0.671   4.021
 3142SOL    HW210326   4.242   0.787   4.105
 3143SOL     OW10327   6.360   1.440   0.595
 3143SOL    HW110328   6.357   1.397   0.505
 3143SOL    HW210329   6.278   1.497   0.607
 3144SOL     OW10330   4.020   3.908   0.316
 3144SOL    HW110331   3.931   3.904   0.362
 3144SOL    HW210332   4.012   3.869   0.224
 3145SOL     OW10333   0.181   6.541   0.287
 3145SOL    HW110334   0.274   6.537   0.323
 3145SOL    HW210335   0.116   6.548   0.363
 3146SOL     OW10336   0.054   0.891   4.778
 3146SOL    HW110337   0.064   0.908   4.680
 3146SOL    HW210338   0.120   0.821   4.807
 3147SOL     OW10339   3.474   5.629   0.781
 3147SOL    HW110340   3.412   5.558   0.814
 3147SOL    HW210341   3.459   5.643   0.683
 3148SOL     OW10342   6.931   5.679   1.871
 3148SOL    HW110343   6.940   5.633   1.959
 3148SOL    HW210344   6.858   5.637   1.818
 3149SOL     OW10345   2.775   2.049   6.867
 3149SOL    HW110346   2.678   2.045   6.890
 3149SOL    HW210347   2.796   1.982   6.795
 3150SOL     OW10348   6.319   5.671   5.607
 3150SOL    HW110349   6.338   5.726   5.688
 3150SOL    HW210350   6.400   5.616   5.585
 3151SOL     OW10351   0.277   0.507   5.587
 3151SOL    HW110352   0.272   0.517   5.686
 3151SOL    HW210353   0.363   0.462   5.562
 3152SOL     OW10354   1.386   3.236   5.954
 3152SOL    HW110355   1.333   3.189   5.884
 3152SOL    HW210356   1.372   3.192   6.042
 3153SOL     OW10357   6.238   5.085   1.204
 3153SOL    HW110358   6.222   5.156   1.135
 3153SOL    HW210359   6.334   5.057   1.200
 3154SOL     OW10360   4.660   0.930   0.086
 3154SOL    HW110361   4.604   0.870   0.144
 3154SOL    HW210362   4.637   1.025   0.106
 3155SOL     OW10363   0.985   4.536   0.388
 3155SOL    HW110364   1.022   4.628   0.400
 3155SOL    HW210365   0.885   4.541   0.380
 3156SOL     OW10366   3.786   4.296   1.751
 3156SOL    HW110367   3.823   4.250   1.670
 3156SOL    HW210368   3.785   4.232   1.828
 3157SOL     OW10369   0.966   1.161   5.605
 3157SOL    HW110370   0.940   1.256   5.591
 3157SOL    HW210371   0.977   1.116   5.516
 3158SOL     OW10372   1.756   0.854   6.184
 3158SOL    HW110373   1.761   0.891   6.091
 3158SOL    HW210374   1.823   0.780   6.193
 3159SOL     OW10375   5.938   0.632   6.856
 3159SOL    HW110376   5.912   0.715   6.906
 3159SOL    HW210377   5.894   0.632   6.767
 3160SOL     OW10378   1.645   0.320   6.048
 3160SOL    HW110379   1.672   0.227   6.075
 3160SOL    HW210380   1.706   0.386   6.090
 3161SOL     OW10381   2.115   2.513   1.926
 3161SOL    HW110382   2.137   2.610   1.912
 3161SOL    HW210383   2.127   2.490   2.023
 3162SOL     OW10384   1.547   5.552   1.226
 3162SOL    HW110385   1.629   5.586   1.180
 3162SOL    HW210386   1.499   5.628   1.270
 3163SOL     OW10387   4.013   4.386   0.049
 3163SOL    HW110388   4.077   4.407   0.124
 3163SOL    HW210389   3.945   4.459   0.042
 3164SOL     OW10390   2.444   6.768   3.458
 3164SOL    HW110391   2.396   6.745   3.374
 3164SOL    HW210392   2.413   6.709   3.532
 3165SOL     OW10393   0.520   0.203   6.281
 3165SOL    HW110394   0.607   0.186   6.327
 3165SOL    HW210395   0.445   0.195   6.346
 3166SOL     OW10396   4.849   0.904   4.738
 3166SOL    HW110397   4.881   0.964   4.810
 3166SOL    HW210398   4.791   0.833   4.777
 3167SOL     OW10399   5.657   2.915   0.579
 3167SOL    HW110400   5.569   2.963   0.572
 3167SOL    HW210401   5.711   2.955   0.653
 3168SOL     OW10402   4.643   2.046   0.571
 3168SOL    HW110403   4.586   2.058   0.653
 3168SOL    HW210404   4.628   1.954   0.534
 3169SOL     OW10405   2.396   4.511   1.648
 3169SOL    HW110406   2.438   4.531   1.736
 3169SOL    HW210407   2.296   4.508   1.659
 3170SOL     OW10408   2.060   3.810   3.307
 3170SOL    HW110409   1.963   3.791   3.292
 3170SOL    HW210410   2.091   3.761   3.388
 3171SOL     OW10411   5.379   2.546   3.592
 3171SOL    HW110412   5.394   2.453   3.628
 3171SOL    HW210413   5.344   2.540   3.498
 3172SOL     OW10414   6.415   4.071   1.983
 3172SOL    HW110415   6.355   4.030   2.052
 3172SOL    HW210416   6.482   4.003   1.953
 3173SOL     OW10417   4.490   3.057   0.354
 3173SOL    HW110418   4.403   3.030   0.314
 3173SOL    HW210419   4.474   3.102   0.442
 3174SOL     OW10420   3.261   3.784   6.583
 3174SOL    HW110421   3.313   3.823   6.507
 3174SOL    HW210422   3.185   3.730   6.546
 3175SOL     OW10423   5.504   0.672   4.758
 3175SOL    HW110424   5.493   0.717   4.847
 3175SOL    HW210425   5.420   0.684   4.704
 3176SOL     OW10426   0.454   4.704   4.721
 3176SOL    HW110427   0.382   4.760   4.680
 3176SOL    HW210428   0.543   4.741   4.697
 3177SOL     OW10429   5.172   3.569   3.878
 3177SOL    HW110430   5.200   3.534   3.788
 3177SOL    HW210431   5.077   3.600   3.874
 3178SOL     OW10432   6.818   1.009   1.597
 3178SOL    HW110433   6.806   1.074   1.673
 3178SOL    HW210434   6.793   0.917   1.628
 3179SOL     OW10435   1.264   2.116   1.877
 3179SOL    HW110436   1.283   2.025   1.840
 3179SOL    HW210437   1.293   2.186   1.811
 3180SOL     OW10438   0.009   6.128   0.250
 3180SOL    HW110439   7.016   6.032   0.268
 3180SOL    HW210440   6.974   6.186   0.302
 3181SOL     OW10441   1.885   6.968   4.780
 3181SOL    HW110442   1.974   6.972   4.826
 3181SOL    HW210443   1.843   6.878   4.798
 3182SOL     OW10444   1.965   1.150   0.755
 3182SOL    HW110445   1.983   1.178   0.849
 3182SOL    HW210446   2.004   1.060   0.739
 3183SOL     OW10447   3.995   3.921   1.108
 3183SOL    HW110448   3.956   3.879   1.026
 3183SOL    HW210449   4.074   3.868   1.138
 3184SOL     OW10450   0.504   2.208   4.905
 3184SOL    HW110451   0.448   2.261   4.842
 3184SOL    HW210452   0.444   2.153   4.964
 3185SOL     OW10453   0.786   5.735   6.738
 3185SOL    HW110454   0.754   5.774   6.824
 3185SOL    HW210455   0.742   5.647   6.723
 3186SOL     OW10456   0.344   1.733   6.659
 3186SOL    HW110457   0.396   1.704   6.579
 3186SOL    HW210458   0.250   1.702   6.651
 3187SOL     OW10459   4.722   6.017   2.428
 3187SOL    HW110460   4.653   5.947   2.443
 3187SOL    HW210461   4.786   6.019   2.505
 3188SOL     OW10462   2.024   5.276   6.801
 3188SOL    HW110463   1.940   5.226   6.783
 3188SOL    HW210464   2.042   5.340   6.726
 3189SOL     OW10465   3.591   1.686   5.297
 3189SOL    HW110466   3.637   1.702   5.384
 3189SOL    HW210467   3.567   1.774   5.256
 3190SOL     OW10468   5.628   6.312   4.497
 3190SOL    HW110469   5.686   6.236   4.469
 3190SOL    HW210470   5.671   6.362   4.573
 3191SOL     OW10471   3.473   5.622   1.299
 3191SOL    HW110472   3.415   5.703   1.306
 3191SOL    HW210473   3.531   5.630   1.217
 3192SOL     OW10474   5.772   1.857   2.680
 3192SOL    HW110475   5.683   1.861   2.726
 3192SOL    HW210476   5.803   1.762   2.677
 3193SOL     OW10477   3.440   0.088   4.873
 3193SOL    HW110478   3.457   0.146   4.794
 3193SOL    HW210479   3.520   0.090   4.933
 3194SOL     OW10480   1.482   0.133   6.867
 3194SOL    HW110481   1.554   0.175   6.812
 3194SOL    HW210482   1.393   0.167   6.837
 3195SOL     OW10483   0.101   1.482   1.354
 3195SOL    HW110484   0.164   1.452   1.283
 3195SOL    HW210485   0.145   1.472   1.444
 3196SOL     OW10486   5.932   0.546   3.549
 3196SOL    HW110487   6.015   0.522   3.599
 3196SOL    HW210488   5.868   0.591   3.611
 3197SOL     OW10489   1.772   0.678   6.561
 3197SOL    HW110490   1.716   0.674   6.478
 3197SOL    HW210491   1.771   0.772   6.597
 3198SOL     OW10492   5.415   3.067   3.412
 3198SOL    HW110493   5.409   3.050   3.511
 3198SOL    HW210494   5.507   3.046   3.381
 3199SOL     OW10495   5.626   4.078   2.819
 3199SOL    HW110496   5.612   4.070   2.917
 3199SOL    HW210497   5.714   4.122   2.802
 3200SOL     OW10498   5.564   3.693   3.726
 3200SOL    HW110499   5.492   3.713   3.793
 3200SOL    HW210500   5.627   3.625   3.763
 3201SOL     OW10501   6.096   4.867   2.544
 3201SOL    HW110502   6.103   4.923   2.461
 3201SOL    HW210503   6.110   4.771   2.521
 3202SOL     OW10504   1.841   3.626   7.007
 3202SOL    HW110505   1.781   3.687   0.031
 3202SOL    HW210506   1.910   3.587   0.041
 3203SOL     OW10507   3.635   6.929   1.328
 3203SOL    HW110508   3.539   6.910   1.349
 3203SOL    HW210509   3.694   6.877   1.390
 3204SOL     OW10510   3.434   1.290   3.142
 3204SOL    HW110511   3.371   1.227   3.096
 3204SOL    HW210512   3.419   1.383   3.108
 3205SOL     OW10513   4.810   3.529   5.834
 3205SOL    HW110514   4.786   3.547   5.739
 3205SOL    HW210515   4.849   3.611   5.875
 3206SOL     OW10516   3.187   3.357   1.038
 3206SOL    HW110517   3.160   3.419   1.111
 3206SOL    HW210518   3.225   3.273   1.077
 3207SOL     OW10519   1.677   5.237   5.621
 3207SOL    HW110520   1.679   5.333   5.649
 3207SOL    HW210521   1.657   5.179   5.700
 3208SOL     OW10522   6.167   5.203   6.071
 3208SOL    HW110523   6.254   5.157   6.085
 3208SOL    HW210524   6.119   5.212   6.159
 3209SOL     OW10525   5.144   5.766   6.897
 3209SOL    HW110526   5.065   5.708   6.920
 3209SOL    HW210527   5.176   5.742   6.805
 3210SOL     OW10528   6.039   6.011   2.039
 3210SOL    HW110529   6.124   5.984   2.083
 3210SOL    HW210530   5.962   5.964   2.083
 3211SOL     OW10531   1.203   5.510   6.099
 3211SOL    HW110532   1.254   5.424   6.105
 3211SOL    HW210533   1.110   5.491   6.066
 3212SOL     OW10534   1.706   0.339   3.202
 3212SOL    HW110535   1.638   0.404   3.167
 3212SOL    HW210536   1.659   0.261   3.243
 3213SOL     OW10537   1.070   6.858   6.485
 3213SOL    HW110538   0.972   6.836   6.477
 3213SOL    HW210539   1.085   6.909   6.569
 3214SOL     OW10540   3.262   1.122   2.618
 3214SOL    HW110541   3.185   1.164   2.571
 3214SOL    HW210542   3.330   1.093   2.551
 3215SOL     OW10543   2.028   3.131   1.223
 3215SOL    HW110544   2.085   3.128   1.305
 3215SOL    HW210545   1.940   3.088   1.242
 3216SOL     OW10546   5.767   4.637   0.690
 3216SOL    HW110547   5.815   4.553   0.715
 3216SOL    HW210548   5.703   4.662   0.763
 3217SOL     OW10549   0.250   5.981   2.753
 3217SOL    HW110550   0.269   6.070   2.710
 3217SOL    HW210551   0.152   5.961   2.747
 3218SOL     OW10552   5.294   0.994   3.074
 3218SOL    HW110553   5.233   0.926   3.115
 3218SOL    HW210554   5.389   0.964   3.083
 3219SOL     OW10555   6.112   1.388   5.318
 3219SOL    HW110556   6.179   1.462   5.327
 3219SOL    HW210557   6.044   1.414   5.250
 3220SOL     OW10558   6.757   4.603   6.487
 3220SOL    HW110559   6.689   4.577   6.556
 3220SOL    HW210560   6.750   4.542   6.408
 3221SOL     OW10561   3.466   1.165   0.984
 3221SOL    HW110562   3.392   1.174   0.918
 3221SOL    HW210563   3.448   1.088   1.045
 3222SOL     OW10564   3.503   1.839   3.126
 3222SOL    HW110565   3.562   1.920   3.118
 3222SOL    HW210566   3.554   1.757   3.102
 3223SOL     OW10567   1.472   6.038   0.904
 3223SOL    HW110568   1.495   6.122   0.854
 3223SOL    HW210569   1.461   5.963   0.839
 3224SOL     OW10570   3.485   2.028   3.578
 3224SOL    HW110571   3.514   2.058   3.669
 3224SOL    HW210572   3.503   2.100   3.511
 3225SOL     OW10573   3.971   0.897   4.157
 3225SOL    HW110574   3.967   0.953   4.074
 3225SOL    HW210575   4.061   0.855   4.164
 3226SOL     OW10576   6.590   0.445   0.703
 3226SOL    HW110577   6.504   0.469   0.747
 3226SOL    HW210578   6.571   0.396   0.618
 3227SOL     OW10579   5.036   4.573   5.125
 3227SOL    HW110580   4.992   4.652   5.083
 3227SOL    HW210581   5.136   4.581   5.117
 3228SOL     OW10582   2.440   3.968   0.214
 3228SOL    HW110583   2.482   3.877   0.212
 3228SOL    HW210584   2.493   4.028   0.274
 3229SOL     OW10585   1.266   1.468   0.709
 3229SOL    HW110586   1.306   1.391   0.759
 3229SOL    HW210587   1.318   1.485   0.626
 3230SOL     OW10588   2.936   6.072   5.657
 3230SOL    HW110589   2.930   5.972   5.657
 3230SOL    HW210590   3.031   6.100   5.675
 3231SOL     OW10591   2.208   2.307   2.480
 3231SOL    HW110592   2.153   2.227   2.502
 3231SOL    HW210593   2.174   2.386   2.532
 3232SOL     OW10594   3.898   5.113   4.030
 3232SOL    HW110595   3.817   5.056   4.038
 3232SOL    HW210596   3.891   5.191   4.092
 3233SOL     OW10597   0.119   1.889   0.440
 3233SOL    HW110598   0.158   1.955   0.376
 3233SOL    HW210599   0.086   1.809   0.390
 3234SOL     OW10600   2.600   2.547   0.610
 3234SOL    HW110601   2.627   2.629   0.561
 3234SOL    HW210602   2.618   2.558   0.708
 3235SOL     OW10603   0.535   0.022   3.019
 3235SOL    HW110604   0.614   6.988   3.023
 3235SOL    HW210605   0.474   7.021   2.945
 3236SOL     OW10606   3.446   2.300   0.260
 3236SOL    HW110607   3.478   2.242   0.335
 3236SOL    HW210608   3.485   2.268   0.174
 3237SOL     OW10609   5.923   2.018   5.193
 3237SOL    HW110610   5.855   2.053   5.128
 3237SOL    HW210611   5.922   2.073   5.276
 3238SOL     OW10612   6.741   4.920   1.832
 3238SOL    HW110613   6.767   4.835   1.878
 3238SOL    HW210614   6.746   4.996   1.897
 3239SOL     OW10615   6.612   6.982   4.679
 3239SOL    HW110616   6.597   6.967   4.581
 3239SOL    HW210617   6.563   0.037   4.708
 3240SOL     OW10618   0.669   0.171   0.261
 3240SOL    HW110619   0.628   0.133   0.343
 3240SOL    HW210620   0.634   0.263   0.246
 3241SOL     OW10621   6.127   1.989   5.810
 3241SOL    HW110622   6.135   2.088   5.801
 3241SOL    HW210623   6.035   1.961   5.785
 3242SOL     OW10624   5.554   3.912   4.738
 3242SOL    HW110625   5.606   3.987   4.697
 3242SOL    HW210626   5.533   3.843   4.668
 3243SOL     OW10627   6.218   4.841   4.472
 3243SOL    HW110628   6.165   4.896   4.537
 3243SOL    HW210629   6.288   4.899   4.429
 3244SOL     OW10630   5.470   0.038   6.758
 3244SOL    HW110631   5.564   0.056   6.729
 3244SOL    HW210632   5.415   0.120   6.742
 3245SOL     OW10633   4.038   1.083   5.454
 3245SOL    HW110634   3.997   1.156   5.399
 3245SOL    HW210635   4.090   1.123   5.529
 3246SOL     OW10636   6.464   0.042   2.827
 3246SOL    HW110637   6.393   0.092   2.777
 3246SOL    HW210638   6.433   0.024   2.920
 3247SOL     OW10639   0.363   4.325   3.528
 3247SOL    HW110640   0.371   4.391   3.453
 3247SOL    HW210641   0.419   4.244   3.507
 3248SOL     OW10642   5.314   2.235   3.417
 3248SOL    HW110643   5.226   2.251   3.373
 3248SOL    HW210644   5.383   2.297   3.379
 3249SOL     OW10645   2.947   3.797   4.161
 3249SOL    HW110646   2.984   3.822   4.251
 3249SOL    HW210647   2.939   3.698   4.155
 3250SOL     OW10648   4.561   5.259   2.703
 3250SOL    HW110649   4.618   5.280   2.623
 3250SOL    HW210650   4.567   5.162   2.724
 3251SOL     OW10651   2.300   1.362   2.758
 3251SOL    HW110652   2.348   1.314   2.833
 3251SOL    HW210653   2.349   1.346   2.672
 3252SOL     OW10654   2.103   1.091   3.127
 3252SOL    HW110655   2.102   1.019   3.057
 3252SOL    HW210656   2.011   1.103   3.163
 3253SOL     OW10657   6.702   3.999   0.548
 3253SOL    HW110658   6.785   4.007   0.604
 3253SOL    HW210659   6.727   3.996   0.451
 3254SOL     OW10660   6.343   0.429   0.886
 3254SOL    HW110661   6.268   0.473   0.837
 3254SOL    HW210662   6.355   0.336   0.851
 3255SOL     OW10663   4.968   5.768   1.126
 3255SOL    HW110664   4.969   5.757   1.027
 3255SOL    HW210665   4.946   5.863   1.149
 3256SOL     OW10666   4.804   2.055   1.424
 3256SOL    HW110667   4.788   2.141   1.375
 3256SOL    HW210668   4.902   2.034   1.424
 3257SOL     OW10669   2.560   2.385   3.174
 3257SOL    HW110670   2.467   2.368   3.140
 3257SOL    HW210671   2.625   2.380   3.099
 3258SOL     OW10672   2.676   5.620   3.452
 3258SOL    HW110673   2.736   5.666   3.387
 3258SOL    HW210674   2.721   5.538   3.488
 3259SOL     OW10675   5.074   4.634   3.649
 3259SOL    HW110676   5.026   4.573   3.713
 3259SOL    HW210677   5.008   4.691   3.601
 3260SOL     OW10678   0.968   4.401   2.916
 3260SOL    HW110679   0.933   4.493   2.935
 3260SOL    HW210680   0.988   4.354   3.002
 3261SOL     OW10681   5.426   6.882   3.759
 3261SOL    HW110682   5.439   6.844   3.851
 3261SOL    HW210683   5.453   6.813   3.691
 3262SOL     OW10684   2.947   2.222   2.783
 3262SOL    HW110685   3.038   2.259   2.803
 3262SOL    HW210686   2.928   2.145   2.844
 3263SOL     OW10687   0.350   1.394   2.503
 3263SOL    HW110688   0.443   1.418   2.474
 3263SOL    HW210689   0.339   1.416   2.600
 3264SOL     OW10690   1.699   4.740   0.131
 3264SOL    HW110691   1.798   4.732   0.120
 3264SOL    HW210692   1.669   4.680   0.205
 3265SOL     OW10693   6.040   5.222   6.368
 3265SOL    HW110694   6.044   5.137   6.421
 3265SOL    HW210695   5.961   5.220   6.308
 3266SOL     OW10696   3.256   5.652   6.817
 3266SOL    HW110697   3.309   5.589   6.760
 3266SOL    HW210698   3.176   5.605   6.854
 3267SOL     OW10699   3.872   0.017   0.871
 3267SOL    HW110700   3.824   0.012   0.958
 3267SOL    HW210701   3.966   0.046   0.887
 3268SOL     OW10702   6.120   5.463   1.628
 3268SOL    HW110703   6.123   5.403   1.548
 3268SOL    HW210704   6.069   5.418   1.701
 3269SOL     OW10705   1.656   5.095   1.967
 3269SOL    HW110706   1.700   5.163   1.907
 3269SOL    HW210707   1.580   5.052   1.918
 3270SOL     OW10708   0.337   3.069   5.427
 3270SOL    HW110709   0.376   3.001   5.365
 3270SOL    HW210710   0.389   3.071   5.512
 3271SOL     OW10711   0.502   2.617   2.450
 3271SOL    HW110712   0.502   2.550   2.524
 3271SOL    HW210713   0.452   2.699   2.479
 3272SOL     OW10714   4.521   6.163   0.699
 3272SOL    HW110715   4.478   6.135   0.785
 3272SOL    HW210716   4.468   6.237   0.658
 3273SOL     OW10717   5.096   2.647   6.086
 3273SOL    HW110718   5.068   2.670   6.180
 3273SOL    HW210719   5.129   2.553   6.083
 3274SOL     OW10720   5.748   0.279   0.604
 3274SOL    HW110721   5.800   0.194   0.595
 3274SOL    HW210722   5.693   0.294   0.521
 3275SOL     OW10723   4.329   0.420   1.638
 3275SOL    HW110724   4.290   0.371   1.560
 3275SOL    HW210725   4.256   0.460   1.693
 3276SOL     OW10726   5.117   0.310   0.426
 3276SOL    HW110727   5.199   0.364   0.405
 3276SOL    HW210728   5.111   0.232   0.364
 3277SOL     OW10729   3.564   2.067   2.210
 3277SOL    HW110730   3.623   2.120   2.149
 3277SOL    HW210731   3.468   2.090   2.191
 3278SOL     OW10732   6.519   0.386   0.160
 3278SOL    HW110733   6.573   0.384   0.077
 3278SOL    HW210734   6.538   0.470   0.211
 3279SOL     OW10735   3.219   0.412   1.769
 3279SOL    HW110736   3.189   0.491   1.715
 3279SOL    HW210737   3.193   0.426   1.865
 3280SOL     OW10738   5.911   4.249   3.855
 3280SOL    HW110739   5.978   4.306   3.903
 3280SOL    HW210740   5.887   4.171   3.914
 3281SOL     OW10741   6.355   3.565   1.156
 3281SOL    HW110742   6.272   3.530   1.200
 3281SOL    HW210743   6.391   3.642   1.208
 3282SOL     OW10744   0.759   4.950   4.211
 3282SOL    HW110745   0.752   4.895   4.127
 3282SOL    HW210746   0.854   4.973   4.228
 3283SOL     OW10747   3.798   2.031   0.339
 3283SOL    HW110748   3.770   1.941   0.373
 3283SOL    HW210749   3.898   2.037   0.338
 3284SOL     OW10750   1.827   6.056   4.280
 3284SOL    HW110751   1.736   6.096   4.272
 3284SOL    HW210752   1.849   6.041   4.376
 3285SOL     OW10753   3.865   1.854   4.847
 3285SOL    HW110754   3.858   1.938   4.795
 3285SOL    HW210755   3.830   1.869   4.940
 3286SOL     OW10756   2.803   1.597   1.495
 3286SOL    HW110757   2.748   1.553   1.425
 3286SOL    HW210758   2.788   1.696   1.493
 3287SOL     OW10759   2.500   0.418   0.053
 3287SOL    HW110760   2.408   0.456   0.050
 3287SOL    HW210761   2.541   0.423   6.990
 3288SOL     OW10762   2.103   6.314   1.644
 3288SOL    HW110763   2.032   6.384   1.637
 3288SOL    HW210764   2.177   6.347   1.702
 3289SOL     OW10765   4.063   1.328   6.790
 3289SOL    HW110766   4.150   1.368   6.763
 3289SOL    HW210767   4.022   1.383   6.863
 3290SOL     OW10768   0.072   5.795   0.503
 3290SOL    HW110769   0.018   5.792   0.418
 3290SOL    HW210770   0.078   5.702   0.541
 3291SOL     OW10771   4.703   6.769   5.400
 3291SOL    HW110772   4.657   6.826   5.468
 3291SOL    HW210773   4.649   6.686   5.384
 3292SOL     OW10774   6.666   1.955   1.108
 3292SOL    HW110775   6.738   1.950   1.039
 3292SOL    HW210776   6.693   2.018   1.181
 3293SOL     OW10777   5.749   5.644   3.449
 3293SOL    HW110778   5.682   5.711   3.414
 3293SOL    HW210779   5.791   5.596   3.372
 3294SOL     OW10780   5.147   2.577   4.881
 3294SOL    HW110781   5.081   2.650   4.900
 3294SOL    HW210782   5.144   2.554   4.783
 3295SOL     OW10783   1.066   2.933   2.605
 3295SOL    HW110784   1.006   2.924   2.685
 3295SOL    HW210785   1.156   2.964   2.635
 3296SOL     OW10786   1.698   0.532   5.716
 3296SOL    HW110787   1.778   0.523   5.657
 3296SOL    HW210788   1.706   0.469   5.793
 3297SOL     OW10789   3.126   1.064   4.669
 3297SOL    HW110790   3.148   1.141   4.609
 3297SOL    HW210791   3.070   1.097   4.746
 3298SOL     OW10792   5.394   3.924   5.854
 3298SOL    HW110793   5.484   3.890   5.882
 3298SOL    HW210794   5.389   3.927   5.754
 3299SOL     OW10795   2.687   4.721   4.336
 3299SOL    HW110796   2.769   4.772   4.312
 3299SOL    HW210797   2.658   4.665   4.258
 3300SOL     OW10798   1.821   0.057   4.150
 3300SOL    HW110799   1.839   0.148   4.186
 3300SOL    HW210800   1.867   7.017   4.208
 3301SOL     OW10801   1.048   1.364   2.942
 3301SOL    HW110802   1.088   1.442   2.990
 3301SOL    HW210803   0.966   1.393   2.893
 3302SOL     OW10804   2.428   5.107   6.051
 3302SOL    HW110805   2.367   5.030   6.035
 3302SOL    HW210806   2.521   5.073   6.062
 3303SOL     OW10807   3.848   2.967   6.966
 3303SOL    HW110808   3.774   2.971   6.899
 3303SOL    HW210809   3.893   3.056   6.970
 3304SOL     OW10810   3.122   5.420   6.535
 3304SOL    HW110811   3.062   5.500   6.541
 3304SOL    HW210812   3.210   5.442   6.576
 3305SOL     OW10813   3.298   2.426   1.039
 3305SOL    HW110814   3.249   2.414   1.125
 3305SOL    HW210815   3.377   2.365   1.037
 3306SOL     OW10816   2.323   0.852   0.066
 3306SOL    HW110817   2.340   0.907   0.147
 3306SOL    HW210818   2.250   0.786   0.085
 3307SOL     OW10819   1.715   6.583   5.295
 3307SOL    HW110820   1.690   6.636   5.377
 3307SOL    HW210821   1.810   6.552   5.303
 3308SOL     OW10822   4.129   4.360   1.270
 3308SOL    HW110823   4.178   4.348   1.357
 3308SOL    HW210824   4.110   4.271   1.230
 3309SOL     OW10825   5.978   3.241   3.634
 3309SOL    HW110826   6.070   3.208   3.653
 3309SOL    HW210827   5.957   3.319   3.693
 3310SOL     OW10828   6.506   5.417   6.128
 3310SOL    HW110829   6.548   5.413   6.037
 3310SOL    HW210830   6.443   5.340   6.139
 3311SOL     OW10831   2.976   3.350   0.247
 3311SOL    HW110832   3.016   3.295   0.320
 3311SOL    HW210833   2.877   3.357   0.260
 3312SOL     OW10834   4.748   2.363   5.782
 3312SOL    HW110835   4.793   2.422   5.850
 3312SOL    HW210836   4.666   2.409   5.748
 3313SOL     OW10837   0.921   0.892   3.423
 3313SOL    HW110838   0.967   0.839   3.351
 3313SOL    HW210839   0.882   0.975   3.383
 3314SOL     OW10840   2.567   5.326   2.759
 3314SOL    HW110841   2.510   5.269   2.818
 3314SOL    HW210842   2.588   5.277   2.675
 3315SOL     OW10843   0.259   5.378   5.007
 3315SOL    HW110844   0.321   5.394   4.930
 3315SOL    HW210845   0.275   5.448   5.077
 3316SOL     OW10846   3.778   2.717   6.276
 3316SOL    HW110847   3.779   2.790   6.344
 3316SOL    HW210848   3.850   2.732   6.208
 3317SOL     OW10849   4.866   2.596   2.604
 3317SOL    HW110850   4.847   2.684   2.561
 3317SOL    HW210851   4.798   2.577   2.674
 3318SOL     OW10852   3.284   2.149   0.960
 3318SOL    HW110853   3.272   2.219   0.890
 3318SOL    HW210854   3.206   2.086   0.959
 3319SOL     OW10855   6.546   5.926   3.585
 3319SOL    HW110856   6.539   5.898   3.489
 3319SOL    HW210857   6.635   5.969   3.600
 3320SOL     OW10858   6.138   6.867   1.354
 3320SOL    HW110859   6.099   6.794   1.298
 3320SOL    HW210860   6.141   6.838   1.449
 3321SOL     OW10861   4.988   1.152   0.712
 3321SOL    HW110862   5.021   1.060   0.736
 3321SOL    HW210863   4.899   1.145   0.668
 3322SOL     OW10864   6.696   4.035   0.940
 3322SOL    HW110865   6.776   3.976   0.940
 3322SOL    HW210866   6.616   3.984   0.973
 3323SOL     OW10867   1.671   2.750   1.444
 3323SOL    HW110868   1.730   2.809   1.389
 3323SOL    HW210869   1.725   2.704   1.515
 3324SOL     OW10870   4.974   5.987   5.699
 3324SOL    HW110871   5.030   5.967   5.779
 3324SOL    HW210872   4.895   6.041   5.727
 3325SOL     OW10873   2.222   4.027   6.110
 3325SOL    HW110874   2.201   3.936   6.147
 3325SOL    HW210875   2.307   4.060   6.151
 3326SOL     OW10876   3.802   0.907   2.480
 3326SOL    HW110877   3.748   0.952   2.551
 3326SOL    HW210878   3.759   0.922   2.390
 3327SOL     OW10879   0.704   5.230   0.098
 3327SOL    HW110880   0.697   5.232   7.026
 3327SOL    HW210881   0.696   5.135   0.129
 3328SOL     OW10882   4.660   2.308   6.611
 3328SOL    HW110883   4.638   2.274   6.702
 3328SOL    HW210884   4.718   2.241   6.564
 3329SOL     OW10885   0.026   5.746   6.055
 3329SOL    HW110886   0.086   5.814   6.098
 3329SOL    HW210887   6.966   5.745   6.103
 3330SOL     OW10888   6.448   3.567   2.819
 3330SOL    HW110889   6.452   3.667   2.810
 3330SOL    HW210890   6.534   3.527   2.789
 3331SOL     OW10891   2.273   3.229   1.163
 3331SOL    HW110892   2.310   3.201   1.075
 3331SOL    HW210893   2.178   3.198   1.170
 3332SOL     OW10894   6.412   4.730   1.301
 3332SOL    HW110895   6.374   4.715   1.209
 3332SOL    HW210896   6.348   4.696   1.369
 3333SOL     OW10897   4.297   5.344   5.789
 3333SOL    HW110898   4.315   5.428   5.737
 3333SOL    HW210899   4.298   5.266   5.727
 3334SOL     OW10900   2.558   4.331   1.520
 3334SOL    HW110901   2.499   4.377   1.586
 3334SOL    HW210902   2.569   4.389   1.439
 3335SOL     OW10903   5.912   4.416   5.034
 3335SOL    HW110904   5.893   4.406   5.132
 3335SOL    HW210905   5.954   4.332   4.999
 3336SOL     OW10906   3.475   5.607   6.101
 3336SOL    HW110907   3.414   5.640   6.030
 3336SOL    HW210908   3.422   5.579   6.181
 3337SOL     OW10909   3.528   1.805   1.012
 3337SOL    HW110910   3.472   1.862   1.072
 3337SOL    HW210911   3.534   1.848   0.922
 3338SOL     OW10912   0.243   4.846   0.751
 3338SOL    HW110913   0.278   4.754   0.771
 3338SOL    HW210914   0.172   4.869   0.817
 3339SOL     OW10915   7.010   5.605   6.433
 3339SOL    HW110916   6.962   5.659   6.363
 3339SOL    HW210917   6.949   5.592   6.512
 3340SOL     OW10918   3.553   6.535   1.408
 3340SOL    HW110919   3.571   6.532   1.310
 3340SOL    HW210920   3.459   6.507   1.426
 3341SOL     OW10921   1.010   0.688   2.191
 3341SOL    HW110922   0.960   0.746   2.255
 3341SOL    HW210923   0.968   0.696   2.100
 3342SOL     OW10924   2.578   6.672   4.330
 3342SOL    HW110925   2.513   6.657   4.256
 3342SOL    HW210926   2.534   6.654   4.418
 3343SOL     OW10927   5.878   2.546   1.129
 3343SOL    HW110928   5.943   2.596   1.072
 3343SOL    HW210929   5.926   2.473   1.178
 3344SOL     OW10930   0.131   3.395   5.809
 3344SOL    HW110931   0.107   3.376   5.904
 3344SOL    HW210932   0.049   3.424   5.760
 3345SOL     OW10933   3.105   3.199   5.667
 3345SOL    HW110934   3.163   3.277   5.646
 3345SOL    HW210935   3.158   3.114   5.656
 3346SOL     OW10936   1.522   6.396   2.244
 3346SOL    HW110937   1.580   6.336   2.297
 3346SOL    HW210938   1.427   6.365   2.250
 3347SOL     OW10939   5.646   4.146   5.021
 3347SOL    HW110940   5.591   4.075   5.065
 3347SOL    HW210941   5.695   4.198   5.091
 3348SOL     OW10942   3.241   2.956   3.582
 3348SOL    HW110943   3.218   2.954   3.485
 3348SOL    HW210944   3.158   2.966   3.636
 3349SOL     OW10945   6.287   3.780   5.290
 3349SOL    HW110946   6.255   3.698   5.243
 3349SOL    HW210947   6.361   3.822   5.237
 3350SOL     OW10948   0.969   1.202   1.159
 3350SOL    HW110949   0.920   1.117   1.144
 3350SOL    HW210950   1.031   1.218   1.082
 3351SOL     OW10951   4.895   1.657   1.730
 3351SOL    HW110952   4.941   1.743   1.709
 3351SOL    HW210953   4.802   1.676   1.762
 3352SOL     OW10954   0.403   4.002   0.506
 3352SOL    HW110955   0.312   4.038   0.527
 3352SOL    HW210956   0.445   4.057   0.434
 3353SOL     OW10957   2.147   6.686   5.825
 3353SOL    HW110958   2.169   6.776   5.861
 3353SOL    HW210959   2.153   6.618   5.899
 3354SOL     OW10960   1.149   1.814   2.610
 3354SOL    HW110961   1.197   1.726   2.611
 3354SOL    HW210962   1.209   1.884   2.572
 3355SOL     OW10963   6.460   1.491   2.613
 3355SOL    HW110964   6.463   1.565   2.680
 3355SOL    HW210965   6.539   1.432   2.624
 3356SOL     OW10966   2.970   3.151   6.561
 3356SOL    HW110967   2.954   3.211   6.638
 3356SOL    HW210968   2.957   3.056   6.589
 3357SOL     OW10969   2.601   4.828   2.011
 3357SOL    HW110970   2.633   4.893   1.942
 3357SOL    HW210971   2.671   4.758   2.026
 3358SOL     OW10972   5.267   4.636   2.895
 3358SOL    HW110973   5.324   4.716   2.874
 3358SOL    HW210974   5.238   4.639   2.990
 3359SOL     OW10975   1.043   1.315   2.219
 3359SOL    HW110976   1.070   1.241   2.158
 3359SOL    HW210977   0.945   1.333   2.209
 3360SOL     OW10978   1.417   0.380   6.625
 3360SOL    HW110979   1.466   0.441   6.688
 3360SOL    HW210980   1.357   0.434   6.566
 3361SOL     OW10981   5.435   6.626   2.757
 3361SOL    HW110982   5.452   6.629   2.659
 3361SOL    HW210983   5.420   6.719   2.791
 3362SOL     OW10984   2.062   1.453   5.445
 3362SOL    HW110985   2.048   1.513   5.524
 3362SOL    HW210986   2.143   1.396   5.460
 3363SOL     OW10987   0.579   1.173   6.911
 3363SOL    HW110988   0.518   1.217   6.977
 3363SOL    HW210989   0.667   1.219   6.910
 3364SOL     OW10990   1.941   4.900   6.314
 3364SOL    HW110991   1.879   4.825   6.338
 3364SOL    HW210992   1.894   4.987   6.327
 3365SOL     OW10993   6.360   1.913   5.706
 3365SOL    HW110994   6.415   1.834   5.734
 3365SOL    HW210995   6.273   1.913   5.757
 3366SOL     OW10996   5.255   1.165   5.954
 3366SOL    HW110997   5.335   1.148   5.896
 3366SOL    HW210998   5.253   1.098   6.028
 3367SOL     OW10999   0.620   0.706   1.975
 3367SOL    HW111000   0.565   0.632   2.014
 3367SOL    HW211001   0.564   0.788   1.966
 3368SOL     OW11002   7.024   6.019   5.433
 3368SOL    HW111003   6.954   5.976   5.489
 3368SOL    HW211004   0.077   6.038   5.490
 3369SOL     OW11005   4.118   0.111   6.449
 3369SOL    HW111006   4.018   0.115   6.449
 3369SOL    HW211007   4.155   0.189   6.398
 3370SOL     OW11008   5.671   6.875   5.036
 3370SOL    HW111009   5.638   6.836   5.121
 3370SOL    HW211010   5.760   6.919   5.052
 3371SOL     OW11011   6.733   5.518   1.751
 3371SOL    HW111012   6.662   5.474   1.806
 3371SOL    HW211013   6.751   5.462   1.670
 3372SOL     OW11014   0.458   1.062   2.669
 3372SOL    HW111015   0.449   1.025   2.576
 3372SOL    HW211016   0.443   0.989   2.735
 3373SOL     OW11017   6.567   2.188   5.513
 3373SOL    HW111018   6.601   2.281   5.526
 3373SOL    HW211019   6.475   2.192   5.474
 3374SOL     OW11020   3.031   5.233   5.045
 3374SOL    HW111021   3.089   5.310   5.018
 3374SOL    HW211022   3.043   5.214   5.143
 3375SOL     OW11023   4.489   4.604   5.344
 3375SOL    HW111024   4.534   4.590   5.432
 3375SOL    HW211025   4.414   4.669   5.354
 3376SOL     OW11026   3.465   3.696   2.397
 3376SOL    HW111027   3.485   3.621   2.459
 3376SOL    HW211028   3.536   3.766   2.403
 3377SOL     OW11029   1.825   6.181   5.380
 3377SOL    HW111030   1.747   6.222   5.427
 3377SOL    HW211031   1.898   6.248   5.371
 3378SOL     OW11032   0.399   1.468   0.705
 3378SOL    HW111033   0.307   1.431   0.720
 3378SOL    HW211034   0.392   1.564   0.679
 3379SOL     OW11035   0.778   4.941   5.669
 3379SOL    HW111036   0.696   4.925   5.725
 3379SOL    HW211037   0.790   4.865   5.605
 3380SOL     OW11038   0.440   4.253   6.403
 3380SOL    HW111039   0.395   4.214   6.484
 3380SOL    HW211040   0.509   4.189   6.370
 3381SOL     OW11041   3.100   2.587   0.480
 3381SOL    HW111042   3.059   2.495   0.481
 3381SOL    HW211043   3.065   2.639   0.558
 3382SOL     OW11044   6.826   0.290   0.819
 3382SOL    HW111045   6.744   0.341   0.794
 3382SOL    HW211046   6.902   0.354   0.831
 3383SOL     OW11047   6.255   5.256   2.558
 3383SOL    HW111048   6.185   5.228   2.492
 3383SOL    HW211049   6.311   5.177   2.582
 3384SOL     OW11050   3.895   3.006   4.272
 3384SOL    HW111051   3.878   3.025   4.175
 3384SOL    HW211052   3.964   3.071   4.306
 3385SOL     OW11053   6.511   3.753   3.218
 3385SOL    HW111054   6.455   3.715   3.291
 3385SOL    HW211055   6.517   3.852   3.227
 3386SOL     OW11056   5.967   4.302   5.454
 3386SOL    HW111057   6.010   4.387   5.425
 3386SOL    HW211058   6.007   4.225   5.405
 3387SOL     OW11059   2.462   2.409   2.738
 3387SOL    HW111060   2.393   2.351   2.781
 3387SOL    HW211061   2.532   2.351   2.696
 3388SOL     OW11062   5.823   2.388   1.484
 3388SOL    HW111063   5.767   2.381   1.567
 3388SOL    HW211064   5.799   2.472   1.435
 3389SOL     OW11065   5.589   4.810   3.306
 3389SOL    HW111066   5.560   4.744   3.375
 3389SOL    HW211067   5.508   4.844   3.257
 3390SOL     OW11068   4.785   2.496   5.344
 3390SOL    HW111069   4.832   2.442   5.414
 3390SOL    HW211070   4.826   2.476   5.254
 3391SOL     OW11071   3.608   2.123   4.706
 3391SOL    HW111072   3.553   2.206   4.706
 3391SOL    HW211073   3.566   2.055   4.645
 3392SOL     OW11074   3.885   6.408   3.758
 3392SOL    HW111075   3.898   6.393   3.660
 3392SOL    HW211076   3.789   6.429   3.776
 3393SOL     OW11077   6.666   0.047   6.920
 3393SOL    HW111078   6.695   6.995   6.973
 3393SOL    HW211079   6.567   0.052   6.919
 3394SOL     OW11080   6.167   2.729   1.843
 3394SOL    HW111081   6.126   2.658   1.785
 3394SOL    HW211082   6.098   2.767   1.905
 3395SOL     OW11083   1.386   3.343   5.385
 3395SOL    HW111084   1.473   3.393   5.384
 3395SOL    HW211085   1.390   3.272   5.455
 3396SOL     OW11086   0.172   4.143   4.132
 3396SOL    HW111087   0.197   4.068   4.070
 3396SOL    HW211088   0.238   4.217   4.123
 3397SOL     OW11089   3.790   6.158   6.096
 3397SOL    HW111090   3.860   6.197   6.156
 3397SOL    HW211091   3.827   6.149   6.003
 3398SOL     OW11092   0.764   6.830   4.037
 3398SOL    HW111093   0.830   6.797   4.104
 3398SOL    HW211094   0.693   6.762   4.024
 3399SOL     OW11095   5.013   4.841   4.261
 3399SOL    HW111096   4.943   4.901   4.300
 3399SOL    HW211097   4.970   4.772   4.203
 3400SOL     OW11098   4.614   2.201   6.852
 3400SOL    HW111099   4.520   2.213   6.883
 3400SOL    HW211100   4.675   2.193   6.931
 3401SOL     OW11101   6.011   4.699   0.235
 3401SOL    HW111102   5.953   4.634   0.284
 3401SOL    HW211103   5.953   4.763   0.184
 3402SOL     OW11104   5.569   5.836   1.981
 3402SOL    HW111105   5.590   5.926   1.942
 3402SOL    HW211106   5.594   5.835   2.077
 3403SOL     OW11107   3.559   1.011   5.024
 3403SOL    HW111108   3.591   1.066   5.102
 3403SOL    HW211109   3.516   0.927   5.057
 3404SOL     OW11110   4.797   0.780   0.526
 3404SOL    HW111111   4.767   0.700   0.473
 3404SOL    HW211112   4.825   0.853   0.464
 3405SOL     OW11113   6.723   3.825   6.977
 3405SOL    HW111114   6.798   3.763   6.999
 3405SOL    HW211115   6.742   3.870   6.889
 3406SOL     OW11116   1.408   3.847   2.642
 3406SOL    HW111117   1.451   3.933   2.668
 3406SOL    HW211118   1.320   3.838   2.689
 3407SOL     OW11119   1.390   5.522   2.754
 3407SOL    HW111120   1.466   5.585   2.772
 3407SOL    HW211121   1.412   5.432   2.793
 3408SOL     OW11122   5.401   4.523   3.190
 3408SOL    HW111123   5.326   4.586   3.169
 3408SOL    HW211124   5.450   4.500   3.106
 3409SOL     OW11125   3.854   0.592   5.417
 3409SOL    HW111126   3.820   0.566   5.508
 3409SOL    HW211127   3.834   0.689   5.401
 3410SOL     OW11128   6.117   0.122   0.684
 3410SOL    HW111129   6.149   0.164   0.600
 3410SOL    HW211130   6.194   0.108   0.747
 3411SOL     OW11131   5.140   1.967   2.624
 3411SOL    HW111132   5.173   2.013   2.706
 3411SOL    HW211133   5.167   1.870   2.627
 3412SOL     OW11134   3.788   4.410   6.821
 3412SOL    HW111135   3.730   4.474   6.772
 3412SOL    HW211136   3.816   4.449   6.909
 3413SOL     OW11137   3.540   2.138   3.338
 3413SOL    HW111138   3.597   2.164   3.260
 3413SOL    HW211139   3.456   2.096   3.304
 3414SOL     OW11140   2.681   2.378   5.207
 3414SOL    HW111141   2.597   2.416   5.245
 3414SOL    HW211142   2.759   2.429   5.244
 3415SOL     OW11143   0.865   4.666   3.824
 3415SOL    HW111144   0.870   4.766   3.818
 3415SOL    HW211145   0.808   4.640   3.901
 3416SOL     OW11146   1.344   5.416   5.368
 3416SOL    HW111147   1.393   5.352   5.427
 3416SOL    HW211148   1.338   5.379   5.275
 3417SOL     OW11149   6.263   0.053   2.302
 3417SOL    HW111150   6.241   0.029   2.207
 3417SOL    HW211151   6.311   0.141   2.304
 3418SOL     OW11152   3.059   1.473   5.613
 3418SOL    HW111153   3.102   1.555   5.651
 3418SOL    HW211154   2.968   1.495   5.579
 3419SOL     OW11155   4.458   4.717   0.407
 3419SOL    HW111156   4.528   4.662   0.452
 3419SOL    HW211157   4.500   4.780   0.342
 3420SOL     OW11158   4.140   2.224   3.561
 3420SOL    HW111159   4.151   2.198   3.657
 3420SOL    HW211160   4.203   2.298   3.538
 3421SOL     OW11161   0.318   5.616   5.129
 3421SOL    HW111162   0.227   5.648   5.101
 3421SOL    HW211163   0.339   5.650   5.221
 3422SOL     OW11164   3.547   1.363   1.908
 3422SOL    HW111165   3.602   1.296   1.957
 3422SOL    HW211166   3.477   1.400   1.970
 3423SOL     OW11167   2.444   0.521   1.094
 3423SOL    HW111168   2.347   0.516   1.072
 3423SOL    HW211169   2.458   0.587   1.168
 3424SOL     OW11170   4.560   0.925   3.161
 3424SOL    HW111171   4.486   0.882   3.214
 3424SOL    HW211172   4.648   0.900   3.201
 3425SOL     OW11173   4.629   4.389   1.687
 3425SOL    HW111174   4.569   4.343   1.753
 3425SOL    HW211175   4.629   4.487   1.704
 3426SOL     OW11176   4.226   4.131   0.684
 3426SOL    HW111177   4.263   4.095   0.598
 3426SOL    HW211178   4.271   4.086   0.761
 3427SOL     OW11179   1.086   1.230   0.249
 3427SOL    HW111180   1.129   1.152   0.205
 3427SOL    HW211181   1.127   1.244   0.339
 3428SOL     OW11182   4.248   4.805   2.414
 3428SOL    HW111183   4.193   4.885   2.433
 3428SOL    HW211184   4.276   4.805   2.318
 3429SOL     OW11185   1.599   2.988   0.058
 3429SOL    HW111186   1.686   3.025   0.027
 3429SOL    HW211187   1.584   3.012   0.154
 3430SOL     OW11188   1.690   6.904   0.172
 3430SOL    HW111189   1.690   6.952   0.260
 3430SOL    HW211190   1.619   6.834   0.173
 3431SOL     OW11191   0.700   5.736   0.922
 3431SOL    HW111192   0.607   5.721   0.955
 3431SOL    HW211193   0.702   5.730   0.823
 3432SOL     OW11194   3.280   1.622   5.968
 3432SOL    HW111195   3.338   1.600   5.890
 3432SOL    HW211196   3.282   1.720   5.985
 3433SOL     OW11197   3.367   1.149   4.858
 3433SOL    HW111198   3.440   1.098   4.903
 3433SOL    HW211199   3.368   1.128   4.760
 3434SOL     OW11200   4.738   2.737   2.063
 3434SOL    HW111201   4.837   2.725   2.071
 3434SOL    HW211202   4.718   2.829   2.030
 3435SOL     OW11203   0.183   1.506   1.641
 3435SOL    HW111204   0.136   1.540   1.723
 3435SOL    HW211205   0.213   1.411   1.657
 3436SOL     OW11206   4.251   6.727   4.408
 3436SOL    HW111207   4.313   6.700   4.482
 3436SOL    HW211208   4.161   6.688   4.424
 3437SOL     OW11209   3.870   6.874   5.855
 3437SOL    HW111210   3.879   6.973   5.862
 3437SOL    HW211211   3.925   6.830   5.926
 3438SOL     OW11212   0.783   2.907   6.478
 3438SOL    HW111213   0.685   2.898   6.492
 3438SOL    HW211214   0.801   2.975   6.407
 3439SOL     OW11215   2.431   6.238   4.141
 3439SOL    HW111216   2.489   6.225   4.222
 3439SOL    HW211217   2.476   6.301   4.078
 3440SOL     OW11218   5.381   3.205   0.954
 3440SOL    HW111219   5.328   3.140   1.009
 3440SOL    HW211220   5.337   3.295   0.957
 3441SOL     OW11221   2.878   0.300   3.770
 3441SOL    HW111222   2.935   0.235   3.720
 3441SOL    HW211223   2.785   0.297   3.734
 3442SOL     OW11224   1.966   4.778   3.443
 3442SOL    HW111225   1.893   4.721   3.482
 3442SOL    HW211226   2.014   4.825   3.517
 3443SOL     OW11227   5.918   1.099   2.745
 3443SOL    HW111228   5.945   1.074   2.838
 3443SOL    HW211229   5.929   1.020   2.685
 3444SOL     OW11230   5.023   5.288   0.278
 3444SOL    HW111231   5.084   5.223   0.323
 3444SOL    HW211232   4.995   5.358   0.344
 3445SOL     OW11233   6.576   4.610   4.220
 3445SOL    HW111234   6.574   4.555   4.304
 3445SOL    HW211235   6.610   4.702   4.242
 3446SOL     OW11236   3.886   6.841   2.454
 3446SOL    HW111237   3.866   6.875   2.545
 3446SOL    HW211238   3.884   6.917   2.388
 3447SOL     OW11239   5.441   6.016   6.748
 3447SOL    HW111240   5.491   5.931   6.733
 3447SOL    HW211241   5.396   6.013   6.838
 3448SOL     OW11242   3.582   1.753   1.288
 3448SOL    HW111243   3.580   1.797   1.198
 3448SOL    HW211244   3.670   1.772   1.332
 3449SOL     OW11245   7.011   6.551   3.319
 3449SOL    HW111246   6.973   6.562   3.227
 3449SOL    HW211247   6.950   6.494   3.373
 3450SOL     OW11248   1.134   1.653   1.628
 3450SOL    HW111249   1.131   1.598   1.545
 3450SOL    HW211250   1.145   1.749   1.604
 3451SOL     OW11251   0.815   5.685   4.278
 3451SOL    HW111252   0.826   5.783   4.266
 3451SOL    HW211253   0.869   5.637   4.209
 3452SOL     OW11254   5.776   1.355   0.555
 3452SOL    HW111255   5.745   1.335   0.463
 3452SOL    HW211256   5.723   1.301   0.621
 3453SOL     OW11257   5.630   5.480   4.618
 3453SOL    HW111258   5.550   5.519   4.663
 3453SOL    HW211259   5.693   5.553   4.592
 3454SOL     OW11260   1.124   0.757   0.589
 3454SOL    HW111261   1.128   0.750   0.489
 3454SOL    HW211262   1.042   0.711   0.622
 3455SOL     OW11263   2.028   2.760   4.217
 3455SOL    HW111264   2.090   2.838   4.202
 3455SOL    HW211265   1.937   2.794   4.241
 3456SOL     OW11266   5.699   6.956   1.610
 3456SOL    HW111267   5.785   7.004   1.593
 3456SOL    HW211268   5.693   6.877   1.549
 3457SOL     OW11269   2.237   5.078   3.379
 3457SOL    HW111270   2.289   5.162   3.366
 3457SOL    HW211271   2.277   5.026   3.455
 3458SOL     OW11272   5.673   6.703   0.566
 3458SOL    HW111273   5.596   6.765   0.553
 3458SOL    HW211274   5.707   6.673   0.477
 3459SOL     OW11275   0.433   5.011   3.995
 3459SOL    HW111276   0.432   5.052   4.086
 3459SOL    HW211277   0.395   5.075   3.928
 3460SOL     OW11278   4.402   3.144   6.770
 3460SOL    HW111279   4.430   3.055   6.807
 3460SOL    HW211280   4.376   3.133   6.674
 3461SOL     OW11281   3.951   6.223   3.522
 3461SOL    HW111282   3.950   6.159   3.599
 3461SOL    HW211283   4.046   6.249   3.502
 3462SOL     OW11284   4.916   3.546   3.103
 3462SOL    HW111285   4.873   3.616   3.159
 3462SOL    HW211286   4.960   3.589   3.024
 3463SOL     OW11287   2.275   2.973   1.351
 3463SOL    HW111288   2.230   2.955   1.439
 3463SOL    HW211289   2.374   2.976   1.364
 3464SOL     OW11290   5.020   3.034   6.461
 3464SOL    HW111291   5.058   3.041   6.368
 3464SOL    HW211292   5.006   2.937   6.483
 3465SOL     OW11293   2.061   3.662   1.901
 3465SOL    HW111294   2.099   3.586   1.954
 3465SOL    HW211295   2.071   3.642   1.804
 3466SOL     OW11296   6.351   5.041   4.353
 3466SOL    HW111297   6.286   5.117   4.365
 3466SOL    HW211298   6.381   5.038   4.258
 3467SOL     OW11299   2.774   2.343   0.634
 3467SOL    HW111300   2.719   2.423   0.609
 3467SOL    HW211301   2.773   2.277   0.559
 3468SOL     OW11302   4.461   1.735   1.117
 3468SOL    HW111303   4.522   1.698   1.047
 3468SOL    HW211304   4.498   1.821   1.152
 3469SOL     OW11305   4.041   6.820   5.654
 3469SOL    HW111306   3.990   6.859   5.730
 3469SOL    HW211307   4.032   6.879   5.574
 3470SOL     OW11308   0.491   2.837   2.085
 3470SOL    HW111309   0.394   2.860   2.100
 3470SOL    HW211310   0.545   2.871   2.162
 3471SOL     OW11311   5.010   4.104   3.356
 3471SOL    HW111312   5.034   4.019   3.403
 3471SOL    HW211313   5.004   4.179   3.423
 3472SOL     OW11314   4.574   1.870   3.619
 3472SOL    HW111315   4.626   1.867   3.705
 3472SOL    HW211316   4.497   1.933   3.630
 3473SOL     OW11317   6.962   4.330   2.671
 3473SOL    HW111318   0.032   4.323   2.692
 3473SOL    HW211319   6.909   4.290   2.745
 3474SOL     OW11320   6.454   5.288   4.456
 3474SOL    HW111321   6.425   5.309   4.362
 3474SOL    HW211322   6.493   5.196   4.458
 3475SOL     OW11323   6.803   3.853   4.564
 3475SOL    HW111324   6.882   3.844   4.626
 3475SOL    HW211325   6.769   3.947   4.568
 3476SOL     OW11326   1.238   2.124   3.205
 3476SOL    HW111327   1.249   2.113   3.304
 3476SOL    HW211328   1.226   2.034   3.163
 3477SOL     OW11329   0.728   3.690   1.529
 3477SOL    HW111330   0.821   3.654   1.526
 3477SOL    HW211331   0.664   3.620   1.498
 3478SOL     OW11332   2.360   0.140   6.815
 3478SOL    HW111333   2.393   0.052   6.779
 3478SOL    HW211334   2.408   0.161   6.900
 3479SOL     OW11335   0.919   2.971   3.895
 3479SOL    HW111336   0.976   3.052   3.885
 3479SOL    HW211337   0.853   2.986   3.969
 3480SOL     OW11338   1.237   5.828   6.897
 3480SOL    HW111339   1.198   5.852   6.986
 3480SOL    HW211340   1.164   5.816   6.830
 3481SOL     OW11341   6.730   0.167   6.107
 3481SOL    HW111342   6.723   0.264   6.085
 3481SOL    HW211343   6.735   0.114   6.023
 3482SOL     OW11344   6.168   3.709   4.657
 3482SOL    HW111345   6.183   3.756   4.744
 3482SOL    HW211346   6.196   3.768   4.582
 3483SOL     OW11347   4.389   2.216   3.321
 3483SOL    HW111348   4.394   2.255   3.413
 3483SOL    HW211349   4.478   2.225   3.277
 3484SOL     OW11350   2.083   3.431   5.949
 3484SOL    HW111351   2.020   3.376   6.004
 3484SOL    HW211352   2.149   3.475   6.009
 3485SOL     OW11353   0.194   1.913   5.953
 3485SOL    HW111354   0.126   1.927   6.024
 3485SOL    HW211355   0.247   1.830   5.973
 3486SOL     OW11356   2.482   0.298   4.834
 3486SOL    HW111357   2.428   0.381   4.816
 3486SOL    HW211358   2.548   0.285   4.760
 3487SOL     OW11359   5.947   1.655   6.545
 3487SOL    HW111360   6.018   1.713   6.585
 3487SOL    HW211361   5.922   1.690   6.454
 3488SOL     OW11362   6.056   0.671   4.150
 3488SOL    HW111363   6.154   0.662   4.134
 3488SOL    HW211364   6.040   0.696   4.246
 3489SOL     OW11365   3.248   0.463   0.340
 3489SOL    HW111366   3.302   0.394   0.389
 3489SOL    HW211367   3.301   0.497   0.262
 3490SOL     OW11368   4.178   5.202   0.640
 3490SOL    HW111369   4.208   5.258   0.563
 3490SOL    HW211370   4.236   5.121   0.647
 3491SOL     OW11371   4.832   3.828   0.143
 3491SOL    HW111372   4.780   3.744   0.127
 3491SOL    HW211373   4.786   3.905   0.099
 3492SOL     OW11374   6.159   4.602   2.452
 3492SOL    HW111375   6.165   4.596   2.352
 3492SOL    HW211376   6.252   4.598   2.490
 3493SOL     OW11377   6.254   3.448   4.572
 3493SOL    HW111378   6.258   3.352   4.543
 3493SOL    HW211379   6.224   3.453   4.667
 3494SOL     OW11380   3.833   1.619   1.965
 3494SOL    HW111381   3.828   1.670   1.879
 3494SOL    HW211382   3.781   1.668   2.035
 3495SOL     OW11383   1.784   3.702   1.956
 3495SOL    HW111384   1.793   3.711   1.856
 3495SOL    HW211385   1.867   3.658   1.992
 3496SOL     OW11386   6.697   5.308   0.878
 3496SOL    HW111387   6.774   5.243   0.880
 3496SOL    HW211388   6.709   5.376   0.951
 3497SOL     OW11389   3.969   0.442   2.507
 3497SOL    HW111390   3.942   0.405   2.418
 3497SOL    HW211391   3.997   0.367   2.567
 3498SOL     OW11392   2.004   2.138   1.385
 3498SOL    HW111393   2.096   2.176   1.388
 3498SOL    HW211394   1.944   2.190   1.445
 3499SOL     OW11395   5.990   5.457   5.730
 3499SOL    HW111396   5.975   5.553   5.704
 3499SOL    HW211397   5.905   5.418   5.764
 3500SOL     OW11398   1.638   2.319   3.562
 3500SOL    HW111399   1.562   2.364   3.608
 3500SOL    HW211400   1.632   2.335   3.464
 3501SOL     OW11401   1.665   6.807   5.830
 3501SOL    HW111402   1.573   6.835   5.857
 3501SOL    HW211403   1.702   6.872   5.763
 3502SOL     OW11404   4.973   3.814   1.695
 3502SOL    HW111405   4.974   3.749   1.619
 3502SOL    HW211406   5.062   3.811   1.741
 3503SOL     OW11407   6.726   6.302   6.431
 3503SOL    HW111408   6.784   6.361   6.486
 3503SOL    HW211409   6.703   6.219   6.483
 3504SOL     OW11410   1.241   0.598   2.056
 3504SOL    HW111411   1.230   0.696   2.076
 3504SOL    HW211412   1.338   0.576   2.053
 3505SOL     OW11413   5.951   5.156   5.902
 3505SOL    HW111414   5.886   5.232   5.899
 3505SOL    HW211415   6.022   5.176   5.969
 3506SOL     OW11416   5.210   4.407   4.380
 3506SOL    HW111417   5.233   4.405   4.283
 3506SOL    HW211418   5.210   4.315   4.417
 3507SOL     OW11419   2.524   6.773   0.323
 3507SOL    HW111420   2.435   6.769   0.367
 3507SOL    HW211421   2.564   6.863   0.335
 3508SOL     OW11422   3.058   2.607   5.303
 3508SOL    HW111423   3.109   2.530   5.264
 3508SOL    HW211424   2.961   2.583   5.311
 3509SOL     OW11425   4.229   5.765   6.960
 3509SOL    HW111426   4.311   5.821   6.968
 3509SOL    HW211427   4.153   5.823   6.930
 3510SOL     OW11428   2.426   0.853   0.945
 3510SOL    HW111429   2.374   0.913   1.006
 3510SOL    HW211430   2.422   0.759   0.979
 3511SOL     OW11431   2.629   4.998   1.385
 3511SOL    HW111432   2.644   4.954   1.473
 3511SOL    HW211433   2.579   4.936   1.324
 3512SOL     OW11434   1.227   4.345   0.018
 3512SOL    HW111435   1.206   4.355   0.116
 3512SOL    HW211436   1.181   4.417   6.995
 3513SOL     OW11437   5.732   2.358   0.182
 3513SOL    HW111438   5.832   2.347   0.183
 3513SOL    HW211439   5.689   2.268   0.181
 3514SOL     OW11440   4.514   0.852   2.853
 3514SOL    HW111441   4.456   0.919   2.808
 3514SOL    HW211442   4.525   0.876   2.950
 3515SOL     OW11443   6.203   5.846   4.606
 3515SOL    HW111444   6.268   5.808   4.672
 3515SOL    HW211445   6.216   5.802   4.517
 3516SOL     OW11446   5.150   0.283   1.089
 3516SOL    HW111447   5.217   0.281   1.015
 3516SOL    HW211448   5.178   0.350   1.158
 3517SOL     OW11449   6.401   1.597   0.141
 3517SOL    HW111450   6.468   1.567   0.073
 3517SOL    HW211451   6.339   1.664   0.099
 3518SOL     OW11452   5.596   1.118   5.406
 3518SOL    HW111453   5.638   1.028   5.414
 3518SOL    HW211454   5.509   1.111   5.358
 3519SOL     OW11455   3.476   0.742   0.401
 3519SOL    HW111456   3.456   0.745   0.499
 3519SOL    HW211457   3.564   0.697   0.386
 3520SOL     OW11458   2.890   5.832   5.067
 3520SOL    HW111459   2.905   5.735   5.087
 3520SOL    HW211460   2.871   5.842   4.969
 3521SOL     OW11461   3.070   2.965   6.824
 3521SOL    HW111462   3.017   2.889   6.861
 3521SOL    HW211463   3.085   3.033   6.896
 3522SOL     OW11464   6.882   5.599   0.177
 3522SOL    HW111465   6.944   5.526   0.146
 3522SOL    HW211466   6.790   5.581   0.143
 3523SOL     OW11467   1.077   5.258   5.949
 3523SOL    HW111468   1.052   5.292   6.040
 3523SOL    HW211469   1.172   5.228   5.950
 3524SOL     OW11470   6.490   1.644   3.258
 3524SOL    HW111471   6.453   1.587   3.185
 3524SOL    HW211472   6.565   1.700   3.223
 3525SOL     OW11473   6.214   4.815   4.065
 3525SOL    HW111474   6.265   4.895   4.098
 3525SOL    HW211475   6.254   4.783   3.979
 3526SOL     OW11476   1.199   5.929   3.528
 3526SOL    HW111477   1.108   5.911   3.489
 3526SOL    HW211478   1.225   6.024   3.510
 3527SOL     OW11479   6.801   2.877   6.044
 3527SOL    HW111480   6.735   2.952   6.050
 3527SOL    HW211481   6.894   2.915   6.042
 3528SOL     OW11482   2.672   6.380   5.493
 3528SOL    HW111483   2.739   6.442   5.535
 3528SOL    HW211484   2.620   6.430   5.423
 3529SOL     OW11485   4.914   5.965   6.801
 3529SOL    HW111486   4.912   5.966   6.701
 3529SOL    HW211487   4.985   5.902   6.833
 3530SOL     OW11488   0.388   6.712   1.974
 3530SOL    HW111489   0.391   6.625   2.023
 3530SOL    HW211490   0.460   6.772   2.009
 3531SOL     OW11491   4.816   1.690   1.432
 3531SOL    HW111492   4.805   1.599   1.394
 3531SOL    HW211493   4.775   1.693   1.523
 3532SOL     OW11494   2.348   1.119   2.189
 3532SOL    HW111495   2.318   1.037   2.139
 3532SOL    HW211496   2.270   1.158   2.239
 3533SOL     OW11497   6.852   1.551   2.237
 3533SOL    HW111498   6.929   1.547   2.173
 3533SOL    HW211499   6.833   1.459   2.271
 3534SOL     OW11500   0.030   1.780   1.494
 3534SOL    HW111501   0.119   1.736   1.493
 3534SOL    HW211502   7.023   1.788   1.401
 3535SOL     OW11503   2.766   5.068   4.759
 3535SOL    HW111504   2.805   4.999   4.819
 3535SOL    HW211505   2.807   5.157   4.778
 3536SOL     OW11506   3.073   2.054   2.360
 3536SOL    HW111507   3.158   2.103   2.379
 3536SOL    HW211508   3.091   1.978   2.299
 3537SOL     OW11509   1.790   5.513   2.819
 3537SOL    HW111510   1.869   5.557   2.862
 3537SOL    HW211511   1.708   5.567   2.838
 3538SOL     OW11512   3.055   5.650   4.736
 3538SOL    HW111513   2.985   5.713   4.768
 3538SOL    HW211514   3.119   5.630   4.810
 3539SOL     OW11515   4.145   3.565   4.440
 3539SOL    HW111516   4.101   3.546   4.352
 3539SOL    HW211517   4.147   3.663   4.456
 3540SOL     OW11518   2.000   1.866   4.131
 3540SOL    HW111519   2.064   1.790   4.138
 3540SOL    HW211520   2.014   1.929   4.207
 3541SOL     OW11521   3.060   3.795   5.308
 3541SOL    HW111522   3.026   3.701   5.302
 3541SOL    HW211523   2.983   3.858   5.312
 3542SOL     OW11524   1.458   4.435   2.359
 3542SOL    HW111525   1.441   4.469   2.267
 3542SOL    HW211526   1.434   4.338   2.364
 3543SOL     OW11527   5.427   2.804   4.123
 3543SOL    HW111528   5.440   2.800   4.223
 3543SOL    HW211529   5.349   2.863   4.102
 3544SOL     OW11530   2.111   4.364   6.070
 3544SOL    HW111531   2.157   4.300   6.007
 3544SOL    HW211532   2.022   4.327   6.096
 3545SOL     OW11533   4.353   5.848   6.425
 3545SOL    HW111534   4.330   5.942   6.452
 3545SOL    HW211535   4.382   5.849   6.329
 3546SOL     OW11536   6.635   5.524   3.302
 3546SOL    HW111537   6.606   5.618   3.287
 3546SOL    HW211538   6.724   5.523   3.348
 3547SOL     OW11539   4.771   5.279   4.581
 3547SOL    HW111540   4.788   5.363   4.632
 3547SOL    HW211541   4.774   5.299   4.483
 3548SOL     OW11542   4.926   2.754   5.131
 3548SOL    HW111543   4.927   2.786   5.036
 3548SOL    HW211544   4.834   2.768   5.169
 3549SOL     OW11545   6.429   4.635   3.076
 3549SOL    HW111546   6.523   4.602   3.068
 3549SOL    HW211547   6.427   4.717   3.134
 3550SOL     OW11548   5.257   1.729   2.660
 3550SOL    HW111549   5.292   1.641   2.693
 3550SOL    HW211550   5.275   1.738   2.562
 3551SOL     OW11551   3.341   6.737   3.019
 3551SOL    HW111552   3.307   6.783   2.937
 3551SOL    HW211553   3.275   6.667   3.048
 3552SOL     OW11554   5.806   6.069   2.715
 3552SOL    HW111555   5.895   6.081   2.759
 3552SOL    HW211556   5.759   6.157   2.709
 3553SOL     OW11557   5.405   2.249   2.554
 3553SOL    HW111558   5.330   2.195   2.515
 3553SOL    HW211559   5.487   2.193   2.561
 3554SOL     OW11560   4.092   4.718   0.014
 3554SOL    HW111561   4.011   4.760   0.056
 3554SOL    HW211562   4.166   4.716   0.082
 3555SOL     OW11563   1.246   2.904   3.217
 3555SOL    HW111564   1.307   2.960   3.274
 3555SOL    HW211565   1.292   2.883   3.131
 3556SOL     OW11566   3.414   0.659   5.819
 3556SOL    HW111567   3.375   0.723   5.753
 3556SOL    HW211568   3.356   0.657   5.901
 3557SOL     OW11569   1.919   0.605   4.904
 3557SOL    HW111570   2.004   0.554   4.913
 3557SOL    HW211571   1.843   0.549   4.936
 3558SOL     OW11572   0.113   6.338   1.832
 3558SOL    HW111573   0.196   6.393   1.833
 3558SOL    HW211574   0.134   6.245   1.861
 3559SOL     OW11575   0.586   1.192   4.907
 3559SOL    HW111576   0.651   1.132   4.952
 3559SOL    HW211577   0.576   1.277   4.959
 3560SOL     OW11578   0.606   6.116   1.547
 3560SOL    HW111579   0.598   6.039   1.484
 3560SOL    HW211580   0.648   6.194   1.500
 3561SOL     OW11581   4.976   4.842   5.717
 3561SOL    HW111582   5.039   4.887   5.779
 3561SOL    HW211583   4.992   4.743   5.718
 3562SOL     OW11584   5.565   0.467   3.409
 3562SOL    HW111585   5.500   0.412   3.357
 3562SOL    HW211586   5.650   0.416   3.420
 3563SOL     OW11587   4.807   1.063   1.373
 3563SOL    HW111588   4.894   1.090   1.415
 3563SOL    HW211589   4.772   0.981   1.419
 3564SOL     OW11590   7.001   4.418   4.309
 3564SOL    HW111591   6.996   4.465   4.221
 3564SOL    HW211592   6.936   4.342   4.310
 3565SOL     OW11593   2.708   0.494   4.873
 3565SOL    HW111594   2.628   0.548   4.898
 3565SOL    HW211595   2.680   0.402   4.845
 3566SOL     OW11596   0.076   2.857   6.220
 3566SOL    HW111597   7.024   2.840   6.278
 3566SOL    HW211598   0.060   2.941   6.167
 3567SOL     OW11599   0.282   3.374   0.644
 3567SOL    HW111600   0.303   3.285   0.605
 3567SOL    HW211601   0.196   3.408   0.604
 3568SOL     OW11602   4.648   4.370   3.500
 3568SOL    HW111603   4.673   4.329   3.412
 3568SOL    HW211604   4.698   4.456   3.512
 3569SOL     OW11605   3.528   4.126   4.349
 3569SOL    HW111606   3.595   4.184   4.304
 3569SOL    HW211607   3.570   4.038   4.372
 3570SOL     OW11608   0.279   1.664   6.295
 3570SOL    HW111609   0.307   1.671   6.199
 3570SOL    HW211610   0.283   1.754   6.337
 3571SOL     OW11611   2.391   6.272   5.426
 3571SOL    HW111612   2.372   6.346   5.362
 3571SOL    HW211613   2.336   6.192   5.402
 3572SOL     OW11614   5.090   4.422   1.631
 3572SOL    HW111615   5.043   4.347   1.584
 3572SOL    HW211616   5.161   4.384   1.690
 3573SOL     OW11617   6.655   3.736   2.600
 3573SOL    HW111618   6.597   3.733   2.519
 3573SOL    HW211619   6.637   3.656   2.658
 3574SOL     OW11620   2.992   2.962   6.050
 3574SOL    HW111621   3.015   3.046   6.098
 3574SOL    HW211622   2.954   2.984   5.960
 3575SOL     OW11623   5.453   6.894   6.981
 3575SOL    HW111624   5.445   6.802   6.943
 3575SOL    HW211625   5.450   6.961   6.907
 3576SOL     OW11626   0.980   3.174   6.470
 3576SOL    HW111627   1.069   3.130   6.482
 3576SOL    HW211628   0.949   3.210   6.559
 3577SOL     OW11629   2.785   2.693   5.795
 3577SOL    HW111630   2.690   2.687   5.764
 3577SOL    HW211631   2.793   2.650   5.885
 3578SOL     OW11632   3.333   2.945   6.715
 3578SOL    HW111633   3.237   2.927   6.736
 3578SOL    HW211634   3.383   2.960   6.801
 3579SOL     OW11635   0.405   2.853   2.527
 3579SOL    HW111636   0.461   2.935   2.538
 3579SOL    HW211637   0.309   2.877   2.539
 3580SOL     OW11638   0.320   4.062   1.575
 3580SOL    HW111639   0.233   4.093   1.614
 3580SOL    HW211640   0.343   3.972   1.611
 3581SOL     OW11641   0.520   0.439   2.489
 3581SOL    HW111642   0.495   0.523   2.537
 3581SOL    HW211643   0.533   0.365   2.555
 3582SOL     OW11644   3.672   4.082   6.128
 3582SOL    HW111645   3.644   4.156   6.068
 3582SOL    HW211646   3.662   3.995   6.081
 3583SOL     OW11647   0.675   4.906   0.812
 3583SOL    HW111648   0.593   4.957   0.787
 3583SOL    HW211649   0.722   4.954   0.887
 3584SOL     OW11650   6.396   4.626   4.482
 3584SOL    HW111651   6.367   4.585   4.395
 3584SOL    HW211652   6.327   4.692   4.512
 3585SOL     OW11653   2.409   1.725   3.424
 3585SOL    HW111654   2.437   1.786   3.351
 3585SOL    HW211655   2.443   1.759   3.512
 3586SOL     OW11656   6.057   2.036   4.780
 3586SOL    HW111657   5.984   1.973   4.808
 3586SOL    HW211658   6.131   2.033   4.847
 3587SOL     OW11659   3.148   6.897   6.441
 3587SOL    HW111660   3.090   6.827   6.482
 3587SOL    HW211661   3.139   6.893   6.342
 3588SOL     OW11662   6.386   4.161   4.578
 3588SOL    HW111663   6.431   4.086   4.628
 3588SOL    HW211664   6.288   4.141   4.570
 3589SOL     OW11665   0.512   0.415   6.576
 3589SOL    HW111666   0.484   0.336   6.522
 3589SOL    HW211667   0.432   0.468   6.603
 3590SOL     OW11668   6.560   5.000   0.697
 3590SOL    HW111669   6.624   4.988   0.773
 3590SOL    HW211670   6.547   4.912   0.650
 3591SOL     OW11671   5.676   2.176   6.848
 3591SOL    HW111672   5.617   2.253   6.872
 3591SOL    HW211673   5.751   2.208   6.790
 3592SOL     OW11674   1.686   6.872   1.608
 3592SOL    HW111675   1.651   6.802   1.545
 3592SOL    HW211676   1.766   6.837   1.657
 3593SOL     OW11677   5.117   3.253   6.071
 3593SOL    HW111678   5.168   3.192   6.011
 3593SOL    HW211679   5.144   3.348   6.054
 3594SOL     OW11680   4.534   5.095   4.724
 3594SOL    HW111681   4.605   5.107   4.654
 3594SOL    HW211682   4.451   5.060   4.681
 3595SOL     OW11683   5.657   6.336   5.276
 3595SOL    HW111684   5.671   6.237   5.286
 3595SOL    HW211685   5.723   6.384   5.333
 3596SOL     OW11686   4.003   1.555   3.449
 3596SOL    HW111687   3.915   1.592   3.420
 3596SOL    HW211688   3.990   1.489   3.522
 3597SOL     OW11689   1.988   3.455   5.302
 3597SOL    HW111690   2.021   3.488   5.390
 3597SOL    HW211691   2.043   3.496   5.228
 3598SOL     OW11692   1.434   5.037   4.917
 3598SOL    HW111693   1.521   4.995   4.942
 3598SOL    HW211694   1.404   5.098   4.991
 3599SOL     OW11695   4.552   1.333   4.817
 3599SOL    HW111696   4.573   1.429   4.796
 3599SOL    HW211697   4.633   1.276   4.801
 3600SOL     OW11698   3.530   3.273   0.579
 3600SOL    HW111699   3.582   3.289   0.663
 3600SOL    HW211700   3.466   3.348   0.565
 3601SOL     OW11701   5.360   1.059   5.564
 3601SOL    HW111702   5.323   1.073   5.472
 3601SOL    HW211703   5.300   1.104   5.631
 3602SOL     OW11704   2.034   2.067   0.927
 3602SOL    HW111705   2.012   2.077   0.830
 3602SOL    HW211706   2.133   2.059   0.938
 3603SOL     OW11707   3.031   0.841   5.751
 3603SOL    HW111708   3.116   0.894   5.755
 3603SOL    HW211709   2.962   0.892   5.700
 3604SOL     OW11710   6.929   0.505   3.647
 3604SOL    HW111711   6.898   0.596   3.672
 3604SOL    HW211712   7.024   0.509   3.617
 3605SOL     OW11713   0.691   5.633   3.596
 3605SOL    HW111714   0.784   5.598   3.605
 3605SOL    HW211715   0.692   5.733   3.606
 3606SOL     OW11716   2.560   6.270   1.932
 3606SOL    HW111717   2.513   6.242   1.848
 3606SOL    HW211718   2.503   6.335   1.983
 3607SOL     OW11719   5.144   3.197   2.951
 3607SOL    HW111720   5.128   3.100   2.930
 3607SOL    HW211721   5.178   3.205   3.045
 3608SOL     OW11722   3.032   2.050   5.192
 3608SOL    HW111723   3.090   1.977   5.157
 3608SOL    HW211724   3.057   2.137   5.150
 3609SOL     OW11725   2.346   6.841   4.618
 3609SOL    HW111726   2.259   6.891   4.626
 3609SOL    HW211727   2.422   6.905   4.622
 3610SOL     OW11728   2.558   6.827   5.040
 3610SOL    HW111729   2.570   6.908   4.983
 3610SOL    HW211730   2.593   6.747   4.990
 3611SOL     OW11731   5.226   5.036   2.970
 3611SOL    HW111732   5.147   5.019   2.912
 3611SOL    HW211733   5.303   4.979   2.941
 3612SOL     OW11734   5.921   1.396   6.590
 3612SOL    HW111735   5.930   1.489   6.555
 3612SOL    HW211736   5.950   1.331   6.519
 3613SOL     OW11737   3.885   5.515   1.370
 3613SOL    HW111738   3.865   5.417   1.371
 3613SOL    HW211739   3.978   5.529   1.336
 3614SOL     OW11740   3.911   4.839   6.498
 3614SOL    HW111741   4.001   4.849   6.456
 3614SOL    HW211742   3.841   4.831   6.427
 3615SOL     OW11743   5.900   2.393   5.589
 3615SOL    HW111744   5.842   2.463   5.546
 3615SOL    HW211745   5.898   2.404   5.688
 3616SOL     OW11746   1.448   1.760   6.772
 3616SOL    HW111747   1.412   1.728   6.859
 3616SOL    HW211748   1.438   1.859   6.766
 3617SOL     OW11749   3.604   6.098   6.304
 3617SOL    HW111750   3.571   6.015   6.258
 3617SOL    HW211751   3.700   6.113   6.279
 3618SOL     OW11752   1.886   4.457   4.769
 3618SOL    HW111753   1.867   4.429   4.675
 3618SOL    HW211754   1.975   4.421   4.798
 3619SOL     OW11755   6.007   3.299   1.030
 3619SOL    HW111756   6.044   3.377   1.079
 3619SOL    HW211757   6.024   3.215   1.081
 3620SOL     OW11758   6.281   5.855   5.147
 3620SOL    HW111759   6.255   5.923   5.216
 3620SOL    HW211760   6.223   5.865   5.066
 3621SOL     OW11761   2.999   3.581   3.552
 3621SOL    HW111762   3.022   3.484   3.538
 3621SOL    HW211763   2.948   3.615   3.473
 3622SOL     OW11764   0.939   6.391   6.912
 3622SOL    HW111765   0.879   6.468   6.888
 3622SOL    HW211766   0.884   6.307   6.916
 3623SOL     OW11767   1.069   4.918   6.178
 3623SOL    HW111768   1.152   4.894   6.228
 3623SOL    HW211769   1.089   4.917   6.080
 3624SOL     OW11770   3.214   1.572   1.499
 3624SOL    HW111771   3.202   1.554   1.597
 3624SOL    HW211772   3.309   1.555   1.474
 3625SOL     OW11773   6.711   2.545   1.049
 3625SOL    HW111774   6.644   2.486   1.005
 3625SOL    HW211775   6.742   2.504   1.135
 3626SOL     OW11776   1.181   2.396   4.981
 3626SOL    HW111777   1.234   2.376   4.899
 3626SOL    HW211778   1.218   2.477   5.026
 3627SOL     OW11779   3.769   1.968   1.898
 3627SOL    HW111780   3.727   2.055   1.925
 3627SOL    HW211781   3.868   1.980   1.892
 3628SOL     OW11782   6.401   1.834   1.344
 3628SOL    HW111783   6.320   1.825   1.402
 3628SOL    HW211784   6.381   1.896   1.269
 3629SOL     OW11785   1.316   1.595   4.487
 3629SOL    HW111786   1.389   1.539   4.526
 3629SOL    HW211787   1.343   1.629   4.397
 3630SOL     OW11788   6.935   2.388   3.414
 3630SOL    HW111789   6.907   2.304   3.368
 3630SOL    HW211790   6.891   2.466   3.371
 3631SOL     OW11791   1.454   6.529   2.529
 3631SOL    HW111792   1.399   6.495   2.452
 3631SOL    HW211793   1.539   6.570   2.494
 3632SOL     OW11794   4.627   4.206   0.785
 3632SOL    HW111795   4.624   4.272   0.710
 3632SOL    HW211796   4.613   4.114   0.750
 3633SOL     OW11797   3.695   3.403   6.420
 3633SOL    HW111798   3.731   3.433   6.332
 3633SOL    HW211799   3.625   3.333   6.406
 3634SOL     OW11800   3.469   5.775   6.937
 3634SOL    HW111801   3.390   5.742   6.886
 3634SOL    HW211802   3.438   5.812   7.025
 3635SOL     OW11803   2.311   6.979   1.900
 3635SOL    HW111804   2.242   6.949   1.835
 3635SOL    HW211805   2.285   0.040   1.938
 3636SOL     OW11806   0.834   4.979   6.607
 3636SOL    HW111807   0.810   4.882   6.606
 3636SOL    HW211808   0.752   5.033   6.593
 3637SOL     OW11809   6.504   3.172   6.918
 3637SOL    HW111810   6.526   3.075   6.919
 3637SOL    HW211811   6.575   3.223   6.966
 3638SOL     OW11812   6.055   4.639   2.878
 3638SOL    HW111813   5.992   4.578   2.926
 3638SOL    HW211814   6.015   4.731   2.875
 3639SOL     OW11815   3.604   3.875   4.209
 3639SOL    HW111816   3.686   3.831   4.171
 3639SOL    HW211817   3.542   3.900   4.135
 3640SOL     OW11818   4.981   2.323   0.696
 3640SOL    HW111819   5.021   2.246   0.648
 3640SOL    HW211820   4.887   2.300   0.723
 3641SOL     OW11821   6.021   3.782   2.612
 3641SOL    HW111822   6.002   3.849   2.683
 3641SOL    HW211823   5.971   3.806   2.529
 3642SOL     OW11824   5.741   3.340   6.180
 3642SOL    HW111825   5.820   3.279   6.176
 3642SOL    HW211826   5.708   3.358   6.087
 3643SOL     OW11827   3.888   5.565   5.325
 3643SOL    HW111828   3.985   5.557   5.299
 3643SOL    HW211829   3.831   5.534   5.250
 3644SOL     OW11830   2.483   0.807   1.606
 3644SOL    HW111831   2.522   0.741   1.541
 3644SOL    HW211832   2.418   0.761   1.665
 3645SOL     OW11833   1.326   4.264   3.435
 3645SOL    HW111834   1.265   4.343   3.422
 3645SOL    HW211835   1.347   4.223   3.347
 3646SOL     OW11836   2.090   4.500   5.070
 3646SOL    HW111837   2.115   4.464   5.160
 3646SOL    HW211838   2.144   4.454   4.999
 3647SOL     OW11839   3.613   6.817   6.718
 3647SOL    HW111840   3.546   6.840   6.647
 3647SOL    HW211841   3.663   6.900   6.745
 3648SOL     OW11842   4.548   5.416   3.385
 3648SOL    HW111843   4.477   5.467   3.433
 3648SOL    HW211844   4.528   5.415   3.287
 3649SOL     OW11845   5.882   2.695   0.313
 3649SOL    HW111846   5.920   2.731   0.227
 3649SOL    HW211847   5.856   2.771   0.372
 3650SOL     OW11848   5.353   5.374   6.925
 3650SOL    HW111849   5.363   5.463   6.969
 3650SOL    HW211850   5.259   5.342   6.937
 3651SOL     OW11851   1.071   2.144   5.623
 3651SOL    HW111852   1.149   2.082   5.634
 3651SOL    HW211853   1.089   2.205   5.546
 3652SOL     OW11854   4.053   1.141   2.175
 3652SOL    HW111855   3.983   1.141   2.104
 3652SOL    HW211856   4.009   1.135   2.265
 3653SOL     OW11857   0.778   1.424   1.192
 3653SOL    HW111858   0.789   1.327   1.212
 3653SOL    HW211859   0.855   1.455   1.136
 3654SOL     OW11860   5.376   6.785   0.498
 3654SOL    HW111861   5.374   6.780   0.399
 3654SOL    HW211862   5.374   6.881   0.527
 3655SOL     OW11863   1.718   2.144   4.167
 3655SOL    HW111864   1.732   2.159   4.069
 3655SOL    HW211865   1.780   2.203   4.219
 3656SOL     OW11866   6.805   6.811   1.323
 3656SOL    HW111867   6.711   6.810   1.288
 3656SOL    HW211868   6.808   6.765   1.412
 3657SOL     OW11869   5.021   5.654   5.199
 3657SOL    HW111870   5.043   5.658   5.101
 3657SOL    HW211871   5.091   5.601   5.246
 3658SOL     OW11872   2.105   4.905   5.729
 3658SOL    HW111873   2.097   4.949   5.640
 3658SOL    HW211874   2.182   4.841   5.728
 3659SOL     OW11875   6.972   1.674   6.357
 3659SOL    HW111876   6.875   1.653   6.356
 3659SOL    HW211877   6.990   1.753   6.298
 3660SOL     OW11878   5.622   5.355   6.669
 3660SOL    HW111879   5.609   5.371   6.572
 3660SOL    HW211880   5.571   5.424   6.721
 3661SOL     OW11881   0.050   1.914   5.096
 3661SOL    HW111882   0.087   1.838   5.042
 3661SOL    HW211883   7.018   1.879   5.168
 3662SOL     OW11884   2.818   1.589   5.535
 3662SOL    HW111885   2.752   1.612   5.606
 3662SOL    HW211886   2.808   1.652   5.458
 3663SOL     OW11887   2.829   2.294   6.424
 3663SOL    HW111888   2.859   2.205   6.459
 3663SOL    HW211889   2.847   2.364   6.493
 3664SOL     OW11890   3.926   1.222   1.732
 3664SOL    HW111891   3.962   1.290   1.796
 3664SOL    HW211892   3.913   1.265   1.642
 3665SOL     OW11893   0.925   5.462   5.782
 3665SOL    HW111894   0.985   5.513   5.721
 3665SOL    HW211895   0.971   5.378   5.811
 3666SOL     OW11896   2.051   2.894   4.666
 3666SOL    HW111897   2.021   2.984   4.635
 3666SOL    HW211898   2.125   2.861   4.609
 3667SOL     OW11899   1.961   0.359   1.557
 3667SOL    HW111900   1.864   0.382   1.560
 3667SOL    HW211901   1.972   0.260   1.567
 3668SOL     OW11902   0.235   1.081   1.528
 3668SOL    HW111903   0.216   1.071   1.430
 3668SOL    HW211904   0.156   1.125   1.573
 3669SOL     OW11905   0.641   1.289   3.555
 3669SOL    HW111906   0.692   1.354   3.611
 3669SOL    HW211907   0.561   1.256   3.606
 3670SOL     OW11908   2.704   6.127   1.629
 3670SOL    HW111909   2.629   6.147   1.693
 3670SOL    HW211910   2.775   6.196   1.639
 3671SOL     OW11911   6.122   0.526   3.757
 3671SOL    HW111912   6.077   0.615   3.746
 3671SOL    HW211913   6.217   0.533   3.728
 3672SOL     OW11914   3.764   6.575   2.842
 3672SOL    HW111915   3.814   6.655   2.875
 3672SOL    HW211916   3.675   6.602   2.807
 3673SOL     OW11917   3.393   6.107   1.173
 3673SOL    HW111918   3.325   6.059   1.227
 3673SOL    HW211919   3.477   6.052   1.168
 3674SOL     OW11920   1.660   4.780   6.106
 3674SOL    HW111921   1.599   4.700   6.109
 3674SOL    HW211922   1.737   4.761   6.044
 3675SOL     OW11923   1.343   0.789   4.215
 3675SOL    HW111924   1.249   0.757   4.227
 3675SOL    HW211925   1.369   0.844   4.294
 3676SOL     OW11926   4.010   2.143   4.028
 3676SOL    HW111927   3.925   2.101   4.057
 3676SOL    HW211928   4.079   2.072   4.014
 3677SOL     OW11929   2.212   0.487   4.285
 3677SOL    HW111930   2.196   0.501   4.187
 3677SOL    HW211931   2.127   0.501   4.335
 3678SOL     OW11932   1.039   0.936   3.889
 3678SOL    HW111933   0.950   0.953   3.847
 3678SOL    HW211934   1.087   0.866   3.836
 3679SOL     OW11935   4.175   0.542   2.368
 3679SOL    HW111936   4.096   0.537   2.429
 3679SOL    HW211937   4.147   0.576   2.279
 3680SOL     OW11938   3.371   1.173   4.571
 3680SOL    HW111939   3.311   1.245   4.537
 3680SOL    HW211940   3.467   1.200   4.561
 3681SOL     OW11941   1.604   5.995   4.554
 3681SOL    HW111942   1.704   5.998   4.554
 3681SOL    HW211943   1.572   5.965   4.644
 3682SOL     OW11944   5.634   1.675   1.625
 3682SOL    HW111945   5.703   1.745   1.643
 3682SOL    HW211946   5.546   1.719   1.607
 3683SOL     OW11947   5.725   1.522   6.157
 3683SOL    HW111948   5.673   1.481   6.082
 3683SOL    HW211949   5.755   1.450   6.220
 3684SOL     OW11950   1.965   6.556   5.653
 3684SOL    HW111951   2.003   6.488   5.591
 3684SOL    HW211952   2.040   6.602   5.702
 3685SOL     OW11953   2.192   6.089   5.373
 3685SOL    HW111954   2.173   6.115   5.278
 3685SOL    HW211955   2.188   5.989   5.382
 3686SOL     OW11956   0.226   4.016   2.973
 3686SOL    HW111957   0.169   3.943   2.935
 3686SOL    HW211958   0.316   3.980   2.994
 3687SOL     OW11959   5.624   5.440   4.233
 3687SOL    HW111960   5.601   5.345   4.210
 3687SOL    HW211961   5.553   5.500   4.197
 3688SOL     OW11962   5.932   2.554   0.574
 3688SOL    HW111963   5.859   2.493   0.542
 3688SOL    HW211964   5.991   2.504   0.638
 3689SOL     OW11965   1.103   6.747   5.839
 3689SOL    HW111966   1.172   6.789   5.780
 3689SOL    HW211967   1.115   6.647   5.839
 3690SOL     OW11968   5.314   5.515   1.508
 3690SOL    HW111969   5.388   5.495   1.572
 3690SOL    HW211970   5.351   5.523   1.415
 3691SOL     OW11971   1.526   2.895   0.879
 3691SOL    HW111972   1.432   2.864   0.890
 3691SOL    HW211973   1.527   2.982   0.829
 3692SOL     OW11974   0.549   3.034   5.619
 3692SOL    HW111975   0.635   3.049   5.570
 3692SOL    HW211976   0.551   3.084   5.706
 3693SOL     OW11977   6.306   1.216   2.117
 3693SOL    HW111978   6.300   1.276   2.196
 3693SOL    HW211979   6.215   1.181   2.094
 3694SOL     OW11980   6.638   0.523   2.575
 3694SOL    HW111981   6.549   0.484   2.550
 3694SOL    HW211982   6.701   0.450   2.600
 3695SOL     OW11983   5.920   3.525   2.973
 3695SOL    HW111984   6.005   3.564   2.940
 3695SOL    HW211985   5.939   3.447   3.032
 3696SOL     OW11986   4.107   0.391   4.614
 3696SOL    HW111987   4.121   0.489   4.634
 3696SOL    HW211988   4.045   0.382   4.536
 3697SOL     OW11989   7.011   6.223   3.142
 3697SOL    HW111990   6.997   6.148   3.078
 3697SOL    HW211991   6.955   6.209   3.224
 3698SOL     OW11992   1.438   0.089   3.052
 3698SOL    HW111993   1.525   0.062   3.095
 3698SOL    HW211994   1.412   0.180   3.085
 3699SOL     OW11995   2.543   2.199   3.382
 3699SOL    HW111996   2.559   2.249   3.297
 3699SOL    HW211997   2.625   2.204   3.439
 3700SOL     OW11998   1.301   5.170   4.511
 3700SOL    HW111999   1.227   5.236   4.520
 3700SOL    HW212000   1.383   5.205   4.557
 3701SOL     OW12001   1.515   0.529   2.077
 3701SOL    HW112002   1.508   0.460   2.149
 3701SOL    HW212003   1.518   0.620   2.117
 3702SOL     OW12004   5.665   4.737   2.872
 3702SOL    HW112005   5.655   4.659   2.935
 3702SOL    HW212006   5.751   4.785   2.893
 3703SOL     OW12007   1.138   1.699   4.226
 3703SOL    HW112008   1.225   1.670   4.187
 3703SOL    HW212009   1.096   1.623   4.275
 3704SOL     OW12010   6.415   2.356   0.971
 3704SOL    HW112011   6.427   2.289   1.044
 3704SOL    HW212012   6.361   2.315   0.897
 3705SOL     OW12013   4.911   4.672   3.049
 3705SOL    HW112014   4.970   4.646   2.973
 3705SOL    HW212015   4.815   4.668   3.019
 3706SOL     OW12016   0.597   4.057   0.215
 3706SOL    HW112017   0.660   4.007   0.275
 3706SOL    HW212018   0.538   3.992   0.167
 3707SOL     OW12019   1.276   5.074   3.603
 3707SOL    HW112020   1.359   5.018   3.602
 3707SOL    HW212021   1.288   5.153   3.544
 3708SOL     OW12022   2.648   6.727   0.974
 3708SOL    HW112023   2.598   6.645   1.003
 3708SOL    HW212024   2.589   6.783   0.916
 3709SOL     OW12025   1.856   1.839   1.912
 3709SOL    HW112026   1.855   1.758   1.853
 3709SOL    HW212027   1.777   1.897   1.889
 3710SOL     OW12028   0.250   4.466   5.379
 3710SOL    HW112029   0.224   4.481   5.475
 3710SOL    HW212030   0.325   4.528   5.355
 3711SOL     OW12031   1.553   5.504   4.271
 3711SOL    HW112032   1.566   5.603   4.259
 3711SOL    HW212033   1.486   5.472   4.205
 3712SOL     OW12034   1.826   5.492   4.606
 3712SOL    HW112035   1.775   5.559   4.660
 3712SOL    HW212036   1.766   5.453   4.535
 3713SOL     OW12037   5.748   0.583   4.026
 3713SOL    HW112038   5.669   0.526   4.001
 3713SOL    HW212039   5.814   0.527   4.077
 3714SOL     OW12040   0.784   4.770   0.586
 3714SOL    HW112041   0.756   4.834   0.658
 3714SOL    HW212042   0.870   4.800   0.546
 3715SOL     OW12043   5.663   5.769   4.059
 3715SOL    HW112044   5.694   5.692   4.003
 3715SOL    HW212045   5.726   5.846   4.048
 3716SOL     OW12046   5.012   5.656   4.388
 3716SOL    HW112047   5.023   5.710   4.471
 3716SOL    HW212048   5.100   5.648   4.341
 3717SOL     OW12049   4.735   1.019   0.955
 3717SOL    HW112050   4.699   1.051   1.043
 3717SOL    HW212051   4.673   1.047   0.882
 3718SOL     OW12052   6.553   6.873   5.998
 3718SOL    HW112053   6.573   6.812   5.921
 3718SOL    HW212054   6.473   6.839   6.047
 3719SOL     OW12055   3.589   4.007   0.311
 3719SOL    HW112056   3.623   4.100   0.301
 3719SOL    HW212057   3.617   3.953   0.231
 3720SOL     OW12058   0.345   3.641   1.381
 3720SOL    HW112059   0.408   3.565   1.396
 3720SOL    HW212060   0.342   3.699   1.463
 3721SOL     OW12061   7.027   5.884   5.823
 3721SOL    HW112062   7.023   5.822   5.901
 3721SOL    HW212063   0.079   5.861   5.767
 3722SOL     OW12064   4.890   5.967   2.675
 3722SOL    HW112065   4.951   5.991   2.750
 3722SOL    HW212066   4.818   5.906   2.710
 3723SOL     OW12067   4.670   3.597   0.233
 3723SOL    HW112068   4.586   3.645   0.257
 3723SOL    HW212069   4.675   3.587   0.134
 3724SOL     OW12070   1.428   4.858   4.708
 3724SOL    HW112071   1.426   4.920   4.786
 3724SOL    HW212072   1.336   4.851   4.669
 3725SOL     OW12073   1.059   5.740   0.189
 3725SOL    HW112074   1.068   5.679   0.268
 3725SOL    HW212075   0.972   5.724   0.143
 3726SOL     OW12076   5.970   3.725   5.038
 3726SOL    HW112077   5.873   3.704   5.028
 3726SOL    HW212078   5.985   3.822   5.018
 3727SOL     OW12079   6.876   3.462   3.885
 3727SOL    HW112080   6.898   3.527   3.959
 3727SOL    HW212081   6.850   3.513   3.803
 3728SOL     OW12082   3.085   2.695   0.185
 3728SOL    HW112083   3.024   2.617   0.197
 3728SOL    HW212084   3.138   2.710   0.269
 3729SOL     OW12085   0.680   0.538   5.338
 3729SOL    HW112086   0.743   0.574   5.269
 3729SOL    HW212087   0.624   0.466   5.298
 3730SOL     OW12088   4.575   5.575   4.060
 3730SOL    HW112089   4.600   5.499   4.120
 3730SOL    HW212090   4.476   5.572   4.042
 3731SOL     OW12091   0.292   2.321   6.863
 3731SOL    HW112092   0.324   2.257   6.794
 3731SOL    HW212093   0.204   2.359   6.835
 3732SOL     OW12094   3.303   2.547   6.695
 3732SOL    HW112095   3.322   2.497   6.611
 3732SOL    HW212096   3.258   2.486   6.761
 3733SOL     OW12097   1.907   1.044   3.877
 3733SOL    HW112098   1.978   1.008   3.937
 3733SOL    HW212099   1.820   1.000   3.897
 3734SOL     OW12100   3.983   6.760   0.848
 3734SOL    HW112101   3.988   6.857   0.872
 3734SOL    HW212102   3.897   6.722   0.881
 3735SOL     OW12103   4.169   6.913   2.657
 3735SOL    HW112104   4.206   6.840   2.599
 3735SOL    HW212105   4.120   6.872   2.734
 3736SOL     OW12106   6.768   1.006   0.810
 3736SOL    HW112107   6.766   1.098   0.772
 3736SOL    HW212108   6.832   0.949   0.758
 3737SOL     OW12109   6.951   2.300   2.492
 3737SOL    HW112110   6.872   2.346   2.533
 3737SOL    HW212111   6.943   2.304   2.392
 3738SOL     OW12112   6.753   6.479   0.762
 3738SOL    HW112113   6.674   6.440   0.714
 3738SOL    HW212114   6.837   6.439   0.727
 3739SOL     OW12115   3.131   3.600   0.352
 3739SOL    HW112116   3.184   3.624   0.270
 3739SOL    HW212117   3.073   3.521   0.333
 3740SOL     OW12118   5.060   5.500   6.185
 3740SOL    HW112119   4.993   5.430   6.163
 3740SOL    HW212120   5.021   5.591   6.165
 3741SOL     OW12121   5.448   3.093   0.522
 3741SOL    HW112122   5.363   3.117   0.476
 3741SOL    HW212123   5.513   3.169   0.513
 3742SOL     OW12124   3.976   5.285   0.372
 3742SOL    HW112125   4.055   5.344   0.355
 3742SOL    HW212126   3.894   5.341   0.381
 3743SOL     OW12127   3.843   3.411   1.342
 3743SOL    HW112128   3.909   3.339   1.362
 3743SOL    HW212129   3.878   3.499   1.373
 3744SOL     OW12130   0.732   0.004   2.338
 3744SOL    HW112131   0.694   0.082   2.288
 3744SOL    HW212132   0.802   0.036   2.401
 3745SOL     OW12133   4.920   3.808   2.505
 3745SOL    HW112134   4.822   3.795   2.521
 3745SOL    HW212135   4.941   3.906   2.504
 3746SOL     OW12136   6.044   0.839   4.450
 3746SOL    HW112137   6.107   0.902   4.494
 3746SOL    HW212138   5.969   0.817   4.512
 3747SOL     OW12139   3.530   0.015   5.755
 3747SOL    HW112140   3.498   6.998   5.671
 3747SOL    HW212141   3.545   6.973   5.826
 3748SOL     OW12142   4.775   1.816   2.828
 3748SOL    HW112143   4.741   1.772   2.745
 3748SOL    HW212144   4.855   1.765   2.862
 3749SOL     OW12145   6.822   6.451   2.525
 3749SOL    HW112146   6.873   6.458   2.610
 3749SOL    HW212147   6.787   6.358   2.515
 3750SOL     OW12148   5.685   4.285   0.886
 3750SOL    HW112149   5.688   4.215   0.815
 3750SOL    HW212150   5.771   4.336   0.887
 3751SOL     OW12151   1.871   3.564   2.201
 3751SOL    HW112152   1.930   3.486   2.221
 3751SOL    HW212153   1.919   3.649   2.224
 3752SOL     OW12154   0.690   6.475   6.603
 3752SOL    HW112155   0.716   6.385   6.567
 3752SOL    HW212156   0.655   6.465   6.696
 3753SOL     OW12157   6.393   6.703   4.924
 3753SOL    HW112158   6.307   6.662   4.952
 3753SOL    HW212159   6.400   6.702   4.825
 3754SOL     OW12160   6.684   6.723   0.662
 3754SOL    HW112161   6.712   6.662   0.735
 3754SOL    HW212162   6.677   6.672   0.576
 3755SOL     OW12163   5.414   3.578   3.096
 3755SOL    HW112164   5.510   3.593   3.071
 3755SOL    HW212165   5.357   3.584   3.014
 3756SOL     OW12166   2.982   0.251   0.122
 3756SOL    HW112167   3.041   0.199   0.182
 3756SOL    HW212168   2.967   0.343   0.160
 3757SOL     OW12169   3.058   5.553   6.279
 3757SOL    HW112170   3.157   5.546   6.266
 3757SOL    HW212171   3.040   5.601   6.365
 3758SOL     OW12172   1.673   1.406   4.409
 3758SOL    HW112173   1.766   1.413   4.447
 3758SOL    HW212174   1.669   1.459   4.324
 3759SOL     OW12175   4.630   4.617   6.286
 3759SOL    HW112176   4.577   4.627   6.371
 3759SOL    HW212177   4.722   4.653   6.300
 3760SOL     OW12178   1.591   2.579   4.994
 3760SOL    HW112179   1.631   2.508   4.936
 3760SOL    HW212180   1.501   2.605   4.958
 3761SOL     OW12181   0.208   6.706   4.227
 3761SOL    HW112182   0.121   6.744   4.195
 3761SOL    HW212183   0.215   6.717   4.326
 3762SOL     OW12184   0.374   3.906   0.159
 3762SOL    HW112185   0.431   3.825   0.174
 3762SOL    HW212186   0.303   3.885   0.092
 3763SOL     OW12187   6.364   3.622   6.440
 3763SOL    HW112188   6.414   3.708   6.440
 3763SOL    HW212189   6.405   3.559   6.506
 3764SOL     OW12190   2.545   6.933   3.778
 3764SOL    HW112191   2.595   6.917   3.693
 3764SOL    HW212192   2.601   6.989   3.839
 3765SOL     OW12193   5.776   0.775   4.538
 3765SOL    HW112194   5.777   0.774   4.438
 3765SOL    HW212195   5.712   0.705   4.571
 3766SOL     OW12196   1.449   0.467   5.169
 3766SOL    HW112197   1.498   0.385   5.140
 3766SOL    HW212198   1.365   0.440   5.216
 3767SOL     OW12199   1.469   5.009   1.525
 3767SOL    HW112200   1.562   5.046   1.532
 3767SOL    HW212201   1.464   4.946   1.448
 3768SOL     OW12202   4.474   6.569   0.693
 3768SOL    HW112203   4.423   6.494   0.653
 3768SOL    HW212204   4.411   6.641   0.723
 3769SOL     OW12205   4.229   6.244   4.844
 3769SOL    HW112206   4.285   6.220   4.765
 3769SOL    HW212207   4.288   6.271   4.920
 3770SOL     OW12208   1.768   2.239   6.885
 3770SOL    HW112209   1.851   2.279   6.926
 3770SOL    HW212210   1.787   2.215   6.790
 3771SOL     OW12211   5.460   1.814   5.678
 3771SOL    HW112212   5.521   1.874   5.728
 3771SOL    HW212213   5.442   1.731   5.731
 3772SOL     OW12214   4.691   1.326   2.644
 3772SOL    HW112215   4.739   1.252   2.597
 3772SOL    HW212216   4.628   1.371   2.580
 3773SOL     OW12217   6.934   2.704   6.729
 3773SOL    HW112218   6.961   2.787   6.777
 3773SOL    HW212219   6.998   2.630   6.749
 3774SOL     OW12220   0.280   1.113   1.965
 3774SOL    HW112221   0.298   1.169   2.045
 3774SOL    HW212222   0.301   1.165   1.882
 3775SOL     OW12223   5.652   3.849   3.540
 3775SOL    HW112224   5.645   3.790   3.620
 3775SOL    HW212225   5.637   3.944   3.567
 3776SOL     OW12226   2.590   3.314   0.555
 3776SOL    HW112227   2.581   3.357   0.644
 3776SOL    HW212228   2.515   3.345   0.495
 3777SOL     OW12229   2.381   4.248   3.708
 3777SOL    HW112230   2.351   4.339   3.739
 3777SOL    HW212231   2.480   4.240   3.721
 3778SOL     OW12232   2.237   5.994   2.004
 3778SOL    HW112233   2.207   6.089   1.989
 3778SOL    HW212234   2.329   5.994   2.044
 3779SOL     OW12235   2.841   5.364   6.329
 3779SOL    HW112236   2.831   5.345   6.426
 3779SOL    HW212237   2.927   5.413   6.313
 3780SOL     OW12238   2.991   6.682   4.820
 3780SOL    HW112239   3.085   6.651   4.838
 3780SOL    HW212240   2.986   6.719   4.727
 3781SOL     OW12241   2.788   5.572   4.987
 3781SOL    HW112242   2.768   5.510   5.062
 3781SOL    HW212243   2.703   5.612   4.953
 3782SOL     OW12244   2.098   1.700   3.583
 3782SOL    HW112245   2.144   1.704   3.494
 3782SOL    HW212246   1.999   1.697   3.569
 3783SOL     OW12247   5.137   6.098   5.172
 3783SOL    HW112248   5.217   6.145   5.209
 3783SOL    HW212249   5.164   6.043   5.093
 3784SOL     OW12250   5.602   1.832   3.307
 3784SOL    HW112251   5.531   1.873   3.364
 3784SOL    HW212252   5.576   1.738   3.284
 3785SOL     OW12253   1.817   1.743   1.286
 3785SOL    HW112254   1.755   1.675   1.325
 3785SOL    HW212255   1.811   1.827   1.340
 3786SOL     OW12256   3.188   5.599   3.376
 3786SOL    HW112257   3.279   5.560   3.363
 3786SOL    HW212258   3.124   5.525   3.398
 3787SOL     OW12259   3.890   1.396   3.942
 3787SOL    HW112260   3.852   1.415   4.033
 3787SOL    HW212261   3.822   1.418   3.873
 3788SOL     OW12262   5.451   2.840   2.209
 3788SOL    HW112263   5.486   2.899   2.137
 3788SOL    HW212264   5.520   2.771   2.232
 3789SOL     OW12265   1.434   4.995   3.260
 3789SOL    HW112266   1.441   4.899   3.286
 3789SOL    HW212267   1.512   5.046   3.297
 3790SOL     OW12268   2.185   3.167   3.772
 3790SOL    HW112269   2.187   3.187   3.674
 3790SOL    HW212270   2.186   3.253   3.823
 3791SOL     OW12271   4.685   0.146   1.917
 3791SOL    HW112272   4.785   0.152   1.917
 3791SOL    HW212273   4.655   0.084   1.844
 3792SOL     OW12274   0.040   6.557   5.329
 3792SOL    HW112275   0.043   6.534   5.426
 3792SOL    HW212276   7.024   6.482   5.278
 3793SOL     OW12277   1.944   0.255   2.641
 3793SOL    HW112278   1.958   0.316   2.563
 3793SOL    HW212279   1.935   0.161   2.609
 3794SOL     OW12280   4.604   6.189   1.497
 3794SOL    HW112281   4.683   6.176   1.557
 3794SOL    HW212282   4.556   6.102   1.486
 3795SOL     OW12283   5.282   6.871   6.647
 3795SOL    HW112284   5.199   6.884   6.701
 3795SOL    HW212285   5.347   6.944   6.668
 3796SOL     OW12286   1.563   3.204   2.187
 3796SOL    HW112287   1.564   3.169   2.281
 3796SOL    HW212288   1.487   3.268   2.176
 3797SOL     OW12289   0.528   4.858   2.678
 3797SOL    HW112290   0.522   4.844   2.580
 3797SOL    HW212291   0.484   4.781   2.726
 3798SOL     OW12292   1.650   5.137   2.276
 3798SOL    HW112293   1.679   5.232   2.285
 3798SOL    HW212294   1.685   5.099   2.190
 3799SOL     OW12295   2.135   0.114   5.762
 3799SOL    HW112296   2.187   0.098   5.846
 3799SOL    HW212297   2.195   0.153   5.693
 3800SOL     OW12298   4.605   2.730   4.635
 3800SOL    HW112299   4.513   2.759   4.608
 3800SOL    HW212300   4.599   2.647   4.691
 3801SOL     OW12301   0.179   6.693   5.734
 3801SOL    HW112302   0.127   6.758   5.678
 3801SOL    HW212303   0.245   6.743   5.789
 3802SOL     OW12304   1.567   2.024   5.361
 3802SOL    HW112305   1.666   2.008   5.364
 3802SOL    HW212306   1.519   1.937   5.348
 3803SOL     OW12307   3.722   1.252   0.963
 3803SOL    HW112308   3.703   1.351   0.961
 3803SOL    HW212309   3.636   1.202   0.974
 3804SOL     OW12310   4.667   2.261   4.293
 3804SOL    HW112311   4.701   2.206   4.369
 3804SOL    HW212312   4.610   2.335   4.328
 3805SOL     OW12313   2.477   4.589   1.397
 3805SOL    HW112314   2.572   4.611   1.417
 3805SOL    HW212315   2.435   4.549   1.479
 3806SOL     OW12316   2.608   1.948   0.124
 3806SOL    HW112317   2.540   1.877   0.139
 3806SOL    HW212318   2.700   1.908   0.130
 3807SOL     OW12319   1.449   6.553   3.392
 3807SOL    HW112320   1.363   6.502   3.399
 3807SOL    HW212321   1.526   6.489   3.391
 3808SOL     OW12322   3.134   0.404   1.200
 3808SOL    HW112323   3.167   0.485   1.152
 3808SOL    HW212324   3.097   0.430   1.289
 3809SOL     OW12325   4.258   1.182   6.477
 3809SOL    HW112326   4.159   1.171   6.480
 3809SOL    HW212327   4.283   1.246   6.405
 3810SOL     OW12328   2.837   2.986   5.549
 3810SOL    HW112329   2.857   3.015   5.643
 3810SOL    HW212330   2.921   2.958   5.504
 3811SOL     OW12331   0.998   5.709   5.221
 3811SOL    HW112332   0.984   5.788   5.280
 3811SOL    HW212333   0.952   5.629   5.260
 3812SOL     OW12334   5.678   1.697   4.846
 3812SOL    HW112335   5.624   1.724   4.766
 3812SOL    HW212336   5.639   1.615   4.887
 3813SOL     OW12337   3.392   5.195   1.399
 3813SOL    HW112338   3.366   5.291   1.403
 3813SOL    HW212339   3.334   5.143   1.462
 3814SOL     OW12340   0.496   6.508   2.153
 3814SOL    HW112341   0.584   6.555   2.148
 3814SOL    HW212342   0.440   6.550   2.225
 3815SOL     OW12343   5.057   2.299   1.448
 3815SOL    HW112344   5.083   2.203   1.462
 3815SOL    HW212345   5.035   2.339   1.537
 3816SOL     OW12346   1.383   6.740   1.100
 3816SOL    HW112347   1.344   6.735   1.008
 3816SOL    HW212348   1.414   6.833   1.119
 3817SOL     OW12349   5.588   2.315   5.578
 3817SOL    HW112350   5.652   2.321   5.501
 3817SOL    HW212351   5.503   2.360   5.553
 3818SOL     OW12352   4.898   5.423   2.082
 3818SOL    HW112353   4.908   5.431   2.181
 3818SOL    HW212354   4.856   5.335   2.060
 3819SOL     OW12355   5.515   4.410   0.270
 3819SOL    HW112356   5.447   4.338   0.262
 3819SOL    HW212357   5.521   4.441   0.365
 3820SOL     OW12358   5.253   6.355   4.066
 3820SOL    HW112359   5.259   6.451   4.039
 3820SOL    HW212360   5.317   6.338   4.142
 3821SOL     OW12361   1.282   3.941   2.239
 3821SOL    HW112362   1.358   3.898   2.288
 3821SOL    HW212363   1.282   3.912   2.143
 3822SOL     OW12364   2.284   5.237   1.620
 3822SOL    HW112365   2.240   5.160   1.666
 3822SOL    HW212366   2.348   5.281   1.682
 3823SOL     OW12367   3.601   2.607   5.340
 3823SOL    HW112368   3.629   2.665   5.262
 3823SOL    HW212369   3.504   2.586   5.332
 3824SOL     OW12370   0.148   2.372   6.524
 3824SOL    HW112371   0.056   2.396   6.491
 3824SOL    HW212372   0.214   2.437   6.488
 3825SOL     OW12373   6.669   6.603   6.445
 3825SOL    HW112374   6.652   6.657   6.362
 3825SOL    HW212375   6.646   6.508   6.429
 3826SOL     OW12376   6.872   2.631   1.699
 3826SOL    HW112377   6.970   2.614   1.705
 3826SOL    HW212378   6.841   2.613   1.605
 3827SOL     OW12379   4.443   3.251   0.567
 3827SOL    HW112380   4.381   3.224   0.641
 3827SOL    HW212381   4.399   3.322   0.512
 3828SOL     OW12382   4.018   0.797   2.624
 3828SOL    HW112383   3.926   0.802   2.585
 3828SOL    HW212384   4.022   0.854   2.706
 3829SOL     OW12385   1.950   5.350   3.680
 3829SOL    HW112386   2.049   5.349   3.667
 3829SOL    HW212387   1.929   5.372   3.775
 3830SOL     OW12388   3.063   0.640   4.656
 3830SOL    HW112389   3.095   0.549   4.682
 3830SOL    HW212390   2.970   0.654   4.690
 3831SOL     OW12391   3.848   1.430   2.167
 3831SOL    HW112392   3.868   1.512   2.113
 3831SOL    HW212393   3.882   1.443   2.260
 3832SOL     OW12394   6.526   0.784   2.649
 3832SOL    HW112395   6.534   0.829   2.560
 3832SOL    HW212396   6.569   0.694   2.645
 3833SOL     OW12397   1.320   4.722   0.213
 3833SOL    HW112398   1.319   4.804   0.157
 3833SOL    HW212399   1.399   4.725   0.275
 3834SOL     OW12400   2.392   1.907   6.971
 3834SOL    HW112401   2.452   1.980   7.005
 3834SOL    HW212402   2.404   1.898   6.872
 3835SOL     OW12403   3.505   5.563   5.405
 3835SOL    HW112404   3.497   5.621   5.486
 3835SOL    HW212405   3.535   5.472   5.432
 3836SOL     OW12406   0.912   3.323   6.013
 3836SOL    HW112407   0.836   3.344   5.952
 3836SOL    HW212408   0.877   3.280   6.096
 3837SOL     OW12409   3.472   3.153   0.339
 3837SOL    HW112410   3.501   3.189   0.427
 3837SOL    HW212411   3.436   3.227   0.282
 3838SOL     OW12412   6.149   3.340   5.658
 3838SOL    HW112413   6.162   3.259   5.600
 3838SOL    HW212414   6.059   3.379   5.640
 3839SOL     OW12415   6.072   6.408   6.202
 3839SOL    HW112416   6.066   6.311   6.229
 3839SOL    HW212417   5.997   6.429   6.140
 3840SOL     OW12418   1.657   0.859   3.988
 3840SOL    HW112419   1.618   0.895   3.903
 3840SOL    HW212420   1.585   0.856   4.059
 3841SOL     OW12421   0.312   4.005   4.969
 3841SOL    HW112422   0.335   4.045   5.057
 3841SOL    HW212423   0.287   3.909   4.982
 3842SOL     OW12424   0.895   5.411   6.972
 3842SOL    HW112425   0.957   5.364   0.007
 3842SOL    HW212426   0.859   5.493   7.016
 3843SOL     OW12427   6.058   3.631   1.010
 3843SOL    HW112428   6.056   3.599   0.916
 3843SOL    HW212429   6.128   3.701   1.021
 3844SOL     OW12430   1.988   4.629   6.054
 3844SOL    HW112431   2.043   4.550   6.029
 3844SOL    HW212432   1.961   4.622   6.150
 3845SOL     OW12433   3.612   4.093   3.902
 3845SOL    HW112434   3.573   4.015   3.951
 3845SOL    HW212435   3.541   4.135   3.844
 3846SOL     OW12436   0.103   4.805   3.835
 3846SOL    HW112437   0.165   4.800   3.756
 3846SOL    HW212438   0.018   4.757   3.813
 3847SOL     OW12439   0.881   0.104   0.414
 3847SOL    HW112440   0.813   0.127   0.345
 3847SOL    HW212441   0.844   0.125   0.505
 3848SOL     OW12442   3.029   5.130   0.449
 3848SOL    HW112443   3.058   5.224   0.429
 3848SOL    HW212444   3.018   5.119   0.548
 3849SOL     OW12445   1.843   2.249   5.951
 3849SOL    HW112446   1.818   2.231   6.046
 3849SOL    HW212447   1.928   2.302   5.948
 3850SOL     OW12448   2.821   3.856   1.573
 3850SOL    HW112449   2.896   3.855   1.640
 3850SOL    HW212450   2.765   3.937   1.588
 3851SOL     OW12451   2.667   2.545   1.326
 3851SOL    HW112452   2.741   2.592   1.278
 3851SOL    HW212453   2.667   2.572   1.423
 3852SOL     OW12454   3.986   0.774   5.156
 3852SOL    HW112455   3.983   0.686   5.108
 3852SOL    HW212456   4.064   0.827   5.122
 3853SOL     OW12457   1.599   2.968   1.812
 3853SOL    HW112458   1.644   2.971   1.902
 3853SOL    HW212459   1.647   3.029   1.749
 3854SOL     OW12460   1.352   3.265   4.183
 3854SOL    HW112461   1.329   3.259   4.086
 3854SOL    HW212462   1.378   3.175   4.217
 3855SOL     OW12463   0.075   2.356   5.327
 3855SOL    HW112464   0.041   2.446   5.356
 3855SOL    HW212465   0.134   2.318   5.398
 3856SOL     OW12466   0.889   6.256   5.505
 3856SOL    HW112467   0.962   6.255   5.437
 3856SOL    HW212468   0.921   6.302   5.588
 3857SOL     OW12469   0.860   6.670   5.638
 3857SOL    HW112470   0.817   6.583   5.662
 3857SOL    HW212471   0.791   6.742   5.636
 3858SOL     OW12472   2.047   5.475   0.541
 3858SOL    HW112473   2.139   5.445   0.516
 3858SOL    HW212474   2.046   5.574   0.555
 3859SOL     OW12475   0.168   2.567   2.068
 3859SOL    HW112476   0.182   2.592   1.972
 3859SOL    HW212477   0.257   2.560   2.114
 3860SOL     OW12478   2.659   6.061   5.446
 3860SOL    HW112479   2.736   6.113   5.408
 3860SOL    HW212480   2.587   6.053   5.378
 3861SOL     OW12481   4.583   4.589   0.659
 3861SOL    HW112482   4.544   4.582   0.751
 3861SOL    HW212483   4.661   4.652   0.660
 3862SOL     OW12484   1.351   5.269   6.138
 3862SOL    HW112485   1.427   5.305   6.192
 3862SOL    HW212486   1.344   5.170   6.152
 3863SOL     OW12487   3.237   2.518   0.799
 3863SOL    HW112488   3.166   2.456   0.767
 3863SOL    HW212489   3.259   2.496   0.895
 3864SOL     OW12490   3.778   1.611   6.795
 3864SOL    HW112491   3.869   1.587   6.826
 3864SOL    HW212492   3.757   1.561   6.711
 3865SOL     OW12493   4.381   0.557   2.552
 3865SOL    HW112494   4.333   0.565   2.465
 3865SOL    HW212495   4.327   0.501   2.615
 3866SOL     OW12496   4.056   6.638   6.443
 3866SOL    HW112497   4.129   6.694   6.404
 3866SOL    HW212498   4.035   6.670   6.535
 3867SOL     OW12499   1.848   3.164   3.780
 3867SOL    HW112500   1.890   3.131   3.695
 3867SOL    HW212501   1.751   3.183   3.764
 3868SOL     OW12502   1.457   5.291   2.904
 3868SOL    HW112503   1.373   5.238   2.897
 3868SOL    HW212504   1.532   5.232   2.934
 3869SOL     OW12505   1.390   2.411   3.247
 3869SOL    HW112506   1.335   2.337   3.286
 3869SOL    HW212507   1.330   2.488   3.224
 3870SOL     OW12508   3.406   4.625   0.430
 3870SOL    HW112509   3.358   4.643   0.344
 3870SOL    HW212510   3.367   4.681   0.502
 3871SOL     OW12511   2.640   1.670   4.468
 3871SOL    HW112512   2.664   1.755   4.514
 3871SOL    HW212513   2.564   1.685   4.405
 3872SOL     OW12514   4.353   3.755   0.738
 3872SOL    HW112515   4.300   3.774   0.821
 3872SOL    HW212516   4.377   3.658   0.734
 3873SOL     OW12517   4.911   4.251   1.792
 3873SOL    HW112518   4.816   4.220   1.794
 3873SOL    HW212519   4.925   4.314   1.716
 3874SOL     OW12520   4.529   6.281   6.000
 3874SOL    HW112521   4.475   6.230   5.934
 3874SOL    HW212522   4.623   6.246   6.000
 3875SOL     OW12523   1.847   4.113   0.589
 3875SOL    HW112524   1.809   4.179   0.525
 3875SOL    HW212525   1.776   4.046   0.613
 3876SOL     OW12526   5.174   4.084   2.513
 3876SOL    HW112527   5.243   4.043   2.573
 3876SOL    HW212528   5.219   4.138   2.442
 3877SOL     OW12529   5.228   0.927   2.599
 3877SOL    HW112530   5.301   0.972   2.547
 3877SOL    HW212531   5.147   0.917   2.541
 3878SOL     OW12532   3.989   5.817   4.853
 3878SOL    HW112533   4.019   5.902   4.896
 3878SOL    HW212534   3.979   5.746   4.923
 3879SOL     OW12535   2.908   5.665   1.311
 3879SOL    HW112536   2.948   5.717   1.386
 3879SOL    HW212537   2.901   5.723   1.230
 3880SOL     OW12538   5.553   2.291   3.750
 3880SOL    HW112539   5.596   2.241   3.825
 3880SOL    HW212540   5.623   2.339   3.697
 3881SOL     OW12541   0.700   5.515   1.189
 3881SOL    HW112542   0.710   5.504   1.090
 3881SOL    HW212543   0.743   5.438   1.236
 3882SOL     OW12544   0.360   6.882   6.582
 3882SOL    HW112545   0.393   6.932   6.662
 3882SOL    HW212546   0.370   6.784   6.598
 3883SOL     OW12547   3.268   1.195   5.938
 3883SOL    HW112548   3.207   1.272   5.956
 3883SOL    HW212549   3.349   1.202   5.996
 3884SOL     OW12550   1.281   4.634   5.487
 3884SOL    HW112551   1.291   4.731   5.465
 3884SOL    HW212552   1.315   4.578   5.411
 3885SOL     OW12553   0.353   1.986   5.066
 3885SOL    HW112554   0.300   1.915   5.114
 3885SOL    HW212555   0.328   2.076   5.102
 3886SOL     OW12556   0.053   5.565   4.992
 3886SOL    HW112557   0.118   5.489   4.986
 3886SOL    HW212558   0.084   5.640   4.934
 3887SOL     OW12559   5.225   3.283   5.629
 3887SOL    HW112560   5.138   3.304   5.585
 3887SOL    HW212561   5.266   3.367   5.664
 3888SOL     OW12562   5.187   1.886   1.833
 3888SOL    HW112563   5.253   1.957   1.812
 3888SOL    HW212564   5.104   1.900   1.778
 3889SOL     OW12565   0.203   5.430   0.227
 3889SOL    HW112566   0.182   5.335   0.202
 3889SOL    HW212567   0.192   5.489   0.147
 3890SOL     OW12568   6.439   3.489   2.196
 3890SOL    HW112569   6.361   3.547   2.219
 3890SOL    HW212570   6.481   3.455   2.280
 3891SOL     OW12571   5.822   5.164   6.230
 3891SOL    HW112572   5.844   5.077   6.187
 3891SOL    HW212573   5.762   5.218   6.171
 3892SOL     OW12574   5.517   6.078   4.236
 3892SOL    HW112575   5.498   5.989   4.277
 3892SOL    HW212576   5.599   6.072   4.179
 3893SOL     OW12577   2.906   6.050   4.160
 3893SOL    HW112578   2.819   6.045   4.110
 3893SOL    HW212579   2.915   5.971   4.220
 3894SOL     OW12580   4.786   5.327   6.440
 3894SOL    HW112581   4.811   5.329   6.343
 3894SOL    HW212582   4.815   5.413   6.483
 3895SOL     OW12583   1.779   1.690   6.121
 3895SOL    HW112584   1.732   1.639   6.193
 3895SOL    HW212585   1.712   1.737   6.063
 3896SOL     OW12586   6.749   2.383   6.214
 3896SOL    HW112587   6.650   2.370   6.218
 3896SOL    HW212588   6.769   2.479   6.195
 3897SOL     OW12589   3.525   6.645   2.721
 3897SOL    HW112590   3.522   6.715   2.650
 3897SOL    HW212591   3.445   6.654   2.780
 3898SOL     OW12592   3.496   3.361   4.847
 3898SOL    HW112593   3.407   3.355   4.802
 3898SOL    HW212594   3.511   3.278   4.901
 3899SOL     OW12595   5.168   1.982   4.746
 3899SOL    HW112596   5.169   2.079   4.770
 3899SOL    HW212597   5.144   1.971   4.650
 3900SOL     OW12598   6.556   2.381   4.449
 3900SOL    HW112599   6.654   2.377   4.467
 3900SOL    HW212600   6.532   2.312   4.380
 3901SOL     OW12601   2.575   5.242   4.940
 3901SOL    HW112602   2.577   5.187   5.023
 3901SOL    HW212603   2.666   5.241   4.898
 3902SOL     OW12604   3.892   4.844   2.070
 3902SOL    HW112605   3.821   4.799   2.125
 3902SOL    HW212606   3.851   4.882   1.987
 3903SOL     OW12607   4.835   2.587   5.915
 3903SOL    HW112608   4.884   2.544   5.990
 3903SOL    HW212609   4.739   2.600   5.941
 3904SOL     OW12610   2.426   6.083   1.104
 3904SOL    HW112611   2.347   6.111   1.050
 3904SOL    HW212612   2.412   5.989   1.137
 3905SOL     OW12613   0.182   0.350   5.922
 3905SOL    HW112614   0.168   0.252   5.918
 3905SOL    HW212615   0.278   0.372   5.900
 3906SOL     OW12616   0.668   6.026   4.787
 3906SOL    HW112617   0.680   6.056   4.692
 3906SOL    HW212618   0.723   6.083   4.847
 3907SOL     OW12619   1.014   1.629   5.197
 3907SOL    HW112620   0.966   1.634   5.109
 3907SOL    HW212621   1.040   1.720   5.227
 3908SOL     OW12622   2.201   1.078   4.491
 3908SOL    HW112623   2.209   1.173   4.462
 3908SOL    HW212624   2.291   1.042   4.515
 3909SOL     OW12625   4.953   2.929   1.433
 3909SOL    HW112626   5.021   2.983   1.482
 3909SOL    HW212627   4.998   2.862   1.375
 3910SOL     OW12628   3.398   1.996   1.166
 3910SOL    HW112629   3.313   1.955   1.198
 3910SOL    HW212630   3.377   2.069   1.100
 3911SOL     OW12631   6.965   0.483   1.321
 3911SOL    HW112632   7.012   0.465   1.407
 3911SOL    HW212633   6.923   0.573   1.323
 3912SOL     OW12634   3.958   3.624   6.961
 3912SOL    HW112635   3.917   3.560   7.026
 3912SOL    HW212636   4.040   3.583   6.921
 3913SOL     OW12637   4.125   5.631   1.538
 3913SOL    HW112638   4.159   5.647   1.631
 3913SOL    HW212639   4.120   5.717   1.488
 3914SOL     OW12640   6.657   1.691   0.057
 3914SOL    HW112641   6.619   1.779   0.029
 3914SOL    HW212642   6.740   1.705   0.110
 3915SOL     OW12643   5.649   0.006   5.373
 3915SOL    HW112644   5.684   6.941   5.363
 3915SOL    HW212645   5.556   0.011   5.336
 3916SOL     OW12646   1.764   2.287   2.642
 3916SOL    HW112647   1.827   2.225   2.690
 3916SOL    HW212648   1.763   2.263   2.545
 3917SOL     OW12649   3.582   4.799   1.433
 3917SOL    HW112650   3.626   4.748   1.360
 3917SOL    HW212651   3.543   4.735   1.500
 3918SOL     OW12652   5.295   0.521   6.835
 3918SOL    HW112653   5.240   0.439   6.857
 3918SOL    HW212654   5.251   0.601   6.876
 3919SOL     OW12655   4.503   6.376   2.513
 3919SOL    HW112656   4.588   6.408   2.471
 3919SOL    HW212657   4.476   6.439   2.585
 3920SOL     OW12658   3.518   1.478   5.547
 3920SOL    HW112659   3.449   1.406   5.535
 3920SOL    HW212660   3.495   1.556   5.489
 3921SOL     OW12661   1.380   2.639   6.094
 3921SOL    HW112662   1.385   2.541   6.111
 3921SOL    HW212663   1.472   2.674   6.076
 3922SOL     OW12664   4.917   4.230   3.124
 3922SOL    HW112665   4.858   4.283   3.185
 3922SOL    HW212666   4.954   4.152   3.174
 3923SOL     OW12667   4.977   1.440   1.604
 3923SOL    HW112668   4.921   1.498   1.662
 3923SOL    HW212669   5.003   1.490   1.521
 3924SOL     OW12670   5.313   5.080   4.189
 3924SOL    HW112671   5.258   5.164   4.194
 3924SOL    HW212672   5.262   5.010   4.140
 3925SOL     OW12673   5.142   5.136   0.970
 3925SOL    HW112674   5.150   5.051   0.919
 3925SOL    HW212675   5.115   5.210   0.909
 3926SOL     OW12676   0.860   5.482   4.830
 3926SOL    HW112677   0.878   5.386   4.852
 3926SOL    HW212678   0.764   5.493   4.805
 3927SOL     OW12679   5.730   1.346   5.467
 3927SOL    HW112680   5.763   1.384   5.381
 3927SOL    HW212681   5.679   1.261   5.450
 3928SOL     OW12682   3.547   5.622   2.440
 3928SOL    HW112683   3.641   5.611   2.407
 3928SOL    HW212684   3.534   5.567   2.523
 3929SOL     OW12685   1.098   1.504   5.957
 3929SOL    HW112686   1.146   1.576   5.908
 3929SOL    HW212687   1.156   1.469   6.031
 3930SOL     OW12688   1.726   4.674   3.558
 3930SOL    HW112689   1.719   4.720   3.647
 3930SOL    HW212690   1.683   4.584   3.564
 3931SOL     OW12691   1.125   2.518   0.410
 3931SOL    HW112692   1.157   2.610   0.433
 3931SOL    HW212693   1.070   2.522   0.326
 3932SOL     OW12694   2.375   4.467   3.084
 3932SOL    HW112695   2.289   4.510   3.055
 3932SOL    HW212696   2.450   4.507   3.032
 3933SOL     OW12697   1.988   6.478   1.224
 3933SOL    HW112698   2.007   6.577   1.222
 3933SOL    HW212699   1.893   6.463   1.252
 3934SOL     OW12700   1.830   6.877   1.104
 3934SOL    HW112701   1.801   6.857   1.010
 3934SOL    HW212702   1.873   6.967   1.106
 3935SOL     OW12703   0.038   3.764   5.212
 3935SOL    HW112704   0.093   3.825   5.269
 3935SOL    HW212705   6.993   3.816   5.167
 3936SOL     OW12706   6.891   3.947   5.065
 3936SOL    HW112707   6.944   4.017   5.018
 3936SOL    HW212708   6.895   3.862   5.013
 3937SOL     OW12709   0.519   6.260   0.857
 3937SOL    HW112710   0.528   6.163   0.833
 3937SOL    HW212711   0.563   6.276   0.945
 3938SOL     OW12712   0.726   3.341   0.946
 3938SOL    HW112713   0.750   3.246   0.929
 3938SOL    HW212714   0.805   3.390   0.981
 3939SOL     OW12715   0.976   6.830   3.109
 3939SOL    HW112716   1.002   6.742   3.149
 3939SOL    HW212717   1.058   6.875   3.072
 3940SOL     OW12718   3.169   6.106   0.194
 3940SOL    HW112719   3.098   6.036   0.200
 3940SOL    HW212720   3.256   6.063   0.169
 3941SOL     OW12721   5.300   5.858   2.171
 3941SOL    HW112722   5.240   5.856   2.251
 3941SOL    HW212723   5.271   5.789   2.105
 3942SOL     OW12724   0.165   6.303   5.901
 3942SOL    HW112725   0.133   6.316   5.994
 3942SOL    HW212726   0.244   6.362   5.884
 3943SOL     OW12727   2.115   3.004   0.376
 3943SOL    HW112728   2.113   2.996   0.276
 3943SOL    HW212729   2.090   2.917   0.417
 3944SOL     OW12730   4.401   3.076   6.479
 3944SOL    HW112731   4.354   3.086   6.391
 3944SOL    HW212732   4.463   2.998   6.474
 3945SOL     OW12733   5.736   0.630   3.744
 3945SOL    HW112734   5.643   0.595   3.736
 3945SOL    HW212735   5.778   0.594   3.827
 3946SOL     OW12736   0.058   4.190   0.455
 3946SOL    HW112737   0.100   4.163   0.542
 3946SOL    HW212738   0.114   4.155   0.379
 3947SOL     OW12739   5.648   6.059   1.791
 3947SOL    HW112740   5.647   6.159   1.799
 3947SOL    HW212741   5.735   6.030   1.752
 3948SOL     OW12742   1.781   2.660   5.166
 3948SOL    HW112743   1.718   2.610   5.106
 3948SOL    HW212744   1.753   2.648   5.261
 3949SOL     OW12745   6.269   0.488   1.936
 3949SOL    HW112746   6.236   0.581   1.927
 3949SOL    HW212747   6.301   0.455   1.847
 3950SOL     OW12748   3.008   4.442   1.659
 3950SOL    HW112749   3.028   4.517   1.595
 3950SOL    HW212750   2.972   4.480   1.744
 3951SOL     OW12751   0.512   2.543   4.828
 3951SOL    HW112752   0.518   2.500   4.738
 3951SOL    HW212753   0.604   2.568   4.859
 3952SOL     OW12754   5.859   3.736   0.373
 3952SOL    HW112755   5.936   3.674   0.358
 3952SOL    HW212756   5.807   3.707   0.453
 3953SOL     OW12757   3.060   3.940   6.725
 3953SOL    HW112758   3.142   3.897   6.688
 3953SOL    HW212759   2.982   3.878   6.716
 3954SOL     OW12760   0.773   3.308   5.115
 3954SOL    HW112761   0.739   3.214   5.121
 3954SOL    HW212762   0.705   3.365   5.067
 3955SOL     OW12763   6.492   3.665   0.528
 3955SOL    HW112764   6.534   3.713   0.604
 3955SOL    HW212765   6.563   3.625   0.470
 3956SOL     OW12766   6.767   2.921   5.595
 3956SOL    HW112767   6.846   2.894   5.651
 3956SOL    HW212768   6.711   2.986   5.645
 3957SOL     OW12769   0.836   1.890   2.043
 3957SOL    HW112770   0.873   1.801   2.071
 3957SOL    HW212771   0.775   1.925   2.114
 3958SOL     OW12772   5.572   0.044   0.397
 3958SOL    HW112773   5.533   0.043   0.489
 3958SOL    HW212774   5.581   0.139   0.365
 3959SOL     OW12775   2.202   5.895   1.220
 3959SOL    HW112776   2.272   5.827   1.242
 3959SOL    HW212777   2.158   5.925   1.305
 3960SOL     OW12778   5.502   3.453   1.195
 3960SOL    HW112779   5.405   3.429   1.186
 3960SOL    HW212780   5.559   3.374   1.172
 3961SOL     OW12781   6.105   0.131   1.411
 3961SOL    HW112782   6.149   0.210   1.369
 3961SOL    HW212783   6.170   0.054   1.412
 3962SOL     OW12784   0.378   5.831   5.855
 3962SOL    HW112785   0.331   5.808   5.941
 3962SOL    HW212786   0.321   5.894   5.802
 3963SOL     OW12787   4.647   4.703   2.987
 3963SOL    HW112788   4.581   4.700   2.911
 3963SOL    HW212789   4.607   4.658   3.067
 3964SOL     OW12790   5.862   5.804   6.862
 3964SOL    HW112791   5.819   5.843   6.943
 3964SOL    HW212792   5.920   5.872   6.818
 3965SOL     OW12793   3.521   3.975   0.719
 3965SOL    HW112794   3.554   3.881   0.724
 3965SOL    HW212795   3.421   3.976   0.721
 3966SOL     OW12796   6.452   3.903   5.481
 3966SOL    HW112797   6.386   3.880   5.410
 3966SOL    HW212798   6.543   3.874   5.453
 3967SOL     OW12799   1.979   6.679   6.857
 3967SOL    HW112800   1.918   6.754   6.881
 3967SOL    HW212801   2.050   6.712   6.794
 3968SOL     OW12802   4.732   1.944   0.913
 3968SOL    HW112803   4.770   1.964   1.003
 3968SOL    HW212804   4.796   1.976   0.842
 3969SOL     OW12805   0.645   5.976   1.297
 3969SOL    HW112806   0.711   5.990   1.224
 3969SOL    HW212807   0.582   5.903   1.271
 3970SOL     OW12808   4.961   4.073   4.453
 3970SOL    HW112809   4.998   3.983   4.430
 3970SOL    HW212810   4.877   4.062   4.507
 3971SOL     OW12811   0.647   6.156   3.952
 3971SOL    HW112812   0.589   6.230   3.988
 3971SOL    HW212813   0.630   6.145   3.854
 3972SOL     OW12814   0.879   0.389   6.899
 3972SOL    HW112815   0.952   0.371   6.834
 3972SOL    HW212816   0.909   0.456   6.967
 3973SOL     OW12817   3.102   3.090   3.783
 3973SOL    HW112818   3.059   3.173   3.819
 3973SOL    HW212819   3.180   3.065   3.840
 3974SOL     OW12820   5.836   0.608   6.577
 3974SOL    HW112821   5.913   0.553   6.546
 3974SOL    HW212822   5.759   0.548   6.599
 3975SOL     OW12823   0.026   6.073   5.119
 3975SOL    HW112824   6.983   6.143   5.105
 3975SOL    HW212825   7.010   5.983   5.128
 3976SOL     OW12826   0.773   2.965   6.825
 3976SOL    HW112827   0.846   2.937   6.763
 3976SOL    HW212828   0.723   3.042   6.786
 3977SOL     OW12829   3.262   5.717   4.972
 3977SOL    HW112830   3.285   5.750   4.881
 3977SOL    HW212831   3.236   5.794   5.030
 3978SOL     OW12832   6.443   4.393   6.702
 3978SOL    HW112833   6.430   4.340   6.785
 3978SOL    HW212834   6.360   4.392   6.647
 3979SOL     OW12835   1.104   6.636   3.277
 3979SOL    HW112836   1.067   6.697   3.347
 3979SOL    HW212837   1.130   6.549   3.319
 3980SOL     OW12838   4.879   3.774   4.813
 3980SOL    HW112839   4.877   3.717   4.731
 3980SOL    HW212840   4.833   3.726   4.888
 3981SOL     OW12841   6.737   1.833   5.662
 3981SOL    HW112842   6.662   1.790   5.712
 3981SOL    HW212843   6.722   1.821   5.564
 3982SOL     OW12844   2.219   2.934   4.138
 3982SOL    HW112845   2.226   2.932   4.038
 3982SOL    HW212846   2.309   2.917   4.178
 3983SOL     OW12847   3.050   0.172   3.623
 3983SOL    HW112848   3.149   0.166   3.607
 3983SOL    HW212849   3.002   0.120   3.553
 3984SOL     OW12850   1.582   6.874   2.118
 3984SOL    HW112851   1.554   6.783   2.087
 3984SOL    HW212852   1.519   6.942   2.082
 3985SOL     OW12853   1.827   3.182   1.579
 3985SOL    HW112854   1.736   3.145   1.560
 3985SOL    HW212855   1.855   3.240   1.502
 3986SOL     OW12856   1.879   1.923   1.600
 3986SOL    HW112857   1.816   1.968   1.664
 3986SOL    HW212858   1.868   1.824   1.607
 3987SOL     OW12859   1.236   4.005   5.684
 3987SOL    HW112860   1.223   3.926   5.744
 3987SOL    HW212861   1.323   3.997   5.637
 3988SOL     OW12862   5.049   0.476   0.036
 3988SOL    HW112863   5.000   0.491   6.978
 3988SOL    HW212864   5.019   0.390   0.077
 3989SOL     OW12865   4.201   0.684   6.115
 3989SOL    HW112866   4.218   0.696   6.212
 3989SOL    HW212867   4.108   0.717   6.093
 3990SOL     OW12868   0.734   2.245   3.954
 3990SOL    HW112869   0.825   2.284   3.943
 3990SOL    HW212870   0.740   2.157   4.000
 3991SOL     OW12871   0.811   1.428   3.717
 3991SOL    HW112872   0.899   1.411   3.761
 3991SOL    HW212873   0.746   1.462   3.785
 3992SOL     OW12874   6.021   3.971   6.615
 3992SOL    HW112875   5.991   3.876   6.608
 3992SOL    HW212876   6.016   4.002   6.710
 3993SOL     OW12877   1.904   0.489   4.235
 3993SOL    HW112878   1.937   0.571   4.188
 3993SOL    HW212879   1.815   0.509   4.276
 3994SOL     OW12880   2.348   2.030   2.725
 3994SOL    HW112881   2.345   1.934   2.755
 3994SOL    HW212882   2.264   2.051   2.674
 3995SOL     OW12883   1.213   3.293   2.572
 3995SOL    HW112884   1.266   3.357   2.628
 3995SOL    HW212885   1.233   3.199   2.601
 3996SOL     OW12886   5.764   6.590   4.465
 3996SOL    HW112887   5.669   6.613   4.487
 3996SOL    HW212888   5.790   6.506   4.513
 3997SOL     OW12889   4.850   3.985   2.807
 3997SOL    HW112890   4.924   4.037   2.850
 3997SOL    HW212891   4.839   4.015   2.712
 3998SOL     OW12892   5.211   2.025   2.864
 3998SOL    HW112893   5.238   1.967   2.941
 3998SOL    HW212894   5.265   2.109   2.865
 3999SOL     OW12895   4.326   3.081   1.142
 3999SOL    HW112896   4.337   3.072   1.241
 3999SOL    HW212897   4.250   3.023   1.112
 4000SOL     OW12898   2.576   5.072   2.555
 4000SOL    HW112899   2.531   5.011   2.621
 4000SOL    HW212900   2.526   5.069   2.468
 4001SOL     OW12901   1.168   5.345   3.995
 4001SOL    HW112902   1.115   5.380   3.918
 4001SOL    HW212903   1.107   5.324   4.071
 4002SOL     OW12904   3.634   4.078   3.454
 4002SOL    HW112905   3.570   4.107   3.525
 4002SOL    HW212906   3.622   3.980   3.436
 4003SOL     OW12907   1.711   0.855   5.366
 4003SOL    HW112908   1.703   0.856   5.465
 4003SOL    HW212909   1.741   0.765   5.335
 4004SOL     OW12910   1.073   3.193   3.970
 4004SOL    HW112911   1.114   3.231   3.888
 4004SOL    HW212912   0.999   3.253   4.001
 4005SOL     OW12913   5.016   2.691   0.362
 4005SOL    HW112914   5.017   2.650   0.270
 4005SOL    HW212915   5.084   2.764   0.366
 4006SOL     OW12916   6.223   5.723   2.484
 4006SOL    HW112917   6.318   5.734   2.512
 4006SOL    HW212918   6.217   5.657   2.410
 4007SOL     OW12919   6.915   0.385   2.476
 4007SOL    HW112920   6.979   0.455   2.509
 4007SOL    HW212921   6.905   0.313   2.545
 4008SOL     OW12922   2.800   1.394   0.652
 4008SOL    HW112923   2.794   1.298   0.627
 4008SOL    HW212924   2.711   1.437   0.641
 4009SOL     OW12925   4.839   2.207   0.989
 4009SOL    HW112926   4.782   2.169   0.916
 4009SOL    HW212927   4.934   2.181   0.975
 4010SOL     OW12928   2.190   5.598   1.576
 4010SOL    HW112929   2.249   5.677   1.587
 4010SOL    HW212930   2.236   5.529   1.521
 4011SOL     OW12931   5.342   6.525   5.995
 4011SOL    HW112932   5.396   6.590   6.049
 4011SOL    HW212933   5.267   6.489   6.050
 4012SOL     OW12934   4.875   6.786   2.767
 4012SOL    HW112935   4.832   6.763   2.855
 4012SOL    HW212936   4.804   6.803   2.699
 4013SOL     OW12937   0.183   1.249   5.915
 4013SOL    HW112938   0.281   1.243   5.898
 4013SOL    HW212939   0.134   1.245   5.827
 4014SOL     OW12940   3.047   5.182   2.712
 4014SOL    HW112941   2.957   5.199   2.674
 4014SOL    HW212942   3.116   5.193   2.641
 4015SOL     OW12943   4.107   5.302   5.963
 4015SOL    HW112944   4.021   5.290   5.914
 4015SOL    HW212945   4.183   5.306   5.897
 4016SOL     OW12946   4.830   5.225   5.065
 4016SOL    HW112947   4.921   5.265   5.054
 4016SOL    HW212948   4.768   5.262   4.997
 4017SOL     OW12949   1.030   4.994   5.694
 4017SOL    HW112950   0.932   4.978   5.702
 4017SOL    HW212951   1.058   4.980   5.599
 4018SOL     OW12952   4.016   5.871   0.958
 4018SOL    HW112953   3.927   5.905   0.925
 4018SOL    HW212954   4.051   5.803   0.894
 4019SOL     OW12955   5.488   4.328   2.612
 4019SOL    HW112956   5.461   4.233   2.626
 4019SOL    HW212957   5.414   4.389   2.643
 4020SOL     OW12958   0.286   5.353   4.526
 4020SOL    HW112959   0.244   5.274   4.571
 4020SOL    HW212960   0.373   5.375   4.571
 4021SOL     OW12961   4.428   3.801   6.045
 4021SOL    HW112962   4.475   3.798   6.133
 4021SOL    HW212963   4.474   3.740   5.981
 4022SOL     OW12964   2.373   0.195   1.627
 4022SOL    HW112965   2.380   0.201   1.527
 4022SOL    HW212966   2.356   0.100   1.653
 4023SOL     OW12967   0.323   1.265   4.563
 4023SOL    HW112968   0.324   1.356   4.604
 4023SOL    HW212969   0.341   1.273   4.464
 4024SOL     OW12970   1.013   6.520   4.761
 4024SOL    HW112971   1.028   6.465   4.844
 4024SOL    HW212972   1.088   6.504   4.697
 4025SOL     OW12973   0.080   5.472   3.281
 4025SOL    HW112974   0.033   5.427   3.206
 4025SOL    HW212975   0.177   5.482   3.258
 4026SOL     OW12976   0.262   0.229   4.160
 4026SOL    HW112977   0.239   0.248   4.255
 4026SOL    HW212978   0.269   0.130   4.147
 4027SOL     OW12979   3.077   4.512   5.646
 4027SOL    HW112980   3.140   4.561   5.706
 4027SOL    HW212981   3.103   4.416   5.643
 4028SOL     OW12982   5.169   1.331   3.535
 4028SOL    HW112983   5.188   1.249   3.481
 4028SOL    HW212984   5.241   1.399   3.519
 4029SOL     OW12985   1.522   6.241   7.023
 4029SOL    HW112986   1.552   6.222   6.929
 4029SOL    HW212987   1.601   6.238   0.057
 4030SOL     OW12988   0.069   1.334   2.763
 4030SOL    HW112989   0.137   1.407   2.758
 4030SOL    HW212990   0.003   1.354   2.836
 4031SOL     OW12991   6.129   5.946   0.052
 4031SOL    HW112992   6.126   5.880   0.127
 4031SOL    HW212993   6.162   5.901   6.997
 4032SOL     OW12994   5.022   1.053   2.453
 4032SOL    HW112995   4.942   1.057   2.514
 4032SOL    HW212996   5.001   0.995   2.375
 4033SOL     OW12997   2.037   2.647   2.549
 4033SOL    HW112998   2.115   2.680   2.495
 4033SOL    HW212999   1.978   2.724   2.573
 4034SOL     OW13000   0.286   3.112   5.817
 4034SOL    HW113001   0.305   3.068   5.729
 4034SOL    HW213002   0.187   3.116   5.831
 4035SOL     OW13003   4.350   2.114   1.683
 4035SOL    HW113004   4.380   2.027   1.723
 4035SOL    HW213005   4.275   2.097   1.619
 4036SOL     OW13006   2.815   5.451   2.823
 4036SOL    HW113007   2.717   5.436   2.812
 4036SOL    HW213008   2.854   5.378   2.879
 4037SOL     OW13009   2.868   1.839   5.734
 4037SOL    HW113010   2.831   1.787   5.811
 4037SOL    HW213011   2.965   1.819   5.724
 4038SOL     OW13012   3.371   4.132   5.780
 4038SOL    HW113013   3.373   4.037   5.746
 4038SOL    HW213014   3.299   4.141   5.848
 4039SOL     OW13015   5.611   5.142   1.118
 4039SOL    HW113016   5.656   5.092   1.192
 4039SOL    HW213017   5.574   5.229   1.153
 4040SOL     OW13018   3.112   6.370   4.861
 4040SOL    HW113019   3.181   6.440   4.883
 4040SOL    HW213020   3.079   6.384   4.768
 4041SOL     OW13021   2.406   6.802   0.810
 4041SOL    HW113022   2.387   6.708   0.781
 4041SOL    HW213023   2.333   6.834   0.870
 4042SOL     OW13024   6.809   1.150   3.150
 4042SOL    HW113025   6.747   1.187   3.220
 4042SOL    HW213026   6.881   1.097   3.195
 4043SOL     OW13027   6.029   3.537   6.851
 4043SOL    HW113028   6.040   3.599   6.929
 4043SOL    HW213029   5.951   3.477   6.868
 4044SOL     OW13030   4.611   4.963   3.259
 4044SOL    HW113031   4.662   4.943   3.175
 4044SOL    HW213032   4.643   5.049   3.297
 4045SOL     OW13033   4.907   1.011   5.447
 4045SOL    HW113034   4.915   1.070   5.528
 4045SOL    HW213035   4.811   0.987   5.433
 4046SOL     OW13036   6.274   2.032   2.713
 4046SOL    HW113037   6.309   1.981   2.635
 4046SOL    HW213038   6.176   2.016   2.722
 4047SOL     OW13039   2.856   3.371   6.742
 4047SOL    HW113040   2.953   3.384   6.763
 4047SOL    HW213041   2.809   3.333   6.821
 4048SOL     OW13042   4.384   2.019   2.439
 4048SOL    HW113043   4.385   2.032   2.340
 4048SOL    HW213044   4.405   1.924   2.461
 4049SOL     OW13045   4.268   4.634   0.234
 4049SOL    HW113046   4.334   4.666   0.302
 4049SOL    HW213047   4.246   4.538   0.251
 4050SOL     OW13048   0.982   5.736   2.165
 4050SOL    HW113049   0.980   5.658   2.228
 4050SOL    HW213050   1.065   5.733   2.110
 4051SOL     OW13051   5.465   1.144   4.844
 4051SOL    HW113052   5.420   1.070   4.794
 4051SOL    HW213053   5.548   1.172   4.796
 4052SOL     OW13054   6.317   2.009   3.204
 4052SOL    HW113055   6.260   2.079   3.160
 4052SOL    HW213056   6.282   1.918   3.182
 4053SOL     OW13057   1.684   5.335   4.439
 4053SOL    HW113058   1.613   5.379   4.385
 4053SOL    HW213059   1.728   5.264   4.384
 4054SOL     OW13060   3.978   4.220   1.057
 4054SOL    HW113061   3.882   4.224   1.084
 4054SOL    HW213062   4.013   4.127   1.071
 4055SOL     OW13063   0.762   4.562   1.167
 4055SOL    HW113064   0.736   4.587   1.073
 4055SOL    HW213065   0.708   4.483   1.196
 4056SOL     OW13066   5.066   3.395   0.553
 4056SOL    HW113067   5.034   3.394   0.458
 4056SOL    HW213068   5.019   3.323   0.604
 4057SOL     OW13069   0.095   3.870   0.087
 4057SOL    HW113070   0.054   3.961   0.079
 4057SOL    HW213071   0.026   3.801   0.066
 4058SOL     OW13072   3.074   0.218   6.070
 4058SOL    HW113073   3.022   0.212   6.155
 4058SOL    HW213074   3.146   0.148   6.070
 4059SOL     OW13075   0.582   2.004   3.783
 4059SOL    HW113076   0.577   1.924   3.724
 4059SOL    HW213077   0.669   2.051   3.770
 4060SOL     OW13078   5.974   5.880   5.271
 4060SOL    HW113079   5.895   5.820   5.283
 4060SOL    HW213080   6.000   5.882   5.174
 4061SOL     OW13081   1.629   5.338   0.564
 4061SOL    HW113082   1.562   5.282   0.612
 4061SOL    HW213083   1.712   5.346   0.619
 4062SOL     OW13084   1.677   2.559   1.118
 4062SOL    HW113085   1.673   2.649   1.161
 4062SOL    HW213086   1.768   2.545   1.078
 4063SOL     OW13087   4.832   0.711   7.009
 4063SOL    HW113088   4.778   0.770   0.041
 4063SOL    HW213089   4.882   0.766   6.943
 4064SOL     OW13090   2.034   1.657   5.613
 4064SOL    HW113091   2.123   1.703   5.620
 4064SOL    HW213092   1.975   1.707   5.550
 4065SOL     OW13093   2.862   6.759   1.140
 4065SOL    HW113094   2.922   6.679   1.127
 4065SOL    HW213095   2.800   6.768   1.062
 4066SOL     OW13096   0.362   3.961   3.658
 4066SOL    HW113097   0.272   3.937   3.621
 4066SOL    HW213098   0.391   4.049   3.620
 4067SOL     OW13099   5.235   4.908   0.614
 4067SOL    HW113100   5.227   5.006   0.628
 4067SOL    HW213101   5.145   4.866   0.622
 4068SOL     OW13102   2.186   2.779   5.130
 4068SOL    HW113103   2.257   2.755   5.197
 4068SOL    HW213104   2.226   2.834   5.057
 4069SOL     OW13105   4.719   6.824   6.529
 4069SOL    HW113106   4.690   6.767   6.606
 4069SOL    HW213107   4.669   6.911   6.531
 4070SOL     OW13108   1.377   2.770   3.528
 4070SOL    HW113109   1.385   2.834   3.451
 4070SOL    HW213110   1.456   2.708   3.527
 4071SOL     OW13111   1.114   0.413   3.979
 4071SOL    HW113112   1.163   0.398   4.065
 4071SOL    HW213113   1.015   0.408   3.995
 4072SOL     OW13114   2.276   6.072   2.779
 4072SOL    HW113115   2.360   6.034   2.818
 4072SOL    HW213116   2.199   6.048   2.838
 4073SOL     OW13117   3.257   4.687   0.175
 4073SOL    HW113118   3.247   4.775   0.128
 4073SOL    HW213119   3.175   4.632   0.160
 4074SOL     OW13120   1.595   5.113   3.042
 4074SOL    HW113121   1.617   5.019   3.066
 4074SOL    HW213122   1.559   5.160   3.123
 4075SOL     OW13123   6.501   1.015   0.928
 4075SOL    HW113124   6.446   0.952   0.982
 4075SOL    HW213125   6.586   0.971   0.900
 4076SOL     OW13126   2.543   4.141   5.394
 4076SOL    HW113127   2.508   4.080   5.322
 4076SOL    HW213128   2.605   4.090   5.453
 4077SOL     OW13129   2.268   1.176   1.671
 4077SOL    HW113130   2.282   1.250   1.737
 4077SOL    HW213131   2.175   1.140   1.681
 4078SOL     OW13132   2.951   4.974   2.849
 4078SOL    HW113133   2.996   5.050   2.801
 4078SOL    HW213134   2.952   4.893   2.791
 4079SOL     OW13135   1.054   2.479   4.690
 4079SOL    HW113136   0.985   2.407   4.701
 4079SOL    HW213137   1.079   2.515   4.780
 4080SOL     OW13138   6.218   1.454   4.688
 4080SOL    HW113139   6.189   1.368   4.730
 4080SOL    HW213140   6.157   1.476   4.611
 4081SOL     OW13141   1.786   3.467   4.156
 4081SOL    HW113142   1.725   3.510   4.089
 4081SOL    HW213143   1.849   3.535   4.192
 4082SOL     OW13144   1.362   3.756   1.101
 4082SOL    HW113145   1.407   3.740   1.012
 4082SOL    HW213146   1.426   3.804   1.161
 4083SOL     OW13147   5.538   2.245   4.689
 4083SOL    HW113148   5.484   2.201   4.617
 4083SOL    HW213149   5.631   2.207   4.688
 4084SOL     OW13150   0.659   1.659   3.903
 4084SOL    HW113151   0.601   1.577   3.909
 4084SOL    HW213152   0.735   1.650   3.968
 4085SOL     OW13153   3.533   6.604   0.087
 4085SOL    HW113154   3.545   6.626   0.184
 4085SOL    HW213155   3.446   6.556   0.074
 4086SOL     OW13156   1.456   4.833   0.716
 4086SOL    HW113157   1.400   4.907   0.677
 4086SOL    HW213158   1.453   4.838   0.816
 4087SOL     OW13159   1.711   1.439   2.946
 4087SOL    HW113160   1.720   1.478   3.038
 4087SOL    HW213161   1.632   1.379   2.943
 4088SOL     OW13162   6.593   1.581   0.880
 4088SOL    HW113163   6.688   1.603   0.903
 4088SOL    HW213164   6.548   1.541   0.960
 4089SOL     OW13165   0.979   1.006   4.686
 4089SOL    HW113166   0.979   0.912   4.653
 4089SOL    HW213167   0.886   1.042   4.685
 4090SOL     OW13168   1.504   3.993   5.527
 4090SOL    HW113169   1.514   4.076   5.582
 4090SOL    HW213170   1.588   3.977   5.475
 4091SOL     OW13171   4.526   5.891   0.332
 4091SOL    HW113172   4.625   5.894   0.322
 4091SOL    HW213173   4.483   5.928   0.250
 4092SOL     OW13174   0.022   2.921   4.760
 4092SOL    HW113175   0.046   2.961   4.849
 4092SOL    HW213176   6.984   2.980   4.714
 4093SOL     OW13177   5.796   1.093   3.930
 4093SOL    HW113178   5.848   1.010   3.952
 4093SOL    HW213179   5.748   1.079   3.844
 4094SOL     OW13180   2.072   4.069   5.203
 4094SOL    HW113181   2.083   4.059   5.302
 4094SOL    HW213182   2.155   4.039   5.157
 4095SOL     OW13183   1.138   3.417   6.158
 4095SOL    HW113184   1.063   3.401   6.094
 4095SOL    HW213185   1.172   3.329   6.192
 4096SOL     OW13186   3.972   4.483   1.059
 4096SOL    HW113187   4.046   4.500   0.994
 4096SOL    HW213188   3.963   4.385   1.075
 4097SOL     OW13189   3.332   3.791   5.579
 4097SOL    HW113190   3.267   3.721   5.605
 4097SOL    HW213191   3.396   3.807   5.654
 4098SOL     OW13192   0.450   1.834   3.171
 4098SOL    HW113193   0.368   1.870   3.215
 4098SOL    HW213194   0.463   1.878   3.082
 4099SOL     OW13195   4.566   5.908   1.779
 4099SOL    HW113196   4.542   5.825   1.830
 4099SOL    HW213197   4.537   5.989   1.829
 4100SOL     OW13198   3.814   5.670   3.350
 4100SOL    HW113199   3.750   5.600   3.382
 4100SOL    HW213200   3.767   5.758   3.346
 4101SOL     OW13201   6.075   1.466   6.009
 4101SOL    HW113202   6.073   1.565   6.025
 4101SOL    HW213203   6.065   1.449   5.911
 4102SOL     OW13204   5.970   1.360   0.285
 4102SOL    HW113205   5.876   1.330   0.271
 4102SOL    HW213206   6.025   1.336   0.205
 4103SOL     OW13207   0.457   0.166   2.367
 4103SOL    HW113208   0.465   0.241   2.433
 4103SOL    HW213209   0.462   0.079   2.414
 4104SOL     OW13210   1.413   4.664   2.653
 4104SOL    HW113211   1.440   4.705   2.740
 4104SOL    HW213212   1.314   4.668   2.644
 4105SOL     OW13213   4.557   4.842   0.162
 4105SOL    HW113214   4.477   4.879   0.209
 4105SOL    HW213215   4.559   4.877   0.068
 4106SOL     OW13216   6.622   3.675   4.817
 4106SOL    HW113217   6.601   3.638   4.727
 4106SOL    HW213218   6.721   3.682   4.828
 4107SOL     OW13219   0.037   0.640   1.006
 4107SOL    HW113220   0.116   0.659   1.063
 4107SOL    HW213221   6.988   0.698   1.034
 4108SOL     OW13222   6.143   3.875   6.072
 4108SOL    HW113223   6.129   3.787   6.117
 4108SOL    HW213224   6.162   3.860   5.975
 4109SOL     OW13225   3.377   5.901   3.319
 4109SOL    HW113226   3.294   5.904   3.264
 4109SOL    HW213227   3.353   5.915   3.415
 4110SOL     OW13228   4.923   3.645   6.248
 4110SOL    HW113229   4.940   3.706   6.170
 4110SOL    HW213230   4.828   3.614   6.246
 4111SOL     OW13231   4.191   3.285   6.901
 4111SOL    HW113232   4.260   3.217   6.876
 4111SOL    HW213233   4.236   3.371   6.922
 4112SOL     OW13234   3.043   1.365   4.101
 4112SOL    HW113235   2.995   1.333   4.182
 4112SOL    HW213236   2.978   1.371   4.024
 4113SOL     OW13237   3.657   4.945   4.564
 4113SOL    HW113238   3.613   4.855   4.565
 4113SOL    HW213239   3.592   5.013   4.530
 4114SOL     OW13240   2.887   1.973   2.889
 4114SOL    HW113241   2.879   1.980   2.989
 4114SOL    HW213242   2.800   1.998   2.847
 4115SOL     OW13243   5.165   4.855   1.734
 4115SOL    HW113244   5.173   4.953   1.714
 4115SOL    HW213245   5.256   4.813   1.730
 4116SOL     OW13246   3.489   1.698   1.649
 4116SOL    HW113247   3.543   1.733   1.725
 4116SOL    HW213248   3.550   1.668   1.575
 4117SOL     OW13249   1.201   5.454   1.182
 4117SOL    HW113250   1.130   5.433   1.249
 4117SOL    HW213251   1.232   5.549   1.194
 4118SOL     OW13252   1.778   6.168   0.154
 4118SOL    HW113253   1.856   6.111   0.131
 4118SOL    HW213254   1.714   6.116   0.210
 4119SOL     OW13255   3.579   0.794   3.994
 4119SOL    HW113256   3.500   0.820   3.939
 4119SOL    HW213257   3.551   0.781   4.089
 4120SOL     OW13258   3.085   0.746   1.643
 4120SOL    HW113259   3.122   0.797   1.720
 4120SOL    HW213260   3.159   0.718   1.582
 4121SOL     OW13261   6.589   3.123   4.730
 4121SOL    HW113262   6.581   3.184   4.809
 4121SOL    HW213263   6.607   3.030   4.762
 4122SOL     OW13264   1.311   5.657   5.854
 4122SOL    HW113265   1.349   5.642   5.946
 4122SOL    HW213266   1.225   5.707   5.862
 4123SOL     OW13267   4.814   4.067   6.426
 4123SOL    HW113268   4.869   4.140   6.386
 4123SOL    HW213269   4.871   3.987   6.441
 4124SOL     OW13270   5.253   0.045   4.115
 4124SOL    HW113271   5.345   0.026   4.149
 4124SOL    HW213272   5.240   7.026   4.027
 4125SOL     OW13273   4.373   0.928   0.958
 4125SOL    HW113274   4.369   0.987   0.878
 4125SOL    HW213275   4.459   0.943   1.006
 4126SOL     OW13276   2.156   4.128   4.580
 4126SOL    HW113277   2.173   4.067   4.658
 4126SOL    HW213278   2.135   4.072   4.499
 4127SOL     OW13279   6.160   3.335   5.920
 4127SOL    HW113280   6.150   3.340   5.821
 4127SOL    HW213281   6.084   3.384   5.964
 4128SOL     OW13282   0.981   2.449   2.589
 4128SOL    HW113283   0.921   2.414   2.518
 4128SOL    HW213284   0.961   2.402   2.676
 4129SOL     OW13285   5.739   2.560   6.100
 4129SOL    HW113286   5.700   2.531   6.012
 4129SOL    HW213287   5.681   2.631   6.140
 4130SOL     OW13288   5.906   4.312   0.541
 4130SOL    HW113289   5.851   4.258   0.604
 4130SOL    HW213290   6.002   4.312   0.569
 4131SOL     OW13291   6.573   4.739   3.866
 4131SOL    HW113292   6.474   4.725   3.866
 4131SOL    HW213293   6.619   4.651   3.882
 4132SOL     OW13294   5.281   2.542   3.321
 4132SOL    HW113295   5.318   2.626   3.282
 4132SOL    HW213296   5.290   2.468   3.255
 4133SOL     OW13297   3.103   1.178   1.130
 4133SOL    HW113298   3.112   1.255   1.067
 4133SOL    HW213299   3.129   1.207   1.222
 4134SOL     OW13300   1.319   1.699   7.004
 4134SOL    HW113301   1.314   1.622   0.041
 4134SOL    HW213302   1.342   1.783   0.026
 4135SOL     OW13303   1.713   1.088   1.840
 4135SOL    HW113304   1.778   1.030   1.890
 4135SOL    HW213305   1.636   1.110   1.900
 4136SOL     OW13306   0.354   2.181   3.787
 4136SOL    HW113307   0.445   2.146   3.809
 4136SOL    HW213308   0.290   2.160   3.862
 4137SOL     OW13309   3.031   4.307   6.473
 4137SOL    HW113310   3.083   4.282   6.555
 4137SOL    HW213311   3.089   4.360   6.412
 4138SOL     OW13312   4.130   4.746   3.353
 4138SOL    HW113313   4.225   4.775   3.338
 4138SOL    HW213314   4.101   4.687   3.278
 4139SOL     OW13315   2.058   2.013   6.626
 4139SOL    HW113316   2.068   2.102   6.671
 4139SOL    HW213317   1.969   2.009   6.580
 4140SOL     OW13318   4.893   1.058   4.982
 4140SOL    HW113319   4.796   1.082   4.977
 4140SOL    HW213320   4.934   1.105   5.060
 4141SOL     OW13321   5.576   5.715   0.370
 4141SOL    HW113322   5.496   5.656   0.383
 4141SOL    HW213323   5.627   5.684   0.291
 4142SOL     OW13324   0.276   4.571   1.603
 4142SOL    HW113325   0.195   4.519   1.577
 4142SOL    HW213326   0.357   4.530   1.560
 4143SOL     OW13327   6.954   3.256   1.064
 4143SOL    HW113328   6.938   3.224   0.971
 4143SOL    HW213329   7.010   3.190   1.113
 4144SOL     OW13330   4.798   1.068   2.623
 4144SOL    HW113331   4.701   1.043   2.632
 4144SOL    HW213332   4.841   1.063   2.713
 4145SOL     OW13333   1.804   6.673   2.282
 4145SOL    HW113334   1.739   6.695   2.209
 4145SOL    HW213335   1.880   6.621   2.245
 4146SOL     OW13336   4.643   6.644   0.187
 4146SOL    HW113337   4.723   6.596   0.224
 4146SOL    HW213338   4.587   6.679   0.262
 4147SOL     OW13339   3.920   1.826   5.614
 4147SOL    HW113340   3.938   1.884   5.693
 4147SOL    HW213341   4.001   1.824   5.555
 4148SOL     OW13342   6.313   0.700   3.609
 4148SOL    HW113343   6.368   0.619   3.586
 4148SOL    HW213344   6.310   0.761   3.530
 4149SOL     OW13345   5.926   3.974   2.416
 4149SOL    HW113346   5.935   4.033   2.335
 4149SOL    HW213347   5.830   3.976   2.446
 4150SOL     OW13348   5.775   0.314   6.799
 4150SOL    HW113349   5.819   0.360   6.722
 4150SOL    HW213350   5.797   0.216   6.796
 4151SOL     OW13351   0.643   5.412   0.903
 4151SOL    HW113352   0.631   5.425   0.804
 4151SOL    HW213353   0.554   5.416   0.948
 4152SOL     OW13354   4.127   4.675   1.725
 4152SOL    HW113355   4.029   4.656   1.717
 4152SOL    HW213356   4.180   4.594   1.698
 4153SOL     OW13357   6.386   4.877   5.985
 4153SOL    HW113358   6.446   4.798   5.969
 4153SOL    HW213359   6.441   4.954   6.018
 4154SOL     OW13360   5.961   2.813   6.091
 4154SOL    HW113361   5.933   2.779   6.181
 4154SOL    HW213362   6.050   2.857   6.098
 4155SOL     OW13363   0.953   3.208   1.500
 4155SOL    HW113364   1.027   3.266   1.467
 4155SOL    HW213365   0.983   3.160   1.583
 4156SOL     OW13366   5.764   6.786   5.463
 4156SOL    HW113367   5.825   6.766   5.386
 4156SOL    HW213368   5.817   6.788   5.548
 4157SOL     OW13369   3.604   0.401   4.797
 4157SOL    HW113370   3.578   0.482   4.745
 4157SOL    HW213371   3.614   0.425   4.894
 4158SOL     OW13372   0.854   6.318   3.821
 4158SOL    HW113373   0.835   6.227   3.786
 4158SOL    HW213374   0.929   6.314   3.886
 4159SOL     OW13375   1.207   2.631   5.093
 4159SOL    HW113376   1.147   2.673   5.024
 4159SOL    HW213377   1.285   2.691   5.111
 4160SOL     OW13378   0.795   0.774   1.609
 4160SOL    HW113379   0.882   0.824   1.620
 4160SOL    HW213380   0.729   0.808   1.675
 4161SOL     OW13381   6.225   1.689   0.551
 4161SOL    HW113382   6.287   1.730   0.485
 4161SOL    HW213383   6.130   1.699   0.519
 4162SOL     OW13384   5.907   7.001   5.053
 4162SOL    HW113385   5.939   0.051   4.999
 4162SOL    HW213386   5.970   6.986   5.130
 4163SOL     OW13387   5.659   1.327   4.332
 4163SOL    HW113388   5.692   1.252   4.389
 4163SOL    HW213389   5.567   1.306   4.299
 4164SOL     OW13390   1.994   7.003   6.735
 4164SOL    HW113391   1.948   6.974   6.819
 4164SOL    HW213392   2.038   6.925   6.692
 4165SOL     OW13393   4.174   6.605   1.877
 4165SOL    HW113394   4.103   6.538   1.898
 4165SOL    HW213395   4.157   6.689   1.930
 4166SOL     OW13396   5.628   2.980   1.075
 4166SOL    HW113397   5.646   3.078   1.073
 4166SOL    HW213398   5.710   2.930   1.046
 4167SOL     OW13399   2.583   2.904   1.288
 4167SOL    HW113400   2.642   2.838   1.241
 4167SOL    HW213401   2.557   2.977   1.224
 4168SOL     OW13402   1.466   5.394   1.462
 4168SOL    HW113403   1.484   5.430   1.371
 4168SOL    HW213404   1.553   5.377   1.510
 4169SOL     OW13405   5.425   3.296   4.491
 4169SOL    HW113406   5.339   3.345   4.474
 4169SOL    HW213407   5.423   3.209   4.441
 4170SOL     OW13408   4.387   3.019   5.790
 4170SOL    HW113409   4.370   2.937   5.735
 4170SOL    HW213410   4.481   3.019   5.823
 4171SOL     OW13411   5.438   3.688   1.720
 4171SOL    HW113412   5.490   3.608   1.751
 4171SOL    HW213413   5.461   3.707   1.624
 4172SOL     OW13414   0.963   1.942   0.631
 4172SOL    HW113415   0.939   1.889   0.712
 4172SOL    HW213416   0.915   1.906   0.551
 4173SOL     OW13417   5.167   3.376   4.952
 4173SOL    HW113418   5.248   3.368   5.011
 4173SOL    HW213419   5.085   3.361   5.008
 4174SOL     OW13420   4.389   0.722   4.494
 4174SOL    HW113421   4.475   0.765   4.469
 4174SOL    HW213422   4.350   0.674   4.415
 4175SOL     OW13423   3.361   0.370   2.803
 4175SOL    HW113424   3.327   0.463   2.813
 4175SOL    HW213425   3.291   0.306   2.835
 4176SOL     OW13426   5.437   6.379   3.278
 4176SOL    HW113427   5.453   6.317   3.354
 4176SOL    HW213428   5.494   6.461   3.289
 4177SOL     OW13429   0.493   6.126   3.216
 4177SOL    HW113430   0.494   6.028   3.198
 4177SOL    HW213431   0.547   6.173   3.145
 4178SOL     OW13432   3.771   2.177   5.706
 4178SOL    HW113433   3.818   2.126   5.778
 4178SOL    HW213434   3.680   2.202   5.738
 4179SOL     OW13435   5.569   3.685   5.647
 4179SOL    HW113436   5.635   3.691   5.572
 4179SOL    HW213437   5.501   3.757   5.637
 4180SOL     OW13438   4.386   4.047   1.675
 4180SOL    HW113439   4.444   4.082   1.601
 4180SOL    HW213440   4.396   4.106   1.755
 4181SOL     OW13441   0.831   1.131   0.589
 4181SOL    HW113442   0.825   1.212   0.647
 4181SOL    HW213443   0.901   1.145   0.519
 4182SOL     OW13444   5.396   0.641   2.622
 4182SOL    HW113445   5.332   0.623   2.697
 4182SOL    HW213446   5.372   0.727   2.577
 4183SOL     OW13447   1.441   1.553   1.505
 4183SOL    HW113448   1.419   1.458   1.527
 4183SOL    HW213449   1.442   1.607   1.589
 4184SOL     OW13450   4.400   5.291   6.937
 4184SOL    HW113451   4.358   5.363   6.993
 4184SOL    HW213452   4.477   5.328   6.886
 4185SOL     OW13453   0.031   0.269   3.961
 4185SOL    HW113454   0.087   0.323   3.898
 4185SOL    HW213455   0.076   0.182   3.980
 4186SOL     OW13456   2.826   4.122   0.919
 4186SOL    HW113457   2.876   4.040   0.946
 4186SOL    HW213458   2.788   4.166   1.001
 4187SOL     OW13459   4.054   3.880   6.687
 4187SOL    HW113460   4.130   3.935   6.652
 4187SOL    HW213461   4.009   3.929   6.761
 4188SOL     OW13462   4.693   6.829   4.556
 4188SOL    HW113463   4.777   6.783   4.585
 4188SOL    HW213464   4.630   6.761   4.519
 4189SOL     OW13465   2.077   2.124   3.892
 4189SOL    HW113466   2.078   2.216   3.851
 4189SOL    HW213467   2.128   2.125   3.978
 4190SOL     OW13468   2.716   0.982   0.935
 4190SOL    HW113469   2.757   1.001   0.845
 4190SOL    HW213470   2.620   0.957   0.923
 4191SOL     OW13471   6.712   1.701   2.094
 4191SOL    HW113472   6.766   1.785   2.106
 4191SOL    HW213473   6.753   1.627   2.148
 4192SOL     OW13474   6.145   1.603   3.504
 4192SOL    HW113475   6.213   1.664   3.546
 4192SOL    HW213476   6.097   1.552   3.576
 4193SOL     OW13477   1.581   6.900   2.373
 4193SOL    HW113478   1.599   6.890   2.276
 4193SOL    HW213479   1.651   6.852   2.426
 4194SOL     OW13480   0.600   1.015   4.341
 4194SOL    HW113481   0.691   1.013   4.382
 4194SOL    HW213482   0.533   0.981   4.406
 4195SOL     OW13483   4.364   0.568   1.316
 4195SOL    HW113484   4.289   0.503   1.306
 4195SOL    HW213485   4.441   0.541   1.258
 4196SOL     OW13486   4.778   2.331   3.401
 4196SOL    HW113487   4.732   2.243   3.414
 4196SOL    HW213488   4.740   2.376   3.320
 4197SOL     OW13489   4.705   4.467   3.979
 4197SOL    HW113490   4.623   4.497   4.027
 4197SOL    HW213491   4.773   4.436   4.046
 4198SOL     OW13492   6.163   3.356   6.685
 4198SOL    HW113493   6.120   3.436   6.726
 4198SOL    HW213494   6.127   3.273   6.728
 4199SOL     OW13495   3.050   3.837   5.714
 4199SOL    HW113496   3.009   3.928   5.722
 4199SOL    HW213497   3.124   3.828   5.780
 4200SOL     OW13498   2.083   0.234   6.848
 4200SOL    HW113499   2.182   0.235   6.835
 4200SOL    HW213500   2.043   0.157   6.799
 4201SOL     OW13501   5.808   6.057   4.115
 4201SOL    HW113502   5.890   6.001   4.129
 4201SOL    HW213503   5.834   6.144   4.073
 4202SOL     OW13504   5.381   4.682   4.615
 4202SOL    HW113505   5.451   4.699   4.545
 4202SOL    HW213506   5.418   4.703   4.705
 4203SOL     OW13507   5.397   5.868   3.702
 4203SOL    HW113508   5.334   5.925   3.650
 4203SOL    HW213509   5.490   5.879   3.665
 4204SOL     OW13510   3.579   3.451   1.361
 4204SOL    HW113511   3.675   3.432   1.338
 4204SOL    HW213512   3.555   3.543   1.330
 4205SOL     OW13513   2.586   5.182   3.429
 4205SOL    HW113514   2.648   5.255   3.457
 4205SOL    HW213515   2.625   5.133   3.351
 4206SOL     OW13516   5.593   7.008   4.384
 4206SOL    HW113517   5.684   6.967   4.390
 4206SOL    HW213518   5.523   6.939   4.405
 4207SOL     OW13519   1.298   1.341   1.872
 4207SOL    HW113520   1.232   1.326   1.797
 4207SOL    HW213521   1.250   1.381   1.950
 4208SOL     OW13522   0.579   3.760   1.047
 4208SOL    HW113523   0.611   3.826   0.979
 4208SOL    HW213524   0.488   3.786   1.078
 4209SOL     OW13525   3.007   0.458   5.035
 4209SOL    HW113526   3.077   0.423   4.973
 4209SOL    HW213527   2.917   0.447   4.993
 4210SOL     OW13528   5.129   2.546   0.798
 4210SOL    HW113529   5.066   2.623   0.793
 4210SOL    HW213530   5.089   2.466   0.753
 4211SOL     OW13531   4.429   4.499   3.362
 4211SOL    HW113532   4.383   4.515   3.450
 4211SOL    HW213533   4.510   4.442   3.378
 4212SOL     OW13534   6.052   0.416   2.752
 4212SOL    HW113535   5.975   0.354   2.767
 4212SOL    HW213536   6.077   0.460   2.838
 4213SOL     OW13537   1.290   0.537   2.709
 4213SOL    HW113538   1.194   0.522   2.732
 4213SOL    HW213539   1.297   0.571   2.616
 4214SOL     OW13540   1.250   3.165   4.830
 4214SOL    HW113541   1.286   3.256   4.853
 4214SOL    HW213542   1.157   3.156   4.864
 4215SOL     OW13543   1.149   5.404   4.512
 4215SOL    HW113544   1.207   5.476   4.475
 4215SOL    HW213545   1.054   5.435   4.517
 4216SOL     OW13546   1.521   3.175   5.559
 4216SOL    HW113547   1.541   3.247   5.625
 4216SOL    HW213548   1.480   3.097   5.607
 4217SOL     OW13549   0.159   0.600   3.359
 4217SOL    HW113550   0.237   0.538   3.354
 4217SOL    HW213551   0.179   0.683   3.307
 4218SOL     OW13552   4.034   6.843   2.056
 4218SOL    HW113553   4.115   6.898   2.036
 4218SOL    HW213554   3.952   6.891   2.024
 4219SOL     OW13555   4.644   6.432   3.179
 4219SOL    HW113556   4.586   6.479   3.245
 4219SOL    HW213557   4.588   6.372   3.122
 4220SOL     OW13558   0.091   3.074   3.048
 4220SOL    HW113559   0.149   3.007   3.001
 4220SOL    HW213560   0.149   3.135   3.102
 4221SOL     OW13561   5.255   5.749   5.588
 4221SOL    HW113562   5.179   5.744   5.652
 4221SOL    HW213563   5.220   5.768   5.496
 4222SOL     OW13564   4.502   2.434   0.835
 4222SOL    HW113565   4.473   2.506   0.899
 4222SOL    HW213566   4.425   2.373   0.817
 4223SOL     OW13567   3.699   4.125   2.809
 4223SOL    HW113568   3.794   4.094   2.814
 4223SOL    HW213569   3.640   4.060   2.857
 4224SOL     OW13570   4.325   2.265   4.853
 4224SOL    HW113571   4.256   2.206   4.811
 4224SOL    HW213572   4.281   2.323   4.922
 4225SOL     OW13573   5.681   0.469   4.774
 4225SOL    HW113574   5.619   0.547   4.782
 4225SOL    HW213575   5.630   0.387   4.749
 4226SOL     OW13576   1.461   1.485   3.744
 4226SOL    HW113577   1.525   1.430   3.798
 4226SOL    HW213578   1.488   1.581   3.749
 4227SOL     OW13579   5.982   4.235   0.087
 4227SOL    HW113580   6.011   4.173   0.159
 4227SOL    HW213581   6.061   4.285   0.052
 4228SOL     OW13582   6.278   5.525   2.275
 4228SOL    HW113583   6.376   5.501   2.273
 4228SOL    HW213584   6.253   5.568   2.188
 4229SOL     OW13585   4.984   4.571   5.660
 4229SOL    HW113586   5.057   4.537   5.601
 4229SOL    HW213587   4.900   4.520   5.641
 4230SOL     OW13588   2.912   0.207   4.573
 4230SOL    HW113589   2.985   0.199   4.640
 4230SOL    HW213590   2.929   0.144   4.497
 4231SOL     OW13591   4.031   6.990   5.458
 4231SOL    HW113592   4.051   0.053   5.495
 4231SOL    HW213593   4.029   6.995   5.358
 4232SOL     OW13594   2.176   4.264   1.755
 4232SOL    HW113595   2.246   4.278   1.825
 4232SOL    HW213596   2.169   4.166   1.735
 4233SOL     OW13597   5.907   6.705   1.016
 4233SOL    HW113598   5.855   6.753   0.946
 4233SOL    HW213599   5.880   6.609   1.019
 4234SOL     OW13600   2.909   4.283   5.519
 4234SOL    HW113601   2.907   4.381   5.537
 4234SOL    HW213602   2.965   4.265   5.438
 4235SOL     OW13603   6.498   3.742   5.714
 4235SOL    HW113604   6.460   3.827   5.678
 4235SOL    HW213605   6.450   3.664   5.673
 4236SOL     OW13606   1.318   3.448   4.678
 4236SOL    HW113607   1.292   3.537   4.640
 4236SOL    HW213608   1.302   3.447   4.776
 4237SOL     OW13609   5.270   3.716   4.977
 4237SOL    HW113610   5.199   3.670   5.031
 4237SOL    HW213611   5.227   3.764   4.900
 4238SOL     OW13612   4.453   5.169   4.145
 4238SOL    HW113613   4.364   5.148   4.104
 4238SOL    HW213614   4.514   5.091   4.134
 4239SOL     OW13615   4.744   5.486   5.800
 4239SOL    HW113616   4.695   5.408   5.836
 4239SOL    HW213617   4.727   5.494   5.701
 4240SOL     OW13618   2.824   4.843   6.488
 4240SOL    HW113619   2.794   4.874   6.578
 4240SOL    HW213620   2.749   4.854   6.422
 4241SOL     OW13621   3.675   0.828   6.828
 4241SOL    HW113622   3.771   0.840   6.800
 4241SOL    HW213623   3.656   0.731   6.839
 4242SOL     OW13624   1.572   0.441   2.436
 4242SOL    HW113625   1.523   0.382   2.372
 4242SOL    HW213626   1.608   0.386   2.511
 4243SOL     OW13627   1.597   2.723   3.159
 4243SOL    HW113628   1.517   2.758   3.110
 4243SOL    HW213629   1.607   2.625   3.140
 4244SOL     OW13630   3.711   6.400   1.659
 4244SOL    HW113631   3.665   6.315   1.683
 4244SOL    HW213632   3.677   6.433   1.570
 4245SOL     OW13633   6.636   3.626   1.568
 4245SOL    HW113634   6.574   3.681   1.625
 4245SOL    HW213635   6.667   3.547   1.621
 4246SOL     OW13636   4.499   2.043   3.916
 4246SOL    HW113637   4.588   2.001   3.898
 4246SOL    HW213638   4.466   2.087   3.833
 4247SOL     OW13639   1.572   4.990   6.244
 4247SOL    HW113640   1.486   5.011   6.197
 4247SOL    HW213641   1.618   4.916   6.196
 4248SOL     OW13642   1.524   0.753   3.499
 4248SOL    HW113643   1.500   0.785   3.407
 4248SOL    HW213644   1.609   0.797   3.528
 4249SOL     OW13645   6.187   6.587   5.313
 4249SOL    HW113646   6.118   6.635   5.368
 4249SOL    HW213647   6.278   6.619   5.338
 4250SOL     OW13648   0.258   5.277   3.983
 4250SOL    HW113649   0.204   5.213   3.928
 4250SOL    HW213650   0.235   5.265   4.080
 4251SOL     OW13651   6.096   2.530   5.421
 4251SOL    HW113652   6.011   2.508   5.468
 4251SOL    HW213653   6.173   2.510   5.481
 4252SOL     OW13654   0.019   6.569   6.923
 4252SOL    HW113655   6.951   6.545   6.905
 4252SOL    HW213656   0.051   6.632   6.852
 4253SOL     OW13657   4.927   5.293   2.790
 4253SOL    HW113658   4.842   5.308   2.840
 4253SOL    HW213659   4.965   5.381   2.763
 4254SOL     OW13660   1.825   2.881   6.419
 4254SOL    HW113661   1.745   2.856   6.364
 4254SOL    HW213662   1.856   2.973   6.393
 4255SOL     OW13663   1.453   3.254   3.454
 4255SOL    HW113664   1.382   3.325   3.457
 4255SOL    HW213665   1.508   3.266   3.371
 4256SOL     OW13666   0.851   6.340   1.763
 4256SOL    HW113667   0.801   6.370   1.845
 4256SOL    HW213668   0.885   6.419   1.713
 4257SOL     OW13669   6.285   0.295   4.214
 4257SOL    HW113670   6.190   0.288   4.183
 4257SOL    HW213671   6.302   0.227   4.285
 4258SOL     OW13672   3.161   5.723   0.779
 4258SOL    HW113673   3.216   5.640   0.773
 4258SOL    HW213674   3.097   5.726   0.701
 4259SOL     OW13675   1.098   0.227   1.368
 4259SOL    HW113676   1.051   0.160   1.311
 4259SOL    HW213677   1.115   0.188   1.459
 4260SOL     OW13678   5.118   1.175   4.669
 4260SOL    HW113679   5.160   1.084   4.673
 4260SOL    HW213680   5.190   1.245   4.679
 4261SOL     OW13681   2.539   5.929   4.320
 4261SOL    HW113682   2.475   5.991   4.367
 4261SOL    HW213683   2.565   5.968   4.232
 4262SOL     OW13684   2.499   4.187   6.641
 4262SOL    HW113685   2.436   4.261   6.663
 4262SOL    HW213686   2.541   4.152   6.725
 4263SOL     OW13687   2.080   1.185   3.719
 4263SOL    HW113688   2.077   1.278   3.755
 4263SOL    HW213689   2.038   1.122   3.784
 4264SOL     OW13690   5.259   1.544   5.496
 4264SOL    HW113691   5.283   1.611   5.426
 4264SOL    HW213692   5.336   1.531   5.559
 4265SOL     OW13693   2.296   0.080   6.463
 4265SOL    HW113694   2.333   0.009   6.522
 4265SOL    HW213695   2.371   0.119   6.409
 4266SOL     OW13696   1.643   5.662   1.565
 4266SOL    HW113697   1.611   5.728   1.497
 4266SOL    HW213698   1.712   5.706   1.623
 4267SOL     OW13699   1.526   4.288   4.875
 4267SOL    HW113700   1.463   4.291   4.952
 4267SOL    HW213701   1.534   4.380   4.835
 4268SOL     OW13702   1.283   4.346   6.689
 4268SOL    HW113703   1.196   4.342   6.738
 4268SOL    HW213704   1.269   4.393   6.602
 4269SOL     OW13705   2.908   1.217   4.786
 4269SOL    HW113706   2.868   1.188   4.873
 4269SOL    HW213707   2.835   1.224   4.717
 4270SOL     OW13708   3.517   3.504   0.985
 4270SOL    HW113709   3.601   3.462   0.950
 4270SOL    HW213710   3.447   3.434   0.997
 4271SOL     OW13711   0.046   0.940   1.832
 4271SOL    HW113712   0.092   0.886   1.902
 4271SOL    HW213713   0.070   0.906   1.741
 4272SOL     OW13714   0.372   1.165   6.677
 4272SOL    HW113715   0.407   1.148   6.769
 4272SOL    HW213716   0.426   1.114   6.610
 4273SOL     OW13717   3.052   6.134   4.586
 4273SOL    HW113718   2.972   6.075   4.578
 4273SOL    HW213719   3.023   6.230   4.584
 4274SOL     OW13720   0.080   1.534   2.126
 4274SOL    HW113721   0.144   1.593   2.076
 4274SOL    HW213722   0.132   1.467   2.179
 4275SOL     OW13723   0.178   2.278   3.533
 4275SOL    HW113724   0.263   2.329   3.536
 4275SOL    HW213725   0.100   2.341   3.532
 4276SOL     OW13726   2.371   6.328   3.407
 4276SOL    HW113727   2.391   6.337   3.504
 4276SOL    HW213728   2.422   6.250   3.369
 4277SOL     OW13729   6.140   5.637   2.745
 4277SOL    HW113730   6.157   5.668   2.652
 4277SOL    HW213731   6.187   5.549   2.760
 4278SOL     OW13732   1.247   6.717   2.189
 4278SOL    HW113733   1.195   6.660   2.252
 4278SOL    HW213734   1.193   6.736   2.107
 4279SOL     OW13735   1.254   1.653   3.372
 4279SOL    HW113736   1.354   1.657   3.374
 4279SOL    HW213737   1.220   1.708   3.295
 4280SOL     OW13738   1.645   6.443   6.549
 4280SOL    HW113739   1.660   6.418   6.453
 4280SOL    HW213740   1.547   6.437   6.569
 4281SOL     OW13741   5.317   5.749   3.302
 4281SOL    HW113742   5.244   5.782   3.363
 4281SOL    HW213743   5.278   5.728   3.213
 4282SOL     OW13744   4.224   4.632   1.083
 4282SOL    HW113745   4.309   4.652   1.131
 4282SOL    HW213746   4.244   4.594   0.993
 4283SOL     OW13747   4.758   1.301   4.482
 4283SOL    HW113748   4.725   1.206   4.485
 4283SOL    HW213749   4.753   1.334   4.387
 4284SOL     OW13750   4.879   5.281   6.162
 4284SOL    HW113751   4.789   5.300   6.123
 4284SOL    HW213752   4.919   5.202   6.117
 4285SOL     OW13753   3.499   1.027   5.609
 4285SOL    HW113754   3.558   1.055   5.533
 4285SOL    HW213755   3.528   0.937   5.642
 4286SOL     OW13756   6.233   0.364   6.210
 4286SOL    HW113757   6.274   0.391   6.297
 4286SOL    HW213758   6.178   0.281   6.222
 4287SOL     OW13759   3.617   0.234   0.622
 4287SOL    HW113760   3.626   0.155   0.562
 4287SOL    HW213761   3.704   0.253   0.666
 4288SOL     OW13762   0.025   6.552   2.415
 4288SOL    HW113763   0.036   6.459   2.450
 4288SOL    HW213764   6.971   6.593   2.454
 4289SOL     OW13765   0.336   4.356   4.131
 4289SOL    HW113766   0.371   4.431   4.075
 4289SOL    HW213767   0.284   4.392   4.208
 4290SOL     OW13768   0.889   1.173   3.403
 4290SOL    HW113769   0.920   1.268   3.405
 4290SOL    HW213770   0.795   1.168   3.437
 4291SOL     OW13771   4.546   3.602   5.884
 4291SOL    HW113772   4.645   3.599   5.883
 4291SOL    HW213773   4.512   3.597   5.790
 4292SOL     OW13774   6.175   2.260   1.733
 4292SOL    HW113775   6.075   2.266   1.734
 4292SOL    HW213776   6.202   2.171   1.696
 4293SOL     OW13777   3.907   3.502   0.236
 4293SOL    HW113778   3.881   3.406   0.243
 4293SOL    HW213779   3.856   3.555   0.303
 4294SOL     OW13780   2.291   2.370   6.522
 4294SOL    HW113781   2.390   2.359   6.517
 4294SOL    HW213782   2.248   2.320   6.447
 4295SOL     OW13783   4.159   6.141   2.610
 4295SOL    HW113784   4.255   6.131   2.585
 4295SOL    HW213785   4.145   6.111   2.704
 4296SOL     OW13786   2.893   6.772   3.122
 4296SOL    HW113787   2.797   6.774   3.146
 4296SOL    HW213788   2.909   6.699   3.056
 4297SOL     OW13789   5.472   5.240   0.620
 4297SOL    HW113790   5.539   5.228   0.546
 4297SOL    HW213791   5.496   5.179   0.696
 4298SOL     OW13792   2.024   0.009   0.824
 4298SOL    HW113793   2.028   0.094   0.773
 4298SOL    HW213794   1.937   6.991   0.806
 4299SOL     OW13795   0.603   2.765   6.907
 4299SOL    HW113796   0.553   2.817   6.976
 4299SOL    HW213797   0.650   2.828   6.845
 4300SOL     OW13798   2.768   0.809   1.328
 4300SOL    HW113799   2.826   0.854   1.396
 4300SOL    HW213800   2.687   0.865   1.311
 4301SOL     OW13801   2.781   6.398   0.344
 4301SOL    HW113802   2.817   6.483   0.384
 4301SOL    HW213803   2.735   6.419   0.258
 4302SOL     OW13804   2.215   5.329   5.754
 4302SOL    HW113805   2.169   5.341   5.666
 4302SOL    HW213806   2.160   5.268   5.812
 4303SOL     OW13807   5.849   5.514   3.241
 4303SOL    HW113808   5.869   5.421   3.211
 4303SOL    HW213809   5.807   5.565   3.166
 4304SOL     OW13810   3.579   3.845   1.382
 4304SOL    HW113811   3.596   3.835   1.284
 4304SOL    HW213812   3.489   3.807   1.404
 4305SOL     OW13813   1.244   6.395   5.406
 4305SOL    HW113814   1.167   6.413   5.467
 4305SOL    HW213815   1.212   6.394   5.312
 4306SOL     OW13816   5.783   4.296   5.256
 4306SOL    HW113817   5.700   4.350   5.271
 4306SOL    HW213818   5.838   4.296   5.340
 4307SOL     OW13819   0.300   1.256   6.194
 4307SOL    HW113820   0.308   1.324   6.267
 4307SOL    HW213821   0.381   1.259   6.136
 4308SOL     OW13822   4.874   5.963   6.514
 4308SOL    HW113823   4.891   6.061   6.510
 4308SOL    HW213824   4.781   5.947   6.547
 4309SOL     OW13825   0.613   1.882   0.573
 4309SOL    HW113826   0.553   1.951   0.532
 4309SOL    HW213827   0.671   1.841   0.502
 4310SOL     OW13828   6.866   2.288   2.244
 4310SOL    HW113829   6.805   2.366   2.229
 4310SOL    HW213830   6.945   2.295   2.184
 4311SOL     OW13831   0.505   6.988   1.783
 4311SOL    HW113832   0.599   6.993   1.818
 4311SOL    HW213833   0.441   6.985   1.859
 4312SOL     OW13834   6.902   5.138   2.519
 4312SOL    HW113835   6.824   5.185   2.559
 4312SOL    HW213836   6.939   5.073   2.586
 4313SOL     OW13837   0.233   3.014   6.570
 4313SOL    HW113838   0.228   2.941   6.639
 4313SOL    HW213839   0.236   3.103   6.616
 4314SOL     OW13840   0.639   1.304   6.186
 4314SOL    HW113841   0.581   1.364   6.241
 4314SOL    HW213842   0.717   1.356   6.150
 4315SOL     OW13843   2.590   1.240   4.528
 4315SOL    HW113844   2.516   1.281   4.581
 4315SOL    HW213845   2.674   1.292   4.543
 4316SOL     OW13846   5.223   6.013   1.058
 4316SOL    HW113847   5.123   6.009   1.070
 4316SOL    HW213848   5.266   5.942   1.114
 4317SOL     OW13849   4.627   1.007   5.680
 4317SOL    HW113850   4.695   1.027   5.750
 4317SOL    HW213851   4.644   0.916   5.642
 4318SOL     OW13852   0.828   0.086   4.067
 4318SOL    HW113853   0.801   7.018   4.056
 4318SOL    HW213854   0.927   0.091   4.080
 4319SOL     OW13855   1.639   4.231   2.948
 4319SOL    HW113856   1.566   4.291   2.915
 4319SOL    HW213857   1.728   4.274   2.932
 4320SOL     OW13858   3.447   0.121   1.147
 4320SOL    HW113859   3.541   0.093   1.126
 4320SOL    HW213860   3.386   0.043   1.135
 4321SOL     OW13861   6.737   6.823   2.957
 4321SOL    HW113862   6.751   6.905   2.901
 4321SOL    HW213863   6.659   6.837   3.018
 4322SOL     OW13864   1.547   3.049   4.985
 4322SOL    HW113865   1.632   3.015   5.025
 4322SOL    HW213866   1.537   3.146   5.007
 4323SOL     OW13867   4.406   5.068   0.183
 4323SOL    HW113868   4.318   5.020   0.185
 4323SOL    HW213869   4.415   5.117   0.097
 4324SOL     OW13870   0.842   4.582   5.882
 4324SOL    HW113871   0.747   4.553   5.886
 4324SOL    HW213872   0.861   4.646   5.956
 4325SOL     OW13873   2.080   0.712   2.691
 4325SOL    HW113874   2.176   0.731   2.668
 4325SOL    HW213875   2.076   0.638   2.758
 4326SOL     OW13876   5.249   1.737   2.375
 4326SOL    HW113877   5.305   1.790   2.311
 4326SOL    HW213878   5.172   1.792   2.406
 4327SOL     OW13879   2.686   6.391   3.669
 4327SOL    HW113880   2.684   6.306   3.618
 4327SOL    HW213881   2.724   6.464   3.611
 4328SOL     OW13882   6.713   0.096   4.368
 4328SOL    HW113883   6.812   0.096   4.382
 4328SOL    HW213884   6.691   0.152   4.288
 4329SOL     OW13885   6.918   1.987   6.952
 4329SOL    HW113886   6.950   2.076   6.919
 4329SOL    HW213887   6.818   1.985   6.950
 4330SOL     OW13888   3.208   5.022   4.486
 4330SOL    HW113889   3.176   5.114   4.512
 4330SOL    HW213890   3.135   4.956   4.505
 4331SOL     OW13891   5.744   1.501   2.258
 4331SOL    HW113892   5.720   1.589   2.299
 4331SOL    HW213893   5.803   1.450   2.321
 4332SOL     OW13894   0.786   5.251   2.157
 4332SOL    HW113895   0.881   5.271   2.184
 4332SOL    HW213896   0.785   5.172   2.096
 4333SOL     OW13897   4.736   2.088   5.791
 4333SOL    HW113898   4.735   2.187   5.779
 4333SOL    HW213899   4.740   2.066   5.888
 4334SOL     OW13900   6.962   2.762   4.373
 4334SOL    HW113901   6.948   2.847   4.321
 4334SOL    HW213902   7.007   2.784   4.460
 4335SOL     OW13903   2.797   3.816   1.265
 4335SOL    HW113904   2.800   3.717   1.273
 4335SOL    HW213905   2.815   3.857   1.354
 4336SOL     OW13906   2.394   5.741   5.653
 4336SOL    HW113907   2.465   5.798   5.611
 4336SOL    HW213908   2.358   5.677   5.585
 4337SOL     OW13909   1.249   4.847   3.996
 4337SOL    HW113910   1.193   4.912   3.944
 4337SOL    HW213911   1.202   4.821   4.080
 4338SOL     OW13912   3.793   1.610   5.817
 4338SOL    HW113913   3.864   1.547   5.848
 4338SOL    HW213914   3.834   1.696   5.789
 4339SOL     OW13915   3.953   4.078   6.074
 4339SOL    HW113916   3.855   4.067   6.089
 4339SOL    HW213917   3.980   4.026   5.993
 4340SOL     OW13918   6.327   4.148   1.259
 4340SOL    HW113919   6.398   4.088   1.221
 4340SOL    HW213920   6.238   4.118   1.226
 4341SOL     OW13921   6.339   6.884   2.514
 4341SOL    HW113922   6.280   6.804   2.520
 4341SOL    HW213923   6.298   6.951   2.453
 4342SOL     OW13924   4.905   4.084   2.494
 4342SOL    HW113925   5.005   4.077   2.485
 4342SOL    HW213926   4.867   4.122   2.410
 4343SOL     OW13927   3.852   6.442   5.809
 4343SOL    HW113928   3.943   6.464   5.845
 4343SOL    HW213929   3.782   6.488   5.865
 4344SOL     OW13930   0.129   3.560   3.657
 4344SOL    HW113931   0.040   3.598   3.632
 4344SOL    HW213932   0.124   3.519   3.747
 4345SOL     OW13933   3.247   3.029   2.578
 4345SOL    HW113934   3.154   3.054   2.608
 4345SOL    HW213935   3.248   3.018   2.479
 4346SOL     OW13936   1.551   3.123   2.826
 4346SOL    HW113937   1.512   3.122   2.919
 4346SOL    HW213938   1.602   3.208   2.813
 4347SOL     OW13939   6.414   5.761   0.239
 4347SOL    HW113940   6.314   5.759   0.240
 4347SOL    HW213941   6.445   5.853   0.217
 4348SOL     OW13942   5.699   4.892   3.822
 4348SOL    HW113943   5.716   4.867   3.727
 4348SOL    HW213944   5.687   4.992   3.829
 4349SOL     OW13945   0.166   3.440   4.138
 4349SOL    HW113946   0.212   3.410   4.054
 4349SOL    HW213947   0.130   3.361   4.187
 4350SOL     OW13948   3.782   1.478   4.740
 4350SOL    HW113949   3.723   1.402   4.712
 4350SOL    HW213950   3.834   1.510   4.661
 4351SOL     OW13951   1.031   6.168   0.752
 4351SOL    HW113952   1.051   6.087   0.696
 4351SOL    HW213953   1.117   6.207   0.785
 4352SOL     OW13954   3.714   4.675   1.183
 4352SOL    HW113955   3.777   4.743   1.145
 4352SOL    HW213956   3.636   4.663   1.121
 4353SOL     OW13957   2.827   2.718   1.185
 4353SOL    HW113958   2.876   2.685   1.105
 4353SOL    HW213959   2.883   2.785   1.233
 4354SOL     OW13960   6.004   0.150   3.170
 4354SOL    HW113961   6.038   0.056   3.166
 4354SOL    HW213962   6.069   0.206   3.222
 4355SOL     OW13963   2.004   5.599   2.968
 4355SOL    HW113964   1.948   5.647   3.035
 4355SOL    HW213965   2.063   5.532   3.014
 4356SOL     OW13966   5.817   2.569   5.381
 4356SOL    HW113967   5.753   2.644   5.398
 4356SOL    HW213968   5.891   2.600   5.323
 4357SOL     OW13969   5.670   0.470   1.899
 4357SOL    HW113970   5.692   0.392   1.957
 4357SOL    HW213971   5.586   0.513   1.931
 4358SOL     OW13972   2.677   0.078   0.286
 4358SOL    HW113973   2.655   0.049   0.193
 4358SOL    HW213974   2.735   0.009   0.329
 4359SOL     OW13975   2.549   2.039   0.401
 4359SOL    HW113976   2.551   2.003   0.307
 4359SOL    HW213977   2.486   2.116   0.405
 4360SOL     OW13978   1.945   4.298   3.970
 4360SOL    HW113979   1.918   4.375   3.912
 4360SOL    HW213980   2.044   4.282   3.960
 4361SOL     OW13981   6.520   1.775   0.569
 4361SOL    HW113982   6.456   1.804   0.640
 4361SOL    HW213983   6.596   1.725   0.610
 4362SOL     OW13984   0.946   5.366   3.332
 4362SOL    HW113985   0.927   5.270   3.309
 4362SOL    HW213986   0.957   5.418   3.248
 4363SOL     OW13987   4.229   0.852   2.424
 4363SOL    HW113988   4.188   0.842   2.333
 4363SOL    HW213989   4.159   0.836   2.494
 4364SOL     OW13990   4.159   3.401   2.314
 4364SOL    HW113991   4.106   3.473   2.269
 4364SOL    HW213992   4.253   3.433   2.329
 4365SOL     OW13993   2.412   2.055   1.242
 4365SOL    HW113994   2.389   2.060   1.144
 4365SOL    HW213995   2.491   1.995   1.255
 4366SOL     OW13996   4.407   6.227   4.629
 4366SOL    HW113997   4.429   6.139   4.586
 4366SOL    HW213998   4.431   6.301   4.567
 4367SOL     OW13999   2.757   5.948   3.251
 4367SOL    HW114000   2.802   5.947   3.341
 4367SOL    HW214001   2.751   5.855   3.215
 4368SOL     OW14002   4.785   4.065   3.590
 4368SOL    HW114003   4.848   4.142   3.583
 4368SOL    HW214004   4.696   4.092   3.555
 4369SOL     OW14005   4.770   4.599   3.462
 4369SOL    HW114006   4.812   4.651   3.387
 4369SOL    HW214007   4.745   4.662   3.536
 4370SOL     OW14008   3.881   4.576   1.683
 4370SOL    HW114009   3.863   4.479   1.702
 4370SOL    HW214010   3.813   4.632   1.730
 4371SOL     OW14011   2.933   1.625   1.078
 4371SOL    HW114012   3.009   1.616   1.015
 4371SOL    HW214013   2.968   1.632   1.172
 4372SOL     OW14014   1.855   3.306   4.864
 4372SOL    HW114015   1.824   3.251   4.786
 4372SOL    HW214016   1.781   3.318   4.929
 4373SOL     OW14017   3.631   1.037   6.379
 4373SOL    HW114018   3.675   1.118   6.339
 4373SOL    HW214019   3.592   0.981   6.306
 4374SOL     OW14020   2.386   0.244   1.367
 4374SOL    HW114021   2.445   0.255   1.287
 4374SOL    HW214022   2.345   0.333   1.389
 4375SOL     OW14023   4.316   1.854   4.374
 4375SOL    HW114024   4.371   1.830   4.455
 4375SOL    HW214025   4.376   1.867   4.296
 4376SOL     OW14026   1.862   6.149   6.867
 4376SOL    HW114027   1.901   6.121   6.954
 4376SOL    HW214028   1.879   6.247   6.852
 4377SOL     OW14029   5.653   6.961   6.264
 4377SOL    HW114030   5.722   6.995   6.200
 4377SOL    HW214031   5.694   6.893   6.325
 4378SOL     OW14032   2.761   5.489   2.121
 4378SOL    HW114033   2.704   5.504   2.040
 4378SOL    HW214034   2.769   5.574   2.172
 4379SOL     OW14035   1.349   0.267   1.749
 4379SOL    HW114036   1.428   0.235   1.802
 4379SOL    HW214037   1.369   0.357   1.709
 4380SOL     OW14038   2.178   4.976   4.613
 4380SOL    HW114039   2.095   4.971   4.668
 4380SOL    HW214040   2.175   5.057   4.555
 4381SOL     OW14041   4.718   6.364   5.575
 4381SOL    HW114042   4.632   6.374   5.525
 4381SOL    HW214043   4.733   6.444   5.633
 4382SOL     OW14044   4.988   3.592   3.515
 4382SOL    HW114045   5.057   3.530   3.551
 4382SOL    HW214046   5.021   3.686   3.520
 4383SOL     OW14047   1.126   2.373   0.053
 4383SOL    HW114048   1.070   2.291   0.041
 4383SOL    HW214049   1.095   2.423   0.134
 4384SOL     OW14050   3.625   6.303   0.996
 4384SOL    HW114051   3.603   6.211   1.028
 4384SOL    HW214052   3.564   6.369   1.039
 4385SOL     OW14053   6.893   1.607   2.699
 4385SOL    HW114054   6.928   1.693   2.736
 4385SOL    HW214055   6.910   1.603   2.601
 4386SOL     OW14056   1.176   3.704   6.713
 4386SOL    HW114057   1.089   3.655   6.715
 4386SOL    HW214058   1.161   3.796   6.677
 4387SOL     OW14059   6.873   3.242   2.071
 4387SOL    HW114060   6.776   3.217   2.082
 4387SOL    HW214061   6.881   3.342   2.068
 4388SOL     OW14062   2.723   1.414   5.253
 4388SOL    HW114063   2.698   1.401   5.349
 4388SOL    HW214064   2.667   1.486   5.213
 4389SOL     OW14065   5.168   2.178   2.455
 4389SOL    HW114066   5.127   2.111   2.518
 4389SOL    HW214067   5.105   2.254   2.442
 4390SOL     OW14068   4.413   2.493   1.856
 4390SOL    HW114069   4.354   2.434   1.911
 4390SOL    HW214070   4.460   2.558   1.916
 4391SOL     OW14071   1.004   5.811   0.911
 4391SOL    HW114072   0.947   5.888   0.940
 4391SOL    HW214073   0.974   5.728   0.959
 4392SOL     OW14074   5.445   3.555   4.830
 4392SOL    HW114075   5.395   3.502   4.762
 4392SOL    HW214076   5.380   3.604   4.889
 4393SOL     OW14077   4.742   6.232   3.497
 4393SOL    HW114078   4.801   6.246   3.417
 4393SOL    HW214079   4.798   6.232   3.580
 4394SOL     OW14080   4.991   0.892   2.171
 4394SOL    HW114081   5.062   0.953   2.134
 4394SOL    HW214082   5.003   0.800   2.134
 4395SOL     OW14083   4.620   1.629   1.677
 4395SOL    HW114084   4.585   1.696   1.613
 4395SOL    HW214085   4.627   1.540   1.631
 4396SOL     OW14086   1.328   0.984   3.827
 4396SOL    HW114087   1.256   1.025   3.883
 4396SOL    HW214088   1.345   0.891   3.858
 4397SOL     OW14089   6.684   0.459   6.135
 4397SOL    HW114090   6.719   0.537   6.083
 4397SOL    HW214091   6.707   0.470   6.232
 4398SOL     OW14092   6.317   4.504   4.220
 4398SOL    HW114093   6.341   4.414   4.184
 4398SOL    HW214094   6.265   4.555   4.151
 4399SOL     OW14095   2.365   1.779   1.930
 4399SOL    HW114096   2.373   1.717   1.852
 4399SOL    HW214097   2.303   1.854   1.907
 4400SOL     OW14098   3.368   5.868   4.376
 4400SOL    HW114099   3.290   5.903   4.427
 4400SOL    HW214100   3.396   5.935   4.307
 4401SOL     OW14101   5.236   6.644   4.356
 4401SOL    HW114102   5.265   6.582   4.283
 4401SOL    HW214103   5.160   6.602   4.406
 4402SOL     OW14104   6.744   0.587   3.381
 4402SOL    HW114105   6.825   0.643   3.402
 4402SOL    HW214106   6.671   0.611   3.444
 4403SOL     OW14107   0.617   6.821   2.686
 4403SOL    HW114108   0.528   6.837   2.728
 4403SOL    HW214109   0.608   6.752   2.614
 4404SOL     OW14110   1.746   4.082   3.390
 4404SOL    HW114111   1.746   4.067   3.291
 4404SOL    HW214112   1.697   4.008   3.434
 4405SOL     OW14113   3.699   4.600   5.842
 4405SOL    HW114114   3.718   4.698   5.836
 4405SOL    HW214115   3.712   4.570   5.937
 4406SOL     OW14116   5.378   3.651   1.423
 4406SOL    HW114117   5.359   3.748   1.434
 4406SOL    HW214118   5.351   3.622   1.331
 4407SOL     OW14119   6.769   6.564   6.861
 4407SOL    HW114120   6.714   6.501   6.917
 4407SOL    HW214121   6.722   6.652   6.854
 4408SOL     OW14122   4.839   6.101   0.170
 4408SOL    HW114123   4.778   6.162   0.220
 4408SOL    HW214124   4.836   6.009   0.210
 4409SOL     OW14125   3.065   1.584   2.172
 4409SOL    HW114126   3.136   1.516   2.186
 4409SOL    HW214127   3.041   1.588   2.075
 4410SOL     OW14128   2.572   5.326   2.228
 4410SOL    HW114129   2.657   5.375   2.210
 4410SOL    HW214130   2.583   5.230   2.203
 4411SOL     OW14131   3.828   3.204   2.307
 4411SOL    HW114132   3.915   3.155   2.316
 4411SOL    HW214133   3.753   3.140   2.322
 4412SOL     OW14134   3.596   1.755   6.521
 4412SOL    HW114135   3.638   1.737   6.610
 4412SOL    HW214136   3.554   1.845   6.521
 4413SOL     OW14137   3.694   5.756   4.249
 4413SOL    HW114138   3.625   5.764   4.177
 4413SOL    HW214139   3.656   5.705   4.326
 4414SOL     OW14140   3.732   5.341   2.305
 4414SOL    HW114141   3.765   5.427   2.267
 4414SOL    HW214142   3.729   5.271   2.233
 4415SOL     OW14143   4.726   2.288   0.730
 4415SOL    HW114144   4.713   2.292   0.631
 4415SOL    HW214145   4.661   2.350   0.774
 4416SOL     OW14146   3.808   0.926   3.628
 4416SOL    HW114147   3.894   0.904   3.674
 4416SOL    HW214148   3.752   0.984   3.687
 4417SOL     OW14149   0.453   0.384   1.094
 4417SOL    HW114150   0.393   0.416   1.021
 4417SOL    HW214151   0.425   0.425   1.181
 4418SOL     OW14152   3.860   0.014   3.384
 4418SOL    HW114153   3.889   0.095   3.434
 4418SOL    HW214154   3.788   0.040   3.319
 4419SOL     OW14155   0.107   5.178   0.194
 4419SOL    HW114156   0.116   5.123   0.111
 4419SOL    HW214157   0.014   5.170   0.229
 4420SOL     OW14158   4.502   1.322   6.553
 4420SOL    HW114159   4.569   1.341   6.482
 4420SOL    HW214160   4.430   1.264   6.517
 4421SOL     OW14161   1.967   1.525   3.394
 4421SOL    HW114162   1.969   1.427   3.417
 4421SOL    HW214163   2.061   1.558   3.384
 4422SOL     OW14164   2.121   3.778   5.809
 4422SOL    HW114165   2.168   3.750   5.725
 4422SOL    HW214166   2.172   3.746   5.888
 4423SOL     OW14167   0.405   1.441   6.622
 4423SOL    HW114168   0.399   1.346   6.651
 4423SOL    HW214169   0.345   1.497   6.679
 4424SOL     OW14170   0.123   6.271   3.481
 4424SOL    HW114171   0.168   6.187   3.449
 4424SOL    HW214172   0.089   6.322   3.403
 4425SOL     OW14173   4.657   4.345   0.008
 4425SOL    HW114174   4.611   4.350   6.947
 4425SOL    HW214175   4.741   4.398   0.005
 4426SOL     OW14176   1.109   0.608   5.360
 4426SOL    HW114177   1.152   0.520   5.339
 4426SOL    HW214178   1.153   0.680   5.307
 4427SOL     OW14179   1.047   6.819   3.517
 4427SOL    HW114180   0.975   6.760   3.554
 4427SOL    HW214181   1.045   6.907   3.564
 4428SOL     OW14182   2.853   5.942   3.499
 4428SOL    HW114183   2.885   6.033   3.526
 4428SOL    HW214184   2.922   5.874   3.522
 4429SOL     OW14185   4.176   0.073   3.053
 4429SOL    HW114186   4.150   0.028   3.138
 4429SOL    HW214187   4.251   0.024   3.010
 4430SOL     OW14188   1.312   0.857   1.832
 4430SOL    HW114189   1.318   0.908   1.918
 4430SOL    HW214190   1.222   0.815   1.824
 4431SOL     OW14191   1.978   1.998   3.040
 4431SOL    HW114192   1.978   1.901   3.014
 4431SOL    HW214193   1.950   2.007   3.136
 4432SOL     OW14194   3.070   3.301   2.965
 4432SOL    HW114195   3.108   3.358   2.893
 4432SOL    HW214196   2.995   3.349   3.011
 4433SOL     OW14197   6.691   0.551   3.131
 4433SOL    HW114198   6.733   0.545   3.221
 4433SOL    HW214199   6.682   0.647   3.104
 4434SOL     OW14200   5.140   2.067   4.156
 4434SOL    HW114201   5.164   2.137   4.089
 4434SOL    HW214202   5.043   2.072   4.179
 4435SOL     OW14203   3.666   2.866   1.998
 4435SOL    HW114204   3.613   2.796   2.046
 4435SOL    HW214205   3.604   2.938   1.967
 4436SOL     OW14206   5.078   0.748   0.233
 4436SOL    HW114207   5.036   0.661   0.208
 4436SOL    HW214208   5.131   0.737   0.317
 4437SOL     OW14209   3.715   6.961   4.524
 4437SOL    HW114210   3.786   6.968   4.455
 4437SOL    HW214211   3.689   0.025   4.556
 4438SOL     OW14212   3.895   3.637   6.236
 4438SOL    HW114213   3.866   3.688   6.155
 4438SOL    HW214214   3.850   3.674   6.317
 4439SOL     OW14215   2.326   5.155   2.434
 4439SOL    HW114216   2.289   5.247   2.443
 4439SOL    HW214217   2.282   5.109   2.356
 4440SOL     OW14218   0.125   0.510   6.151
 4440SOL    HW114219   0.034   0.540   6.179
 4440SOL    HW214220   0.121   0.466   6.062
 4441SOL     OW14221   5.519   2.529   3.014
 4441SOL    HW114222   5.435   2.496   3.056
 4441SOL    HW214223   5.516   2.512   2.915
 4442SOL     OW14224   2.447   6.177   2.446
 4442SOL    HW114225   2.519   6.197   2.379
 4442SOL    HW214226   2.458   6.237   2.525
 4443SOL     OW14227   2.469   1.607   5.525
 4443SOL    HW114228   2.465   1.688   5.467
 4443SOL    HW214229   2.379   1.588   5.562
 4444SOL     OW14230   5.007   0.675   2.412
 4444SOL    HW114231   4.991   0.582   2.380
 4444SOL    HW214232   4.920   0.719   2.434
 4445SOL     OW14233   1.891   1.425   6.492
 4445SOL    HW114234   1.875   1.353   6.425
 4445SOL    HW214235   1.846   1.401   6.578
 4446SOL     OW14236   6.472   5.972   4.232
 4446SOL    HW114237   6.373   5.986   4.241
 4446SOL    HW214238   6.514   5.981   4.322
 4447SOL     OW14239   4.901   3.351   5.015
 4447SOL    HW114240   4.836   3.301   5.074
 4447SOL    HW214241   4.882   3.449   5.020
 4448SOL     OW14242   2.830   2.789   6.206
 4448SOL    HW114243   2.754   2.754   6.151
 4448SOL    HW214244   2.892   2.840   6.147
 4449SOL     OW14245   0.879   1.669   4.972
 4449SOL    HW114246   0.795   1.682   5.024
 4449SOL    HW214247   0.862   1.687   4.875
 4450SOL     OW14248   4.003   3.814   3.364
 4450SOL    HW114249   3.947   3.830   3.282
 4450SOL    HW214250   3.994   3.892   3.426
 4451SOL     OW14251   6.329   4.507   2.212
 4451SOL    HW114252   6.398   4.532   2.279
 4451SOL    HW214253   6.371   4.502   2.121
 4452SOL     OW14254   6.264   5.525   6.275
 4452SOL    HW114255   6.271   5.460   6.351
 4452SOL    HW214256   6.330   5.502   6.204
 4453SOL     OW14257   5.481   1.979   1.371
 4453SOL    HW114258   5.570   1.964   1.328
 4453SOL    HW214259   5.432   2.052   1.323
 4454SOL     OW14260   5.016   3.276   1.400
 4454SOL    HW114261   4.989   3.245   1.490
 4454SOL    HW214262   5.093   3.221   1.368
 4455SOL     OW14263   4.288   1.526   1.838
 4455SOL    HW114264   4.338   1.443   1.863
 4455SOL    HW214265   4.319   1.601   1.896
 4456SOL     OW14266   0.686   5.411   3.142
 4456SOL    HW114267   0.666   5.468   3.221
 4456SOL    HW214268   0.704   5.317   3.172
 4457SOL     OW14269   5.212   2.004   6.497
 4457SOL    HW114270   5.295   2.053   6.473
 4457SOL    HW214271   5.132   2.059   6.474
 4458SOL     OW14272   3.810   1.761   6.351
 4458SOL    HW114273   3.814   1.661   6.344
 4458SOL    HW214274   3.738   1.787   6.415
 4459SOL     OW14275   5.023   6.283   5.568
 4459SOL    HW114276   4.925   6.267   5.556
 4459SOL    HW214277   5.037   6.362   5.627
 4460SOL     OW14278   2.085   1.599   6.456
 4460SOL    HW114279   2.160   1.555   6.407
 4460SOL    HW214280   2.016   1.531   6.481
 4461SOL     OW14281   2.278   0.183   2.074
 4461SOL    HW114282   2.369   0.222   2.075
 4461SOL    HW214283   2.244   0.171   2.167
 4462SOL     OW14284   6.644   6.099   1.700
 4462SOL    HW114285   6.686   6.098   1.791
 4462SOL    HW214286   6.712   6.076   1.631
 4463SOL     OW14287   1.415   3.462   6.162
 4463SOL    HW114288   1.361   3.467   6.246
 4463SOL    HW214289   1.355   3.439   6.085
 4464SOL     OW14290   5.818   3.459   6.423
 4464SOL    HW114291   5.896   3.406   6.455
 4464SOL    HW214292   5.768   3.407   6.354
 4465SOL     OW14293   1.375   5.706   2.427
 4465SOL    HW114294   1.337   5.704   2.335
 4465SOL    HW214295   1.431   5.624   2.442
 4466SOL     OW14296   0.517   2.407   4.024
 4466SOL    HW114297   0.600   2.351   4.024
 4466SOL    HW214298   0.437   2.348   4.013
 4467SOL     OW14299   0.809   6.963   2.947
 4467SOL    HW114300   0.857   6.928   2.867
 4467SOL    HW214301   0.852   6.925   3.030
 4468SOL     OW14302   1.385   2.629   0.195
 4468SOL    HW114303   1.430   2.613   0.283
 4468SOL    HW214304   1.292   2.663   0.210
 4469SOL     OW14305   4.558   0.117   6.833
 4469SOL    HW114306   4.515   0.202   6.863
 4469SOL    HW214307   4.636   0.096   6.892
 4470SOL     OW14308   4.673   4.800   1.289
 4470SOL    HW114309   4.612   4.827   1.363
 4470SOL    HW214310   4.739   4.874   1.271
 4471SOL     OW14311   6.575   3.633   0.105
 4471SOL    HW114312   6.599   3.721   0.066
 4471SOL    HW214313   6.476   3.628   0.119
 4472SOL     OW14314   1.886   4.979   1.624
 4472SOL    HW114315   1.975   4.970   1.669
 4472SOL    HW214316   1.813   4.954   1.688
 4473SOL     OW14317   0.494   6.838   5.330
 4473SOL    HW114318   0.577   6.891   5.314
 4473SOL    HW214319   0.472   6.785   5.249
 4474SOL     OW14320   5.363   0.915   3.556
 4474SOL    HW114321   5.456   0.883   3.575
 4474SOL    HW214322   5.297   0.858   3.606
 4475SOL     OW14323   1.749   3.844   0.150
 4475SOL    HW114324   1.830   3.807   0.196
 4475SOL    HW214325   1.666   3.812   0.197
 4476SOL     OW14326   4.548   6.723   2.027
 4476SOL    HW114327   4.504   6.686   2.109
 4476SOL    HW214328   4.564   6.650   1.961
 4477SOL     OW14329   1.508   1.193   0.124
 4477SOL    HW114330   1.569   1.244   0.185
 4477SOL    HW214331   1.472   1.113   0.172
 4478SOL     OW14332   1.501   5.383   2.431
 4478SOL    HW114333   1.432   5.317   2.462
 4478SOL    HW214334   1.464   5.435   2.354
 4479SOL     OW14335   0.424   6.999   4.884
 4479SOL    HW114336   0.374   6.944   4.951
 4479SOL    HW214337   0.373   7.001   4.799
 4480SOL     OW14338   0.906   4.254   3.530
 4480SOL    HW114339   0.829   4.226   3.588
 4480SOL    HW214340   0.978   4.293   3.586
 4481SOL     OW14341   1.127   0.090   4.137
 4481SOL    HW114342   1.138   0.033   4.219
 4481SOL    HW214343   1.175   0.176   4.150
 4482SOL     OW14344   6.980   3.987   4.267
 4482SOL    HW114345   0.026   4.018   4.208
 4482SOL    HW214346   6.994   3.891   4.292
 4483SOL     OW14347   5.537   2.420   1.947
 4483SOL    HW114348   5.470   2.354   1.981
 4483SOL    HW214349   5.509   2.512   1.972
 4484SOL     OW14350   4.054   2.691   5.637
 4484SOL    HW114351   3.991   2.764   5.666
 4484SOL    HW214352   4.014   2.602   5.661
 4485SOL     OW14353   4.847   1.518   6.612
 4485SOL    HW114354   4.877   1.445   6.673
 4485SOL    HW214355   4.922   1.545   6.552
 4486SOL     OW14356   6.179   2.176   4.347
 4486SOL    HW114357   6.279   2.176   4.347
 4486SOL    HW214358   6.146   2.268   4.326
 4487SOL     OW14359   3.216   3.042   6.490
 4487SOL    HW114360   3.264   3.012   6.573
 4487SOL    HW214361   3.126   3.079   6.515
 4488SOL     OW14362   0.654   1.620   5.145
 4488SOL    HW114363   0.574   1.561   5.159
 4488SOL    HW214364   0.697   1.638   5.233
 4489SOL     OW14365   6.380   0.456   3.507
 4489SOL    HW114366   6.422   0.379   3.554
 4489SOL    HW214367   6.389   0.444   3.408
 4490SOL     OW14368   6.865   2.323   3.677
 4490SOL    HW114369   6.950   2.339   3.728
 4490SOL    HW214370   6.878   2.348   3.581
 4491SOL     OW14371   1.492   3.114   3.090
 4491SOL    HW114372   1.559   3.160   3.149
 4491SOL    HW214373   1.408   3.097   3.142
 4492SOL     OW14374   4.425   3.453   6.594
 4492SOL    HW114375   4.414   3.551   6.583
 4492SOL    HW214376   4.490   3.435   6.668
 4493SOL     OW14377   6.208   5.476   3.993
 4493SOL    HW114378   6.144   5.406   4.026
 4493SOL    HW214379   6.219   5.467   3.894
 4494SOL     OW14380   6.143   3.717   3.621
 4494SOL    HW114381   6.099   3.725   3.710
 4494SOL    HW214382   6.160   3.620   3.601
 4495SOL     OW14383   4.907   6.179   1.467
 4495SOL    HW114384   4.858   6.208   1.384
 4495SOL    HW214385   5.005   6.174   1.447
 4496SOL     OW14386   5.148   4.429   5.522
 4496SOL    HW114387   5.090   4.349   5.505
 4496SOL    HW214388   5.190   4.421   5.612
 4497SOL     OW14389   6.227   4.836   0.676
 4497SOL    HW114390   6.208   4.796   0.586
 4497SOL    HW214391   6.271   4.768   0.734
 4498SOL     OW14392   0.206   4.262   6.821
 4498SOL    HW114393   0.272   4.188   6.831
 4498SOL    HW214394   0.253   4.350   6.827
 4499SOL     OW14395   7.023   2.933   6.857
 4499SOL    HW114396   0.074   2.892   6.811
 4499SOL    HW214397   7.024   3.032   6.842
 4500SOL     OW14398   3.630   3.875   4.506
 4500SOL    HW114399   3.680   3.881   4.420
 4500SOL    HW214400   3.687   3.833   4.576
 4501SOL     OW14401   0.597   4.283   4.852
 4501SOL    HW114402   0.684   4.292   4.804
 4501SOL    HW214403   0.579   4.186   4.870
 4502SOL     OW14404   0.072   3.423   0.123
 4502SOL    HW114405   0.128   3.454   0.200
 4502SOL    HW214406   0.089   3.326   0.106
 4503SOL     OW14407   1.559   1.900   3.224
 4503SOL    HW114408   1.512   1.933   3.306
 4503SOL    HW214409   1.492   1.884   3.152
 4504SOL     OW14410   4.854   2.530   4.658
 4504SOL    HW114411   4.837   2.600   4.589
 4504SOL    HW214412   4.782   2.533   4.727
 4505SOL     OW14413   1.808   5.286   5.951
 4505SOL    HW114414   1.747   5.363   5.933
 4505SOL    HW214415   1.777   5.206   5.900
 4506SOL     OW14416   4.010   0.215   5.295
 4506SOL    HW114417   4.096   0.253   5.329
 4506SOL    HW214418   3.984   0.262   5.210
 4507SOL     OW14419   6.664   4.403   1.004
 4507SOL    HW114420   6.580   4.403   1.058
 4507SOL    HW214421   6.678   4.495   0.965
 4508SOL     OW14422   1.638   3.923   0.757
 4508SOL    HW114423   1.720   3.956   0.804
 4508SOL    HW214424   1.567   3.995   0.759
 4509SOL     OW14425   1.360   1.984   3.426
 4509SOL    HW114426   1.434   2.012   3.488
 4509SOL    HW214427   1.283   1.949   3.480
 4510SOL     OW14428   3.772   6.469   4.919
 4510SOL    HW114429   3.819   6.555   4.941
 4510SOL    HW214430   3.697   6.487   4.856
 4511SOL     OW14431   5.685   2.529   6.990
 4511SOL    HW114432   5.687   2.626   7.016
 4511SOL    HW214433   5.711   2.473   0.040
 4512SOL     OW14434   2.813   5.095   0.014
 4512SOL    HW114435   2.820   5.083   0.113
 4512SOL    HW214436   2.793   5.007   6.999
 4513SOL     OW14437   5.044   0.646   2.013
 4513SOL    HW114438   5.101   0.579   2.060
 4513SOL    HW214439   5.060   0.640   1.914
 4514SOL     OW14440   3.377   1.442   4.929
 4514SOL    HW114441   3.294   1.416   4.977
 4514SOL    HW214442   3.409   1.366   4.872
 4515SOL     OW14443   0.623   5.096   1.284
 4515SOL    HW114444   0.526   5.095   1.307
 4515SOL    HW214445   0.653   5.003   1.265
 4516SOL     OW14446   1.076   0.459   5.013
 4516SOL    HW114447   1.060   0.548   4.970
 4516SOL    HW214448   1.000   0.398   4.992
 4517SOL     OW14449   3.445   6.779   5.100
 4517SOL    HW114450   3.446   6.686   5.138
 4517SOL    HW214451   3.402   6.841   5.165
 4518SOL     OW14452   0.940   1.742   4.430
 4518SOL    HW114453   0.846   1.751   4.398
 4518SOL    HW214454   0.976   1.832   4.454
 4519SOL     OW14455   5.848   2.541   4.422
 4519SOL    HW114456   5.904   2.501   4.349
 4519SOL    HW214457   5.774   2.478   4.446
 4520SOL     OW14458   6.797   4.234   2.841
 4520SOL    HW114459   6.821   4.137   2.836
 4520SOL    HW214460   6.703   4.245   2.873
 4521SOL     OW14461   6.158   1.953   6.474
 4521SOL    HW114462   6.096   2.030   6.486
 4521SOL    HW214463   6.151   1.892   6.553
 4522SOL     OW14464   5.890   0.842   3.998
 4522SOL    HW114465   5.837   0.758   4.005
 4522SOL    HW214466   5.969   0.837   4.059
 4523SOL     OW14467   3.590   3.586   0.138
 4523SOL    HW114468   3.634   3.617   0.222
 4523SOL    HW214469   3.641   3.508   0.101
 4524SOL     OW14470   5.995   0.209   4.807
 4524SOL    HW114471   5.909   0.174   4.771
 4524SOL    HW214472   5.979   0.296   4.853
 4525SOL     OW14473   6.446   1.903   5.230
 4525SOL    HW114474   6.440   1.804   5.230
 4525SOL    HW214475   6.362   1.941   5.270
 4526SOL     OW14476   3.932   0.653   0.860
 4526SOL    HW114477   3.856   0.638   0.797
 4526SOL    HW214478   3.899   0.647   0.954
 4527SOL     OW14479   4.264   0.987   3.086
 4527SOL    HW114480   4.221   1.077   3.077
 4527SOL    HW214481   4.352   0.997   3.133
 4528SOL     OW14482   6.283   0.600   6.514
 4528SOL    HW114483   6.229   0.615   6.431
 4528SOL    HW214484   6.246   0.657   6.588
 4529SOL     OW14485   3.786   6.313   3.038
 4529SOL    HW114486   3.796   6.248   2.964
 4529SOL    HW214487   3.742   6.396   3.004
 4530SOL     OW14488   0.485   3.541   5.509
 4530SOL    HW114489   0.451   3.480   5.581
 4530SOL    HW214490   0.553   3.493   5.454
 4531SOL     OW14491   0.268   3.315   3.918
 4531SOL    HW114492   0.346   3.321   3.856
 4531SOL    HW214493   0.187   3.284   3.867
 4532SOL     OW14494   5.933   2.090   1.155
 4532SOL    HW114495   5.968   2.184   1.155
 4532SOL    HW214496   6.009   2.027   1.142
 4533SOL     OW14497   2.520   5.991   2.869
 4533SOL    HW114498   2.584   5.993   2.792
 4533SOL    HW214499   2.547   5.918   2.932
 4534SOL     OW14500   6.165   4.188   5.677
 4534SOL    HW114501   6.066   4.189   5.663
 4534SOL    HW214502   6.184   4.185   5.776
 4535SOL     OW14503   4.945   2.927   1.786
 4535SOL    HW114504   4.928   2.829   1.772
 4535SOL    HW214505   4.891   2.959   1.864
 4536SOL     OW14506   6.529   1.165   4.392
 4536SOL    HW114507   6.601   1.113   4.438
 4536SOL    HW214508   6.470   1.209   4.459
 4537SOL     OW14509   3.586   2.849   6.069
 4537SOL    HW114510   3.673   2.895   6.053
 4537SOL    HW214511   3.603   2.759   6.109
 4538SOL     OW14512   2.880   1.000   2.685
 4538SOL    HW114513   2.806   0.951   2.731
 4538SOL    HW214514   2.916   1.071   2.746
 4539SOL     OW14515   1.673   1.490   2.159
 4539SOL    HW114516   1.606   1.499   2.085
 4539SOL    HW214517   1.762   1.519   2.127
 4540SOL     OW14518   3.398   2.995   4.563
 4540SOL    HW114519   3.328   3.023   4.497
 4540SOL    HW214520   3.469   2.943   4.516
 4541SOL     OW14521   5.154   1.422   1.255
 4541SOL    HW114522   5.201   1.479   1.322
 4541SOL    HW214523   5.127   1.478   1.177
 4542SOL     OW14524   4.460   0.828   3.904
 4542SOL    HW114525   4.373   0.874   3.890
 4542SOL    HW214526   4.535   0.895   3.905
 4543SOL     OW14527   5.278   1.649   1.911
 4543SOL    HW114528   5.227   1.571   1.874
 4543SOL    HW214529   5.232   1.734   1.886
 4544SOL     OW14530   3.355   4.879   6.316
 4544SOL    HW114531   3.390   4.857   6.225
 4544SOL    HW214532   3.263   4.918   6.307
 4545SOL     OW14533   4.579   2.613   5.466
 4545SOL    HW114534   4.658   2.561   5.433
 4545SOL    HW214535   4.517   2.633   5.390
 4546SOL     OW14536   1.556   6.567   5.977
 4546SOL    HW114537   1.585   6.643   5.919
 4546SOL    HW214538   1.487   6.513   5.929
 4547SOL     OW14539   4.797   2.221   1.686
 4547SOL    HW114540   4.772   2.136   1.640
 4547SOL    HW214541   4.768   2.216   1.782
 4548SOL     OW14542   1.011   3.430   3.589
 4548SOL    HW114543   0.972   3.356   3.535
 4548SOL    HW214544   1.078   3.392   3.654
 4549SOL     OW14545   5.859   2.510   2.675
 4549SOL    HW114546   5.761   2.518   2.656
 4549SOL    HW214547   5.911   2.557   2.605
 4550SOL     OW14548   1.325   6.116   4.515
 4550SOL    HW114549   1.417   6.086   4.492
 4550SOL    HW214550   1.290   6.062   4.591
 4551SOL     OW14551   0.619   2.823   5.803
 4551SOL    HW114552   0.681   2.845   5.879
 4551SOL    HW214553   0.611   2.902   5.742
 4552SOL     OW14554   7.021   3.394   4.524
 4552SOL    HW114555   0.027   3.340   4.446
 4552SOL    HW214556   0.039   3.482   4.526
 4553SOL     OW14557   4.765   4.662   0.424
 4553SOL    HW114558   4.759   4.755   0.461
 4553SOL    HW214559   4.849   4.619   0.456
 4554SOL     OW14560   5.110   6.943   2.801
 4554SOL    HW114561   5.168   6.953   2.720
 4554SOL    HW214562   5.023   6.903   2.775
 4555SOL     OW14563   5.366   1.589   6.943
 4555SOL    HW114564   5.286   1.643   6.919
 4555SOL    HW214565   5.448   1.647   6.939
 4556SOL     OW14566   4.982   0.915   4.146
 4556SOL    HW114567   4.885   0.933   4.135
 4556SOL    HW214568   4.996   0.855   4.225
 4557SOL     OW14569   5.086   0.396   5.724
 4557SOL    HW114570   5.053   0.385   5.630
 4557SOL    HW214571   5.088   0.307   5.769
 4558SOL     OW14572   6.231   3.074   6.323
 4558SOL    HW114573   6.134   3.096   6.319
 4558SOL    HW214574   6.255   3.045   6.416
 4559SOL     OW14575   1.108   6.794   0.921
 4559SOL    HW114576   1.027   6.780   0.977
 4559SOL    HW214577   1.137   6.890   0.930
 4560SOL     OW14578   4.793   2.864   2.537
 4560SOL    HW114579   4.746   2.838   2.452
 4560SOL    HW214580   4.798   2.964   2.543
 4561SOL     OW14581   2.823   6.988   6.664
 4561SOL    HW114582   2.846   6.891   6.662
 4561SOL    HW214583   2.872   0.005   6.738
 4562SOL     OW14584   2.977   5.231   6.111
 4562SOL    HW114585   2.923   5.173   6.050
 4562SOL    HW214586   2.917   5.280   6.173
 4563SOL     OW14587   5.897   2.047   6.557
 4563SOL    HW114588   5.886   2.144   6.578
 4563SOL    HW214589   5.844   2.025   6.475
 4564SOL     OW14590   1.333   5.835   0.180
 4564SOL    HW114591   1.237   5.809   0.177
 4564SOL    HW214592   1.341   5.932   0.200
 4565SOL     OW14593   2.159   0.481   4.962
 4565SOL    HW114594   2.240   0.490   4.902
 4565SOL    HW214595   2.184   0.508   5.055
 4566SOL     OW14596   0.129   1.790   7.000
 4566SOL    HW114597   0.207   1.848   7.023
 4566SOL    HW214598   0.055   1.847   6.964
 4567SOL     OW14599   6.752   1.278   0.745
 4567SOL    HW114600   6.736   1.353   0.681
 4567SOL    HW214601   6.775   1.315   0.835
 4568SOL     OW14602   3.467   4.721   5.332
 4568SOL    HW114603   3.419   4.637   5.359
 4568SOL    HW214604   3.414   4.769   5.262
 4569SOL     OW14605   0.318   2.015   4.790
 4569SOL    HW114606   0.292   2.110   4.779
 4569SOL    HW214607   0.320   1.992   4.887
 4570SOL     OW14608   0.178   5.047   4.318
 4570SOL    HW114609   0.131   5.134   4.327
 4570SOL    HW214610   0.110   4.974   4.305
 4571SOL     OW14611   3.666   2.900   4.734
 4571SOL    HW114612   3.678   2.817   4.788
 4571SOL    HW214613   3.749   2.957   4.742
 4572SOL     OW14614   1.886   5.926   0.994
 4572SOL    HW114615   1.872   5.986   0.915
 4572SOL    HW214616   1.958   5.859   0.972
 4573SOL     OW14617   5.366   7.025   0.985
 4573SOL    HW114618   5.380   0.090   0.953
 4573SOL    HW214619   5.442   6.997   1.043
 4574SOL     OW14620   0.481   3.946   2.516
 4574SOL    HW114621   0.501   3.852   2.544
 4574SOL    HW214622   0.561   3.984   2.469
 4575SOL     OW14623   6.235   0.181   2.756
 4575SOL    HW114624   6.193   0.268   2.731
 4575SOL    HW214625   6.174   0.106   2.732
 4576SOL     OW14626   2.992   5.891   5.399
 4576SOL    HW114627   3.084   5.860   5.377
 4576SOL    HW214628   2.965   5.962   5.334
 4577SOL     OW14629   1.073   2.894   3.531
 4577SOL    HW114630   1.069   2.847   3.619
 4577SOL    HW214631   1.008   2.851   3.467
 4578SOL     OW14632   6.817   4.016   4.010
 4578SOL    HW114633   6.864   3.947   4.064
 4578SOL    HW214634   6.843   4.107   4.042
 4579SOL     OW14635   5.321   1.731   3.914
 4579SOL    HW114636   5.402   1.789   3.924
 4579SOL    HW214637   5.254   1.756   3.984
 4580SOL     OW14638   6.834   5.494   0.448
 4580SOL    HW114639   6.849   5.520   0.353
 4580SOL    HW214640   6.779   5.411   0.452
 4581SOL     OW14641   3.423   5.653   2.889
 4581SOL    HW114642   3.446   5.686   2.798
 4581SOL    HW214643   3.324   5.639   2.895
 4582SOL     OW14644   4.373   6.681   2.299
 4582SOL    HW114645   4.393   6.777   2.317
 4582SOL    HW214646   4.366   6.632   2.386
 4583SOL     OW14647   4.724   1.661   5.375
 4583SOL    HW114648   4.696   1.676   5.280
 4583SOL    HW214649   4.644   1.652   5.433
 4584SOL     OW14650   0.303   5.066   5.334
 4584SOL    HW114651   0.325   5.092   5.240
 4584SOL    HW214652   0.302   5.148   5.392
 4585SOL     OW14653   4.260   6.676   2.568
 4585SOL    HW114654   4.331   6.651   2.635
 4585SOL    HW214655   4.194   6.601   2.560
 4586SOL     OW14656   3.263   5.558   1.892
 4586SOL    HW114657   3.351   5.585   1.932
 4586SOL    HW214658   3.209   5.511   1.961
 4587SOL     OW14659   2.324   4.145   1.201
 4587SOL    HW114660   2.260   4.164   1.275
 4587SOL    HW214661   2.350   4.231   1.157
 4588SOL     OW14662   4.286   3.756   5.289
 4588SOL    HW114663   4.287   3.681   5.223
 4588SOL    HW214664   4.215   3.821   5.265
 4589SOL     OW14665   6.827   1.914   4.433
 4589SOL    HW114666   6.817   1.873   4.524
 4589SOL    HW214667   6.886   1.855   4.377
 4590SOL     OW14668   4.941   5.562   2.706
 4590SOL    HW114669   4.842   5.555   2.712
 4590SOL    HW214670   4.966   5.644   2.655
 4591SOL     OW14671   5.438   5.880   5.348
 4591SOL    HW114672   5.338   5.880   5.340
 4591SOL    HW214673   5.464   5.894   5.443
 4592SOL     OW14674   4.154   2.096   6.160
 4592SOL    HW114675   4.072   2.134   6.116
 4592SOL    HW214676   4.235   2.142   6.123
 4593SOL     OW14677   3.597   6.027   2.327
 4593SOL    HW114678   3.536   6.099   2.294
 4593SOL    HW214679   3.692   6.051   2.305
 4594SOL     OW14680   2.753   0.992   2.209
 4594SOL    HW114681   2.818   0.918   2.227
 4594SOL    HW214682   2.689   0.964   2.138
 4595SOL     OW14683   4.487   2.331   5.601
 4595SOL    HW114684   4.409   2.336   5.663
 4595SOL    HW214685   4.532   2.420   5.597
 4596SOL     OW14686   5.973   7.023   1.600
 4596SOL    HW114687   6.030   6.988   1.674
 4596SOL    HW214688   6.022   0.068   1.552
 4597SOL     OW14689   6.302   4.743   6.842
 4597SOL    HW114690   6.373   4.812   6.826
 4597SOL    HW214691   6.281   4.696   6.756
 4598SOL     OW14692   3.239   4.934   0.062
 4598SOL    HW114693   3.158   4.928   0.004
 4598SOL    HW214694   3.305   4.998   0.022
 4599SOL     OW14695   1.366   4.579   0.784
 4599SOL    HW114696   1.381   4.671   0.748
 4599SOL    HW214697   1.335   4.585   0.879
 4600SOL     OW14698   3.099   5.451   1.282
 4600SOL    HW114699   3.031   5.525   1.278
 4600SOL    HW214700   3.053   5.365   1.301
 4601SOL     OW14701   1.792   6.156   5.106
 4601SOL    HW114702   1.737   6.239   5.098
 4601SOL    HW214703   1.821   6.144   5.201
 4602SOL     OW14704   1.753   0.468   1.138
 4602SOL    HW114705   1.819   0.532   1.178
 4602SOL    HW214706   1.710   0.510   1.059
 4603SOL     OW14707   3.442   6.984   1.882
 4603SOL    HW114708   3.442   0.017   1.803
 4603SOL    HW214709   3.439   6.889   1.851
 4604SOL     OW14710   3.415   6.720   2.231
 4604SOL    HW114711   3.369   6.639   2.196
 4604SOL    HW214712   3.347   6.786   2.261
 4605SOL     OW14713   4.995   0.358   5.449
 4605SOL    HW114714   4.999   0.263   5.418
 4605SOL    HW214715   5.018   0.419   5.373
 4606SOL     OW14716   6.955   6.259   5.379
 4606SOL    HW114717   6.979   6.162   5.383
 4606SOL    HW214718   6.984   6.304   5.463
 4607SOL     OW14719   2.486   2.336   1.017
 4607SOL    HW114720   2.566   2.308   1.071
 4607SOL    HW214721   2.443   2.415   1.060
 4608SOL     OW14722   1.563   3.634   5.722
 4608SOL    HW114723   1.568   3.687   5.806
 4608SOL    HW214724   1.607   3.545   5.735
 4609SOL     OW14725   4.569   6.756   6.031
 4609SOL    HW114726   4.539   6.829   6.092
 4609SOL    HW214727   4.600   6.678   6.084
 4610SOL     OW14728   0.608   3.089   6.285
 4610SOL    HW114729   0.577   3.007   6.236
 4610SOL    HW214730   0.549   3.104   6.364
 4611SOL     OW14731   1.085   3.803   0.239
 4611SOL    HW114732   1.092   3.902   0.234
 4611SOL    HW214733   1.100   3.763   0.149
 4612SOL     OW14734   2.030   0.135   6.381
 4612SOL    HW114735   1.955   0.097   6.434
 4612SOL    HW214736   2.117   0.110   6.423
 4613SOL     OW14737   3.054   5.434   2.061
 4613SOL    HW114738   3.089   5.352   2.106
 4613SOL    HW214739   2.956   5.426   2.047
 4614SOL     OW14740   1.821   5.524   0.378
 4614SOL    HW114741   1.901   5.530   0.438
 4614SOL    HW214742   1.811   5.429   0.347
 4615SOL     OW14743   0.030   2.388   0.589
 4615SOL    HW114744   0.056   2.344   0.504
 4615SOL    HW214745   0.038   2.323   0.665
 4616SOL     OW14746   5.688   1.011   6.590
 4616SOL    HW114747   5.704   0.988   6.686
 4616SOL    HW214748   5.753   0.961   6.533
 4617SOL     OW14749   0.042   2.814   1.904
 4617SOL    HW114750   0.077   2.721   1.908
 4617SOL    HW214751   6.980   2.818   1.947
 4618SOL     OW14752   1.020   1.989   6.022
 4618SOL    HW114753   0.978   2.073   5.987
 4618SOL    HW214754   0.948   1.921   6.038
 4619SOL     OW14755   3.376   0.894   3.585
 4619SOL    HW114756   3.316   0.898   3.665
 4619SOL    HW214757   3.408   0.801   3.572
 4620SOL     OW14758   2.130   3.983   6.566
 4620SOL    HW114759   2.098   3.981   6.472
 4620SOL    HW214760   2.218   3.935   6.573
 4621SOL     OW14761   0.283   5.881   6.122
 4621SOL    HW114762   0.383   5.885   6.122
 4621SOL    HW214763   0.246   5.969   6.150
 4622SOL     OW14764   2.340   3.624   1.058
 4622SOL    HW114765   2.275   3.629   0.982
 4622SOL    HW214766   2.366   3.716   1.087
 4623SOL     OW14767   5.967   4.509   2.199
 4623SOL    HW114768   5.906   4.432   2.220
 4623SOL    HW214769   5.938   4.552   2.113
 4624SOL     OW14770   4.679   0.149   5.523
 4624SOL    HW114771   4.761   0.125   5.472
 4624SOL    HW214772   4.627   0.066   5.545
 4625SOL     OW14773   0.636   3.169   6.681
 4625SOL    HW114774   0.709   3.228   6.646
 4625SOL    HW214775   0.581   3.219   6.748
 4626SOL     OW14776   6.249   5.043   1.509
 4626SOL    HW114777   6.228   5.040   1.411
 4626SOL    HW214778   6.178   5.095   1.556
 4627SOL     OW14779   2.566   0.353   6.596
 4627SOL    HW114780   2.593   0.284   6.528
 4627SOL    HW214781   2.466   0.363   6.596
 4628SOL     OW14782   0.205   3.863   1.846
 4628SOL    HW114783   0.107   3.886   1.838
 4628SOL    HW214784   0.248   3.927   1.909
 4629SOL     OW14785   2.927   4.849   5.660
 4629SOL    HW114786   3.005   4.820   5.605
 4629SOL    HW214787   2.957   4.870   5.753
 4630SOL     OW14788   1.883   0.005   2.858
 4630SOL    HW114789   1.858   6.963   2.925
 4630SOL    HW214790   1.944   0.072   2.901
 4631SOL     OW14791   2.992   0.053   2.248
 4631SOL    HW114792   2.972   0.037   2.151
 4631SOL    HW214793   3.078   0.008   2.272
 4632SOL     OW14794   4.998   5.425   4.101
 4632SOL    HW114795   5.033   5.341   4.059
 4632SOL    HW214796   4.905   5.442   4.068
 4633SOL     OW14797   6.172   1.999   5.051
 4633SOL    HW114798   6.089   1.993   5.107
 4633SOL    HW214799   6.209   2.091   5.059
 4634SOL     OW14800   2.974   4.596   0.700
 4634SOL    HW114801   2.911   4.562   0.630
 4634SOL    HW214802   2.968   4.539   0.781
 4635SOL     OW14803   5.563   3.981   1.556
 4635SOL    HW114804   5.511   4.061   1.584
 4635SOL    HW214805   5.614   4.001   1.472
 4636SOL     OW14806   2.132   5.430   0.841
 4636SOL    HW114807   2.102   5.523   0.818
 4636SOL    HW214808   2.072   5.392   0.911
 4637SOL     OW14809   1.517   1.081   5.453
 4637SOL    HW114810   1.507   0.994   5.404
 4637SOL    HW214811   1.580   1.140   5.402
 4638SOL     OW14812   5.135   3.510   6.027
 4638SOL    HW114813   5.040   3.512   6.058
 4638SOL    HW214814   5.149   3.581   5.957
 4639SOL     OW14815   6.854   3.550   5.418
 4639SOL    HW114816   6.836   3.647   5.404
 4639SOL    HW214817   6.895   3.511   5.336
 4640SOL     OW14818   5.869   4.216   2.788
 4640SOL    HW114819   5.928   4.247   2.713
 4640SOL    HW214820   5.825   4.295   2.830
 4641SOL     OW14821   2.321   4.703   5.658
 4641SOL    HW114822   2.289   4.677   5.567
 4641SOL    HW214823   2.363   4.623   5.702
 4642SOL     OW14824   5.835   6.133   4.415
 4642SOL    HW114825   5.811   6.063   4.348
 4642SOL    HW214826   5.894   6.093   4.485
 4643SOL     OW14827   4.021   2.804   1.214
 4643SOL    HW114828   4.002   2.902   1.209
 4643SOL    HW214829   3.945   2.753   1.172
 4644SOL     OW14830   2.133   5.298   4.944
 4644SOL    HW114831   2.222   5.260   4.917
 4644SOL    HW214832   2.142   5.397   4.955
 4645SOL     OW14833   1.645   6.067   4.917
 4645SOL    HW114834   1.628   5.971   4.938
 4645SOL    HW214835   1.697   6.109   4.991
 4646SOL     OW14836   3.601   0.645   1.549
 4646SOL    HW114837   3.537   0.572   1.572
 4646SOL    HW214838   3.598   0.661   1.450
 4647SOL     OW14839   6.347   0.147   4.985
 4647SOL    HW114840   6.307   0.113   4.899
 4647SOL    HW214841   6.381   0.070   5.039
 4648SOL     OW14842   2.167   5.785   2.828
 4648SOL    HW114843   2.211   5.748   2.747
 4648SOL    HW214844   2.101   5.719   2.864
 4649SOL     OW14845   5.133   0.146   5.853
 4649SOL    HW114846   5.056   0.162   5.915
 4649SOL    HW214847   5.204   0.094   5.900
 4650SOL     OW14848   6.853   4.722   2.043
 4650SOL    HW114849   6.875   4.655   2.114
 4650SOL    HW214850   6.862   4.815   2.080
 4651SOL     OW14851   0.376   2.129   1.153
 4651SOL    HW114852   0.348   2.175   1.237
 4651SOL    HW214853   0.324   2.044   1.141
 4652SOL     OW14854   0.190   6.120   6.183
 4652SOL    HW114855   0.098   6.159   6.192
 4652SOL    HW214856   0.257   6.194   6.178
 4653SOL     OW14857   0.597   5.808   6.917
 4653SOL    HW114858   0.605   5.743   6.992
 4653SOL    HW214859   0.574   5.898   6.953
 4654SOL     OW14860   1.088   1.401   6.971
 4654SOL    HW114861   1.063   1.483   7.021
 4654SOL    HW214862   1.168   1.359   7.015
 4655SOL     OW14863   0.364   5.023   3.481
 4655SOL    HW114864   0.405   4.949   3.534
 4655SOL    HW214865   0.318   5.087   3.543
 4656SOL     OW14866   1.846   6.754   3.313
 4656SOL    HW114867   1.751   6.724   3.305
 4656SOL    HW214868   1.865   6.779   3.408
 4657SOL     OW14869   6.069   0.196   0.068
 4657SOL    HW114870   6.023   0.267   0.121
 4657SOL    HW214871   6.168   0.207   0.075
 4658SOL     OW14872   5.382   0.650   3.141
 4658SOL    HW114873   5.462   0.673   3.196
 4658SOL    HW214874   5.404   0.573   3.080
 4659SOL     OW14875   2.114   2.367   4.504
 4659SOL    HW114876   2.030   2.421   4.498
 4659SOL    HW214877   2.116   2.316   4.590
 4660SOL     OW14878   0.111   0.771   5.685
 4660SOL    HW114879   0.172   0.758   5.762
 4660SOL    HW214880   0.083   0.681   5.649
 4661SOL     OW14881   4.127   3.552   3.427
 4661SOL    HW114882   4.087   3.632   3.382
 4661SOL    HW214883   4.135   3.478   3.360
 4662SOL     OW14884   4.726   0.637   4.708
 4662SOL    HW114885   4.789   0.563   4.734
 4662SOL    HW214886   4.632   0.606   4.723
 4663SOL     OW14887   0.417   1.935   2.475
 4663SOL    HW114888   0.328   1.916   2.436
 4663SOL    HW214889   0.486   1.874   2.436
 4664SOL     OW14890   3.115   2.421   6.855
 4664SOL    HW114891   3.131   2.397   6.951
 4664SOL    HW214892   3.026   2.388   6.826
 4665SOL     OW14893   5.784   0.642   0.140
 4665SOL    HW114894   5.856   0.711   0.131
 4665SOL    HW214895   5.757   0.611   0.049
 4666SOL     OW14896   1.728   1.249   0.707
 4666SOL    HW114897   1.677   1.213   0.785
 4666SOL    HW214898   1.826   1.240   0.724
 4667SOL     OW14899   0.644   5.517   5.737
 4667SOL    HW114900   0.605   5.498   5.827
 4667SOL    HW214901   0.728   5.570   5.747
 4668SOL     OW14902   5.707   1.734   4.328
 4668SOL    HW114903   5.800   1.763   4.303
 4668SOL    HW214904   5.684   1.650   4.279
 4669SOL     OW14905   2.684   0.645   0.688
 4669SOL    HW114906   2.625   0.603   0.620
 4669SOL    HW214907   2.684   0.589   0.771
 4670SOL     OW14908   2.058   1.588   4.393
 4670SOL    HW114909   2.127   1.610   4.325
 4670SOL    HW214910   2.023   1.672   4.434
 4671SOL     OW14911   5.690   3.733   1.368
 4671SOL    HW114912   5.640   3.800   1.314
 4671SOL    HW214913   5.689   3.644   1.321
 4672SOL     OW14914   2.428   3.601   5.654
 4672SOL    HW114915   2.422   3.511   5.697
 4672SOL    HW214916   2.464   3.592   5.561
 4673SOL     OW14917   3.752   0.707   2.842
 4673SOL    HW114918   3.837   0.676   2.884
 4673SOL    HW214919   3.738   0.661   2.755
 4674SOL     OW14920   4.233   6.450   6.245
 4674SOL    HW114921   4.303   6.458   6.173
 4674SOL    HW214922   4.233   6.532   6.301
 4675SOL     OW14923   1.404   4.091   6.669
 4675SOL    HW114924   1.401   4.188   6.694
 4675SOL    HW214925   1.311   4.054   6.667
 4676SOL     OW14926   0.951   5.356   4.197
 4676SOL    HW114927   0.916   5.388   4.285
 4676SOL    HW214928   0.876   5.316   4.144
 4677SOL     OW14929   1.329   3.361   0.287
 4677SOL    HW114930   1.321   3.419   0.368
 4677SOL    HW214931   1.413   3.308   0.292
 4678SOL     OW14932   2.759   4.732   2.403
 4678SOL    HW114933   2.754   4.632   2.412
 4678SOL    HW214934   2.806   4.755   2.318
 4679SOL     OW14935   4.972   0.034   1.404
 4679SOL    HW114936   4.968   0.002   1.499
 4679SOL    HW214937   4.887   0.079   1.380
 4680SOL     OW14938   2.057   1.134   1.367
 4680SOL    HW114939   2.081   1.069   1.439
 4680SOL    HW214940   2.071   1.092   1.277
 4681SOL     OW14941   4.780   5.258   1.480
 4681SOL    HW114942   4.871   5.276   1.518
 4681SOL    HW214943   4.777   5.289   1.386
 4682SOL     OW14944   3.653   3.941   0.034
 4682SOL    HW114945   3.565   3.916   7.021
 4682SOL    HW214946   3.674   4.037   0.012
 4683SOL     OW14947   6.504   4.435   3.622
 4683SOL    HW114948   6.580   4.391   3.575
 4683SOL    HW214949   6.514   4.535   3.616
 4684SOL     OW14950   5.646   6.942   0.158
 4684SOL    HW114951   5.569   6.933   0.096
 4684SOL    HW214952   5.618   6.993   0.239
 4685SOL     OW14953   3.102   3.589   5.648
 4685SOL    HW114954   3.031   3.538   5.598
 4685SOL    HW214955   3.066   3.678   5.676
 4686SOL     OW14956   3.138   5.368   0.323
 4686SOL    HW114957   3.218   5.396   0.377
 4686SOL    HW214958   3.164   5.295   0.260
 4687SOL     OW14959   3.074   0.861   2.868
 4687SOL    HW114960   3.013   0.922   2.819
 4687SOL    HW214961   3.163   0.859   2.823
 4688SOL     OW14962   5.878   3.009   5.711
 4688SOL    HW114963   5.882   3.109   5.710
 4688SOL    HW214964   5.857   2.976   5.619
 4689SOL     OW14965   5.694   0.711   2.108
 4689SOL    HW114966   5.752   0.753   2.178
 4689SOL    HW214967   5.602   0.750   2.112
 4690SOL     OW14968   2.301   2.196   0.408
 4690SOL    HW114969   2.304   2.161   0.502
 4690SOL    HW214970   2.211   2.176   0.369
 4691SOL     OW14971   0.188   4.312   1.992
 4691SOL    HW114972   0.162   4.318   2.088
 4691SOL    HW214973   0.107   4.321   1.934
 4692SOL     OW14974   5.466   3.714   2.072
 4692SOL    HW114975   5.428   3.636   2.023
 4692SOL    HW214976   5.392   3.776   2.098
 4693SOL     OW14977   1.621   1.318   3.915
 4693SOL    HW114978   1.689   1.246   3.921
 4693SOL    HW214979   1.563   1.317   3.996
 4694SOL     OW14980   1.988   0.845   0.116
 4694SOL    HW114981   1.914   0.870   0.178
 4694SOL    HW214982   1.969   0.882   0.025
 4695SOL     OW14983   1.271   5.989   1.815
 4695SOL    HW114984   1.230   6.073   1.779
 4695SOL    HW214985   1.353   5.966   1.762
 4696SOL     OW14986   1.584   5.402   5.826
 4696SOL    HW114987   1.566   5.482   5.768
 4696SOL    HW214988   1.572   5.427   5.922
 4697SOL     OW14989   3.897   4.703   0.890
 4697SOL    HW114990   3.925   4.617   0.932
 4697SOL    HW214991   3.843   4.684   0.808
 4698SOL     OW14992   5.516   1.081   3.393
 4698SOL    HW114993   5.464   1.033   3.464
 4698SOL    HW214994   5.509   1.179   3.407
 4699SOL     OW14995   1.215   0.104   2.767
 4699SOL    HW114996   1.292   0.149   2.812
 4699SOL    HW214997   1.178   0.165   2.697
 4700SOL     OW14998   6.253   2.338   2.464
 4700SOL    HW114999   6.278   2.260   2.522
 4700SOL    HW215000   6.324   2.408   2.470
 4701SOL     OW15001   3.186   2.284   1.725
 4701SOL    HW115002   3.150   2.270   1.633
 4701SOL    HW215003   3.276   2.327   1.720
 4702SOL     OW15004   5.399   4.447   6.692
 4702SOL    HW115005   5.495   4.461   6.718
 4702SOL    HW215006   5.395   4.397   6.605
 4703SOL     OW15007   0.719   5.100   3.547
 4703SOL    HW115008   0.712   5.144   3.636
 4703SOL    HW215009   0.643   5.131   3.489
 4704SOL     OW15010   1.211   4.783   5.148
 4704SOL    HW115011   1.151   4.753   5.221
 4704SOL    HW215012   1.156   4.826   5.076
 4705SOL     OW15013   3.438   2.367   1.643
 4705SOL    HW115014   3.497   2.351   1.722
 4705SOL    HW215015   3.471   2.314   1.565
 4706SOL     OW15016   2.055   0.913   0.663
 4706SOL    HW115017   2.006   0.902   0.576
 4706SOL    HW215018   2.067   0.824   0.706
 4707SOL     OW15019   1.523   6.320   1.600
 4707SOL    HW115020   1.443   6.379   1.611
 4707SOL    HW215021   1.516   6.272   1.512
 4708SOL     OW15022   0.904   2.783   4.645
 4708SOL    HW115023   0.839   2.765   4.572
 4708SOL    HW215024   0.997   2.776   4.608
 4709SOL     OW15025   4.816   3.822   5.246
 4709SOL    HW115026   4.827   3.869   5.158
 4709SOL    HW215027   4.764   3.738   5.232
 4710SOL     OW15028   6.606   6.201   4.594
 4710SOL    HW115029   6.650   6.271   4.538
 4710SOL    HW215030   6.580   6.124   4.535
 4711SOL     OW15031   5.494   3.316   3.166
 4711SOL    HW115032   5.463   3.405   3.133
 4711SOL    HW215033   5.415   3.256   3.181
 4712SOL     OW15034   4.743   4.031   5.418
 4712SOL    HW115035   4.647   4.002   5.425
 4712SOL    HW215036   4.792   3.968   5.358
 4713SOL     OW15037   6.410   4.393   1.150
 4713SOL    HW115038   6.380   4.301   1.175
 4713SOL    HW215039   6.361   4.424   1.069
 4714SOL     OW15040   5.307   1.343   6.445
 4714SOL    HW115041   5.279   1.439   6.453
 4714SOL    HW215042   5.282   1.309   6.354
 4715SOL     OW15043   6.352   1.344   2.360
 4715SOL    HW115044   6.442   1.302   2.368
 4715SOL    HW215045   6.330   1.392   2.445
 4716SOL     OW15046   4.071   4.814   6.160
 4716SOL    HW115047   4.109   4.884   6.221
 4716SOL    HW215048   4.056   4.854   6.069
 4717SOL     OW15049   2.595   5.199   5.541
 4717SOL    HW115050   2.543   5.240   5.467
 4717SOL    HW215051   2.566   5.239   5.628
 4718SOL     OW15052   4.517   3.939   0.608
 4718SOL    HW115053   4.564   3.926   0.695
 4718SOL    HW215054   4.428   3.894   0.610
 4719SOL     OW15055   0.282   3.740   4.058
 4719SOL    HW115056   0.203   3.708   4.112
 4719SOL    HW215057   0.249   3.789   3.978
 4720SOL     OW15058   2.268   3.629   0.045
 4720SOL    HW115059   2.172   3.641   0.071
 4720SOL    HW215060   2.292   3.694   7.001
 4721SOL     OW15061   6.114   2.956   3.425
 4721SOL    HW115062   6.088   2.980   3.518
 4721SOL    HW215063   6.073   2.869   3.400
 4722SOL     OW15064   1.273   4.924   0.034
 4722SOL    HW115065   1.295   5.021   0.044
 4722SOL    HW215066   1.175   4.914   0.016
 4723SOL     OW15067   3.987   4.059   6.936
 4723SOL    HW115068   3.901   4.106   6.953
 4723SOL    HW215069   3.986   3.970   6.982
 4724SOL     OW15070   0.802   6.681   4.819
 4724SOL    HW115071   0.855   6.613   4.769
 4724SOL    HW215072   0.862   6.759   4.842
 4725SOL     OW15073   4.803   5.865   0.276
 4725SOL    HW115074   4.848   5.874   0.365
 4725SOL    HW215075   4.844   5.789   0.226
 4726SOL     OW15076   1.150   3.192   5.804
 4726SOL    HW115077   1.102   3.262   5.856
 4726SOL    HW215078   1.139   3.209   5.706
 4727SOL     OW15079   0.465   5.790   1.218
 4727SOL    HW115080   0.461   5.712   1.280
 4727SOL    HW215081   0.454   5.758   1.124
 4728SOL     OW15082   6.631   1.881   4.712
 4728SOL    HW115083   6.547   1.892   4.658
 4728SOL    HW215084   6.626   1.796   4.764
 4729SOL     OW15085   5.844   1.451   2.003
 4729SOL    HW115086   5.774   1.468   1.934
 4729SOL    HW215087   5.820   1.499   2.087
 4730SOL     OW15088   3.383   0.045   4.413
 4730SOL    HW115089   3.452   0.114   4.434
 4730SOL    HW215090   3.402   6.990   4.464
 4731SOL     OW15091   3.376   6.893   0.389
 4731SOL    HW115092   3.458   6.905   0.334
 4731SOL    HW215093   3.339   6.982   0.414
 4732SOL     OW15094   0.597   4.811   4.410
 4732SOL    HW115095   0.636   4.859   4.332
 4732SOL    HW215096   0.626   4.856   4.495
 4733SOL     OW15097   1.889   3.693   3.717
 4733SOL    HW115098   1.933   3.609   3.682
 4733SOL    HW215099   1.851   3.744   3.640
 4734SOL     OW15100   4.640   3.278   0.327
 4734SOL    HW115101   4.593   3.328   0.254
 4734SOL    HW215102   4.602   3.185   0.334
 4735SOL     OW15103   6.978   0.191   5.186
 4735SOL    HW115104   6.879   0.204   5.187
 4735SOL    HW215105   7.020   0.261   5.128
 4736SOL     OW15106   6.445   2.154   3.769
 4736SOL    HW115107   6.426   2.215   3.693
 4736SOL    HW215108   6.360   2.110   3.799
 4737SOL     OW15109   2.264   5.012   0.748
 4737SOL    HW115110   2.265   4.917   0.781
 4737SOL    HW215111   2.202   5.018   0.670
 4738SOL     OW15112   1.858   6.333   3.826
 4738SOL    HW115113   1.844   6.268   3.901
 4738SOL    HW215114   1.834   6.425   3.857
 4739SOL     OW15115   5.776   3.512   3.597
 4739SOL    HW115116   5.820   3.511   3.687
 4739SOL    HW215117   5.754   3.418   3.571
 4740SOL     OW15118   0.928   1.107   1.828
 4740SOL    HW115119   0.830   1.092   1.839
 4740SOL    HW215120   0.943   1.192   1.778
 4741SOL     OW15121   4.333   4.477   1.778
 4741SOL    HW115122   4.356   4.383   1.801
 4741SOL    HW215123   4.319   4.529   1.862
 4742SOL     OW15124   2.496   6.037   2.061
 4742SOL    HW115125   2.533   6.125   2.030
 4742SOL    HW215126   2.565   5.988   2.113
 4743SOL     OW15127   2.542   2.566   0.177
 4743SOL    HW115128   2.579   2.657   0.192
 4743SOL    HW215129   2.497   2.534   0.261
 4744SOL     OW15130   1.940   3.196   5.405
 4744SOL    HW115131   1.858   3.164   5.359
 4744SOL    HW215132   1.975   3.277   5.357
 4745SOL     OW15133   2.821   5.868   4.801
 4745SOL    HW115134   2.837   5.954   4.753
 4745SOL    HW215135   2.759   5.811   4.747
 4746SOL     OW15136   5.945   0.658   0.483
 4746SOL    HW115137   6.015   0.623   0.420
 4746SOL    HW215138   5.976   0.745   0.521
 4747SOL     OW15139   6.057   2.511   1.655
 4747SOL    HW115140   6.122   2.435   1.656
 4747SOL    HW215141   5.974   2.482   1.608
 4748SOL     OW15142   1.405   0.524   1.671
 4748SOL    HW115143   1.417   0.600   1.735
 4748SOL    HW215144   1.376   0.559   1.582
 4749SOL     OW15145   1.832   6.898   6.937
 4749SOL    HW115146   1.742   6.883   6.896
 4749SOL    HW215147   1.824   6.899   0.009
 4750SOL     OW15148   0.329   0.878   4.380
 4750SOL    HW115149   0.236   0.897   4.409
 4750SOL    HW215150   0.385   0.853   4.459
 4751SOL     OW15151   0.909   3.789   6.805
 4751SOL    HW115152   0.886   3.770   6.710
 4751SOL    HW215153   0.833   3.764   6.864
 4752SOL     OW15154   2.649   5.804   1.456
 4752SOL    HW115155   2.711   5.797   1.534
 4752SOL    HW215156   2.645   5.717   1.408
 4753SOL     OW15157   6.728   6.912   5.145
 4753SOL    HW115158   6.750   6.975   5.220
 4753SOL    HW215159   6.793   6.924   5.071
 4754SOL     OW15160   0.934   0.181   5.592
 4754SOL    HW115161   0.922   0.253   5.522
 4754SOL    HW215162   0.908   0.218   5.681
 4755SOL     OW15163   2.527   2.149   0.001
 4755SOL    HW115164   2.470   2.220   0.042
 4755SOL    HW215165   2.566   2.092   0.073
 4756SOL     OW15166   5.416   2.854   1.358
 4756SOL    HW115167   5.358   2.830   1.436
 4756SOL    HW215168   5.443   2.950   1.365
 4757SOL     OW15169   1.905   2.175   1.131
 4757SOL    HW115170   1.956   2.130   1.058
 4757SOL    HW215171   1.947   2.153   1.219
 4758SOL     OW15172   5.306   4.595   5.362
 4758SOL    HW115173   5.300   4.693   5.385
 4758SOL    HW215174   5.246   4.543   5.423
 4759SOL     OW15175   5.777   5.086   5.481
 4759SOL    HW115176   5.752   5.047   5.570
 4759SOL    HW215177   5.805   5.013   5.419
 4760SOL     OW15178   1.346   2.043   0.910
 4760SOL    HW115179   1.414   1.972   0.890
 4760SOL    HW215180   1.263   2.025   0.857
 4761SOL     OW15181   0.886   6.379   5.959
 4761SOL    HW115182   0.887   6.305   6.027
 4761SOL    HW215183   0.978   6.390   5.921
 4762SOL     OW15184   2.821   5.944   2.403
 4762SOL    HW115185   2.786   5.958   2.496
 4762SOL    HW215186   2.914   5.979   2.396
 4763SOL     OW15187   5.813   5.551   4.369
 4763SOL    HW115188   5.871   5.589   4.297
 4763SOL    HW215189   5.742   5.494   4.328
 4764SOL     OW15190   3.637   3.468   3.974
 4764SOL    HW115191   3.589   3.509   4.052
 4764SOL    HW215192   3.677   3.541   3.918
 4765SOL     OW15193   5.628   5.391   5.121
 4765SOL    HW115194   5.536   5.390   5.083
 4765SOL    HW215195   5.694   5.401   5.046
 4766SOL     OW15196   3.309   0.646   2.900
 4766SOL    HW115197   3.286   0.662   2.996
 4766SOL    HW215198   3.382   0.708   2.872
 4767SOL     OW15199   4.242   5.562   6.390
 4767SOL    HW115200   4.147   5.530   6.385
 4767SOL    HW215201   4.243   5.662   6.390
 4768SOL     OW15202   0.094   0.661   5.100
 4768SOL    HW115203   0.022   0.621   5.042
 4768SOL    HW215204   0.098   0.610   5.187
 4769SOL     OW15205   3.613   0.102   1.497
 4769SOL    HW115206   3.618   0.028   1.430
 4769SOL    HW215207   3.705   0.137   1.515
 4770SOL     OW15208   2.552   0.144   3.333
 4770SOL    HW115209   2.508   0.226   3.370
 4770SOL    HW215210   2.511   0.121   3.244
 4771SOL     OW15211   3.847   4.155   5.463
 4771SOL    HW115212   3.759   4.201   5.465
 4771SOL    HW215213   3.921   4.222   5.471
 4772SOL     OW15214   2.375   2.508   1.362
 4772SOL    HW115215   2.338   2.545   1.447
 4772SOL    HW215216   2.469   2.539   1.351
 4773SOL     OW15217   6.934   6.307   3.912
 4773SOL    HW115218   6.932   6.212   3.944
 4773SOL    HW215219   7.024   6.327   3.874
 4774SOL     OW15220   0.609   4.351   1.325
 4774SOL    HW115221   0.635   4.264   1.283
 4774SOL    HW215222   0.564   4.335   1.412
 4775SOL     OW15223   3.591   1.077   1.415
 4775SOL    HW115224   3.556   1.142   1.483
 4775SOL    HW215225   3.659   1.018   1.457
 4776SOL     OW15226   3.232   5.854   1.826
 4776SOL    HW115227   3.244   5.763   1.866
 4776SOL    HW215228   3.288   5.920   1.875
 4777SOL     OW15229   3.109   4.397   1.311
 4777SOL    HW115230   3.098   4.489   1.347
 4777SOL    HW215231   3.160   4.400   1.225
 4778SOL     OW15232   4.811   3.879   1.909
 4778SOL    HW115233   4.867   3.839   1.837
 4778SOL    HW215234   4.861   3.954   1.952
 4779SOL     OW15235   5.116   0.636   2.725
 4779SOL    HW115236   5.143   0.660   2.632
 4779SOL    HW215237   5.091   0.719   2.775
 4780SOL     OW15238   1.794   6.434   6.079
 4780SOL    HW115239   1.830   6.409   5.989
 4780SOL    HW215240   1.711   6.488   6.068
 4781SOL     OW15241   1.927   5.579   2.149
 4781SOL    HW115242   1.916   5.512   2.222
 4781SOL    HW215243   1.881   5.664   2.175
 4782SOL     OW15244   5.783   6.172   6.621
 4782SOL    HW115245   5.707   6.187   6.684
 4782SOL    HW215246   5.751   6.124   6.540
 4783SOL     OW15247   6.191   4.584   1.515
 4783SOL    HW115248   6.101   4.616   1.547
 4783SOL    HW215249   6.181   4.540   1.426
 4784SOL     OW15250   5.662   4.892   4.897
 4784SOL    HW115251   5.606   4.823   4.853
 4784SOL    HW215252   5.622   4.983   4.882
 4785SOL     OW15253   6.542   0.732   0.706
 4785SOL    HW115254   6.530   0.710   0.802
 4785SOL    HW215255   6.583   0.654   0.658
 4786SOL     OW15256   1.709   2.987   2.071
 4786SOL    HW115257   1.785   2.967   2.133
 4786SOL    HW215258   1.662   3.070   2.102
 4787SOL     OW15259   3.449   2.140   2.643
 4787SOL    HW115260   3.361   2.160   2.686
 4787SOL    HW215261   3.434   2.117   2.546
 4788SOL     OW15262   1.442   5.271   4.009
 4788SOL    HW115263   1.455   5.172   4.004
 4788SOL    HW215264   1.344   5.291   4.017
 4789SOL     OW15265   6.133   0.796   0.907
 4789SOL    HW115266   6.170   0.847   0.829
 4789SOL    HW215267   6.145   0.698   0.892
 4790SOL     OW15268   5.209   1.227   6.688
 4790SOL    HW115269   5.221   1.274   6.600
 4790SOL    HW215270   5.299   1.207   6.727
 4791SOL     OW15271   4.646   6.874   2.640
 4791SOL    HW115272   4.559   6.922   2.640
 4791SOL    HW215273   4.716   6.932   2.598
 4792SOL     OW15274   2.463   2.622   1.887
 4792SOL    HW115275   2.407   2.572   1.954
 4792SOL    HW215276   2.543   2.568   1.864
 4793SOL     OW15277   1.150   6.779   6.106
 4793SOL    HW115278   1.136   6.808   6.011
 4793SOL    HW215279   1.073   6.724   6.136
 4794SOL     OW15280   3.176   0.859   1.896
 4794SOL    HW115281   3.162   0.799   1.975
 4794SOL    HW215282   3.271   0.889   1.893
 4795SOL     OW15283   6.505   3.300   4.153
 4795SOL    HW115284   6.408   3.315   4.132
 4795SOL    HW215285   6.517   3.297   4.252
 4796SOL     OW15286   5.905   3.949   1.217
 4796SOL    HW115287   5.942   3.908   1.301
 4796SOL    HW215288   5.949   4.038   1.202
 4797SOL     OW15289   0.316   5.113   5.067
 4797SOL    HW115290   0.279   5.202   5.041
 4797SOL    HW215291   0.273   5.042   5.011
 4798SOL     OW15292   6.974   3.740   4.357
 4798SOL    HW115293   0.025   3.713   4.413
 4798SOL    HW215294   6.890   3.732   4.410
 4799SOL     OW15295   3.642   1.736   4.746
 4799SOL    HW115296   3.678   1.645   4.765
 4799SOL    HW215297   3.706   1.805   4.780
 4800SOL     OW15298   1.914   1.767   4.540
 4800SOL    HW115299   1.888   1.789   4.634
 4800SOL    HW215300   1.858   1.821   4.477
 4801SOL     OW15301   1.010   2.802   0.898
 4801SOL    HW115302   1.018   2.833   0.804
 4801SOL    HW215303   0.980   2.878   0.956
 4802SOL     OW15304   2.933   0.569   2.037
 4802SOL    HW115305   2.907   0.643   2.098
 4802SOL    HW215306   2.896   0.586   1.945
 4803SOL     OW15307   0.875   6.857   0.401
 4803SOL    HW115308   0.940   6.821   0.468
 4803SOL    HW215309   0.874   6.957   0.404
 4804SOL     OW15310   4.187   5.246   6.794
 4804SOL    HW115311   4.262   5.279   6.852
 4804SOL    HW215312   4.210   5.261   6.698
 4805SOL     OW15313   0.253   1.935   0.861
 4805SOL    HW115314   0.316   1.992   0.808
 4805SOL    HW215315   0.224   1.857   0.806
 4806SOL     OW15316   0.713   2.584   2.887
 4806SOL    HW115317   0.739   2.575   2.983
 4806SOL    HW215318   0.616   2.564   2.876
 4807SOL     OW15319   6.966   6.514   1.030
 4807SOL    HW115320   6.954   6.556   1.120
 4807SOL    HW215321   6.902   6.438   1.020
 4808SOL     OW15322   4.783   3.254   1.271
 4808SOL    HW115323   4.710   3.241   1.338
 4808SOL    HW215324   4.872   3.249   1.316
 4809SOL     OW15325   3.885   5.696   6.936
 4809SOL    HW115326   3.903   5.760   7.012
 4809SOL    HW215327   3.972   5.658   6.904
 4810SOL     OW15328   0.778   0.251   1.346
 4810SOL    HW115329   0.683   0.240   1.315
 4810SOL    HW215330   0.805   0.346   1.333
 4811SOL     OW15331   4.256   6.001   2.152
 4811SOL    HW115332   4.262   6.093   2.189
 4811SOL    HW215333   4.305   5.937   2.212
 4812SOL     OW15334   6.776   5.643   4.612
 4812SOL    HW115335   6.681   5.656   4.641
 4812SOL    HW215336   6.780   5.571   4.542
 4813SOL     OW15337   6.100   2.683   3.335
 4813SOL    HW115338   6.110   2.711   3.240
 4813SOL    HW215339   6.014   2.633   3.346
 4814SOL     OW15340   0.105   3.265   2.107
 4814SOL    HW115341   0.154   3.266   2.020
 4814SOL    HW215342   0.007   3.252   2.089
 4815SOL     OW15343   4.016   6.373   1.608
 4815SOL    HW115344   3.967   6.321   1.677
 4815SOL    HW215345   4.092   6.422   1.651
 4816SOL     OW15346   5.802   5.243   3.450
 4816SOL    HW115347   5.859   5.170   3.412
 4816SOL    HW215348   5.714   5.244   3.403
 4817SOL     OW15349   6.993   1.423   6.750
 4817SOL    HW115350   0.005   1.332   6.746
 4817SOL    HW215351   6.962   1.441   6.843
 4818SOL     OW15352   0.838   0.544   4.410
 4818SOL    HW115353   0.810   0.557   4.315
 4818SOL    HW215354   0.831   0.448   4.435
 4819SOL     OW15355   1.795   3.325   0.638
 4819SOL    HW115356   1.892   3.345   0.653
 4819SOL    HW215357   1.777   3.229   0.662
 4820SOL     OW15358   6.636   3.152   2.132
 4820SOL    HW115359   6.605   3.115   2.045
 4820SOL    HW215360   6.566   3.136   2.202
 4821SOL     OW15361   6.883   5.771   2.813
 4821SOL    HW115362   6.933   5.688   2.834
 4821SOL    HW215363   6.934   5.826   2.747
 4822SOL     OW15364   1.628   3.981   4.585
 4822SOL    HW115365   1.650   4.037   4.665
 4822SOL    HW215366   1.712   3.946   4.544
 4823SOL     OW15367   1.887   3.339   1.365
 4823SOL    HW115368   1.840   3.280   1.299
 4823SOL    HW215369   1.978   3.361   1.331
 4824SOL     OW15370   6.575   1.388   5.944
 4824SOL    HW115371   6.487   1.416   5.981
 4824SOL    HW215372   6.566   1.364   5.848
 4825SOL     OW15373   1.666   6.900   4.026
 4825SOL    HW115374   1.711   6.826   3.976
 4825SOL    HW215375   1.734   6.968   4.055
 4826SOL     OW15376   3.869   0.593   1.626
 4826SOL    HW115377   3.936   0.666   1.612
 4826SOL    HW215378   3.778   0.626   1.598
 4827SOL     OW15379   6.720   1.689   1.121
 4827SOL    HW115380   6.635   1.644   1.148
 4827SOL    HW215381   6.710   1.788   1.127
 4828SOL     OW15382   4.970   0.789   4.387
 4828SOL    HW115383   4.941   0.885   4.395
 4828SOL    HW215384   4.998   0.755   4.477
 4829SOL     OW15385   4.449   6.636   4.636
 4829SOL    HW115386   4.490   6.593   4.717
 4829SOL    HW215387   4.396   6.716   4.664
 4830SOL     OW15388   2.985   6.105   2.895
 4830SOL    HW115389   2.984   6.084   2.993
 4830SOL    HW215390   2.923   6.182   2.878
 4831SOL     OW15391   3.089   4.637   5.396
 4831SOL    HW115392   3.018   4.600   5.336
 4831SOL    HW215393   3.086   4.590   5.484
 4832SOL     OW15394   3.709   3.367   4.464
 4832SOL    HW115395   3.651   3.336   4.388
 4832SOL    HW215396   3.655   3.425   4.525
 4833SOL     OW15397   6.525   3.229   4.436
 4833SOL    HW115398   6.615   3.255   4.471
 4833SOL    HW215399   6.464   3.211   4.513
 4834SOL     OW15400   0.979   5.429   1.350
 4834SOL    HW115401   0.905   5.368   1.379
 4834SOL    HW215402   0.993   5.500   1.418
 4835SOL     OW15403   6.695   2.423   5.301
 4835SOL    HW115404   6.719   2.494   5.235
 4835SOL    HW215405   6.686   2.336   5.254
 4836SOL     OW15406   5.025   1.313   5.888
 4836SOL    HW115407   4.971   1.326   5.971
 4836SOL    HW215408   5.119   1.288   5.912
 4837SOL     OW15409   0.365   4.055   3.957
 4837SOL    HW115410   0.382   4.151   3.936
 4837SOL    HW215411   0.358   4.003   3.872
 4838SOL     OW15412   2.437   4.179   6.224
 4838SOL    HW115413   2.485   4.185   6.137
 4838SOL    HW215414   2.503   4.173   6.299
 4839SOL     OW15415   2.515   1.473   0.582
 4839SOL    HW115416   2.454   1.425   0.646
 4839SOL    HW215417   2.491   1.449   0.488
 4840SOL     OW15418   5.909   4.032   4.016
 4840SOL    HW115419   6.004   4.057   4.031
 4840SOL    HW215420   5.894   3.937   4.043
 4841SOL     OW15421   3.370   6.309   2.912
 4841SOL    HW115422   3.379   6.210   2.911
 4841SOL    HW215423   3.389   6.344   3.004
 4842SOL     OW15424   3.607   5.462   2.997
 4842SOL    HW115425   3.543   5.539   2.991
 4842SOL    HW215426   3.564   5.385   3.043
 4843SOL     OW15427   0.299   2.345   0.946
 4843SOL    HW115428   0.306   2.264   1.006
 4843SOL    HW215429   0.206   2.350   0.908
 4844SOL     OW15430   1.883   5.196   5.434
 4844SOL    HW115431   1.804   5.213   5.493
 4844SOL    HW215432   1.852   5.183   5.340
 4845SOL     OW15433   4.880   3.965   5.013
 4845SOL    HW115434   4.827   4.046   4.988
 4845SOL    HW215435   4.908   3.917   4.930
 4846SOL     OW15436   6.524   3.544   4.598
 4846SOL    HW115437   6.434   3.502   4.583
 4846SOL    HW215438   6.593   3.494   4.546
 4847SOL     OW15439   2.845   6.127   6.196
 4847SOL    HW115440   2.925   6.183   6.218
 4847SOL    HW215441   2.771   6.148   6.259
 4848SOL     OW15442   3.709   0.626   4.435
 4848SOL    HW115443   3.741   0.648   4.342
 4848SOL    HW215444   3.779   0.654   4.501
 4849SOL     OW15445   2.272   6.950   1.571
 4849SOL    HW115446   2.281   6.929   1.473
 4849SOL    HW215447   2.223   6.877   1.617
 4850SOL     OW15448   3.957   6.993   0.596
 4850SOL    HW115449   3.950   7.004   0.695
 4850SOL    HW215450   3.872   7.024   0.553
 4851SOL     OW15451   3.972   4.521   6.453
 4851SOL    HW115452   3.937   4.614   6.465
 4851SOL    HW215453   4.010   4.488   6.539
 4852SOL     OW15454   5.250   5.119   5.178
 4852SOL    HW115455   5.280   5.104   5.273
 4852SOL    HW215456   5.317   5.080   5.116
 4853SOL     OW15457   3.856   6.689   2.225
 4853SOL    HW115458   3.930   6.709   2.161
 4853SOL    HW215459   3.880   6.721   2.316
 4854SOL     OW15460   4.790   6.821   1.654
 4854SOL    HW115461   4.811   6.754   1.725
 4854SOL    HW215462   4.848   6.902   1.666
 4855SOL     OW15463   5.307   4.656   5.983
 4855SOL    HW115464   5.350   4.622   6.067
 4855SOL    HW215465   5.368   4.642   5.906
 4856SOL     OW15466   0.699   3.279   2.960
 4856SOL    HW115467   0.723   3.275   2.863
 4856SOL    HW215468   0.696   3.374   2.990
 4857SOL     OW15469   2.262   2.503   5.288
 4857SOL    HW115470   2.276   2.527   5.192
 4857SOL    HW215471   2.232   2.408   5.295
 4858SOL     OW15472   0.861   6.022   4.980
 4858SOL    HW115473   0.863   5.923   4.967
 4858SOL    HW215474   0.916   6.066   4.909
 4859SOL     OW15475   0.313   6.592   2.810
 4859SOL    HW115476   0.333   6.522   2.741
 4859SOL    HW215477   0.228   6.639   2.787
 4860SOL     OW15478   4.753   5.347   1.220
 4860SOL    HW115479   4.756   5.447   1.210
 4860SOL    HW215480   4.776   5.305   1.133
 4861SOL     OW15481   0.297   3.962   6.091
 4861SOL    HW115482   0.241   3.898   6.039
 4861SOL    HW215483   0.393   3.954   6.062
 4862SOL     OW15484   2.227   5.537   5.053
 4862SOL    HW115485   2.305   5.512   4.996
 4862SOL    HW215486   2.252   5.613   5.113
 4863SOL     OW15487   4.924   2.377   2.878
 4863SOL    HW115488   4.905   2.333   2.790
 4863SOL    HW215489   4.985   2.320   2.931
 4864SOL     OW15490   1.719   1.235   1.375
 4864SOL    HW115491   1.722   1.209   1.278
 4864SOL    HW215492   1.773   1.170   1.428
 4865SOL     OW15493   3.902   6.030   5.278
 4865SOL    HW115494   3.938   6.120   5.254
 4865SOL    HW215495   3.809   6.039   5.312
 4866SOL     OW15496   0.314   4.482   2.210
 4866SOL    HW115497   0.379   4.456   2.138
 4866SOL    HW215498   0.356   4.470   2.299
 4867SOL     OW15499   4.808   5.544   3.460
 4867SOL    HW115500   4.824   5.558   3.558
 4867SOL    HW215501   4.715   5.510   3.446
 4868SOL     OW15502   1.311   6.510   1.603
 4868SOL    HW115503   1.253   6.509   1.685
 4868SOL    HW215504   1.338   6.604   1.583
 4869SOL     OW15505   6.327   1.346   0.872
 4869SOL    HW115506   6.382   1.301   0.941
 4869SOL    HW215507   6.381   1.360   0.789
 4870SOL     OW15508   6.732   0.171   1.160
 4870SOL    HW115509   6.700   0.133   1.073
 4870SOL    HW215510   6.697   0.114   1.235
 4871SOL     OW15511   0.927   3.343   4.289
 4871SOL    HW115512   0.880   3.363   4.204
 4871SOL    HW215513   0.955   3.247   4.290
 4872SOL     OW15514   0.845   0.576   3.751
 4872SOL    HW115515   0.942   0.557   3.734
 4872SOL    HW215516   0.836   0.633   3.833
 4873SOL     OW15517   1.164   6.068   5.026
 4873SOL    HW115518   1.215   5.984   5.044
 4873SOL    HW215519   1.153   6.080   4.927
 4874SOL     OW15520   5.228   3.444   3.624
 4874SOL    HW115521   5.306   3.447   3.561
 4874SOL    HW215522   5.191   3.351   3.626
 4875SOL     OW15523   6.001   3.218   6.882
 4875SOL    HW115524   5.952   3.284   6.939
 4875SOL    HW215525   5.947   3.133   6.876
 4876SOL     OW15526   0.465   1.759   6.895
 4876SOL    HW115527   0.438   1.848   6.931
 4876SOL    HW215528   0.434   1.751   6.800
 4877SOL     OW15529   6.424   1.785   0.841
 4877SOL    HW115530   6.492   1.717   0.866
 4877SOL    HW215531   6.333   1.754   0.871
 4878SOL     OW15532   6.474   2.246   1.459
 4878SOL    HW115533   6.520   2.326   1.499
 4878SOL    HW215534   6.424   2.197   1.530
 4879SOL     OW15535   4.387   6.157   2.961
 4879SOL    HW115536   4.342   6.245   2.946
 4879SOL    HW215537   4.466   6.149   2.899
 4880SOL     OW15538   6.247   2.466   6.538
 4880SOL    HW115539   6.162   2.493   6.492
 4880SOL    HW215540   6.308   2.421   6.472
 4881SOL     OW15541   2.955   5.875   6.728
 4881SOL    HW115542   2.903   5.947   6.773
 4881SOL    HW215543   3.050   5.905   6.717
 4882SOL     OW15544   5.194   0.721   6.304
 4882SOL    HW115545   5.150   0.809   6.320
 4882SOL    HW215546   5.152   0.678   6.223
 4883SOL     OW15547   6.556   6.095   0.548
 4883SOL    HW115548   6.524   6.036   0.622
 4883SOL    HW215549   6.606   6.172   0.586
 4884SOL     OW15550   3.648   6.504   1.928
 4884SOL    HW115551   3.659   6.527   1.831
 4884SOL    HW215552   3.644   6.588   1.982
 4885SOL     OW15553   2.074   6.997   2.336
 4885SOL    HW115554   2.020   7.008   2.420
 4885SOL    HW215555   2.166   6.965   2.360
 4886SOL     OW15556   6.292   0.679   6.045
 4886SOL    HW115557   6.311   0.776   6.061
 4886SOL    HW215558   6.355   0.644   5.976
 4887SOL     OW15559   0.556   2.106   5.357
 4887SOL    HW115560   0.588   2.141   5.269
 4887SOL    HW215561   0.515   2.180   5.410
 4888SOL     OW15562   3.029   5.418   1.765
 4888SOL    HW115563   3.084   5.409   1.848
 4888SOL    HW215564   3.048   5.505   1.721
 4889SOL     OW15565   1.360   2.887   6.702
 4889SOL    HW115566   1.332   2.888   6.798
 4889SOL    HW215567   1.460   2.899   6.697
 4890SOL     OW15568   1.275   0.160   4.980
 4890SOL    HW115569   1.268   0.060   4.990
 4890SOL    HW215570   1.325   0.182   4.897
 4891SOL     OW15571   1.259   3.744   0.655
 4891SOL    HW115572   1.201   3.795   0.718
 4891SOL    HW215573   1.340   3.710   0.704
 4892SOL     OW15574   1.818   5.925   1.275
 4892SOL    HW115575   1.841   5.952   1.182
 4892SOL    HW215576   1.902   5.914   1.328
 4893SOL     OW15577   0.896   3.479   6.418
 4893SOL    HW115578   0.964   3.411   6.389
 4893SOL    HW215579   0.836   3.501   6.341
 4894SOL     OW15580   1.921   1.263   3.496
 4894SOL    HW115581   1.995   1.222   3.550
 4894SOL    HW215582   1.833   1.234   3.533
 4895SOL     OW15583   6.101   3.928   7.020
 4895SOL    HW115584   6.055   3.993   0.052
 4895SOL    HW215585   6.057   3.839   7.028
 4896SOL     OW15586   4.593   5.846   3.325
 4896SOL    HW115587   4.501   5.814   3.302
 4896SOL    HW215588   4.661   5.785   3.283
 4897SOL     OW15589   2.796   5.795   5.739
 4897SOL    HW115590   2.763   5.729   5.671
 4897SOL    HW215591   2.718   5.836   5.787
 4898SOL     OW15592   5.545   2.500   4.854
 4898SOL    HW115593   5.612   2.438   4.894
 4898SOL    HW215594   5.479   2.447   4.800
 4899SOL     OW15595   5.534   4.396   4.631
 4899SOL    HW115596   5.625   4.430   4.609
 4899SOL    HW215597   5.468   4.471   4.625
 4900SOL     OW15598   1.145   6.778   5.171
 4900SOL    HW115599   1.061   6.807   5.126
 4900SOL    HW215600   1.125   6.754   5.266
 4901SOL     OW15601   1.016   6.274   3.068
 4901SOL    HW115602   0.952   6.350   3.067
 4901SOL    HW215603   1.110   6.309   3.072
 4902SOL     OW15604   3.066   4.775   1.900
 4902SOL    HW115605   3.070   4.803   1.996
 4902SOL    HW215606   2.988   4.714   1.886
 4903SOL     OW15607   5.424   6.076   6.035
 4903SOL    HW115608   5.489   6.136   6.081
 4903SOL    HW215609   5.371   6.129   5.969
 4904SOL     OW15610   3.654   5.937   3.355
 4904SOL    HW115611   3.557   5.947   3.335
 4904SOL    HW215612   3.704   6.016   3.319
 4905SOL     OW15613   6.372   3.155   3.443
 4905SOL    HW115614   6.407   3.064   3.467
 4905SOL    HW215615   6.397   3.177   3.349
 4906SOL     OW15616   5.751   0.948   1.632
 4906SOL    HW115617   5.702   0.925   1.716
 4906SOL    HW215618   5.688   0.983   1.564
 4907SOL     OW15619   2.491   1.512   2.355
 4907SOL    HW115620   2.533   1.570   2.425
 4907SOL    HW215621   2.531   1.532   2.266
 4908SOL     OW15622   3.728   5.747   0.278
 4908SOL    HW115623   3.789   5.777   0.204
 4908SOL    HW215624   3.633   5.756   0.248
 4909SOL     OW15625   6.382   6.818   5.601
 4909SOL    HW115626   6.342   6.829   5.510
 4909SOL    HW215627   6.333   6.747   5.651
 4910SOL     OW15628   6.473   0.362   6.021
 4910SOL    HW115629   6.405   0.361   6.095
 4910SOL    HW215630   6.553   0.414   6.050
 4911SOL     OW15631   0.583   2.816   6.148
 4911SOL    HW115632   0.658   2.836   6.086
 4911SOL    HW215633   0.500   2.863   6.117
 4912SOL     OW15634   2.641   2.404   2.113
 4912SOL    HW115635   2.725   2.396   2.060
 4912SOL    HW215636   2.640   2.491   2.162
 4913SOL     OW15637   2.940   3.303   2.399
 4913SOL    HW115638   2.917   3.249   2.479
 4913SOL    HW215639   3.036   3.288   2.374
 4914SOL     OW15640   1.320   6.315   3.066
 4914SOL    HW115641   1.352   6.250   3.136
 4914SOL    HW215642   1.360   6.290   2.978
 4915SOL     OW15643   3.179   5.923   3.143
 4915SOL    HW115644   3.216   5.906   3.051
 4915SOL    HW215645   3.100   5.983   3.136
 4916SOL     OW15646   2.140   1.688   2.495
 4916SOL    HW115647   2.117   1.672   2.591
 4916SOL    HW215648   2.199   1.614   2.462
 4917SOL     OW15649   2.117   5.139   0.151
 4917SOL    HW115650   2.199   5.194   0.134
 4917SOL    HW215651   2.064   5.181   0.225
 4918SOL     OW15652   2.405   0.181   2.364
 4918SOL    HW115653   2.379   0.261   2.420
 4918SOL    HW215654   2.492   0.145   2.398
 4919SOL     OW15655   2.616   3.179   1.568
 4919SOL    HW115656   2.559   3.097   1.570
 4919SOL    HW215657   2.572   3.253   1.619
 4920SOL     OW15658   4.482   0.805   0.263
 4920SOL    HW115659   4.502   0.748   0.342
 4920SOL    HW215660   4.390   0.842   0.270
 4921SOL     OW15661   1.382   4.750   2.014
 4921SOL    HW115662   1.368   4.652   2.029
 4921SOL    HW215663   1.480   4.768   2.000
 4922SOL     OW15664   1.086   2.841   5.710
 4922SOL    HW115665   1.018   2.914   5.714
 4922SOL    HW215666   1.136   2.837   5.797
 4923SOL     OW15667   3.752   1.789   0.676
 4923SOL    HW115668   3.663   1.829   0.696
 4923SOL    HW215669   3.808   1.790   0.758
 4924SOL     OW15670   0.432   3.601   4.755
 4924SOL    HW115671   0.491   3.554   4.688
 4924SOL    HW215672   0.447   3.700   4.749
 4925SOL     OW15673   4.948   5.762   6.145
 4925SOL    HW115674   4.874   5.707   6.107
 4925SOL    HW215675   4.916   5.856   6.160
 4926SOL     OW15676   4.163   2.591   1.720
 4926SOL    HW115677   4.224   2.552   1.789
 4926SOL    HW215678   4.137   2.683   1.747
 4927SOL     OW15679   3.846   3.897   2.885
 4927SOL    HW115680   3.831   3.887   2.983
 4927SOL    HW215681   3.932   3.854   2.859
 4928SOL     OW15682   0.181   6.519   0.924
 4928SOL    HW115683   0.087   6.525   0.959
 4928SOL    HW215684   0.204   6.424   0.906
 4929SOL     OW15685   1.027   4.698   4.139
 4929SOL    HW115686   0.941   4.660   4.175
 4929SOL    HW215687   1.099   4.686   4.207
 4930SOL     OW15688   6.679   2.295   0.841
 4930SOL    HW115689   6.604   2.356   0.867
 4930SOL    HW215690   6.641   2.207   0.813
 4931SOL     OW15691   0.391   0.476   1.358
 4931SOL    HW115692   0.446   0.488   1.441
 4931SOL    HW215693   0.312   0.536   1.362
 4932SOL     OW15694   3.842   2.122   0.924
 4932SOL    HW115695   3.852   2.201   0.863
 4932SOL    HW215696   3.874   2.147   1.015
 4933SOL     OW15697   2.868   0.907   5.337
 4933SOL    HW115698   2.925   0.826   5.326
 4933SOL    HW215699   2.778   0.890   5.297
 4934SOL     OW15700   1.534   6.252   5.202
 4934SOL    HW115701   1.518   6.164   5.247
 4934SOL    HW215702   1.556   6.321   5.271
 4935SOL     OW15703   1.577   1.051   0.871
 4935SOL    HW115704   1.655   0.988   0.878
 4935SOL    HW215705   1.493   1.001   0.891
 4936SOL     OW15706   4.127   5.923   0.687
 4936SOL    HW115707   4.043   5.915   0.633
 4936SOL    HW215708   4.202   5.953   0.628
 4937SOL     OW15709   1.090   2.985   6.077
 4937SOL    HW115710   1.158   3.042   6.124
 4937SOL    HW215711   1.000   3.002   6.116
 4938SOL     OW15712   3.291   5.034   1.585
 4938SOL    HW115713   3.336   4.950   1.616
 4938SOL    HW215714   3.251   5.081   1.664
 4939SOL     OW15715   1.431   1.628   2.008
 4939SOL    HW115716   1.429   1.709   2.067
 4939SOL    HW215717   1.340   1.588   2.004
 4940SOL     OW15718   7.027   2.173   5.129
 4940SOL    HW115719   7.018   2.202   5.224
 4940SOL    HW215720   0.025   2.076   5.126
 4941SOL     OW15721   4.490   1.943   5.474
 4941SOL    HW115722   4.533   1.979   5.391
 4941SOL    HW215723   4.561   1.913   5.538
 4942SOL     OW15724   0.546   1.346   3.024
 4942SOL    HW115725   0.631   1.338   3.075
 4942SOL    HW215726   0.561   1.399   2.941
 4943SOL     OW15727   4.958   2.930   6.857
 4943SOL    HW115728   4.918   2.920   6.948
 4943SOL    HW215729   4.970   3.027   6.837
 4944SOL     OW15730   0.873   4.938   0.185
 4944SOL    HW115731   0.816   4.858   0.172
 4944SOL    HW215732   0.841   4.990   0.264
 4945SOL     OW15733   2.286   0.520   5.221
 4945SOL    HW115734   2.250   0.613   5.223
 4945SOL    HW215735   2.250   0.468   5.299
 4946SOL     OW15736   3.039   5.285   0.033
 4946SOL    HW115737   2.980   5.215   7.021
 4946SOL    HW215738   3.130   5.278   7.021
 4947SOL     OW15739   1.084   0.714   1.790
 4947SOL    HW115740   1.095   0.617   1.771
 4947SOL    HW215741   1.008   0.728   1.855
 4948SOL     OW15742   1.827   2.642   1.660
 4948SOL    HW115743   1.919   2.619   1.628
 4948SOL    HW215744   1.813   2.605   1.752
 4949SOL     OW15745   0.001   4.779   6.707
 4949SOL    HW115746   6.990   4.854   6.653
 4949SOL    HW215747   0.097   4.765   6.681
 4950SOL     OW15748   3.406   3.825   5.861
 4950SOL    HW115749   3.342   3.845   5.935
 4950SOL    HW215750   3.499   3.819   5.897
 4951SOL     OW15751   5.436   5.494   3.361
 4951SOL    HW115752   5.369   5.424   3.386
 4951SOL    HW215753   5.395   5.584   3.371
 4952SOL     OW15754   0.225   0.318   6.293
 4952SOL    HW115755   0.170   0.381   6.238
 4952SOL    HW215756   0.322   0.330   6.270
 4953SOL     OW15757   0.891   2.280   4.802
 4953SOL    HW115758   0.894   2.272   4.901
 4953SOL    HW215759   0.837   2.205   4.764
 4954SOL     OW15760   3.281   4.138   4.825
 4954SOL    HW115761   3.280   4.238   4.831
 4954SOL    HW215762   3.263   4.098   4.915
 4955SOL     OW15763   3.892   5.305   5.506
 4955SOL    HW115764   3.905   5.307   5.605
 4955SOL    HW215765   3.872   5.397   5.473
 4956SOL     OW15766   2.809   0.181   5.202
 4956SOL    HW115767   2.760   0.247   5.145
 4956SOL    HW215768   2.829   0.222   5.291
 4957SOL     OW15769   5.937   4.670   6.466
 4957SOL    HW115770   5.984   4.710   6.387
 4957SOL    HW215771   5.928   4.572   6.453
 4958SOL     OW15772   3.840   6.421   0.238
 4958SOL    HW115773   3.762   6.385   0.187
 4958SOL    HW215774   3.895   6.344   0.273
 4959SOL     OW15775   0.516   2.033   2.955
 4959SOL    HW115776   0.512   1.977   2.873
 4959SOL    HW215777   0.503   2.129   2.931
 4960SOL     OW15778   4.500   4.621   4.125
 4960SOL    HW115779   4.431   4.613   4.196
 4960SOL    HW215780   4.571   4.685   4.154
 4961SOL     OW15781   3.592   1.512   0.987
 4961SOL    HW115782   3.514   1.458   0.954
 4961SOL    HW215783   3.561   1.605   1.008
 4962SOL     OW15784   1.345   4.216   1.011
 4962SOL    HW115785   1.386   4.142   1.065
 4962SOL    HW215786   1.385   4.303   1.039
 4963SOL     OW15787   0.871   3.745   6.537
 4963SOL    HW115788   0.920   3.819   6.490
 4963SOL    HW215789   0.888   3.659   6.489
 4964SOL     OW15790   2.796   6.550   4.520
 4964SOL    HW115791   2.768   6.580   4.429
 4964SOL    HW215792   2.715   6.544   4.579
 4965SOL     OW15793   1.385   6.112   3.262
 4965SOL    HW115794   1.443   6.036   3.232
 4965SOL    HW215795   1.301   6.077   3.303
 4966SOL     OW15796   2.933   6.851   4.171
 4966SOL    HW115797   2.899   6.758   4.186
 4966SOL    HW215798   2.874   6.916   4.219
 4967SOL     OW15799   4.362   4.690   4.786
 4967SOL    HW115800   4.444   4.730   4.828
 4967SOL    HW215801   4.325   4.620   4.847
 4968SOL     OW15802   6.717   2.471   3.072
 4968SOL    HW115803   6.771   2.555   3.062
 4968SOL    HW215804   6.647   2.485   3.142
 4969SOL     OW15805   0.622   6.177   3.647
 4969SOL    HW115806   0.678   6.194   3.566
 4969SOL    HW215807   0.534   6.223   3.636
 4970SOL     OW15808   0.875   1.582   1.418
 4970SOL    HW115809   0.972   1.564   1.432
 4970SOL    HW215810   0.838   1.516   1.352
 4971SOL     OW15811   6.979   6.173   2.753
 4971SOL    HW115812   6.955   6.267   2.778
 4971SOL    HW215813   7.003   6.121   2.835
 4972SOL     OW15814   0.685   4.615   0.874
 4972SOL    HW115815   0.682   4.710   0.843
 4972SOL    HW215816   0.775   4.577   0.855
 4973SOL     OW15817   6.525   1.122   0.650
 4973SOL    HW115818   6.592   1.186   0.689
 4973SOL    HW215819   6.485   1.068   0.723
 4974SOL     OW15820   3.515   5.926   5.110
 4974SOL    HW115821   3.420   5.957   5.118
 4974SOL    HW215822   3.518   5.826   5.110
 4975SOL     OW15823   5.194   4.860   0.898
 4975SOL    HW115824   5.267   4.826   0.958
 4975SOL    HW215825   5.111   4.806   0.913
 4976SOL     OW15826   1.801   6.834   3.045
 4976SOL    HW115827   1.849   6.832   3.133
 4976SOL    HW215828   1.747   6.751   3.034
 4977SOL     OW15829   1.778   4.501   5.770
 4977SOL    HW115830   1.806   4.595   5.750
 4977SOL    HW215831   1.833   4.437   5.717
 4978SOL     OW15832   5.059   4.765   4.869
 4978SOL    HW115833   5.150   4.799   4.892
 4978SOL    HW215834   5.056   4.740   4.772
 4979SOL     OW15835   2.227   6.888   5.964
 4979SOL    HW115836   2.228   6.838   6.050
 4979SOL    HW215837   2.273   6.976   5.977
 4980SOL     OW15838   5.370   3.745   3.905
 4980SOL    HW115839   5.336   3.818   3.965
 4980SOL    HW215840   5.297   3.679   3.888
 4981SOL     OW15841   3.356   4.943   2.630
 4981SOL    HW115842   3.274   4.914   2.581
 4981SOL    HW215843   3.435   4.891   2.597
 4982SOL     OW15844   4.272   1.539   5.697
 4982SOL    HW115845   4.198   1.501   5.753
 4982SOL    HW215846   4.293   1.632   5.728
 4983SOL     OW15847   5.615   5.676   2.987
 4983SOL    HW115848   5.577   5.755   3.035
 4983SOL    HW215849   5.714   5.688   2.977
 4984SOL     OW15850   4.662   4.200   3.299
 4984SOL    HW115851   4.712   4.114   3.294
 4984SOL    HW215852   4.637   4.230   3.207
 4985SOL     OW15853   5.233   6.856   2.567
 4985SOL    HW115854   5.187   6.869   2.479
 4985SOL    HW215855   5.332   6.863   2.554
 4986SOL     OW15856   0.704   5.518   2.138
 4986SOL    HW115857   0.723   5.552   2.230
 4986SOL    HW215858   0.733   5.423   2.130
 4987SOL     OW15859   1.000   0.847   2.566
 4987SOL    HW115860   1.084   0.839   2.620
 4987SOL    HW215861   1.009   0.921   2.500
 4988SOL     OW15862   6.220   6.503   3.475
 4988SOL    HW115863   6.227   6.434   3.403
 4988SOL    HW215864   6.299   6.495   3.537
 4989SOL     OW15865   4.810   0.114   3.363
 4989SOL    HW115866   4.750   0.110   3.442
 4989SOL    HW215867   4.853   0.024   3.350
 4990SOL     OW15868   4.770   2.145   4.875
 4990SOL    HW115869   4.684   2.160   4.826
 4990SOL    HW215870   4.769   2.198   4.960
 4991SOL     OW15871   1.608   4.706   5.414
 4991SOL    HW115872   1.563   4.779   5.362
 4991SOL    HW215873   1.671   4.747   5.480
 4992SOL     OW15874   0.611   2.814   4.135
 4992SOL    HW115875   0.523   2.855   4.160
 4992SOL    HW215876   0.599   2.758   4.053
 4993SOL     OW15877   3.081   6.364   3.890
 4993SOL    HW115878   3.108   6.425   3.964
 4993SOL    HW215879   3.161   6.339   3.836
 4994SOL     OW15880   3.497   4.338   5.323
 4994SOL    HW115881   3.440   4.414   5.354
 4994SOL    HW215882   3.576   4.373   5.273
 4995SOL     OW15883   0.790   0.267   5.812
 4995SOL    HW115884   0.808   0.221   5.899
 4995SOL    HW215885   0.773   0.364   5.829
 4996SOL     OW15886   6.775   1.470   4.172
 4996SOL    HW115887   6.757   1.505   4.265
 4996SOL    HW215888   6.850   1.404   4.176
 4997SOL     OW15889   3.853   1.827   1.394
 4997SOL    HW115890   3.943   1.838   1.353
 4997SOL    HW215891   3.861   1.826   1.493
 4998SOL     OW15892   0.201   3.626   3.240
 4998SOL    HW115893   0.236   3.654   3.150
 4998SOL    HW215894   0.221   3.698   3.307
 4999SOL     OW15895   0.755   3.225   4.539
 4999SOL    HW115896   0.852   3.243   4.519
 4999SOL    HW215897   0.744   3.201   4.635
 5000SOL     OW15898   3.227   5.520   2.653
 5000SOL    HW115899   3.323   5.494   2.662
 5000SOL    HW215900   3.190   5.540   2.744
 5001SOL     OW15901   0.257   5.763   3.335
 5001SOL    HW115902   0.297   5.675   3.308
 5001SOL    HW215903   0.285   5.784   3.429
 5002SOL     OW15904   0.519   3.152   3.292
 5002SOL    HW115905   0.529   3.172   3.389
 5002SOL    HW215906   0.592   3.091   3.263
 5003SOL     OW15907   4.151   0.613   3.852
 5003SOL    HW115908   4.079   0.548   3.825
 5003SOL    HW215909   4.234   0.596   3.799
 5004SOL     OW15910   2.721   5.758   6.827
 5004SOL    HW115911   2.818   5.778   6.810
 5004SOL    HW215912   2.680   5.834   6.878
 5005SOL     OW15913   3.013   2.308   0.423
 5005SOL    HW115914   3.092   2.252   0.446
 5005SOL    HW215915   2.929   2.261   0.450
 5006SOL     OW15916   4.770   1.345   1.921
 5006SOL    HW115917   4.723   1.296   1.995
 5006SOL    HW215918   4.845   1.399   1.958
 5007SOL     OW15919   5.973   6.625   1.945
 5007SOL    HW115920   5.908   6.549   1.939
 5007SOL    HW215921   5.925   6.711   1.931
 5008SOL     OW15922   5.468   6.748   2.457
 5008SOL    HW115923   5.558   6.781   2.429
 5008SOL    HW215924   5.430   6.690   2.385
 5009SOL     OW15925   6.854   2.324   1.315
 5009SOL    HW115926   6.951   2.301   1.320
 5009SOL    HW215927   6.838   2.415   1.353
 5010SOL     OW15928   3.891   3.756   0.871
 5010SOL    HW115929   3.969   3.785   0.817
 5010SOL    HW215930   3.914   3.672   0.921
 5011SOL     OW15931   2.582   3.244   6.485
 5011SOL    HW115932   2.632   3.328   6.467
 5011SOL    HW215933   2.639   3.165   6.462
 5012SOL     OW15934   6.270   2.015   5.455
 5012SOL    HW115935   6.291   2.108   5.424
 5012SOL    HW215936   6.318   1.997   5.541
 5013SOL     OW15937   5.755   6.767   5.956
 5013SOL    HW115938   5.847   6.806   5.949
 5013SOL    HW215939   5.691   6.821   5.901
 5014SOL     OW15940   6.339   3.541   1.818
 5014SOL    HW115941   6.415   3.567   1.878
 5014SOL    HW215942   6.269   3.495   1.873
 5015SOL     OW15943   5.575   6.326   3.804
 5015SOL    HW115944   5.652   6.342   3.743
 5015SOL    HW215945   5.492   6.315   3.750
 5016SOL     OW15946   1.980   3.941   5.559
 5016SOL    HW115947   2.065   3.892   5.580
 5016SOL    HW215948   1.940   3.906   5.475
 5017SOL     OW15949   0.379   3.325   1.940
 5017SOL    HW115950   0.403   3.407   1.888
 5017SOL    HW215951   0.412   3.244   1.892
 5018SOL     OW15952   0.760   0.044   1.076
 5018SOL    HW115953   0.838   0.097   1.044
 5018SOL    HW215954   0.698   0.104   1.127
 5019SOL     OW15955   1.243   5.209   5.180
 5019SOL    HW115956   1.169   5.154   5.220
 5019SOL    HW215957   1.330   5.163   5.194
 5020SOL     OW15958   2.234   6.577   4.617
 5020SOL    HW115959   2.233   6.675   4.593
 5020SOL    HW215960   2.186   6.563   4.703
 5021SOL     OW15961   1.432   1.307   0.916
 5021SOL    HW115962   1.494   1.233   0.886
 5021SOL    HW215963   1.414   1.297   1.014
 5022SOL     OW15964   6.667   3.181   1.632
 5022SOL    HW115965   6.728   3.162   1.555
 5022SOL    HW215966   6.688   3.272   1.668
 5023SOL     OW15967   6.781   4.801   2.775
 5023SOL    HW115968   6.714   4.792   2.849
 5023SOL    HW215969   6.841   4.720   2.775
 5024SOL     OW15970   4.492   3.583   1.318
 5024SOL    HW115971   4.482   3.550   1.412
 5024SOL    HW215972   4.500   3.683   1.317
 5025SOL     OW15973   3.944   1.134   3.976
 5025SOL    HW115974   4.032   1.118   3.932
 5025SOL    HW215975   3.926   1.232   3.980
 5026SOL     OW15976   4.082   6.941   4.690
 5026SOL    HW115977   4.005   6.981   4.740
 5026SOL    HW215978   4.049   6.869   4.629
 5027SOL     OW15979   5.304   0.056   0.106
 5027SOL    HW115980   5.355   7.011   0.059
 5027SOL    HW215981   5.283   0.128   0.040
 5028SOL     OW15982   0.116   1.743   2.978
 5028SOL    HW115983   0.119   1.643   2.989
 5028SOL    HW215984   0.129   1.786   3.067
 5029SOL     OW15985   6.107   1.804   2.844
 5029SOL    HW115986   6.087   1.722   2.790
 5029SOL    HW215987   6.168   1.780   2.920
 5030SOL     OW15988   0.087   4.811   6.377
 5030SOL    HW115989   0.015   4.860   6.426
 5030SOL    HW215990   0.102   4.722   6.420
 5031SOL     OW15991   6.961   7.011   6.461
 5031SOL    HW115992   6.901   6.944   6.416
 5031SOL    HW215993   6.978   6.981   6.555
 5032SOL     OW15994   2.892   3.436   5.518
 5032SOL    HW115995   2.880   3.500   5.442
 5032SOL    HW215996   2.882   3.342   5.484
 5033SOL     OW15997   2.043   0.616   0.223
 5033SOL    HW115998   2.026   0.712   0.200
 5033SOL    HW215999   1.957   0.572   0.249
 5034SOL     OW16000   4.214   6.419   3.777
 5034SOL    HW116001   4.119   6.443   3.798
 5034SOL    HW216002   4.275   6.491   3.810
 5035SOL     OW16003   1.873   4.225   3.616
 5035SOL    HW116004   1.966   4.196   3.636
 5035SOL    HW216005   1.832   4.163   3.549
 5036SOL     OW16006   6.274   2.516   5.145
 5036SOL    HW116007   6.345   2.548   5.083
 5036SOL    HW216008   6.268   2.577   5.224
 5037SOL     OW16009   4.314   4.029   0.911
 5037SOL    HW116010   4.404   3.985   0.911
 5037SOL    HW216011   4.274   4.024   1.002
 5038SOL     OW16012   3.397   3.949   4.009
 5038SOL    HW116013   3.316   4.004   4.030
 5038SOL    HW216014   3.369   3.854   3.993
 5039SOL     OW16015   0.451   3.446   6.710
 5039SOL    HW116016   0.549   3.428   6.700
 5039SOL    HW216017   0.437   3.537   6.747
 5040SOL     OW16018   0.568   6.473   6.149
 5040SOL    HW116019   0.544   6.548   6.211
 5040SOL    HW216020   0.666   6.455   6.153
 5041SOL     OW16021   6.853   3.526   2.121
 5041SOL    HW116022   6.927   3.566   2.068
 5041SOL    HW216023   6.869   3.544   2.218
 5042SOL     OW16024   0.402   2.558   6.130
 5042SOL    HW116025   0.385   2.646   6.086
 5042SOL    HW216026   0.447   2.497   6.065
 5043SOL     OW16027   3.775   6.619   0.908
 5043SOL    HW116028   3.678   6.601   0.889
 5043SOL    HW216029   3.820   6.534   0.935
 5044SOL     OW16030   5.933   5.064   0.929
 5044SOL    HW116031   5.843   5.105   0.915
 5044SOL    HW216032   5.935   4.974   0.887
 5045SOL     OW16033   6.446   3.337   6.276
 5045SOL    HW116034   6.402   3.287   6.202
 5045SOL    HW216035   6.376   3.367   6.342
 5046SOL     OW16036   3.417   3.168   3.443
 5046SOL    HW116037   3.416   3.118   3.356
 5046SOL    HW216038   3.389   3.106   3.516
 5047SOL     OW16039   0.877   3.557   3.147
 5047SOL    HW116040   0.909   3.465   3.167
 5047SOL    HW216041   0.919   3.622   3.211
 5048SOL     OW16042   1.822   1.300   5.867
 5048SOL    HW116043   1.763   1.285   5.946
 5048SOL    HW216044   1.870   1.388   5.878
 5049SOL     OW16045   5.820   0.967   6.118
 5049SOL    HW116046   5.733   0.956   6.166
 5049SOL    HW216047   5.808   0.941   6.022
 5050SOL     OW16048   1.502   0.480   1.284
 5050SOL    HW116049   1.599   0.498   1.276
 5050SOL    HW216050   1.457   0.497   1.196
 5051SOL     OW16051   3.871   5.207   1.333
 5051SOL    HW116052   3.886   5.202   1.235
 5051SOL    HW216053   3.793   5.149   1.358
 5052SOL     OW16054   2.838   1.066   5.867
 5052SOL    HW116055   2.860   1.061   5.770
 5052SOL    HW216056   2.745   1.032   5.882
 5053SOL     OW16057   0.478   6.943   2.079
 5053SOL    HW116058   0.397   7.001   2.069
 5053SOL    HW216059   0.511   6.946   2.173
 5054SOL     OW16060   4.058   4.815   4.078
 5054SOL    HW116061   4.032   4.908   4.104
 5054SOL    HW216062   4.057   4.756   4.158
 5055SOL     OW16063   6.308   3.012   6.571
 5055SOL    HW116064   6.349   3.074   6.637
 5055SOL    HW216065   6.288   2.925   6.614
 5056SOL     OW16066   5.323   4.139   5.101
 5056SOL    HW116067   5.347   4.128   5.004
 5056SOL    HW216068   5.353   4.228   5.133
 5057SOL     OW16069   1.076   6.604   2.831
 5057SOL    HW116070   1.033   6.591   2.921
 5057SOL    HW216071   1.169   6.568   2.834
 5058SOL     OW16072   2.994   4.873   5.925
 5058SOL    HW116073   3.042   4.937   5.984
 5058SOL    HW216074   2.901   4.858   5.960
 5059SOL     OW16075   0.772   0.839   2.236
 5059SOL    HW116076   0.731   0.775   2.301
 5059SOL    HW216077   0.768   0.800   2.144
 5060SOL     OW16078   6.431   2.348   5.782
 5060SOL    HW116079   6.413   2.349   5.880
 5060SOL    HW216080   6.515   2.296   5.765
 5061SOL     OW16081   5.535   3.969   0.024
 5061SOL    HW116082   5.441   3.964   0.058
 5061SOL    HW216083   5.582   4.046   0.067
 5062SOL     OW16084   0.607   6.938   0.917
 5062SOL    HW116085   0.518   6.928   0.961
 5062SOL    HW216086   0.670   6.987   0.977
 5063SOL     OW16087   1.146   6.551   1.829
 5063SOL    HW116088   1.163   6.630   1.887
 5063SOL    HW216089   1.127   6.471   1.886
 5064SOL     OW16090   4.707   3.179   0.005
 5064SOL    HW116091   4.616   3.218   0.019
 5064SOL    HW216092   4.743   3.145   0.091
 5065SOL     OW16093   2.137   6.335   5.568
 5065SOL    HW116094   2.136   6.253   5.510
 5065SOL    HW216095   2.211   6.395   5.539
 5066SOL     OW16096   5.696   4.955   1.303
 5066SOL    HW116097   5.622   4.920   1.362
 5066SOL    HW216098   5.754   4.878   1.274
 5067SOL     OW16099   5.060   1.134   0.258
 5067SOL    HW116100   5.000   1.060   0.286
 5067SOL    HW216101   5.153   1.100   0.245
 5068SOL     OW16102   2.652   5.117   0.941
 5068SOL    HW116103   2.563   5.161   0.950
 5068SOL    HW216104   2.722   5.176   0.982
 5069SOL     OW16105   0.811   4.402   3.284
 5069SOL    HW116106   0.855   4.348   3.357
 5069SOL    HW216107   0.712   4.387   3.287
 5070SOL     OW16108   5.409   3.003   3.699
 5070SOL    HW116109   5.354   2.922   3.722
 5070SOL    HW216110   5.463   3.030   3.779
 5071SOL     OW16111   4.207   1.669   6.979
 5071SOL    HW116112   4.156   1.729   6.917
 5071SOL    HW216113   4.256   1.725   0.018
 5072SOL     OW16114   1.580   4.221   1.627
 5072SOL    HW116115   1.612   4.127   1.631
 5072SOL    HW216116   1.484   4.222   1.598
 5073SOL     OW16117   4.214   0.817   3.495
 5073SOL    HW116118   4.135   0.829   3.556
 5073SOL    HW216119   4.220   0.897   3.434
 5074SOL     OW16120   2.623   4.136   6.404
 5074SOL    HW116121   2.618   4.036   6.405
 5074SOL    HW216122   2.582   4.172   6.488
 5075SOL     OW16123   0.527   5.686   4.404
 5075SOL    HW116124   0.619   5.656   4.379
 5075SOL    HW216125   0.504   5.650   4.495
 5076SOL     OW16126   3.360   0.292   1.324
 5076SOL    HW116127   3.384   0.230   1.249
 5076SOL    HW216128   3.269   0.331   1.307
 5077SOL     OW16129   6.995   2.211   2.845
 5077SOL    HW116130   6.957   2.226   2.754
 5077SOL    HW216131   0.067   2.210   2.840
 5078SOL     OW16132   1.095   1.724   3.804
 5078SOL    HW116133   1.086   1.624   3.806
 5078SOL    HW216134   1.007   1.764   3.779
 5079SOL     OW16135   3.608   5.305   5.410
 5079SOL    HW116136   3.702   5.270   5.406
 5079SOL    HW216137   3.546   5.231   5.435
 5080SOL     OW16138   5.930   6.725   5.679
 5080SOL    HW116139   5.922   6.783   5.760
 5080SOL    HW216140   6.018   6.676   5.681
 5081SOL     OW16141   3.463   3.420   3.563
 5081SOL    HW116142   3.551   3.419   3.611
 5081SOL    HW216143   3.443   3.329   3.527
 5082SOL     OW16144   6.035   5.849   4.998
 5082SOL    HW116145   6.020   5.917   4.926
 5082SOL    HW216146   5.963   5.779   4.993
 5083SOL     OW16147   1.792   5.664   1.893
 5083SOL    HW116148   1.694   5.662   1.912
 5083SOL    HW216149   1.839   5.603   1.956
 5084SOL     OW16150   1.539   5.882   3.335
 5084SOL    HW116151   1.602   5.862   3.259
 5084SOL    HW216152   1.450   5.841   3.317
 5085SOL     OW16153   6.509   2.638   6.407
 5085SOL    HW116154   6.521   2.734   6.380
 5085SOL    HW216155   6.477   2.634   6.501
 5086SOL     OW16156   6.541   5.097   3.372
 5086SOL    HW116157   6.492   5.184   3.375
 5086SOL    HW216158   6.572   5.073   3.463
 5087SOL     OW16159   0.254   5.522   5.749
 5087SOL    HW116160   0.170   5.469   5.738
 5087SOL    HW216161   0.269   5.541   5.846
 5088SOL     OW16162   5.854   0.156   6.510
 5088SOL    HW116163   5.850   0.108   6.598
 5088SOL    HW216164   5.763   0.157   6.468
 5089SOL     OW16165   5.445   3.479   3.435
 5089SOL    HW116166   5.517   3.416   3.465
 5089SOL    HW216167   5.458   3.501   3.339
 5090SOL     OW16168   1.374   5.077   1.149
 5090SOL    HW116169   1.284   5.052   1.185
 5090SOL    HW216170   1.381   5.177   1.145
 5091SOL     OW16171   1.389   5.921   2.884
 5091SOL    HW116172   1.339   5.986   2.940
 5091SOL    HW216173   1.326   5.874   2.822
 5092SOL     OW16174   3.884   2.555   1.600
 5092SOL    HW116175   3.843   2.644   1.622
 5092SOL    HW216176   3.975   2.569   1.562
 5093SOL     OW16177   0.725   2.165   1.475
 5093SOL    HW116178   0.824   2.158   1.470
 5093SOL    HW216179   0.684   2.091   1.421
 5094SOL     OW16180   0.441   0.406   5.804
 5094SOL    HW116181   0.488   0.369   5.885
 5094SOL    HW216182   0.508   0.423   5.732
 5095SOL     OW16183   2.602   6.746   5.412
 5095SOL    HW116184   2.647   6.829   5.378
 5095SOL    HW216185   2.622   6.735   5.510
 5096SOL     OW16186   4.278   4.921   1.255
 5096SOL    HW116187   4.355   4.936   1.317
 5096SOL    HW216188   4.308   4.931   1.160
 5097SOL     OW16189   1.377   0.163   6.028
 5097SOL    HW116190   1.353   0.127   6.118
 5097SOL    HW216191   1.476   0.178   6.024
 5098SOL     OW16192   0.432   1.856   2.737
 5098SOL    HW116193   0.434   1.906   2.650
 5098SOL    HW216194   0.338   1.851   2.770
 5099SOL     OW16195   1.221   0.379   5.261
 5099SOL    HW116196   1.211   0.281   5.281
 5099SOL    HW216197   1.171   0.401   5.178
 5100SOL     OW16198   5.107   6.827   5.962
 5100SOL    HW116199   5.173   6.861   5.894
 5100SOL    HW216200   5.036   6.896   5.977
 5101SOL     OW16201   4.170   6.143   0.375
 5101SOL    HW116202   4.236   6.084   0.420
 5101SOL    HW216203   4.127   6.204   0.442
 5102SOL     OW16204   3.474   6.468   5.186
 5102SOL    HW116205   3.520   6.404   5.124
 5102SOL    HW216206   3.385   6.431   5.212
 5103SOL     OW16207   0.855   1.159   4.263
 5103SOL    HW116208   0.868   1.070   4.218
 5103SOL    HW216209   0.935   1.181   4.318
 5104SOL     OW16210   1.673   0.216   1.202
 5104SOL    HW116211   1.605   0.215   1.275
 5104SOL    HW216212   1.701   0.310   1.184
 5105SOL     OW16213   2.690   3.991   6.747
 5105SOL    HW116214   2.671   3.966   6.652
 5105SOL    HW216215   2.781   4.032   6.752
 5106SOL     OW16216   3.240   0.128   2.090
 5106SOL    HW116217   3.204   0.220   2.107
 5106SOL    HW216218   3.172   0.074   2.041
 5107SOL     OW16219   1.591   6.742   5.531
 5107SOL    HW116220   1.598   6.841   5.545
 5107SOL    HW216221   1.504   6.722   5.485
 5108SOL     OW16222   3.165   3.535   4.194
 5108SOL    HW116223   3.213   3.583   4.120
 5108SOL    HW216224   3.216   3.453   4.219
 5109SOL     OW16225   6.855   1.209   1.228
 5109SOL    HW116226   6.819   1.125   1.268
 5109SOL    HW216227   6.857   1.280   1.298
 5110SOL     OW16228   2.027   5.591   5.816
 5110SOL    HW116229   1.985   5.675   5.848
 5110SOL    HW216230   2.058   5.537   5.894
 5111SOL     OW16231   1.319   0.968   0.892
 5111SOL    HW116232   1.275   0.938   0.977
 5111SOL    HW216233   1.250   0.996   0.826
 5112SOL     OW16234   0.374   6.341   3.777
 5112SOL    HW116235   0.368   6.407   3.701
 5112SOL    HW216236   0.283   6.311   3.802
 5113SOL     OW16237   1.298   6.741   6.958
 5113SOL    HW116238   1.320   6.689   6.875
 5113SOL    HW216239   1.205   6.720   6.986
 5114SOL     OW16240   4.165   4.981   0.223
 5114SOL    HW116241   4.140   4.942   0.311
 5114SOL    HW216242   4.088   5.034   0.186
 5115SOL     OW16243   2.031   3.529   5.575
 5115SOL    HW116244   2.028   3.620   5.535
 5115SOL    HW216245   1.964   3.523   5.649
 5116SOL     OW16246   0.083   4.105   1.024
 5116SOL    HW116247   0.012   4.166   0.990
 5116SOL    HW216248   0.046   4.012   1.030
 5117SOL     OW16249   2.533   4.550   4.489
 5117SOL    HW116250   2.580   4.608   4.422
 5117SOL    HW216251   2.591   4.537   4.569
 5118SOL     OW16252   4.599   6.207   1.050
 5118SOL    HW116253   4.536   6.248   1.116
 5118SOL    HW216254   4.626   6.276   0.983
 5119SOL     OW16255   5.706   6.972   2.124
 5119SOL    HW116256   5.789   6.955   2.177
 5119SOL    HW216257   5.637   7.014   2.183
 5120SOL     OW16258   4.917   1.395   2.818
 5120SOL    HW116259   4.881   1.416   2.909
 5120SOL    HW216260   4.841   1.389   2.753
 5121SOL     OW16261   0.323   3.902   5.344
 5121SOL    HW116262   0.400   3.844   5.370
 5121SOL    HW216263   0.343   3.997   5.370
 5122SOL     OW16264   1.911   6.358   3.556
 5122SOL    HW116265   1.897   6.365   3.655
 5122SOL    HW216266   2.004   6.387   3.533
 5123SOL     OW16267   5.354   4.897   2.300
 5123SOL    HW116268   5.320   4.821   2.355
 5123SOL    HW216269   5.281   4.963   2.286
 5124SOL     OW16270   2.960   6.245   0.092
 5124SOL    HW116271   3.044   6.194   0.114
 5124SOL    HW216272   2.979   6.343   0.097
 5125SOL     OW16273   6.942   2.800   5.749
 5125SOL    HW116274   0.014   2.791   5.754
 5125SOL    HW216275   6.900   2.740   5.817
 5126SOL     OW16276   5.262   3.458   6.253
 5126SOL    HW116277   5.249   3.473   6.155
 5126SOL    HW216278   5.176   3.430   6.295
 5127SOL     OW16279   5.944   3.054   6.498
 5127SOL    HW116280   5.849   3.077   6.474
 5127SOL    HW216281   5.946   2.964   6.541
 5128SOL     OW16282   0.549   0.935   6.782
 5128SOL    HW116283   0.587   1.016   6.827
 5128SOL    HW216284   0.538   0.953   6.684
 5129SOL     OW16285   4.268   2.330   2.761
 5129SOL    HW116286   4.206   2.407   2.746
 5129SOL    HW216287   4.226   2.265   2.823
 5130SOL     OW16288   1.007   6.117   4.782
 5130SOL    HW116289   1.067   6.064   4.723
 5130SOL    HW216290   0.945   6.172   4.725
 5131SOL     OW16291   3.147   4.986   3.518
 5131SOL    HW116292   3.095   4.958   3.438
 5131SOL    HW216293   3.241   4.952   3.511
 5132SOL     OW16294   3.251   1.054   6.848
 5132SOL    HW116295   3.284   0.961   6.866
 5132SOL    HW216296   3.173   1.049   6.785
 5133SOL     OW16297   4.970   4.406   6.610
 5133SOL    HW116298   4.900   4.453   6.664
 5133SOL    HW216299   5.051   4.465   6.603
 5134SOL     OW16300   6.027   6.129   1.148
 5134SOL    HW116301   6.114   6.162   1.184
 5134SOL    HW216302   5.984   6.202   1.095
 5135SOL     OW16303   6.365   3.132   2.736
 5135SOL    HW116304   6.312   3.049   2.750
 5135SOL    HW216305   6.315   3.210   2.773
 5136SOL     OW16306   1.377   1.121   5.861
 5136SOL    HW116307   1.382   1.116   5.961
 5136SOL    HW216308   1.287   1.157   5.834
 5137SOL     OW16309   6.240   0.977   4.595
 5137SOL    HW116310   6.236   1.071   4.563
 5137SOL    HW216311   6.237   0.974   4.695
 5138SOL     OW16312   3.067   3.356   3.909
 5138SOL    HW116313   3.166   3.372   3.909
 5138SOL    HW216314   3.021   3.430   3.957
 5139SOL     OW16315   2.877   0.286   5.819
 5139SOL    HW116316   2.873   0.372   5.767
 5139SOL    HW216317   2.965   0.280   5.867
 5140SOL     OW16318   3.816   3.252   6.730
 5140SOL    HW116319   3.857   3.268   6.640
 5140SOL    HW216320   3.749   3.324   6.749
 5141SOL     OW16321   6.610   2.813   1.761
 5141SOL    HW116322   6.691   2.780   1.712
 5141SOL    HW216323   6.539   2.743   1.758
 5142SOL     OW16324   0.117   0.084   2.402
 5142SOL    HW116325   0.035   0.045   2.444
 5142SOL    HW216326   0.091   0.163   2.346
 5143SOL     OW16327   6.939   6.464   2.776
 5143SOL    HW116328   6.892   6.478   2.863
 5143SOL    HW216329   6.998   6.542   2.757
 5144SOL     OW16330   2.400   3.145   5.468
 5144SOL    HW116331   2.470   3.087   5.426
 5144SOL    HW216332   2.310   3.107   5.450
 5145SOL     OW16333   2.378   5.477   6.524
 5145SOL    HW116334   2.408   5.408   6.459
 5145SOL    HW216335   2.421   5.565   6.502
 5146SOL     OW16336   5.240   5.770   6.653
 5146SOL    HW116337   5.183   5.757   6.572
 5146SOL    HW216338   5.316   5.832   6.630
 5147SOL     OW16339   4.626   2.648   3.096
 5147SOL    HW116340   4.577   2.730   3.067
 5147SOL    HW216341   4.680   2.669   3.177
 5148SOL     OW16342   0.716   0.078   6.417
 5148SOL    HW116343   0.702   0.112   6.510
 5148SOL    HW216344   0.775   0.141   6.366
 5149SOL     OW16345   4.797   5.152   4.071
 5149SOL    HW116346   4.877   5.183   4.020
 5149SOL    HW216347   4.721   5.137   4.008
 5150SOL     OW16348   0.300   6.584   4.001
 5150SOL    HW116349   0.236   6.610   3.930
 5150SOL    HW216350   0.270   6.621   4.089
 5151SOL     OW16351   5.967   5.668   2.267
 5151SOL    HW116352   6.004   5.664   2.174
 5151SOL    HW216353   5.916   5.753   2.278
 5152SOL     OW16354   1.673   1.061   0.512
 5152SOL    HW116355   1.592   1.093   0.463
 5152SOL    HW216356   1.680   1.109   0.600
 5153SOL     OW16357   0.929   1.824   0.883
 5153SOL    HW116358   0.835   1.789   0.880
 5153SOL    HW216359   0.964   1.816   0.977
 5154SOL     OW16360   6.910   3.131   0.822
 5154SOL    HW116361   7.002   3.102   0.797
 5154SOL    HW216362   6.844   3.085   0.762
 5155SOL     OW16363   1.860   1.428   0.437
 5155SOL    HW116364   1.903   1.518   0.439
 5155SOL    HW216365   1.926   1.361   0.402
 5156SOL     OW16366   5.359   6.195   5.301
 5156SOL    HW116367   5.390   6.285   5.332
 5156SOL    HW216368   5.340   6.137   5.380
 5157SOL     OW16369   3.122   0.187   1.591
 5157SOL    HW116370   3.085   0.152   1.677
 5157SOL    HW216371   3.071   0.268   1.564
 5158SOL     OW16372   1.814   2.275   1.534
 5158SOL    HW116373   1.756   2.328   1.474
 5158SOL    HW216374   1.800   2.302   1.629
 5159SOL     OW16375   6.570   3.055   5.959
 5159SOL    HW116376   6.479   3.081   5.989
 5159SOL    HW216377   6.580   3.076   5.862
 5160SOL     OW16378   6.107   6.774   3.888
 5160SOL    HW116379   6.021   6.783   3.938
 5160SOL    HW216380   6.132   6.862   3.847
 5161SOL     OW16381   1.642   3.527   0.267
 5161SOL    HW116382   1.568   3.593   0.277
 5161SOL    HW216383   1.628   3.474   0.183
 5162SOL     OW16384   6.466   0.225   3.643
 5162SOL    HW116385   6.501   0.255   3.731
 5162SOL    HW216386   6.398   0.152   3.657
 5163SOL     OW16387   2.739   0.891   1.732
 5163SOL    HW116388   2.793   0.934   1.659
 5163SOL    HW216389   2.644   0.884   1.703
 5164SOL     OW16390   2.738   3.627   0.027
 5164SOL    HW116391   2.832   3.657   0.043
 5164SOL    HW216392   2.730   3.530   0.049
 5165SOL     OW16393   1.701   4.258   6.316
 5165SOL    HW116394   1.618   4.313   6.325
 5165SOL    HW216395   1.743   4.246   6.405
 5166SOL     OW16396   1.217   5.397   0.875
 5166SOL    HW116397   1.152   5.342   0.927
 5166SOL    HW216398   1.234   5.483   0.922
 5167SOL     OW16399   5.581   3.260   5.269
 5167SOL    HW116400   5.561   3.174   5.222
 5167SOL    HW216401   5.536   3.336   5.221
 5168SOL     OW16402   4.515   2.438   2.799
 5168SOL    HW116403   4.552   2.442   2.892
 5168SOL    HW216404   4.424   2.397   2.801
 5169SOL     OW16405   3.921   5.797   4.399
 5169SOL    HW116406   3.835   5.809   4.350
 5169SOL    HW216407   3.997   5.823   4.340
 5170SOL     OW16408   2.092   3.260   6.686
 5170SOL    HW116409   2.095   3.357   6.709
 5170SOL    HW216410   2.166   3.238   6.622
 5171SOL     OW16411   1.898   5.816   5.905
 5171SOL    HW116412   1.951   5.820   5.990
 5171SOL    HW216413   1.800   5.822   5.927
 5172SOL     OW16414   6.017   5.472   5.265
 5172SOL    HW116415   5.983   5.485   5.172
 5172SOL    HW216416   5.946   5.430   5.322
 5173SOL     OW16417   4.060   4.902   5.828
 5173SOL    HW116418   4.118   4.975   5.862
 5173SOL    HW216419   4.067   4.898   5.728
 5174SOL     OW16420   2.169   6.260   3.881
 5174SOL    HW116421   2.235   6.288   3.811
 5174SOL    HW216422   2.076   6.278   3.848
 5175SOL     OW16423   3.184   3.127   0.035
 5175SOL    HW116424   3.160   3.224   0.049
 5175SOL    HW216425   3.112   3.069   0.072
 5176SOL     OW16426   6.095   6.514   6.816
 5176SOL    HW116427   6.060   6.565   6.894
 5176SOL    HW216428   6.132   6.577   6.748
 5177SOL     OW16429   6.394   6.961   0.278
 5177SOL    HW116430   6.446   6.881   0.248
 5177SOL    HW216431   6.303   6.933   0.306
 5178SOL     OW16432   1.036   4.148   1.536
 5178SOL    HW116433   0.997   4.189   1.619
 5178SOL    HW216434   0.991   4.061   1.518
 5179SOL     OW16435   5.014   6.180   2.525
 5179SOL    HW116436   4.980   6.153   2.434
 5179SOL    HW216437   5.004   6.103   2.588
 5180SOL     OW16438   2.132   6.223   2.597
 5180SOL    HW116439   2.033   6.220   2.608
 5180SOL    HW216440   2.176   6.177   2.674
 5181SOL     OW16441   6.978   0.179   6.286
 5181SOL    HW116442   6.979   0.091   6.335
 5181SOL    HW216443   6.897   0.183   6.228
 5182SOL     OW16444   2.763   6.487   3.279
 5182SOL    HW116445   2.742   6.534   3.365
 5182SOL    HW216446   2.707   6.526   3.206
 5183SOL     OW16447   4.282   1.671   3.773
 5183SOL    HW116448   4.363   1.724   3.797
 5183SOL    HW216449   4.254   1.693   3.679
 5184SOL     OW16450   2.849   1.322   3.880
 5184SOL    HW116451   2.850   1.232   3.837
 5184SOL    HW216452   2.789   1.383   3.828
 5185SOL     OW16453   6.650   0.431   1.359
 5185SOL    HW116454   6.746   0.408   1.343
 5185SOL    HW216455   6.591   0.372   1.303
 5186SOL     OW16456   6.819   3.724   6.583
 5186SOL    HW116457   6.864   3.738   6.494
 5186SOL    HW216458   6.748   3.655   6.573
 5187SOL     OW16459   1.181   4.541   4.824
 5187SOL    HW116460   1.226   4.611   4.881
 5187SOL    HW216461   1.241   4.516   4.749
 5188SOL     OW16462   5.769   0.136   2.673
 5188SOL    HW116463   5.855   0.095   2.645
 5188SOL    HW216464   5.748   0.214   2.613
 5189SOL     OW16465   5.357   0.012   6.260
 5189SOL    HW116466   5.306   0.034   6.343
 5189SOL    HW216467   5.454   0.006   6.281
 5190SOL     OW16468   1.643   4.330   0.511
 5190SOL    HW116469   1.733   4.371   0.491
 5190SOL    HW216470   1.620   4.349   0.606
 5191SOL     OW16471   2.739   5.020   1.858
 5191SOL    HW116472   2.836   5.014   1.881
 5191SOL    HW216473   2.715   5.115   1.839
 5192SOL     OW16474   1.863   5.065   2.660
 5192SOL    HW116475   1.767   5.043   2.644
 5192SOL    HW216476   1.870   5.128   2.737
 5193SOL     OW16477   5.360   0.385   5.194
 5193SOL    HW116478   5.380   0.373   5.291
 5193SOL    HW216479   5.386   0.302   5.144
 5194SOL     OW16480   5.213   1.326   6.196
 5194SOL    HW116481   5.224   1.268   6.115
 5194SOL    HW216482   5.244   1.419   6.175
 5195SOL     OW16483   0.241   0.673   4.856
 5195SOL    HW116484   0.329   0.626   4.848
 5195SOL    HW216485   0.220   0.688   4.953
 5196SOL     OW16486   6.056   6.712   3.374
 5196SOL    HW116487   6.113   6.648   3.424
 5196SOL    HW216488   5.974   6.665   3.340
 5197SOL     OW16489   0.992   3.364   4.782
 5197SOL    HW116490   1.017   3.390   4.875
 5197SOL    HW216491   0.904   3.316   4.783
 5198SOL     OW16492   5.780   5.452   3.620
 5198SOL    HW116493   5.814   5.374   3.569
 5198SOL    HW216494   5.771   5.531   3.559
 5199SOL     OW16495   0.598   4.647   1.650
 5199SOL    HW116496   0.506   4.634   1.687
 5199SOL    HW216497   0.602   4.733   1.598
 5200SOL     OW16498   0.025   3.758   4.671
 5200SOL    HW116499   0.093   3.831   4.660
 5200SOL    HW216500   0.069   3.678   4.711
 5201SOL     OW16501   1.033   5.034   4.192
 5201SOL    HW116502   1.100   4.982   4.245
 5201SOL    HW216503   1.068   5.127   4.176
 5202SOL     OW16504   1.001   4.911   2.248
 5202SOL    HW116505   0.914   4.862   2.249
 5202SOL    HW216506   1.046   4.898   2.159
 5203SOL     OW16507   0.680   3.177   0.145
 5203SOL    HW116508   0.702   3.083   0.121
 5203SOL    HW216509   0.669   3.183   0.245
 5204SOL     OW16510   4.907   4.227   0.124
 5204SOL    HW116511   4.852   4.180   0.055
 5204SOL    HW216512   4.942   4.161   0.191
 5205SOL     OW16513   1.494   6.999   1.178
 5205SOL    HW116514   1.418   0.035   1.195
 5205SOL    HW216515   1.577   0.023   1.157
 5206SOL     OW16516   0.232   4.257   4.857
 5206SOL    HW116517   0.297   4.191   4.895
 5206SOL    HW216518   0.196   4.314   4.931
 5207SOL     OW16519   1.682   4.571   4.007
 5207SOL    HW116520   1.715   4.630   4.081
 5207SOL    HW216521   1.585   4.552   4.020
 5208SOL     OW16522   4.711   1.196   0.116
 5208SOL    HW116523   4.778   1.265   0.145
 5208SOL    HW216524   4.685   1.214   0.021
 5209SOL     OW16525   5.600   5.935   3.085
 5209SOL    HW116526   5.546   6.011   3.048
 5209SOL    HW216527   5.696   5.963   3.092
 5210SOL     OW16528   4.398   4.805   3.368
 5210SOL    HW116529   4.411   4.737   3.439
 5210SOL    HW216530   4.482   4.857   3.355
 5211SOL     OW16531   3.793   3.626   2.323
 5211SOL    HW116532   3.781   3.554   2.391
 5211SOL    HW216533   3.738   3.705   2.349
 5212SOL     OW16534   1.008   1.665   0.456
 5212SOL    HW116535   1.092   1.691   0.409
 5212SOL    HW216536   1.029   1.634   0.548
 5213SOL     OW16537   4.057   1.761   6.452
 5213SOL    HW116538   4.095   1.672   6.479
 5213SOL    HW216539   3.965   1.748   6.415
 5214SOL     OW16540   5.601   1.442   5.934
 5214SOL    HW116541   5.658   1.405   5.860
 5214SOL    HW216542   5.512   1.468   5.897
 5215SOL     OW16543   5.089   5.174   2.578
 5215SOL    HW116544   5.024   5.190   2.652
 5215SOL    HW216545   5.073   5.239   2.504
 5216SOL     OW16546   4.768   5.945   0.834
 5216SOL    HW116547   4.701   5.913   0.767
 5216SOL    HW216548   4.727   5.946   0.925
 5217SOL     OW16549   2.605   4.589   4.109
 5217SOL    HW116550   2.592   4.653   4.034
 5217SOL    HW216551   2.612   4.496   4.073
 5218SOL     OW16552   1.589   0.142   4.422
 5218SOL    HW116553   1.681   0.169   4.393
 5218SOL    HW216554   1.594   0.096   4.510
 5219SOL     OW16555   2.529   5.636   0.256
 5219SOL    HW116556   2.455   5.628   0.322
 5219SOL    HW216557   2.581   5.551   0.253
 5220SOL     OW16558   0.539   6.848   2.378
 5220SOL    HW116559   0.605   6.914   2.410
 5220SOL    HW216560   0.562   6.757   2.413
 5221SOL     OW16561   4.957   1.222   5.207
 5221SOL    HW116562   5.055   1.202   5.215
 5221SOL    HW216563   4.916   1.218   5.298
 5222SOL     OW16564   1.016   0.371   2.653
 5222SOL    HW116565   1.100   0.338   2.609
 5222SOL    HW216566   0.940   0.312   2.628
 5223SOL     OW16567   5.360   6.782   1.229
 5223SOL    HW116568   5.322   6.875   1.239
 5223SOL    HW216569   5.454   6.788   1.196
 5224SOL     OW16570   5.838   1.592   2.709
 5224SOL    HW116571   5.875   1.521   2.649
 5224SOL    HW216572   5.753   1.558   2.751
 5225SOL     OW16573   5.603   6.014   5.544
 5225SOL    HW116574   5.671   6.058   5.485
 5225SOL    HW216575   5.577   6.077   5.618
 5226SOL     OW16576   1.384   6.448   4.220
 5226SOL    HW116577   1.348   6.532   4.178
 5226SOL    HW216578   1.452   6.472   4.290
 5227SOL     OW16579   6.166   4.954   2.996
 5227SOL    HW116580   6.162   4.890   3.073
 5227SOL    HW216581   6.194   5.044   3.029
 5228SOL     OW16582   5.664   1.059   0.960
 5228SOL    HW116583   5.639   1.003   1.039
 5228SOL    HW216584   5.763   1.069   0.956
 5229SOL     OW16585   0.907   4.421   4.804
 5229SOL    HW116586   0.911   4.325   4.775
 5229SOL    HW216587   0.997   4.463   4.791
 5230SOL     OW16588   0.818   6.654   6.870
 5230SOL    HW116589   0.873   6.727   6.910
 5230SOL    HW216590   0.735   6.693   6.828
 5231SOL     OW16591   3.420   3.134   3.824
 5231SOL    HW116592   3.463   3.057   3.777
 5231SOL    HW216593   3.359   3.100   3.896
 5232SOL     OW16594   4.967   2.769   6.302
 5232SOL    HW116595   4.988   2.768   6.399
 5232SOL    HW216596   4.870   2.753   6.288
 5233SOL     OW16597   0.317   0.793   2.258
 5233SOL    HW116598   0.219   0.802   2.243
 5233SOL    HW216599   0.351   0.710   2.213
 5234SOL     OW16600   3.679   6.688   1.184
 5234SOL    HW116601   3.703   6.707   1.089
 5234SOL    HW216602   3.647   6.773   1.227
 5235SOL     OW16603   0.754   3.557   1.224
 5235SOL    HW116604   0.694   3.478   1.213
 5235SOL    HW216605   0.705   3.641   1.202
 5236SOL     OW16606   5.276   2.952   1.024
 5236SOL    HW116607   5.340   2.888   1.066
 5236SOL    HW216608   5.194   2.903   0.995
 5237SOL     OW16609   2.447   1.623   4.812
 5237SOL    HW116610   2.409   1.653   4.724
 5237SOL    HW216611   2.540   1.659   4.822
 5238SOL     OW16612   1.671   4.475   1.292
 5238SOL    HW116613   1.687   4.420   1.374
 5238SOL    HW216614   1.759   4.495   1.248
 5239SOL     OW16615   2.941   3.690   5.014
 5239SOL    HW116616   2.892   3.632   4.949
 5239SOL    HW216617   2.946   3.783   4.978
 5240SOL     OW16618   3.296   2.061   4.923
 5240SOL    HW116619   3.255   2.144   4.961
 5240SOL    HW216620   3.239   1.982   4.946
 5241SOL     OW16621   2.101   5.470   6.075
 5241SOL    HW116622   2.191   5.502   6.106
 5241SOL    HW216623   2.084   5.378   6.110
 5242SOL     OW16624   5.551   1.009   6.205
 5242SOL    HW116625   5.573   1.032   6.300
 5242SOL    HW216626   5.454   1.028   6.188
 5243SOL     OW16627   0.981   4.576   1.330
 5243SOL    HW116628   0.903   4.586   1.268
 5243SOL    HW216629   0.948   4.565   1.424
 5244SOL     OW16630   5.616   3.895   6.365
 5244SOL    HW116631   5.656   3.894   6.274
 5244SOL    HW216632   5.563   3.979   6.378
 5245SOL     OW16633   5.067   3.970   6.870
 5245SOL    HW116634   5.130   3.984   6.946
 5245SOL    HW216635   5.088   3.883   6.825
 5246SOL     OW16636   1.116   3.144   2.924
 5246SOL    HW116637   1.081   3.051   2.926
 5246SOL    HW216638   1.187   3.154   2.995
 5247SOL     OW16639   0.764   5.272   1.436
 5247SOL    HW116640   0.699   5.319   1.495
 5247SOL    HW216641   0.716   5.203   1.381
 5248SOL     OW16642   4.776   0.739   6.729
 5248SOL    HW116643   4.868   0.779   6.734
 5248SOL    HW216644   4.713   0.795   6.783
 5249SOL     OW16645   1.178   5.509   4.796
 5249SOL    HW116646   1.141   5.435   4.853
 5249SOL    HW216647   1.167   5.485   4.700
 5250SOL     OW16648   0.862   0.719   6.222
 5250SOL    HW116649   0.873   0.774   6.139
 5250SOL    HW216650   0.898   0.769   6.301
 5251SOL     OW16651   6.906   3.152   1.488
 5251SOL    HW116652   6.975   3.156   1.415
 5251SOL    HW216653   6.951   3.133   1.575
 5252SOL     OW16654   4.247   5.704   0.411
 5252SOL    HW116655   4.227   5.794   0.374
 5252SOL    HW216656   4.238   5.706   0.511
 5253SOL     OW16657   5.598   3.273   3.555
 5253SOL    HW116658   5.535   3.204   3.521
 5253SOL    HW216659   5.605   3.267   3.655
 5254SOL     OW16660   4.708   0.972   4.142
 5254SOL    HW116661   4.687   1.021   4.057
 5254SOL    HW216662   4.652   0.889   4.147
 5255SOL     OW16663   3.528   6.608   4.716
 5255SOL    HW116664   3.506   6.533   4.777
 5255SOL    HW216665   3.520   6.695   4.766
 5256SOL     OW16666   6.015   6.593   3.685
 5256SOL    HW116667   6.099   6.548   3.652
 5256SOL    HW216668   6.037   6.656   3.759
 5257SOL     OW16669   3.438   0.950   1.166
 5257SOL    HW116670   3.439   1.015   1.242
 5257SOL    HW216671   3.399   0.864   1.196
 5258SOL     OW16672   5.833   3.147   2.317
 5258SOL    HW116673   5.746   3.105   2.292
 5258SOL    HW216674   5.906   3.107   2.262
 5259SOL     OW16675   4.701   4.896   2.319
 5259SOL    HW116676   4.643   4.928   2.243
 5259SOL    HW216677   4.704   4.796   2.318
 5260SOL     OW16678   5.498   3.415   1.552
 5260SOL    HW116679   5.416   3.411   1.609
 5260SOL    HW216680   5.481   3.474   1.473
 5261SOL     OW16681   1.639   2.842   4.761
 5261SOL    HW116682   1.605   2.897   4.837
 5261SOL    HW216683   1.696   2.768   4.797
 5262SOL     OW16684   2.729   6.611   2.306
 5262SOL    HW116685   2.671   6.567   2.374
 5262SOL    HW216686   2.673   6.639   2.228
 5263SOL     OW16687   0.942   6.419   0.307
 5263SOL    HW116688   0.911   6.450   0.397
 5263SOL    HW216689   0.881   6.454   0.236
 5264SOL     OW16690   0.375   2.595   0.965
 5264SOL    HW116691   0.327   2.508   0.952
 5264SOL    HW216692   0.473   2.578   0.975
 5265SOL     OW16693   5.106   5.120   1.913
 5265SOL    HW116694   5.091   5.037   1.967
 5265SOL    HW216695   5.067   5.107   1.821
 5266SOL     OW16696   2.005   6.649   0.902
 5266SOL    HW116697   2.044   6.680   0.816
 5266SOL    HW216698   1.987   6.728   0.961
 5267SOL     OW16699   5.133   4.806   4.611
 5267SOL    HW116700   5.140   4.886   4.551
 5267SOL    HW216701   5.200   4.737   4.581
 5268SOL     OW16702   6.049   4.695   4.279
 5268SOL    HW116703   6.045   4.690   4.179
 5268SOL    HW216704   6.141   4.725   4.307
 5269SOL     OW16705   1.585   5.796   4.169
 5269SOL    HW116706   1.684   5.806   4.160
 5269SOL    HW216707   1.541   5.819   4.082
 5270SOL     OW16708   6.287   2.674   2.585
 5270SOL    HW116709   6.348   2.710   2.514
 5270SOL    HW216710   6.326   2.591   2.623
 5271SOL     OW16711   4.604   4.858   4.874
 5271SOL    HW116712   4.649   4.854   4.963
 5271SOL    HW216713   4.606   4.952   4.840
 5272SOL     OW16714   1.741   1.057   4.814
 5272SOL    HW116715   1.643   1.048   4.836
 5272SOL    HW216716   1.774   0.971   4.776
 5273SOL     OW16717   0.487   1.095   4.113
 5273SOL    HW116718   0.556   1.102   4.041
 5273SOL    HW216719   0.532   1.083   4.202
 5274SOL     OW16720   6.522   5.190   3.840
 5274SOL    HW116721   6.539   5.283   3.874
 5274SOL    HW216722   6.572   5.124   3.896
 5275SOL     OW16723   2.318   6.831   6.992
 5275SOL    HW116724   2.273   6.829   0.053
 5275SOL    HW216725   2.332   6.738   6.959
 5276SOL     OW16726   0.233   6.539   1.187
 5276SOL    HW116727   0.239   6.525   1.088
 5276SOL    HW216728   0.137   6.554   1.212
 5277SOL     OW16729   1.048   1.824   2.876
 5277SOL    HW116730   1.078   1.827   2.781
 5277SOL    HW216731   1.067   1.734   2.914
 5278SOL     OW16732   1.259   5.112   5.725
 5278SOL    HW116733   1.247   5.206   5.757
 5278SOL    HW216734   1.169   5.073   5.704
 5279SOL     OW16735   1.978   5.765   6.451
 5279SOL    HW116736   1.997   5.775   6.549
 5279SOL    HW216737   1.990   5.670   6.424
 5280SOL     OW16738   3.935   6.243   5.035
 5280SOL    HW116739   3.910   6.304   4.960
 5280SOL    HW216740   3.995   6.291   5.099
 5281SOL     OW16741   2.364   0.797   4.790
 5281SOL    HW116742   2.407   0.856   4.722
 5281SOL    HW216743   2.319   0.853   4.859
 5282SOL     OW16744   1.496   0.009   1.681
 5282SOL    HW116745   1.536   0.079   1.622
 5282SOL    HW216746   1.542   6.949   1.665
 5283SOL     OW16747   0.722   0.999   4.667
 5283SOL    HW116748   0.694   0.942   4.744
 5283SOL    HW216749   0.643   1.050   4.633
 5284SOL     OW16750   4.512   2.478   1.343
 5284SOL    HW116751   4.495   2.413   1.416
 5284SOL    HW216752   4.432   2.537   1.332
 5285SOL     OW16753   1.325   2.342   4.481
 5285SOL    HW116754   1.345   2.251   4.446
 5285SOL    HW216755   1.244   2.378   4.435
 5286SOL     OW16756   6.230   3.357   0.869
 5286SOL    HW116757   6.161   3.332   0.937
 5286SOL    HW216758   6.199   3.327   0.779
 5287SOL     OW16759   2.328   5.424   1.441
 5287SOL    HW116760   2.419   5.424   1.482
 5287SOL    HW216761   2.277   5.345   1.475
 5288SOL     OW16762   4.047   0.589   2.126
 5288SOL    HW116763   4.003   0.501   2.145
 5288SOL    HW216764   4.103   0.580   2.043
 5289SOL     OW16765   2.173   4.898   6.483
 5289SOL    HW116766   2.195   4.812   6.527
 5289SOL    HW216767   2.118   4.881   6.401
 5290SOL     OW16768   1.644   2.926   5.381
 5290SOL    HW116769   1.594   2.979   5.449
 5290SOL    HW216770   1.589   2.847   5.354
 5291SOL     OW16771   2.813   4.828   4.885
 5291SOL    HW116772   2.813   4.773   4.801
 5291SOL    HW216773   2.810   4.767   4.965
 5292SOL     OW16774   6.788   4.111   6.022
 5292SOL    HW116775   6.701   4.075   6.054
 5292SOL    HW216776   6.840   4.148   6.099
 5293SOL     OW16777   2.033   5.752   4.485
 5293SOL    HW116778   1.977   5.676   4.451
 5293SOL    HW216779   2.096   5.781   4.413
 5294SOL     OW16780   3.829   0.458   5.152
 5294SOL    HW116781   3.746   0.508   5.130
 5294SOL    HW216782   3.858   0.481   5.245
 5295SOL     OW16783   2.644   1.474   2.126
 5295SOL    HW116784   2.690   1.525   2.053
 5295SOL    HW216785   2.702   1.398   2.155
 5296SOL     OW16786   4.873   4.992   1.181
 5296SOL    HW116787   4.826   5.077   1.159
 5296SOL    HW216788   4.966   4.995   1.143
 5297SOL     OW16789   2.536   4.731   0.495
 5297SOL    HW116790   2.598   4.808   0.485
 5297SOL    HW216791   2.510   4.721   0.592
 5298SOL     OW16792   2.104   0.628   0.731
 5298SOL    HW116793   2.052   0.549   0.762
 5298SOL    HW216794   2.132   0.614   0.636
 5299SOL     OW16795   2.934   1.910   0.524
 5299SOL    HW116796   2.980   1.908   0.435
 5299SOL    HW216797   2.910   1.817   0.551
 5300SOL     OW16798   1.977   4.212   0.222
 5300SOL    HW116799   2.059   4.167   0.258
 5300SOL    HW216800   1.927   4.147   0.164
 5301SOL     OW16801   4.900   0.608   5.805
 5301SOL    HW116802   4.921   0.668   5.728
 5301SOL    HW216803   4.957   0.526   5.800
 5302SOL     OW16804   5.583   5.852   3.345
 5302SOL    HW116805   5.496   5.817   3.380
 5302SOL    HW216806   5.573   5.874   3.248
 5303SOL     OW16807   0.164   5.212   5.959
 5303SOL    HW116808   0.228   5.232   5.885
 5303SOL    HW216809   0.108   5.133   5.934
 5304SOL     OW16810   6.819   0.711   1.279
 5304SOL    HW116811   6.792   0.802   1.246
 5304SOL    HW216812   6.748   0.674   1.338
 5305SOL     OW16813   1.386   4.913   2.996
 5305SOL    HW116814   1.355   4.825   3.032
 5305SOL    HW216815   1.406   4.975   3.073
 5306SOL     OW16816   6.800   3.813   5.642
 5306SOL    HW116817   6.719   3.776   5.687
 5306SOL    HW216818   6.775   3.846   5.551
 5307SOL     OW16819   5.600   2.549   1.157
 5307SOL    HW116820   5.696   2.574   1.169
 5307SOL    HW216821   5.549   2.628   1.123
 5308SOL     OW16822   1.454   4.445   2.864
 5308SOL    HW116823   1.391   4.517   2.894
 5308SOL    HW216824   1.409   4.388   2.796
 5309SOL     OW16825   5.447   6.548   3.015
 5309SOL    HW116826   5.353   6.523   3.037
 5309SOL    HW216827   5.450   6.582   2.921
 5310SOL     OW16828   6.282   2.971   3.141
 5310SOL    HW116829   6.245   2.894   3.090
 5310SOL    HW216830   6.207   3.019   3.187
 5311SOL     OW16831   5.846   0.023   0.667
 5311SOL    HW116832   5.862   6.981   0.597
 5311SOL    HW216833   5.930   0.077   0.680
 5312SOL     OW16834   6.761   6.317   0.986
 5312SOL    HW116835   6.726   6.229   0.952
 5312SOL    HW216836   6.712   6.392   0.941
 5313SOL     OW16837   0.021   5.058   5.393
 5313SOL    HW116838   6.996   5.126   5.342
 5313SOL    HW216839   0.116   5.061   5.363
 5314SOL     OW16840   6.311   0.554   1.390
 5314SOL    HW116841   6.296   0.484   1.320
 5314SOL    HW216842   6.368   0.627   1.353
 5315SOL     OW16843   4.285   1.277   3.760
 5315SOL    HW116844   4.227   1.347   3.803
 5315SOL    HW216845   4.375   1.316   3.741
 5316SOL     OW16846   0.711   2.808   5.129
 5316SOL    HW116847   0.730   2.730   5.070
 5316SOL    HW216848   0.767   2.802   5.212
 5317SOL     OW16849   6.892   2.023   5.775
 5317SOL    HW116850   6.856   1.961   5.705
 5317SOL    HW216851   6.990   2.010   5.784
 5318SOL     OW16852   6.564   2.849   0.173
 5318SOL    HW116853   6.627   2.803   0.111
 5318SOL    HW216854   6.542   2.789   0.249
 5319SOL     OW16855   4.175   6.795   1.251
 5319SOL    HW116856   4.214   6.798   1.159
 5319SOL    HW216857   4.095   6.736   1.252
 5320SOL     OW16858   3.271   5.843   1.171
 5320SOL    HW116859   3.205   5.781   1.130
 5320SOL    HW216860   3.241   5.868   1.264
 5321SOL     OW16861   1.812   4.424   5.029
 5321SOL    HW116862   1.901   4.460   5.058
 5321SOL    HW216863   1.811   4.416   4.929
 5322SOL     OW16864   5.437   6.863   1.752
 5322SOL    HW116865   5.395   6.775   1.771
 5322SOL    HW216866   5.515   6.877   1.813
 5323SOL     OW16867   4.845   1.428   5.451
 5323SOL    HW116868   4.758   1.381   5.465
 5323SOL    HW216869   4.829   1.518   5.411
 5324SOL     OW16870   2.092   1.962   0.383
 5324SOL    HW116871   2.055   1.993   0.295
 5324SOL    HW216872   2.125   1.868   0.374
 5325SOL     OW16873   2.709   2.344   4.909
 5325SOL    HW116874   2.729   2.369   5.004
 5325SOL    HW216875   2.619   2.303   4.903
 5326SOL     OW16876   5.938   6.676   2.909
 5326SOL    HW116877   5.914   6.765   2.948
 5326SOL    HW216878   5.928   6.680   2.809
 5327SOL     OW16879   5.365   2.631   5.044
 5327SOL    HW116880   5.279   2.630   4.993
 5327SOL    HW216881   5.442   2.619   4.981
 5328SOL     OW16882   4.213   4.416   6.889
 5328SOL    HW116883   4.244   4.323   6.872
 5328SOL    HW216884   4.129   4.414   6.943
 5329SOL     OW16885   1.369   6.445   6.498
 5329SOL    HW116886   1.325   6.531   6.471
 5329SOL    HW216887   1.330   6.369   6.446
 5330SOL     OW16888   2.825   3.585   0.401
 5330SOL    HW116889   2.920   3.603   0.375
 5330SOL    HW216890   2.818   3.581   0.501
 5331SOL     OW16891   6.784   0.744   6.792
 5331SOL    HW116892   6.790   0.645   6.779
 5331SOL    HW216893   6.876   0.782   6.796
 5332SOL     OW16894   1.090   4.626   2.209
 5332SOL    HW116895   1.097   4.691   2.132
 5332SOL    HW216896   1.119   4.671   2.293
 5333SOL     OW16897   0.937   6.701   4.227
 5333SOL    HW116898   0.938   6.736   4.320
 5333SOL    HW216899   0.917   6.603   4.228
 5334SOL     OW16900   2.879   0.125   4.280
 5334SOL    HW116901   2.840   0.179   4.206
 5334SOL    HW216902   2.979   0.133   4.279
 5335SOL     OW16903   6.629   5.509   1.097
 5335SOL    HW116904   6.560   5.545   1.034
 5335SOL    HW216905   6.618   5.554   1.186
 5336SOL     OW16906   1.769   3.979   2.059
 5336SOL    HW116907   1.752   3.886   2.026
 5336SOL    HW216908   1.844   3.977   2.126
 5337SOL     OW16909   4.733   4.546   1.397
 5337SOL    HW116910   4.699   4.483   1.327
 5337SOL    HW216911   4.704   4.639   1.376
 5338SOL     OW16912   6.856   2.348   6.836
 5338SOL    HW116913   6.775   2.353   6.777
 5338SOL    HW216914   6.828   2.352   6.932
 5339SOL     OW16915   6.587   1.915   3.965
 5339SOL    HW116916   6.572   2.013   3.957
 5339SOL    HW216917   6.631   1.882   3.881
 5340SOL     OW16918   5.259   2.776   6.828
 5340SOL    HW116919   5.342   2.800   6.878
 5340SOL    HW216920   5.237   2.848   6.762
 5341SOL     OW16921   5.105   0.530   6.532
 5341SOL    HW116922   5.102   0.626   6.504
 5341SOL    HW216923   5.142   0.475   6.457
 5342SOL     OW16924   4.210   1.173   5.655
 5342SOL    HW116925   4.248   1.250   5.605
 5342SOL    HW216926   4.270   1.148   5.731
 5343SOL     OW16927   4.028   3.306   2.570
 5343SOL    HW116928   3.935   3.328   2.599
 5343SOL    HW216929   4.046   3.347   2.480
 5344SOL     OW16930   1.837   2.705   2.958
 5344SOL    HW116931   1.775   2.628   2.944
 5344SOL    HW216932   1.891   2.689   3.041
 5345SOL     OW16933   4.321   6.753   1.012
 5345SOL    HW116934   4.323   6.775   0.915
 5345SOL    HW216935   4.400   6.795   1.058
 5346SOL     OW16936   2.952   6.108   3.158
 5346SOL    HW116937   2.986   6.187   3.210
 5346SOL    HW216938   2.878   6.064   3.209
 5347SOL     OW16939   6.996   2.095   1.089
 5347SOL    HW116940   0.014   2.174   1.129
 5347SOL    HW216941   0.003   2.011   1.130
 5348SOL     OW16942   1.213   0.989   0.180
 5348SOL    HW116943   1.206   0.930   0.099
 5348SOL    HW216944   1.226   0.933   0.261
 5349SOL     OW16945   6.895   0.852   1.009
 5349SOL    HW116946   6.967   0.858   0.941
 5349SOL    HW216947   6.840   0.936   1.008
 5350SOL     OW16948   2.300   1.168   6.353
 5350SOL    HW116949   2.254   1.247   6.393
 5350SOL    HW216950   2.285   1.166   6.255
 5351SOL     OW16951   4.583   6.577   1.302
 5351SOL    HW116952   4.518   6.639   1.346
 5351SOL    HW216953   4.676   6.602   1.328
 5352SOL     OW16954   3.034   6.142   3.548
 5352SOL    HW116955   3.115   6.087   3.570
 5352SOL    HW216956   3.055   6.204   3.472
 5353SOL     OW16957   5.194   5.489   5.337
 5353SOL    HW116958   5.163   5.394   5.329
 5353SOL    HW216959   5.288   5.490   5.371
 5354SOL     OW16960   1.312   4.186   1.537
 5354SOL    HW116961   1.341   4.091   1.522
 5354SOL    HW216962   1.218   4.197   1.505
 5355SOL     OW16963   4.167   1.756   4.151
 5355SOL    HW116964   4.183   1.796   4.241
 5355SOL    HW216965   4.182   1.826   4.080
 5356SOL     OW16966   6.433   3.853   1.609
 5356SOL    HW116967   6.505   3.920   1.629
 5356SOL    HW216968   6.372   3.846   1.688
 5357SOL     OW16969   3.842   0.145   0.154
 5357SOL    HW116970   3.807   0.062   0.110
 5357SOL    HW216971   3.862   0.214   0.084
 5358SOL     OW16972   4.958   3.214   0.754
 5358SOL    HW116973   4.890   3.168   0.698
 5358SOL    HW216974   5.029   3.149   0.781
 5359SOL     OW16975   1.917   1.693   0.529
 5359SOL    HW116976   1.917   1.738   0.619
 5359SOL    HW216977   1.865   1.748   0.464
 5360SOL     OW16978   3.481   6.486   6.436
 5360SOL    HW116979   3.422   6.505   6.515
 5360SOL    HW216980   3.577   6.495   6.464
 5361SOL     OW16981   1.899   1.058   5.311
 5361SOL    HW116982   1.843   0.976   5.320
 5361SOL    HW216983   1.976   1.054   5.374
 5362SOL     OW16984   4.986   5.048   2.859
 5362SOL    HW116985   4.903   5.005   2.893
 5362SOL    HW216986   4.964   5.138   2.821
 5363SOL     OW16987   0.569   5.057   6.462
 5363SOL    HW116988   0.484   5.082   6.417
 5363SOL    HW216989   0.626   5.138   6.474
 5364SOL     OW16990   6.847   6.706   0.224
 5364SOL    HW116991   6.866   6.608   0.233
 5364SOL    HW216992   6.924   6.758   0.262
 5365SOL     OW16993   4.904   1.855   5.400
 5365SOL    HW116994   4.954   1.826   5.482
 5365SOL    HW216995   4.841   1.782   5.372
 5366SOL     OW16996   4.633   4.095   0.338
 5366SOL    HW116997   4.576   4.030   0.388
 5366SOL    HW216998   4.726   4.091   0.374
 5367SOL     OW16999   0.378   4.626   1.864
 5367SOL    HW117000   0.307   4.623   1.793
 5367SOL    HW217001   0.363   4.705   1.923
 5368SOL     OW17002   5.661   2.337   3.158
 5368SOL    HW117003   5.609   2.405   3.106
 5368SOL    HW217004   5.625   2.246   3.139
 5369SOL     OW17005   2.115   4.239   2.946
 5369SOL    HW117006   2.169   4.323   2.942
 5369SOL    HW217007   2.083   4.224   3.039
 5370SOL     OW17008   3.808   2.641   1.146
 5370SOL    HW117009   3.802   2.559   1.203
 5370SOL    HW217010   3.716   2.670   1.119
 5371SOL     OW17011   1.249   4.278   4.900
 5371SOL    HW117012   1.287   4.261   4.809
 5371SOL    HW217013   1.195   4.362   4.898
 5372SOL     OW17014   2.717   5.403   3.128
 5372SOL    HW117015   2.727   5.311   3.091
 5372SOL    HW217016   2.620   5.428   3.130
 5373SOL     OW17017   3.037   4.887   3.986
 5373SOL    HW117018   2.946   4.912   4.019
 5373SOL    HW217019   3.105   4.907   4.056
 5374SOL     OW17020   2.573   2.315   6.508
 5374SOL    HW117021   2.566   2.405   6.551
 5374SOL    HW217022   2.661   2.309   6.461
 5375SOL     OW17023   1.617   4.343   4.540
 5375SOL    HW117024   1.694   4.279   4.552
 5375SOL    HW217025   1.568   4.321   4.456
 5376SOL     OW17026   1.596   3.689   1.434
 5376SOL    HW117027   1.582   3.628   1.355
 5376SOL    HW217028   1.677   3.659   1.485
 5377SOL     OW17029   0.342   0.847   1.415
 5377SOL    HW117030   0.372   0.895   1.498
 5377SOL    HW217031   0.244   0.864   1.401
 5378SOL     OW17032   5.679   0.988   0.221
 5378SOL    HW117033   5.696   0.912   0.284
 5378SOL    HW217034   5.666   0.953   0.128
 5379SOL     OW17035   0.469   5.372   2.508
 5379SOL    HW117036   0.392   5.308   2.495
 5379SOL    HW217037   0.436   5.465   2.494
 5380SOL     OW17038   2.950   0.170   3.207
 5380SOL    HW117039   2.878   0.217   3.155
 5380SOL    HW217040   2.986   0.094   3.154
 5381SOL     OW17041   6.028   4.007   1.616
 5381SOL    HW117042   5.948   3.953   1.644
 5381SOL    HW217043   6.093   4.011   1.692
 5382SOL     OW17044   2.737   1.212   1.077
 5382SOL    HW117045   2.833   1.238   1.064
 5382SOL    HW217046   2.716   1.133   1.019
 5383SOL     OW17047   2.493   2.090   4.876
 5383SOL    HW117048   2.551   2.009   4.886
 5383SOL    HW217049   2.489   2.117   4.780
 5384SOL     OW17050   6.214   6.956   4.166
 5384SOL    HW117051   6.121   6.920   4.174
 5384SOL    HW217052   6.241   6.998   4.253
 5385SOL     OW17053   3.667   3.876   2.417
 5385SOL    HW117054   3.616   3.960   2.400
 5385SOL    HW217055   3.691   3.871   2.514
 5386SOL     OW17056   5.447   6.349   4.290
 5386SOL    HW117057   5.470   6.253   4.270
 5386SOL    HW217058   5.505   6.383   4.363
 5387SOL     OW17059   2.950   5.051   2.354
 5387SOL    HW117060   2.886   4.998   2.299
 5387SOL    HW217061   2.898   5.106   2.420
 5388SOL     OW17062   5.441   6.165   2.708
 5388SOL    HW117063   5.432   6.067   2.688
 5388SOL    HW217064   5.448   6.216   2.623
 5389SOL     OW17065   4.586   1.342   1.142
 5389SOL    HW117066   4.596   1.248   1.174
 5389SOL    HW217067   4.538   1.343   1.054
 5390SOL     OW17068   6.197   5.249   5.747
 5390SOL    HW117069   6.162   5.156   5.756
 5390SOL    HW217070   6.121   5.312   5.730
 5391SOL     OW17071   2.481   2.830   0.553
 5391SOL    HW117072   2.464   2.906   0.491
 5391SOL    HW217073   2.580   2.820   0.567
 5392SOL     OW17074   6.060   3.125   2.186
 5392SOL    HW117075   6.067   3.044   2.244
 5392SOL    HW217076   6.150   3.168   2.177
 5393SOL     OW17077   6.747   6.808   7.013
 5393SOL    HW117078   6.831   6.826   6.961
 5393SOL    HW217079   6.769   6.807   0.083
 5394SOL     OW17080   0.719   3.650   5.698
 5394SOL    HW117081   0.733   3.551   5.694
 5394SOL    HW217082   0.760   3.693   5.617
 5395SOL     OW17083   3.971   0.495   0.459
 5395SOL    HW117084   3.998   0.587   0.488
 5395SOL    HW217085   3.992   0.429   0.531
 5396SOL     OW17086   5.625   3.812   2.259
 5396SOL    HW117087   5.566   3.774   2.188
 5396SOL    HW217088   5.721   3.797   2.235
 5397SOL     OW17089   0.080   3.638   1.504
 5397SOL    HW117090   0.068   3.705   1.431
 5397SOL    HW217091   0.112   3.552   1.464
 5398SOL     OW17092   3.137   2.678   1.752
 5398SOL    HW117093   3.174   2.639   1.667
 5398SOL    HW217094   3.070   2.616   1.792
 5399SOL     OW17095   1.860   6.146   1.740
 5399SOL    HW117096   1.910   6.217   1.691
 5399SOL    HW217097   1.782   6.188   1.787
 5400SOL     OW17098   2.919   4.677   0.086
 5400SOL    HW117099   2.863   4.746   0.041
 5400SOL    HW217100   2.906   4.683   0.185
 5401SOL     OW17101   5.911   3.217   1.983
 5401SOL    HW117102   5.980   3.249   1.918
 5401SOL    HW217103   5.952   3.207   2.073
 5402SOL     OW17104   1.509   6.083   1.997
 5402SOL    HW117105   1.549   6.005   2.043
 5402SOL    HW217106   1.433   6.053   1.939
 5403SOL     OW17107   0.212   3.655   6.580
 5403SOL    HW117108   0.217   3.560   6.551
 5403SOL    HW217109   0.180   3.712   6.504
 5404SOL     OW17110   1.649   2.883   3.917
 5404SOL    HW117111   1.584   2.847   3.849
 5404SOL    HW217112   1.733   2.911   3.871
 5405SOL     OW17113   6.657   5.132   5.602
 5405SOL    HW117114   6.590   5.078   5.551
 5405SOL    HW217115   6.652   5.108   5.699
 5406SOL     OW17116   1.370   0.779   6.808
 5406SOL    HW117117   1.374   0.859   6.748
 5406SOL    HW217118   1.437   0.711   6.777
 5407SOL     OW17119   3.953   3.146   0.654
 5407SOL    HW117120   3.947   3.246   0.662
 5407SOL    HW217121   3.862   3.107   0.669
 5408SOL     OW17122   2.557   0.888   6.961
 5408SOL    HW117123   2.477   0.868   7.017
 5408SOL    HW217124   2.588   0.981   6.979
 5409SOL     OW17125   4.177   0.556   3.222
 5409SOL    HW117126   4.102   0.491   3.237
 5409SOL    HW217127   4.169   0.594   3.130
 5410SOL     OW17128   3.063   2.057   1.832
 5410SOL    HW117129   2.973   2.094   1.852
 5410SOL    HW217130   3.120   2.128   1.791
 5411SOL     OW17131   0.376   5.400   5.347
 5411SOL    HW117132   0.278   5.412   5.330
 5411SOL    HW217133   0.403   5.453   5.427
 5412SOL     OW17134   5.987   2.846   0.586
 5412SOL    HW117135   6.072   2.869   0.539
 5412SOL    HW217136   5.964   2.750   0.569
 5413SOL     OW17137   2.586   1.862   2.050
 5413SOL    HW117138   2.502   1.815   2.023
 5413SOL    HW217139   2.566   1.958   2.070
 5414SOL     OW17140   4.134   1.661   5.061
 5414SOL    HW117141   4.116   1.643   4.964
 5414SOL    HW217142   4.057   1.627   5.116
 5415SOL     OW17143   6.375   5.475   1.741
 5415SOL    HW117144   6.281   5.480   1.707
 5415SOL    HW217145   6.436   5.447   1.667
 5416SOL     OW17146   4.134   4.864   4.777
 5416SOL    HW117147   4.099   4.839   4.686
 5416SOL    HW217148   4.216   4.811   4.797
 5417SOL     OW17149   3.486   6.820   4.548
 5417SOL    HW117150   3.572   6.870   4.542
 5417SOL    HW217151   3.500   6.732   4.593
 5418SOL     OW17152   3.805   0.226   2.989
 5418SOL    HW117153   3.752   0.149   3.025
 5418SOL    HW217154   3.847   0.199   2.902
 5419SOL     OW17155   3.393   5.146   6.254
 5419SOL    HW117156   3.303   5.177   6.287
 5419SOL    HW217157   3.391   5.047   6.240
 5420SOL     OW17158   1.906   1.904   2.518
 5420SOL    HW117159   1.892   1.818   2.567
 5420SOL    HW217160   1.894   1.888   2.420
 5421SOL     OW17161   2.202   3.871   2.003
 5421SOL    HW117162   2.112   3.848   1.967
 5421SOL    HW217163   2.271   3.856   1.933
 5422SOL     OW17164   2.214   3.986   1.671
 5422SOL    HW117165   2.231   3.925   1.748
 5422SOL    HW217166   2.123   3.967   1.633
 5423SOL     OW17167   5.918   2.826   6.659
 5423SOL    HW117168   5.989   2.768   6.699
 5423SOL    HW217169   5.872   2.877   6.732
 5424SOL     OW17170   4.873   3.667   4.539
 5424SOL    HW117171   4.881   3.715   4.451
 5424SOL    HW217172   4.861   3.569   4.522
 5425SOL     OW17173   4.634   0.935   5.391
 5425SOL    HW117174   4.586   0.947   5.304
 5425SOL    HW217175   4.579   0.973   5.465
 5426SOL     OW17176   5.877   6.755   4.859
 5426SOL    HW117177   5.967   6.775   4.898
 5426SOL    HW217178   5.806   6.785   4.923
 5427SOL     OW17179   4.375   6.112   6.483
 5427SOL    HW117180   4.446   6.183   6.483
 5427SOL    HW217181   4.331   6.109   6.572
 5428SOL     OW17182   1.113   0.495   0.886
 5428SOL    HW117183   1.111   0.560   0.810
 5428SOL    HW217184   1.054   0.417   0.864
 5429SOL     OW17185   0.900   2.134   6.758
 5429SOL    HW117186   0.920   2.232   6.768
 5429SOL    HW217187   0.898   2.109   6.662
 5430SOL     OW17188   1.488   2.365   6.118
 5430SOL    HW117189   1.566   2.404   6.165
 5430SOL    HW217190   1.510   2.349   6.022
 5431SOL     OW17191   3.886   6.108   5.845
 5431SOL    HW117192   3.888   6.120   5.745
 5431SOL    HW217193   3.980   6.103   5.879
 5432SOL     OW17194   4.659   6.544   0.483
 5432SOL    HW117195   4.590   6.603   0.525
 5432SOL    HW217196   4.744   6.549   0.537
 5433SOL     OW17197   0.149   1.742   4.935
 5433SOL    HW117198   0.097   1.759   4.851
 5433SOL    HW217199   0.234   1.695   4.913
 5434SOL     OW17200   2.847   0.212   6.536
 5434SOL    HW117201   2.912   0.144   6.568
 5434SOL    HW217202   2.783   0.234   6.609
 5435SOL     OW17203   4.145   0.466   1.861
 5435SOL    HW117204   4.162   0.418   1.947
 5435SOL    HW217205   4.064   0.426   1.816
 5436SOL     OW17206   4.577   4.368   3.066
 5436SOL    HW117207   4.613   4.413   2.984
 5436SOL    HW217208   4.507   4.427   3.108
 5437SOL     OW17209   2.698   4.253   0.104
 5437SOL    HW117210   2.681   4.330   0.166
 5437SOL    HW217211   2.792   4.258   0.070
 5438SOL     OW17212   5.936   1.983   1.586
 5438SOL    HW117213   5.918   1.894   1.627
 5438SOL    HW217214   5.914   2.055   1.652
 5439SOL     OW17215   0.866   2.695   1.253
 5439SOL    HW117216   0.807   2.635   1.306
 5439SOL    HW217217   0.947   2.645   1.221
 5440SOL     OW17218   1.212   2.179   1.203
 5440SOL    HW117219   1.125   2.181   1.155
 5440SOL    HW217220   1.254   2.089   1.192
 5441SOL     OW17221   3.324   1.831   3.646
 5441SOL    HW117222   3.244   1.825   3.586
 5441SOL    HW217223   3.383   1.906   3.616
 5442SOL     OW17224   3.452   0.544   1.944
 5442SOL    HW117225   3.358   0.536   1.978
 5442SOL    HW217226   3.468   0.472   1.876
 5443SOL     OW17227   3.148   6.836   5.706
 5443SOL    HW117228   3.174   6.932   5.696
 5443SOL    HW217229   3.152   6.791   5.616
 5444SOL     OW17230   0.292   6.893   4.074
 5444SOL    HW117231   0.373   6.951   4.078
 5444SOL    HW217232   0.296   6.825   4.148
 5445SOL     OW17233   5.915   3.502   2.524
 5445SOL    HW117234   5.823   3.536   2.504
 5445SOL    HW217235   5.968   3.574   2.569
 5446SOL     OW17236   6.264   5.490   5.380
 5446SOL    HW117237   6.173   5.465   5.346
 5446SOL    HW217238   6.259   5.576   5.430
 5447SOL     OW17239   3.854   2.280   0.507
 5447SOL    HW117240   3.814   2.188   0.505
 5447SOL    HW217241   3.782   2.347   0.523
 5448SOL     OW17242   5.423   2.494   5.375
 5448SOL    HW117243   5.502   2.481   5.316
 5448SOL    HW217244   5.341   2.463   5.328
 5449SOL     OW17245   0.677   3.713   6.949
 5449SOL    HW117246   0.692   3.637   7.012
 5449SOL    HW217247   0.584   3.708   6.912
 5450SOL     OW17248   2.010   0.095   1.504
 5450SOL    HW117249   2.044   0.014   1.553
 5450SOL    HW217250   2.087   0.156   1.485
 5451SOL     OW17251   0.878   5.836   2.961
 5451SOL    HW117252   0.800   5.787   2.921
 5451SOL    HW217253   0.845   5.899   3.032
 5452SOL     OW17254   2.425   4.476   6.754
 5452SOL    HW117255   2.409   4.414   6.831
 5452SOL    HW217256   2.518   4.512   6.758
 5453SOL     OW17257   5.851   4.549   0.419
 5453SOL    HW117258   5.876   4.454   0.437
 5453SOL    HW217259   5.797   4.585   0.495
 5454SOL     OW17260   6.977   4.488   0.073
 5454SOL    HW117261   6.909   4.490   0.146
 5454SOL    HW217262   6.942   4.536   7.020
 5455SOL     OW17263   6.572   3.489   1.032
 5455SOL    HW117264   6.492   3.523   1.081
 5455SOL    HW217265   6.616   3.417   1.086
 5456SOL     OW17266   3.177   0.111   6.967
 5456SOL    HW117267   3.173   0.093   6.869
 5456SOL    HW217268   3.097   0.164   6.994
 5457SOL     OW17269   5.827   2.977   0.768
 5457SOL    HW117270   5.794   2.910   0.835
 5457SOL    HW217271   5.891   2.932   0.705
 5458SOL     OW17272   1.814   4.163   6.534
 5458SOL    HW117273   1.793   4.126   6.624
 5458SOL    HW217274   1.907   4.137   6.508
 5459SOL     OW17275   1.582   4.310   6.993
 5459SOL    HW117276   1.561   4.389   6.936
 5459SOL    HW217277   1.566   4.332   0.061
 5460SOL     OW17278   2.661   0.540   0.931
 5460SOL    HW117279   2.719   0.606   0.978
 5460SOL    HW217280   2.583   0.517   0.988
 5461SOL     OW17281   4.593   6.979   5.080
 5461SOL    HW117282   4.497   6.982   5.108
 5461SOL    HW217283   4.613   6.888   5.043
 5462SOL     OW17284   1.681   0.000   0.388
 5462SOL    HW117285   1.749   0.071   0.369
 5462SOL    HW217286   1.601   0.042   0.431
 5463SOL     OW17287   6.619   2.780   0.754
 5463SOL    HW117288   6.540   2.829   0.791
 5463SOL    HW217289   6.670   2.840   0.692
 5464SOL     OW17290   2.366   0.295   4.415
 5464SOL    HW117291   2.291   0.342   4.370
 5464SOL    HW217292   2.449   0.352   4.411
 5465SOL     OW17293   3.122   0.369   4.738
 5465SOL    HW117294   3.203   0.383   4.795
 5465SOL    HW217295   3.097   0.272   4.738
 5466SOL     OW17296   4.861   4.449   4.587
 5466SOL    HW117297   4.874   4.533   4.640
 5466SOL    HW217298   4.932   4.383   4.611
 5467SOL     OW17299   5.383   1.507   2.770
 5467SOL    HW117300   5.312   1.438   2.760
 5467SOL    HW217301   5.469   1.462   2.795
 5468SOL     OW17302   4.543   2.160   4.752
 5468SOL    HW117303   4.465   2.213   4.785
 5468SOL    HW217304   4.532   2.064   4.781
 5469SOL     OW17305   3.519   4.449   5.747
 5469SOL    HW117306   3.521   4.372   5.811
 5469SOL    HW217307   3.579   4.522   5.781
 5470SOL     OW17308   1.941   5.059   3.880
 5470SOL    HW117309   1.951   4.986   3.947
 5470SOL    HW217310   1.844   5.077   3.864
 5471SOL     OW17311   0.150   6.014   1.908
 5471SOL    HW117312   0.231   5.955   1.909
 5471SOL    HW217313   0.115   6.022   1.814
 5472SOL     OW17314   4.095   4.615   5.847
 5472SOL    HW117315   4.008   4.618   5.897
 5472SOL    HW217316   4.126   4.708   5.828
 5473SOL     OW17317   1.602   3.244   3.701
 5473SOL    HW117318   1.559   3.304   3.769
 5473SOL    HW217319   1.552   3.249   3.615
 5474SOL     OW17320   1.703   5.484   4.015
 5474SOL    HW117321   1.645   5.410   4.049
 5474SOL    HW217322   1.650   5.545   3.957
 5475SOL     OW17323   3.070   2.161   1.240
 5475SOL    HW117324   3.077   2.093   1.167
 5475SOL    HW217325   2.982   2.150   1.286
 5476SOL     OW17326   1.211   3.030   6.511
 5476SOL    HW117327   1.221   2.980   6.425
 5476SOL    HW217328   1.280   2.999   6.576
 5477SOL     OW17329   1.943   3.009   3.181
 5477SOL    HW117330   1.907   2.967   3.097
 5477SOL    HW217331   2.005   2.945   3.226
 5478SOL     OW17332   5.677   5.812   5.769
 5478SOL    HW117333   5.636   5.852   5.687
 5478SOL    HW217334   5.629   5.728   5.793
 5479SOL     OW17335   4.777   0.482   4.185
 5479SOL    HW117336   4.782   0.490   4.285
 5479SOL    HW217337   4.708   0.414   4.161
 5480SOL     OW17338   1.154   3.465   4.384
 5480SOL    HW117339   1.213   3.393   4.348
 5480SOL    HW217340   1.058   3.442   4.364
 5481SOL     OW17341   3.558   6.894   4.110
 5481SOL    HW117342   3.512   6.832   4.173
 5481SOL    HW217343   3.499   6.910   4.031
 5482SOL     OW17344   2.381   4.810   1.688
 5482SOL    HW117345   2.454   4.852   1.634
 5482SOL    HW217346   2.376   4.713   1.667
 5483SOL     OW17347   0.102   2.513   6.230
 5483SOL    HW117348   0.189   2.560   6.217
 5483SOL    HW217349   0.117   2.415   6.229
 5484SOL     OW17350   4.473   0.879   4.745
 5484SOL    HW117351   4.552   0.833   4.705
 5484SOL    HW217352   4.416   0.915   4.671
 5485SOL     OW17353   3.282   0.045   6.058
 5485SOL    HW117354   3.308   6.996   5.999
 5485SOL    HW217355   3.361   0.074   6.112
 5486SOL     OW17356   2.778   6.365   5.230
 5486SOL    HW117357   2.680   6.387   5.225
 5486SOL    HW217358   2.800   6.337   5.323
 5487SOL     OW17359   3.136   4.893   5.449
 5487SOL    HW117360   3.117   4.799   5.421
 5487SOL    HW217361   3.235   4.904   5.462
 5488SOL     OW17362   6.213   1.599   0.855
 5488SOL    HW117363   6.143   1.574   0.788
 5488SOL    HW217364   6.245   1.517   0.903
 5489SOL     OW17365   6.416   4.031   2.961
 5489SOL    HW117366   6.450   3.981   2.882
 5489SOL    HW217367   6.320   4.008   2.977
 5490SOL     OW17368   1.514   6.762   3.036
 5490SOL    HW117369   1.541   6.757   2.940
 5490SOL    HW217370   1.435   6.702   3.051
 5491SOL     OW17371   6.593   4.306   0.581
 5491SOL    HW117372   6.679   4.314   0.529
 5491SOL    HW217373   6.603   4.237   0.652
 5492SOL     OW17374   0.039   1.937   5.446
 5492SOL    HW117375   0.075   1.938   5.540
 5492SOL    HW217376   7.008   2.016   5.432
 5493SOL     OW17377   3.855   3.933   1.354
 5493SOL    HW117378   3.785   3.885   1.408
 5493SOL    HW217379   3.872   3.883   1.270
 5494SOL     OW17380   6.492   4.190   5.301
 5494SOL    HW117381   6.575   4.227   5.342
 5494SOL    HW217382   6.416   4.200   5.364
 5495SOL     OW17383   5.691   0.601   0.870
 5495SOL    HW117384   5.750   0.564   0.798
 5495SOL    HW217385   5.732   0.684   0.908
 5496SOL     OW17386   3.833   0.669   4.212
 5496SOL    HW117387   3.846   0.597   4.144
 5496SOL    HW217388   3.870   0.755   4.177
 5497SOL     OW17389   1.085   0.074   6.051
 5497SOL    HW117390   1.152   0.134   6.008
 5497SOL    HW217391   1.124   0.033   6.133
 5498SOL     OW17392   0.642   5.315   1.897
 5498SOL    HW117393   0.603   5.237   1.847
 5498SOL    HW217394   0.632   5.300   1.996
 5499SOL     OW17395   1.615   0.555   4.905
 5499SOL    HW117396   1.523   0.523   4.881
 5499SOL    HW217397   1.610   0.649   4.937
 5500SOL     OW17398   2.772   1.036   0.666
 5500SOL    HW117399   2.758   0.952   0.613
 5500SOL    HW217400   2.691   1.095   0.657
 5501SOL     OW17401   3.701   3.511   6.680
 5501SOL    HW117402   3.692   3.470   6.589
 5501SOL    HW217403   3.612   3.545   6.711
 5502SOL     OW17404   4.360   2.300   6.854
 5502SOL    HW117405   4.309   2.373   6.899
 5502SOL    HW217406   4.314   2.274   6.769
 5503SOL     OW17407   6.542   4.224   0.833
 5503SOL    HW117408   6.597   4.148   0.867
 5503SOL    HW217409   6.580   4.310   0.865
 5504SOL     OW17410   3.456   1.716   6.292
 5504SOL    HW117411   3.362   1.702   6.323
 5504SOL    HW217412   3.519   1.694   6.366
 5505SOL     OW17413   2.403   4.908   4.043
 5505SOL    HW117414   2.337   4.983   4.036
 5505SOL    HW217415   2.355   4.821   4.030
 5506SOL     OW17416   0.626   3.276   6.087
 5506SOL    HW117417   0.535   3.305   6.057
 5506SOL    HW217418   0.619   3.187   6.132
 5507SOL     OW17419   2.598   6.516   6.844
 5507SOL    HW117420   2.548   6.430   6.859
 5507SOL    HW217421   2.603   6.534   6.745
 5508SOL     OW17422   0.150   0.756   6.481
 5508SOL    HW117423   0.120   0.848   6.454
 5508SOL    HW217424   0.098   0.688   6.430
 5509SOL     OW17425   0.254   5.250   0.680
 5509SOL    HW117426   0.166   5.203   0.677
 5509SOL    HW217427   0.249   5.334   0.626
 5510SOL     OW17428   3.721   5.180   7.024
 5510SOL    HW117429   3.772   5.257   0.033
 5510SOL    HW217430   3.648   5.214   6.964
 5511SOL     OW17431   0.772   1.630   5.388
 5511SOL    HW117432   0.870   1.617   5.373
 5511SOL    HW217433   0.753   1.728   5.397
 5512SOL     OW17434   3.225   0.880   2.424
 5512SOL    HW117435   3.322   0.856   2.424
 5512SOL    HW217436   3.211   0.965   2.374
 5513SOL     OW17437   3.727   4.202   7.014
 5513SOL    HW117438   3.791   4.223   0.061
 5513SOL    HW217439   3.733   4.273   6.945
 5514SOL     OW17440   3.104   0.860   0.104
 5514SOL    HW117441   3.156   0.853   0.019
 5514SOL    HW217442   3.018   0.908   0.086
 5515SOL     OW17443   2.675   5.913   2.192
 5515SOL    HW117444   2.733   5.938   2.269
 5515SOL    HW217445   2.600   5.856   2.225
 5516SOL     OW17446   2.497   2.470   5.412
 5516SOL    HW117447   2.411   2.472   5.360
 5516SOL    HW217448   2.498   2.546   5.477
 5517SOL     OW17449   1.442   3.005   3.379
 5517SOL    HW117450   1.458   3.097   3.414
 5517SOL    HW217451   1.530   2.959   3.363
 5518SOL     OW17452   4.287   4.497   6.017
 5518SOL    HW117453   4.224   4.551   5.961
 5518SOL    HW217454   4.251   4.490   6.110
 5519SOL     OW17455   4.563   2.598   3.488
 5519SOL    HW117456   4.620   2.631   3.413
 5519SOL    HW217457   4.489   2.664   3.505
 5520SOL     OW17458   4.813   6.674   1.401
 5520SOL    HW117459   4.904   6.659   1.362
 5520SOL    HW217460   4.814   6.755   1.459
 5521SOL     OW17461   5.716   5.623   1.867
 5521SOL    HW117462   5.715   5.560   1.945
 5521SOL    HW217463   5.658   5.702   1.886
 5522SOL     OW17464   6.234   5.865   0.842
 5522SOL    HW117465   6.137   5.861   0.818
 5522SOL    HW217466   6.243   5.878   0.941
 5523SOL     OW17467   5.782   1.069   1.890
 5523SOL    HW117468   5.730   1.103   1.968
 5523SOL    HW217469   5.789   1.140   1.820
 5524SOL     OW17470   3.119   1.651   4.219
 5524SOL    HW117471   3.181   1.624   4.292
 5524SOL    HW217472   3.030   1.608   4.234
 5525SOL     OW17473   6.235   1.411   1.284
 5525SOL    HW117474   6.326   1.446   1.263
 5525SOL    HW217475   6.242   1.340   1.354
 5526SOL     OW17476   4.671   4.721   3.676
 5526SOL    HW117477   4.602   4.652   3.701
 5526SOL    HW217478   4.630   4.812   3.679
 5527SOL     OW17479   5.653   1.826   3.689
 5527SOL    HW117480   5.704   1.827   3.603
 5527SOL    HW217481   5.558   1.803   3.671
 5528SOL     OW17482   1.179   1.241   0.493
 5528SOL    HW117483   1.173   1.314   0.560
 5528SOL    HW217484   1.274   1.208   0.488
 5529SOL     OW17485   3.495   0.213   2.333
 5529SOL    HW117486   3.568   0.256   2.386
 5529SOL    HW217487   3.410   0.216   2.386
 5530SOL     OW17488   6.473   2.033   0.926
 5530SOL    HW117489   6.549   2.030   0.992
 5530SOL    HW217490   6.469   1.947   0.875
 5531SOL     OW17491   2.192   3.728   1.280
 5531SOL    HW117492   2.111   3.771   1.319
 5531SOL    HW217493   2.257   3.798   1.253
 5532SOL     OW17494   1.441   3.306   0.557
 5532SOL    HW117495   1.527   3.301   0.505
 5532SOL    HW217496   1.403   3.398   0.550
 5533SOL     OW17497   3.701   2.045   3.130
 5533SOL    HW117498   3.729   2.105   3.055
 5533SOL    HW217499   3.776   1.982   3.151
 5534SOL     OW17500   1.343   0.732   4.751
 5534SOL    HW117501   1.357   0.648   4.803
 5534SOL    HW217502   1.372   0.810   4.806
 5535SOL     OW17503   0.564   1.814   3.603
 5535SOL    HW117504   0.478   1.763   3.600
 5535SOL    HW217505   0.620   1.789   3.525
 5536SOL     OW17506   3.922   6.256   3.998
 5536SOL    HW117507   3.968   6.167   4.004
 5536SOL    HW217508   3.907   6.279   3.902
 5537SOL     OW17509   2.812   1.213   3.433
 5537SOL    HW117510   2.778   1.241   3.523
 5537SOL    HW217511   2.865   1.128   3.442
 5538SOL     OW17512   4.215   5.179   4.838
 5538SOL    HW117513   4.259   5.151   4.753
 5538SOL    HW217514   4.116   5.169   4.830
 5539SOL     OW17515   2.490   4.389   0.633
 5539SOL    HW117516   2.479   4.386   0.534
 5539SOL    HW217517   2.446   4.308   0.673
 5540SOL     OW17518   5.475   5.251   1.348
 5540SOL    HW117519   5.404   5.187   1.320
 5540SOL    HW217520   5.452   5.342   1.314
 5541SOL     OW17521   4.484   1.610   5.515
 5541SOL    HW117522   4.534   1.553   5.580
 5541SOL    HW217523   4.386   1.603   5.534
 5542SOL     OW17524   5.153   4.833   6.132
 5542SOL    HW117525   5.249   4.822   6.105
 5542SOL    HW217526   5.098   4.759   6.093
 5543SOL     OW17527   0.030   1.925   6.202
 5543SOL    HW117528   0.121   1.941   6.240
 5543SOL    HW217529   7.004   2.009   6.211
 5544SOL     OW17530   5.748   1.001   6.856
 5544SOL    HW117531   5.734   1.083   6.913
 5544SOL    HW217532   5.675   0.935   6.874
 5545SOL     OW17533   2.657   2.467   1.808
 5545SOL    HW117534   2.741   2.435   1.852
 5545SOL    HW217535   2.597   2.389   1.791
 5546SOL     OW17536   2.646   4.930   5.499
 5546SOL    HW117537   2.627   4.916   5.596
 5546SOL    HW217538   2.642   5.027   5.478
 5547SOL     OW17539   3.722   6.114   4.799
 5547SOL    HW117540   3.780   6.073   4.870
 5547SOL    HW217541   3.660   6.045   4.763
 5548SOL     OW17542   0.057   2.972   5.421
 5548SOL    HW117543   6.991   2.988   5.392
 5548SOL    HW217544   0.119   3.032   5.369
 5549SOL     OW17545   3.425   4.470   6.558
 5549SOL    HW117546   3.371   4.442   6.479
 5549SOL    HW217547   3.497   4.533   6.530
 5550SOL     OW17548   3.568   6.743   2.468
 5550SOL    HW117549   3.656   6.772   2.429
 5550SOL    HW217550   3.513   6.700   2.397
 5551SOL     OW17551   0.838   1.244   3.110
 5551SOL    HW117552   0.809   1.164   3.163
 5551SOL    HW217553   0.907   1.217   3.043
 5552SOL     OW17554   0.463   2.887   0.675
 5552SOL    HW117555   0.524   2.810   0.693
 5552SOL    HW217556   0.479   2.959   0.743
 5553SOL     OW17557   5.354   6.438   0.037
 5553SOL    HW117558   5.292   6.361   0.023
 5553SOL    HW217559   5.369   6.485   6.978
 5554SOL     OW17560   2.718   1.745   4.808
 5554SOL    HW117561   2.810   1.711   4.790
 5554SOL    HW217562   2.718   1.845   4.806
 5555SOL     OW17563   0.338   6.245   2.149
 5555SOL    HW117564   0.240   6.266   2.141
 5555SOL    HW217565   0.391   6.319   2.107
 5556SOL     OW17566   0.612   1.349   4.363
 5556SOL    HW117567   0.629   1.375   4.458
 5556SOL    HW217568   0.699   1.328   4.318
 5557SOL     OW17569   2.649   0.304   3.613
 5557SOL    HW117570   2.631   0.347   3.525
 5557SOL    HW217571   2.567   0.256   3.645
 5558SOL     OW17572   5.113   2.448   4.648
 5558SOL    HW117573   5.158   2.447   4.559
 5558SOL    HW217574   5.028   2.500   4.642
 5559SOL     OW17575   2.236   0.114   1.122
 5559SOL    HW117576   2.235   0.149   1.028
 5559SOL    HW217577   2.235   0.190   1.187
 5560SOL     OW17578   0.183   0.593   4.404
 5560SOL    HW117579   0.130   0.600   4.489
 5560SOL    HW217580   0.143   0.653   4.335
 5561SOL     OW17581   1.491   3.929   3.243
 5561SOL    HW117582   1.443   3.858   3.190
 5561SOL    HW217583   1.575   3.954   3.195
 5562SOL     OW17584   2.684   2.632   6.024
 5562SOL    HW117585   2.673   2.549   6.080
 5562SOL    HW217586   2.594   2.672   6.007
 5563SOL     OW17587   4.255   4.328   1.526
 5563SOL    HW117588   4.345   4.285   1.518
 5563SOL    HW217589   4.209   4.294   1.608
 5564SOL     OW17590   6.646   4.036   1.601
 5564SOL    HW117591   6.646   4.018   1.502
 5564SOL    HW217592   6.679   4.129   1.617
 5565SOL     OW17593   3.045   2.888   5.425
 5565SOL    HW117594   3.042   2.844   5.335
 5565SOL    HW217595   3.138   2.921   5.443
 5566SOL     OW17596   1.951   4.790   0.718
 5566SOL    HW117597   1.869   4.759   0.670
 5566SOL    HW217598   1.950   4.889   0.725
 5567SOL     OW17599   1.868   5.686   3.196
 5567SOL    HW117600   1.912   5.666   3.284
 5567SOL    HW217601   1.830   5.778   3.198
 5568SOL     OW17602   4.093   1.858   1.245
 5568SOL    HW117603   4.135   1.771   1.220
 5568SOL    HW217604   4.163   1.930   1.246
 5569SOL     OW17605   5.469   2.388   6.856
 5569SOL    HW117606   5.441   2.431   6.770
 5569SOL    HW217607   5.526   2.452   6.908
 5570SOL     OW17608   0.144   3.819   5.909
 5570SOL    HW117609   0.068   3.865   5.863
 5570SOL    HW217610   0.193   3.761   5.844
 5571SOL     OW17611   6.700   4.865   6.492
 5571SOL    HW117612   6.634   4.866   6.568
 5571SOL    HW217613   6.736   4.772   6.480
 5572SOL     OW17614   5.342   2.822   5.254
 5572SOL    HW117615   5.340   2.743   5.193
 5572SOL    HW217616   5.267   2.816   5.320
 5573SOL     OW17617   0.783   3.898   0.371
 5573SOL    HW117618   0.865   3.921   0.319
 5573SOL    HW217619   0.809   3.876   0.466
 5574SOL     OW17620   0.536   5.994   4.399
 5574SOL    HW117621   0.542   5.918   4.464
 5574SOL    HW217622   0.442   6.028   4.396
 5575SOL     OW17623   1.442   0.910   1.498
 5575SOL    HW117624   1.476   0.894   1.590
 5575SOL    HW217625   1.407   0.825   1.459
 5576SOL     OW17626   6.436   5.633   0.517
 5576SOL    HW117627   6.441   5.648   0.418
 5576SOL    HW217628   6.521   5.663   0.560
 5577SOL     OW17629   2.247   3.766   5.211
 5577SOL    HW117630   2.318   3.738   5.275
 5577SOL    HW217631   2.287   3.825   5.140
 5578SOL     OW17632   3.526   1.559   5.806
 5578SOL    HW117633   3.622   1.571   5.832
 5578SOL    HW217634   3.521   1.538   5.708
 5579SOL     OW17635   5.261   4.654   1.427
 5579SOL    HW117636   5.164   4.661   1.448
 5579SOL    HW217637   5.290   4.559   1.430
 5580SOL     OW17638   4.908   0.584   1.262
 5580SOL    HW117639   4.821   0.632   1.246
 5580SOL    HW217640   4.897   0.487   1.241
 5581SOL     OW17641   2.429   2.135   0.653
 5581SOL    HW117642   2.389   2.216   0.695
 5581SOL    HW217643   2.526   2.130   0.675
 5582SOL     OW17644   4.070   3.287   3.429
 5582SOL    HW117645   4.063   3.281   3.528
 5582SOL    HW217646   3.992   3.340   3.393
 5583SOL     OW17647   3.745   0.739   0.245
 5583SOL    HW117648   3.756   0.784   0.334
 5583SOL    HW217649   3.798   0.654   0.245
 5584SOL     OW17650   5.640   3.091   3.019
 5584SOL    HW117651   5.709   3.021   3.039
 5584SOL    HW217652   5.614   3.137   3.104
 5585SOL     OW17653   6.759   6.474   4.809
 5585SOL    HW117654   6.791   6.568   4.817
 5585SOL    HW217655   6.831   6.417   4.769
 5586SOL     OW17656   2.215   1.888   6.455
 5586SOL    HW117657   2.202   1.789   6.463
 5586SOL    HW217658   2.147   1.935   6.512
 5587SOL     OW17659   3.502   6.977   3.849
 5587SOL    HW117660   3.443   0.030   3.842
 5587SOL    HW217661   3.592   6.997   3.810
 5588SOL     OW17662   4.440   0.212   5.989
 5588SOL    HW117663   4.510   0.211   6.061
 5588SOL    HW217664   4.412   0.119   5.968
 5589SOL     OW17665   3.440   3.647   6.726
 5589SOL    HW117666   3.397   3.702   6.655
 5589SOL    HW217667   3.402   3.555   6.725
 5590SOL     OW17668   6.639   6.967   3.460
 5590SOL    HW117669   6.727   6.977   3.414
 5590SOL    HW217670   6.603   0.029   3.484
 5591SOL     OW17671   4.982   0.464   6.790
 5591SOL    HW117672   5.044   0.499   6.721
 5591SOL    HW217673   4.912   0.533   6.811
 5592SOL     OW17674   2.502   1.765   2.464
 5592SOL    HW117675   2.439   1.817   2.406
 5592SOL    HW217676   2.588   1.815   2.473
 5593SOL     OW17677   2.126   3.551   5.081
 5593SOL    HW117678   2.065   3.567   5.002
 5593SOL    HW217679   2.164   3.638   5.111
 5594SOL     OW17680   2.469   1.452   6.478
 5594SOL    HW117681   2.435   1.461   6.572
 5594SOL    HW217682   2.566   1.428   6.480
 5595SOL     OW17683   0.213   1.484   5.638
 5595SOL    HW117684   0.193   1.386   5.634
 5595SOL    HW217685   0.243   1.508   5.730
 5596SOL     OW17686   5.314   1.899   3.075
 5596SOL    HW117687   5.277   1.880   3.166
 5596SOL    HW217688   5.362   1.819   3.041
 5597SOL     OW17689   0.597   1.023   6.217
 5597SOL    HW117690   0.594   1.123   6.216
 5597SOL    HW217691   0.673   0.990   6.162
 5598SOL     OW17692   6.830   2.141   4.277
 5598SOL    HW117693   6.872   2.128   4.188
 5598SOL    HW217694   6.847   2.060   4.334
 5599SOL     OW17695   5.030   2.671   3.363
 5599SOL    HW117696   5.109   2.610   3.367
 5599SOL    HW217697   5.040   2.735   3.287
 5600SOL     OW17698   2.283   2.174   2.034
 5600SOL    HW117699   2.199   2.119   2.028
 5600SOL    HW217700   2.262   2.263   2.075
 5601SOL     OW17701   5.938   3.113   6.156
 5601SOL    HW117702   5.860   3.058   6.125
 5601SOL    HW217703   6.013   3.103   6.091
 5602SOL     OW17704   6.342   2.005   2.295
 5602SOL    HW117705   6.363   1.947   2.374
 5602SOL    HW217706   6.421   2.063   2.274
 5603SOL     OW17707   4.274   1.808   5.805
 5603SOL    HW117708   4.266   1.900   5.843
 5603SOL    HW217709   4.354   1.763   5.845
 5604SOL     OW17710   1.351   6.495   3.771
 5604SOL    HW117711   1.414   6.458   3.839
 5604SOL    HW217712   1.369   6.592   3.757
 5605SOL     OW17713   4.327   6.863   4.188
 5605SOL    HW117714   4.310   6.800   4.112
 5605SOL    HW217715   4.307   6.818   4.274
 5606SOL     OW17716   5.262   2.970   0.724
 5606SOL    HW117717   5.286   2.997   0.818
 5606SOL    HW217718   5.302   3.035   0.660
 5607SOL     OW17719   6.981   2.342   3.064
 5607SOL    HW117720   6.995   2.305   2.972
 5607SOL    HW217721   6.891   2.386   3.069
 5608SOL     OW17722   5.022   0.790   2.947
 5608SOL    HW117723   5.049   0.781   3.043
 5608SOL    HW217724   4.946   0.728   2.928
 5609SOL     OW17725   6.428   0.330   0.414
 5609SOL    HW117726   6.475   0.339   0.326
 5609SOL    HW217727   6.420   0.233   0.437
 5610SOL     OW17728   6.024   5.525   0.254
 5610SOL    HW117729   5.968   5.527   0.171
 5610SOL    HW217730   6.098   5.459   0.242
 5611SOL     OW17731   5.802   4.562   1.955
 5611SOL    HW117732   5.777   4.647   1.908
 5611SOL    HW217733   5.793   4.485   1.893
 5612SOL     OW17734   3.833   1.700   0.101
 5612SOL    HW117735   3.888   1.726   0.023
 5612SOL    HW217736   3.885   1.714   0.185
 5613SOL     OW17737   5.994   4.926   6.046
 5613SOL    HW117738   5.979   5.015   6.003
 5613SOL    HW217739   6.015   4.859   5.975
 5614SOL     OW17740   4.909   2.781   4.098
 5614SOL    HW117741   4.978   2.725   4.143
 5614SOL    HW217742   4.923   2.778   3.999
 5615SOL     OW17743   0.565   2.442   3.216
 5615SOL    HW117744   0.593   2.538   3.211
 5615SOL    HW217745   0.619   2.388   3.152
 5616SOL     OW17746   2.039   3.382   2.510
 5616SOL    HW117747   2.080   3.299   2.548
 5616SOL    HW217748   2.044   3.378   2.410
 5617SOL     OW17749   1.497   4.903   6.526
 5617SOL    HW117750   1.449   4.978   6.572
 5617SOL    HW217751   1.544   4.939   6.445
 5618SOL     OW17752   5.302   6.376   2.099
 5618SOL    HW117753   5.299   6.277   2.083
 5618SOL    HW217754   5.210   6.414   2.085
 5619SOL     OW17755   3.324   3.396   3.858
 5619SOL    HW117756   3.312   3.457   3.780
 5619SOL    HW217757   3.377   3.316   3.829
 5620SOL     OW17758   4.873   4.584   4.209
 5620SOL    HW117759   4.949   4.522   4.190
 5620SOL    HW217760   4.806   4.538   4.266
 5621SOL     OW17761   0.970   2.563   6.448
 5621SOL    HW117762   0.983   2.464   6.457
 5621SOL    HW217763   0.886   2.590   6.496
 5622SOL     OW17764   4.733   5.693   4.338
 5622SOL    HW117765   4.696   5.746   4.262
 5622SOL    HW217766   4.831   5.680   4.324
 5623SOL     OW17767   4.778   5.002   4.326
 5623SOL    HW117768   4.785   5.057   4.409
 5623SOL    HW217769   4.798   5.059   4.246
 5624SOL     OW17770   4.932   4.879   3.486
 5624SOL    HW117771   4.930   4.966   3.535
 5624SOL    HW217772   4.909   4.895   3.390
 5625SOL     OW17773   2.489   6.089   6.289
 5625SOL    HW117774   2.474   6.163   6.355
 5625SOL    HW217775   2.445   6.113   6.202
 5626SOL     OW17776   0.363   4.983   6.833
 5626SOL    HW117777   0.407   4.963   6.921
 5626SOL    HW217778   0.385   4.910   6.768
 5627SOL     OW17779   1.375   5.561   6.909
 5627SOL    HW117780   1.323   5.645   6.926
 5627SOL    HW217781   1.330   5.510   6.835
 5628SOL     OW17782   2.155   3.813   0.404
 5628SOL    HW117783   2.084   3.747   0.430
 5628SOL    HW217784   2.203   3.781   0.323
 5629SOL     OW17785   6.852   3.375   3.010
 5629SOL    HW117786   6.836   3.278   3.033
 5629SOL    HW217787   6.769   3.427   3.027
 5630SOL     OW17788   1.034   4.055   6.858
 5630SOL    HW117789   0.993   3.964   6.870
 5630SOL    HW217790   1.123   4.057   6.903
 5631SOL     OW17791   4.015   1.424   1.904
 5631SOL    HW117792   3.950   1.494   1.934
 5631SOL    HW217793   4.103   1.467   1.881
 5632SOL     OW17794   4.985   6.941   5.625
 5632SOL    HW117795   4.929   6.989   5.692
 5632SOL    HW217796   5.058   6.891   5.673
 5633SOL     OW17797   1.380   5.710   5.439
 5633SOL    HW117798   1.359   5.629   5.384
 5633SOL    HW217799   1.435   5.683   5.519
 5634SOL     OW17800   2.594   0.622   1.413
 5634SOL    HW117801   2.630   0.529   1.401
 5634SOL    HW217802   2.662   0.688   1.384
 5635SOL     OW17803   3.269   0.718   1.455
 5635SOL    HW117804   3.248   0.797   1.397
 5635SOL    HW217805   3.355   0.676   1.425
 5636SOL     OW17806   4.591   0.890   6.038
 5636SOL    HW117807   4.685   0.893   6.005
 5636SOL    HW217808   4.537   0.831   5.979
 5637SOL     OW17809   4.722   0.024   4.177
 5637SOL    HW117810   4.818   0.035   4.151
 5637SOL    HW217811   4.714   0.029   4.277
 5638SOL     OW17812   6.429   5.209   0.967
 5638SOL    HW117813   6.363   5.211   0.893
 5638SOL    HW217814   6.518   5.242   0.933
 5639SOL     OW17815   2.044   0.254   1.892
 5639SOL    HW117816   2.115   0.221   1.954
 5639SOL    HW217817   2.076   0.336   1.844
 5640SOL     OW17818   3.247   6.895   2.794
 5640SOL    HW117819   3.227   6.855   2.704
 5640SOL    HW217820   3.222   6.992   2.794
 5641SOL     OW17821   6.822   4.194   4.336
 5641SOL    HW117822   6.867   4.110   4.307
 5641SOL    HW217823   6.723   4.180   4.338
 5642SOL     OW17824   2.159   3.548   6.707
 5642SOL    HW117825   2.112   3.626   6.748
 5642SOL    HW217826   2.162   3.559   6.608
 5643SOL     OW17827   5.809   2.065   4.313
 5643SOL    HW117828   5.710   2.049   4.308
 5643SOL    HW217829   5.852   1.994   4.367
 5644SOL     OW17830   4.123   0.280   4.892
 5644SOL    HW117831   4.219   0.261   4.915
 5644SOL    HW217832   4.118   0.320   4.801
 5645SOL     OW17833   6.825   5.590   3.974
 5645SOL    HW117834   6.801   5.687   3.980
 5645SOL    HW217835   6.871   5.562   4.059
 5646SOL     OW17836   0.129   6.221   3.748
 5646SOL    HW117837   0.131   6.259   3.656
 5646SOL    HW217838   0.057   6.152   3.754
 5647SOL     OW17839   6.941   5.268   6.508
 5647SOL    HW117840   6.877   5.345   6.504
 5647SOL    HW217841   0.001   5.296   6.470
 5648SOL     OW17842   2.201   1.286   4.906
 5648SOL    HW117843   2.197   1.368   4.964
 5648SOL    HW217844   2.109   1.248   4.897
 5649SOL     OW17845   1.550   0.224   5.058
 5649SOL    HW117846   1.617   0.213   4.985
 5649SOL    HW217847   1.459   0.202   5.025
 5650SOL     OW17848   6.293   5.019   6.500
 5650SOL    HW117849   6.194   5.008   6.504
 5650SOL    HW217850   6.331   4.951   6.437
 5651SOL     OW17851   6.125   1.317   2.758
 5651SOL    HW117852   6.222   1.298   2.743
 5651SOL    HW217853   6.072   1.233   2.745
 5652SOL     OW17854   5.895   3.984   0.455
 5652SOL    HW117855   5.916   4.057   0.390
 5652SOL    HW217856   5.886   3.898   0.406
 5653SOL     OW17857   2.200   6.453   6.651
 5653SOL    HW117858   2.258   6.522   6.607
 5653SOL    HW217859   2.104   6.475   6.634
 5654SOL     OW17860   0.600   5.891   5.986
 5654SOL    HW117861   0.642   5.973   5.947
 5654SOL    HW217862   0.535   5.852   5.921
 5655SOL     OW17863   0.077   4.629   3.038
 5655SOL    HW117864   0.139   4.553   3.020
 5655SOL    HW217865   0.044   4.623   3.132
 5656SOL     OW17866   3.393   5.307   5.975
 5656SOL    HW117867   3.355   5.399   5.980
 5656SOL    HW217868   3.420   5.277   6.067
 5657SOL     OW17869   4.223   5.667   1.810
 5657SOL    HW117870   4.315   5.670   1.849
 5657SOL    HW217871   4.183   5.759   1.813
 5658SOL     OW17872   4.831   6.912   5.205
 5658SOL    HW117873   4.757   6.936   5.142
 5658SOL    HW217874   4.801   6.839   5.265
 5659SOL     OW17875   3.533   3.898   2.962
 5659SOL    HW117876   3.455   3.958   2.946
 5659SOL    HW217877   3.523   3.852   3.050
 5660SOL     OW17878   5.991   6.625   0.724
 5660SOL    HW117879   5.973   6.529   0.743
 5660SOL    HW217880   5.910   6.680   0.744
 5661SOL     OW17881   6.696   5.648   5.100
 5661SOL    HW117882   6.642   5.645   5.184
 5661SOL    HW217883   6.644   5.611   5.024
 5662SOL     OW17884   2.116   3.671   4.154
 5662SOL    HW117885   2.094   3.587   4.205
 5662SOL    HW217886   2.076   3.750   4.201
 5663SOL     OW17887   1.875   3.457   0.397
 5663SOL    HW117888   1.867   3.435   0.494
 5663SOL    HW217889   1.786   3.487   0.362
 5664SOL     OW17890   0.046   4.707   2.582
 5664SOL    HW117891   0.118   4.642   2.607
 5664SOL    HW217892   0.054   4.790   2.637
 5665SOL     OW17893   1.875   1.204   6.250
 5665SOL    HW117894   1.951   1.244   6.197
 5665SOL    HW217895   1.789   1.224   6.204
 5666SOL     OW17896   5.963   5.626   0.516
 5666SOL    HW117897   5.885   5.587   0.565
 5666SOL    HW217898   5.998   5.559   0.451
 5667SOL     OW17899   7.012   5.912   3.648
 5667SOL    HW117900   0.032   5.870   3.726
 5667SOL    HW217901   0.049   5.925   3.573
 5668SOL     OW17902   5.923   2.752   5.837
 5668SOL    HW117903   5.905   2.835   5.785
 5668SOL    HW217904   5.948   2.776   5.931
 5669SOL     OW17905   6.915   3.249   5.585
 5669SOL    HW117906   6.890   3.243   5.488
 5669SOL    HW217907   6.947   3.341   5.606
 5670SOL     OW17908   1.866   3.633   3.080
 5670SOL    HW117909   1.954   3.634   3.033
 5670SOL    HW217910   1.880   3.636   3.179
 5671SOL     OW17911   1.422   1.406   5.289
 5671SOL    HW117912   1.501   1.346   5.278
 5671SOL    HW217913   1.352   1.381   5.222
 5672SOL     OW17914   5.644   4.369   5.685
 5672SOL    HW117915   5.703   4.316   5.745
 5672SOL    HW217916   5.606   4.310   5.614
 5673SOL     OW17917   1.748   0.505   1.936
 5673SOL    HW117918   1.804   0.585   1.914
 5673SOL    HW217919   1.661   0.534   1.974
 5674SOL     OW17920   6.754   3.689   1.146
 5674SOL    HW117921   6.799   3.605   1.175
 5674SOL    HW217922   6.701   3.672   1.064
 5675SOL     OW17923   4.217   1.805   5.531
 5675SOL    HW117924   4.231   1.777   5.626
 5675SOL    HW217925   4.305   1.827   5.490
 5676SOL     OW17926   3.418   0.158   1.671
 5676SOL    HW117927   3.322   0.160   1.641
 5676SOL    HW217928   3.477   0.144   1.591
 5677SOL     OW17929   0.118   0.936   4.136
 5677SOL    HW117930   0.155   0.938   4.229
 5677SOL    HW217931   0.192   0.921   4.070
 5678SOL     OW17932   1.941   5.151   3.373
 5678SOL    HW117933   1.894   5.190   3.452
 5678SOL    HW217934   2.021   5.100   3.404
 5679SOL     OW17935   2.945   6.234   5.424
 5679SOL    HW117936   2.935   6.174   5.504
 5679SOL    HW217937   2.960   6.178   5.342
 5680SOL     OW17938   2.187   6.984   6.226
 5680SOL    HW117939   2.128   0.018   6.174
 5680SOL    HW217940   2.217   0.002   6.309
 5681SOL     OW17941   1.904   3.735   0.436
 5681SOL    HW117942   1.814   3.747   0.479
 5681SOL    HW217943   1.911   3.643   0.399
 5682SOL     OW17944   0.553   3.207   3.552
 5682SOL    HW117945   0.570   3.306   3.554
 5682SOL    HW217946   0.620   3.160   3.609
 5683SOL     OW17947   3.691   2.774   5.149
 5683SOL    HW117948   3.746   2.857   5.140
 5683SOL    HW217949   3.610   2.780   5.090
 5684SOL     OW17950   3.350   3.553   3.335
 5684SOL    HW117951   3.373   3.530   3.430
 5684SOL    HW217952   3.277   3.493   3.303
 5685SOL     OW17953   0.997   5.521   2.358
 5685SOL    HW117954   1.063   5.573   2.411
 5685SOL    HW217955   0.915   5.506   2.414
 5686SOL     OW17956   3.434   5.723   0.194
 5686SOL    HW117957   3.364   5.743   0.262
 5686SOL    HW217958   3.413   5.636   0.148
 5687SOL     OW17959   4.799   5.214   5.347
 5687SOL    HW117960   4.737   5.140   5.373
 5687SOL    HW217961   4.796   5.226   5.248
 5688SOL     OW17962   6.075   2.003   2.308
 5688SOL    HW117963   6.172   1.986   2.294
 5688SOL    HW217964   6.028   1.917   2.328
 5689SOL     OW17965   4.533   2.453   6.367
 5689SOL    HW117966   4.532   2.371   6.424
 5689SOL    HW217967   4.460   2.515   6.397
 5690SOL     OW17968   4.841   6.736   1.905
 5690SOL    HW117969   4.934   6.699   1.900
 5690SOL    HW217970   4.777   6.661   1.925
 5691SOL     OW17971   1.927   6.978   2.591
 5691SOL    HW117972   1.848   6.926   2.557
 5691SOL    HW217973   1.915   6.994   2.689
 5692SOL     OW17974   6.202   2.910   0.430
 5692SOL    HW117975   6.250   2.827   0.459
 5692SOL    HW217976   6.217   2.924   0.332
 5693SOL     OW17977   4.902   2.710   2.932
 5693SOL    HW117978   4.974   2.717   2.863
 5693SOL    HW217979   4.814   2.693   2.887
 5694SOL     OW17980   1.118   1.972   4.253
 5694SOL    HW117981   1.127   1.873   4.249
 5694SOL    HW217982   1.054   2.002   4.182
 5695SOL     OW17983   1.669   3.664   3.890
 5695SOL    HW117984   1.751   3.654   3.834
 5695SOL    HW217985   1.680   3.742   3.951
 5696SOL     OW17986   3.805   0.234   5.751
 5696SOL    HW117987   3.711   0.257   5.723
 5696SOL    HW217988   3.817   0.254   5.848
 5697SOL     OW17989   6.655   3.350   0.028
 5697SOL    HW117990   6.696   3.342   0.119
 5697SOL    HW217991   6.604   3.436   0.022
 5698SOL     OW17992   1.032   3.976   2.335
 5698SOL    HW117993   1.125   3.953   2.306
 5698SOL    HW217994   0.966   3.921   2.283
 5699SOL     OW17995   6.585   1.145   4.831
 5699SOL    HW117996   6.608   1.227   4.778
 5699SOL    HW217997   6.500   1.105   4.797
 5700SOL     OW17998   0.934   4.911   3.535
 5700SOL    HW117999   1.000   4.985   3.519
 5700SOL    HW218000   0.843   4.950   3.547
 5701SOL     OW18001   5.603   5.178   1.595
 5701SOL    HW118002   5.552   5.152   1.676
 5701SOL    HW218003   5.540   5.204   1.522
 5702SOL     OW18004   2.130   0.527   6.733
 5702SOL    HW118005   2.099   0.570   6.648
 5702SOL    HW218006   2.200   0.584   6.775
 5703SOL     OW18007   4.196   4.902   0.705
 5703SOL    HW118008   4.295   4.897   0.715
 5703SOL    HW218009   4.154   4.918   0.794
 5704SOL     OW18010   3.952   5.451   3.749
 5704SOL    HW118011   3.893   5.530   3.736
 5704SOL    HW218012   3.899   5.367   3.732
 5705SOL     OW18013   6.423   1.715   2.087
 5705SOL    HW118014   6.519   1.737   2.073
 5705SOL    HW218015   6.411   1.616   2.081
 5706SOL     OW18016   1.798   1.179   6.856
 5706SOL    HW118017   1.712   1.132   6.877
 5706SOL    HW218018   1.819   1.243   6.930
 5707SOL     OW18019   3.303   2.266   6.137
 5707SOL    HW118020   3.338   2.340   6.080
 5707SOL    HW218021   3.261   2.197   6.079
 5708SOL     OW18022   5.619   0.065   1.901
 5708SOL    HW118023   5.714   0.090   1.878
 5708SOL    HW218024   5.617   0.023   1.992
 5709SOL     OW18025   1.114   1.072   2.987
 5709SOL    HW118026   1.130   1.110   2.897
 5709SOL    HW218027   1.050   0.995   2.980
 5710SOL     OW18028   2.867   4.577   6.051
 5710SOL    HW118029   2.804   4.566   5.975
 5710SOL    HW218030   2.818   4.569   6.137
 5711SOL     OW18031   4.118   1.361   4.330
 5711SOL    HW118032   4.050   1.434   4.335
 5711SOL    HW218033   4.193   1.390   4.270
 5712SOL     OW18034   7.027   5.929   6.661
 5712SOL    HW118035   0.090   5.910   6.700
 5712SOL    HW218036   0.009   5.958   6.566
 5713SOL     OW18037   0.169   1.710   3.430
 5713SOL    HW118038   0.221   1.651   3.369
 5713SOL    HW218039   0.075   1.675   3.438
 5714SOL     OW18040   1.933   0.689   6.883
 5714SOL    HW118041   2.007   0.644   6.833
 5714SOL    HW218042   1.937   0.787   6.866
 5715SOL     OW18043   1.682   0.153   3.456
 5715SOL    HW118044   1.713   0.087   3.525
 5715SOL    HW218045   1.584   0.140   3.439
 5716SOL     OW18046   2.601   3.129   5.657
 5716SOL    HW118047   2.526   3.160   5.598
 5716SOL    HW218048   2.680   3.105   5.600
 5717SOL     OW18049   0.573   4.291   0.062
 5717SOL    HW118050   0.574   4.206   0.115
 5717SOL    HW218051   0.498   4.349   0.093
 5718SOL     OW18052   1.959   4.647   5.374
 5718SOL    HW118053   2.051   4.608   5.373
 5718SOL    HW218054   1.940   4.688   5.463
 5719SOL     OW18055   3.036   0.330   6.847
 5719SOL    HW118056   3.010   0.424   6.823
 5719SOL    HW218057   2.966   0.291   6.907
 5720SOL     OW18058   1.956   4.945   4.294
 5720SOL    HW118059   2.037   4.933   4.237
 5720SOL    HW218060   1.971   5.021   4.358
 5721SOL     OW18061   0.792   4.602   1.855
 5721SOL    HW118062   0.759   4.528   1.914
 5721SOL    HW218063   0.737   4.604   1.771
 5722SOL     OW18064   5.171   0.814   3.714
 5722SOL    HW118065   5.227   0.837   3.794
 5722SOL    HW218066   5.088   0.871   3.715
 5723SOL     OW18067   1.565   4.902   1.080
 5723SOL    HW118068   1.497   4.967   1.112
 5723SOL    HW218069   1.643   4.901   1.143
 5724SOL     OW18070   4.869   1.735   6.950
 5724SOL    HW118071   4.855   1.733   0.022
 5724SOL    HW218072   4.787   1.702   6.904
 5725SOL     OW18073   5.146   5.911   5.914
 5725SOL    HW118074   5.185   5.981   5.975
 5725SOL    HW218075   5.205   5.830   5.915
 5726SOL     OW18076   4.677   3.503   6.229
 5726SOL    HW118077   4.690   3.446   6.148
 5726SOL    HW218078   4.620   3.454   6.295
 5727SOL     OW18079   5.807   1.902   3.902
 5727SOL    HW118080   5.837   1.817   3.945
 5727SOL    HW218081   5.773   1.882   3.810
 5728SOL     OW18082   6.103   0.909   6.176
 5728SOL    HW118083   6.005   0.890   6.176
 5728SOL    HW218084   6.152   0.827   6.208
 5729SOL     OW18085   0.799   3.063   5.435
 5729SOL    HW118086   0.847   2.976   5.435
 5729SOL    HW218087   0.861   3.136   5.464
 5730SOL     OW18088   4.621   5.381   6.824
 5730SOL    HW118089   4.676   5.464   6.812
 5730SOL    HW218090   4.653   5.310   6.762
 5731SOL     OW18091   3.618   0.876   4.330
 5731SOL    HW118092   3.524   0.902   4.306
 5731SOL    HW218093   3.616   0.796   4.391
 5732SOL     OW18094   5.706   4.201   4.136
 5732SOL    HW118095   5.761   4.139   4.080
 5732SOL    HW218096   5.708   4.171   4.231
 5733SOL     OW18097   2.911   0.357   0.769
 5733SOL    HW118098   2.910   0.349   0.670
 5733SOL    HW218099   2.871   0.275   0.810
 5734SOL     OW18100   2.292   5.734   6.360
 5734SOL    HW118101   2.197   5.755   6.335
 5734SOL    HW218102   2.327   5.662   6.300
 5735SOL     OW18103   4.515   0.653   1.585
 5735SOL    HW118104   4.472   0.628   1.498
 5735SOL    HW218105   4.454   0.629   1.661
 5736SOL     OW18106   5.371   3.969   0.478
 5736SOL    HW118107   5.390   4.026   0.399
 5736SOL    HW218108   5.373   3.873   0.451
 5737SOL     OW18109   3.999   5.389   1.049
 5737SOL    HW118110   4.026   5.471   1.098
 5737SOL    HW218111   4.022   5.308   1.103
 5738SOL     OW18112   3.145   0.693   0.488
 5738SOL    HW118113   3.170   0.598   0.469
 5738SOL    HW218114   3.157   0.713   0.585
 5739SOL     OW18115   1.977   0.786   5.712
 5739SOL    HW118116   2.031   0.855   5.664
 5739SOL    HW218117   1.880   0.807   5.702
 5740SOL     OW18118   4.797   3.382   1.669
 5740SOL    HW118119   4.744   3.312   1.623
 5740SOL    HW218120   4.837   3.344   1.753
 5741SOL     OW18121   0.592   3.369   3.910
 5741SOL    HW118122   0.587   3.270   3.896
 5741SOL    HW218123   0.569   3.416   3.825
 5742SOL     OW18124   5.104   0.456   3.147
 5742SOL    HW118125   5.063   0.370   3.115
 5742SOL    HW218126   5.125   0.514   3.069
 5743SOL     OW18127   3.811   4.553   0.026
 5743SOL    HW118128   3.840   4.647   0.012
 5743SOL    HW218129   3.714   4.550   0.047
 5744SOL     OW18130   5.310   6.851   2.974
 5744SOL    HW118131   5.266   6.844   3.064
 5744SOL    HW218132   5.249   6.899   2.911
 5745SOL     OW18133   1.499   2.500   1.845
 5745SOL    HW118134   1.597   2.482   1.856
 5745SOL    HW218135   1.485   2.592   1.810
 5746SOL     OW18136   4.615   6.883   3.297
 5746SOL    HW118137   4.592   6.978   3.273
 5746SOL    HW218138   4.697   6.882   3.353
 5747SOL     OW18139   0.714   6.279   1.079
 5747SOL    HW118140   0.795   6.244   1.124
 5747SOL    HW218141   0.632   6.250   1.129
 5748SOL     OW18142   0.103   6.098   0.797
 5748SOL    HW118143   0.159   6.147   0.731
 5748SOL    HW218144   0.109   6.144   0.886
 5749SOL     OW18145   1.567   5.886   6.220
 5749SOL    HW118146   1.605   5.955   6.281
 5749SOL    HW218147   1.471   5.908   6.200
 5750SOL     OW18148   6.637   3.528   3.678
 5750SOL    HW118149   6.591   3.602   3.726
 5750SOL    HW218150   6.575   3.450   3.669
 5751SOL     OW18151   1.498   3.657   4.997
 5751SOL    HW118152   1.535   3.666   5.090
 5751SOL    HW218153   1.483   3.747   4.957
 5752SOL     OW18154   4.534   0.036   0.901
 5752SOL    HW118155   4.519   0.114   0.961
 5752SOL    HW218156   4.548   6.982   0.957
 5753SOL     OW18157   3.799   4.087   5.139
 5753SOL    HW118158   3.717   4.055   5.188
 5753SOL    HW218159   3.810   4.035   5.054
 5754SOL     OW18160   0.918   5.867   1.510
 5754SOL    HW118161   0.843   5.831   1.566
 5754SOL    HW218162   0.950   5.954   1.549
 5755SOL     OW18163   1.053   2.365   6.735
 5755SOL    HW118164   1.019   2.453   6.769
 5755SOL    HW218165   1.130   2.381   6.673
 5756SOL     OW18166   5.878   6.055   1.371
 5756SOL    HW118167   5.939   6.089   1.300
 5756SOL    HW218168   5.820   5.983   1.334
 5757SOL     OW18169   6.648   0.319   4.586
 5757SOL    HW118170   6.651   0.250   4.514
 5757SOL    HW218171   6.676   0.408   4.548
 5758SOL     OW18172   5.932   6.925   3.010
 5758SOL    HW118173   5.841   6.962   3.029
 5758SOL    HW218174   5.989   6.933   3.091
 5759SOL     OW18175   3.727   0.023   1.099
 5759SOL    HW118176   3.660   6.982   1.071
 5759SOL    HW218177   3.727   0.031   1.199
 5760SOL     OW18178   0.640   3.147   0.650
 5760SOL    HW118179   0.652   3.142   0.749
 5760SOL    HW218180   0.702   3.081   0.606
 5761SOL     OW18181   5.928   7.025   4.274
 5761SOL    HW118182   5.915   0.090   4.309
 5761SOL    HW218183   5.883   6.960   4.335
 5762SOL     OW18184   6.314   5.790   6.905
 5762SOL    HW118185   6.392   5.764   6.848
 5762SOL    HW218186   6.281   5.710   6.955
 5763SOL     OW18187   6.034   0.115   6.759
 5763SOL    HW118188   6.046   0.168   6.843
 5763SOL    HW218189   5.964   0.045   6.774
 5764SOL     OW18190   4.828   6.911   3.878
 5764SOL    HW118191   4.901   6.845   3.862
 5764SOL    HW218192   4.862   6.985   3.937
 5765SOL     OW18193   6.258   5.239   1.966
 5765SOL    HW118194   6.218   5.203   2.050
 5765SOL    HW218195   6.305   5.165   1.917
 5766SOL     OW18196   0.195   1.602   4.279
 5766SOL    HW118197   0.254   1.524   4.298
 5766SOL    HW218198   0.250   1.677   4.241
 5767SOL     OW18199   3.483   6.801   6.942
 5767SOL    HW118200   3.525   6.757   6.862
 5767SOL    HW218201   3.494   6.742   7.022
 5768SOL     OW18202   0.437   0.512   4.408
 5768SOL    HW118203   0.471   0.591   4.358
 5768SOL    HW218204   0.338   0.521   4.421
 5769SOL     OW18205   1.525   4.458   6.769
 5769SOL    HW118206   1.542   4.540   6.713
 5769SOL    HW218207   1.434   4.422   6.747
 5770SOL     OW18208   1.678   4.723   1.712
 5770SOL    HW118209   1.629   4.646   1.672
 5770SOL    HW218210   1.724   4.692   1.796
 5771SOL     OW18211   3.044   5.332   3.387
 5771SOL    HW118212   3.015   5.303   3.296
 5771SOL    HW218213   3.124   5.281   3.415
 5772SOL     OW18214   2.855   0.634   1.785
 5772SOL    HW118215   2.937   0.651   1.731
 5772SOL    HW218216   2.793   0.712   1.777
 5773SOL     OW18217   4.886   2.039   2.542
 5773SOL    HW118218   4.841   2.109   2.598
 5773SOL    HW218219   4.956   1.994   2.597
 5774SOL     OW18220   0.274   6.886   2.330
 5774SOL    HW118221   0.207   6.952   2.364
 5774SOL    HW218222   0.362   6.902   2.373
 5775SOL     OW18223   6.643   5.828   2.144
 5775SOL    HW118224   6.711   5.900   2.131
 5775SOL    HW218225   6.579   5.855   2.216
 5776SOL     OW18226   2.801   0.846   3.820
 5776SOL    HW118227   2.784   0.943   3.804
 5776SOL    HW218228   2.804   0.798   3.733
 5777SOL     OW18229   1.539   6.260   2.868
 5777SOL    HW118230   1.565   6.182   2.811
 5777SOL    HW218231   1.607   6.333   2.857
 5778SOL     OW18232   0.402   1.719   0.603
 5778SOL    HW118233   0.487   1.768   0.580
 5778SOL    HW218234   0.356   1.691   0.519
 5779SOL     OW18235   6.037   1.753   6.029
 5779SOL    HW118236   6.073   1.833   6.077
 5779SOL    HW218237   6.058   1.760   5.931
 5780SOL     OW18238   5.048   5.906   3.835
 5780SOL    HW118239   5.101   5.976   3.883
 5780SOL    HW218240   5.100   5.821   3.831
 5781SOL     OW18241   0.684   4.637   5.135
 5781SOL    HW118242   0.782   4.619   5.130
 5781SOL    HW218243   0.638   4.591   5.059
 5782SOL     OW18244   0.630   0.784   0.259
 5782SOL    HW118245   0.692   0.741   0.194
 5782SOL    HW218246   0.549   0.728   0.270
 5783SOL     OW18247   1.298   1.691   1.313
 5783SOL    HW118248   1.337   1.678   1.222
 5783SOL    HW218249   1.353   1.641   1.380
 5784SOL     OW18250   6.915   6.525   6.097
 5784SOL    HW118251   6.874   6.598   6.152
 5784SOL    HW218252   6.995   6.562   6.049
 5785SOL     OW18253   1.304   1.741   0.840
 5785SOL    HW118254   1.303   1.653   0.791
 5785SOL    HW218255   1.297   1.815   0.773
 5786SOL     OW18256   5.929   4.439   0.843
 5786SOL    HW118257   5.996   4.378   0.799
 5786SOL    HW218258   5.967   4.475   0.928
 5787SOL     OW18259   3.434   2.039   5.863
 5787SOL    HW118260   3.345   2.080   5.845
 5787SOL    HW218261   3.460   1.981   5.785
 5788SOL     OW18262   2.807   1.090   3.710
 5788SOL    HW118263   2.858   1.051   3.633
 5788SOL    HW218264   2.718   1.123   3.678
 5789SOL     OW18265   4.095   5.238   6.304
 5789SOL    HW118266   4.009   5.189   6.321
 5789SOL    HW218267   4.088   5.288   6.218
 5790SOL     OW18268   0.612   2.312   3.466
 5790SOL    HW118269   0.606   2.320   3.367
 5790SOL    HW218270   0.571   2.225   3.494
 5791SOL     OW18271   2.939   0.605   2.898
 5791SOL    HW118272   2.859   0.660   2.872
 5791SOL    HW218273   3.022   0.657   2.883
 5792SOL     OW18274   6.723   2.420   2.588
 5792SOL    HW118275   6.650   2.369   2.634
 5792SOL    HW218276   6.770   2.477   2.655
 5793SOL     OW18277   6.610   0.631   3.651
 5793SOL    HW118278   6.591   0.583   3.736
 5793SOL    HW218279   6.617   0.730   3.669
 5794SOL     OW18280   4.425   3.887   0.058
 5794SOL    HW118281   4.429   3.868   0.156
 5794SOL    HW218282   4.485   3.964   0.037
 5795SOL     OW18283   5.884   4.028   6.153
 5795SOL    HW118284   5.974   3.987   6.139
 5795SOL    HW218285   5.829   4.020   6.070
 5796SOL     OW18286   3.839   1.417   0.110
 5796SOL    HW118287   3.811   1.340   0.054
 5796SOL    HW218288   3.780   1.495   0.093
 5797SOL     OW18289   3.000   1.835   4.572
 5797SOL    HW118290   2.921   1.871   4.523
 5797SOL    HW218291   2.971   1.767   4.638
 5798SOL     OW18292   6.703   4.289   4.835
 5798SOL    HW118293   6.732   4.360   4.770
 5798SOL    HW218294   6.603   4.280   4.831
 5799SOL     OW18295   5.540   0.440   3.929
 5799SOL    HW118296   5.476   0.381   3.979
 5799SOL    HW218297   5.519   0.438   3.832
 5800SOL     OW18298   5.944   4.847   0.759
 5800SOL    HW118299   6.031   4.857   0.711
 5800SOL    HW218300   5.905   4.757   0.740
 5801SOL     OW18301   1.664   1.249   3.550
 5801SOL    HW118302   1.651   1.253   3.649
 5801SOL    HW218303   1.592   1.301   3.505
 5802SOL     OW18304   0.470   3.614   5.848
 5802SOL    HW118305   0.395   3.642   5.788
 5802SOL    HW218306   0.557   3.621   5.799
 5803SOL     OW18307   1.317   4.310   0.633
 5803SOL    HW118308   1.353   4.319   0.540
 5803SOL    HW218309   1.344   4.390   0.687
 5804SOL     OW18310   6.106   4.120   4.547
 5804SOL    HW118311   6.033   4.080   4.602
 5804SOL    HW218312   6.073   4.201   4.500
 5805SOL     OW18313   4.844   3.267   6.551
 5805SOL    HW118314   4.855   3.275   6.650
 5805SOL    HW218315   4.895   3.188   6.517
 5806SOL     OW18316   0.621   6.441   6.906
 5806SOL    HW118317   0.532   6.481   6.928
 5806SOL    HW218318   0.624   6.346   6.937
 5807SOL     OW18319   1.745   3.362   1.759
 5807SOL    HW118320   1.763   3.361   1.857
 5807SOL    HW218321   1.803   3.296   1.713
 5808SOL     OW18322   6.296   3.775   2.555
 5808SOL    HW118323   6.297   3.676   2.546
 5808SOL    HW218324   6.203   3.807   2.573
 5809SOL     OW18325   0.193   3.599   4.437
 5809SOL    HW118326   0.228   3.529   4.374
 5809SOL    HW218327   0.255   3.677   4.438
 5810SOL     OW18328   2.729   1.912   2.319
 5810SOL    HW118329   2.668   1.885   2.245
 5810SOL    HW218330   2.813   1.950   2.281
 5811SOL     OW18331   2.539   1.075   4.075
 5811SOL    HW118332   2.488   1.108   4.155
 5811SOL    HW218333   2.500   0.988   4.045
 5812SOL     OW18334   4.535   0.759   4.158
 5812SOL    HW118335   4.498   0.772   4.066
 5812SOL    HW218336   4.502   0.673   4.196
 5813SOL     OW18337   1.368   0.829   5.441
 5813SOL    HW118338   1.392   0.736   5.469
 5813SOL    HW218339   1.327   0.878   5.518
 5814SOL     OW18340   0.163   5.221   1.535
 5814SOL    HW118341   0.116   5.163   1.601
 5814SOL    HW218342   0.102   5.296   1.508
 5815SOL     OW18343   3.943   1.267   3.150
 5815SOL    HW118344   4.024   1.312   3.188
 5815SOL    HW218345   3.860   1.311   3.186
 5816SOL     OW18346   4.693   0.548   0.376
 5816SOL    HW118347   4.699   0.546   0.277
 5816SOL    HW218348   4.597   0.544   0.405
 5817SOL     OW18349   4.770   3.126   5.156
 5817SOL    HW118350   4.864   3.104   5.184
 5817SOL    HW218351   4.707   3.107   5.232
 5818SOL     OW18352   6.189   6.618   6.284
 5818SOL    HW118353   6.231   6.598   6.373
 5818SOL    HW218354   6.137   6.539   6.253
 5819SOL     OW18355   5.954   0.364   1.647
 5819SOL    HW118356   5.887   0.438   1.659
 5819SOL    HW218357   5.984   0.361   1.552
 5820SOL     OW18358   5.770   6.579   3.556
 5820SOL    HW118359   5.843   6.584   3.624
 5820SOL    HW218360   5.809   6.589   3.464
 5821SOL     OW18361   2.598   1.210   1.736
 5821SOL    HW118362   2.512   1.167   1.707
 5821SOL    HW218363   2.582   1.306   1.758
 5822SOL     OW18364   6.987   1.496   1.838
 5822SOL    HW118365   7.005   1.503   1.936
 5822SOL    HW218366   6.963   1.586   1.802
 5823SOL     OW18367   2.592   1.897   4.255
 5823SOL    HW118368   2.557   1.840   4.181
 5823SOL    HW218369   2.585   1.993   4.230
 5824SOL     OW18370   5.473   0.121   3.671
 5824SOL    HW118371   5.471   0.023   3.692
 5824SOL    HW218372   5.402   0.168   3.724
 5825SOL     OW18373   2.424   0.765   0.397
 5825SOL    HW118374   2.434   0.805   0.488
 5825SOL    HW218375   2.481   0.683   0.391
 5826SOL     OW18376   6.276   6.854   5.356
 5826SOL    HW118377   6.336   6.862   5.277
 5826SOL    HW218378   6.195   6.911   5.342
 5827SOL     OW18379   1.008   5.745   4.712
 5827SOL    HW118380   1.079   5.675   4.707
 5827SOL    HW218381   0.973   5.750   4.806
 5828SOL     OW18382   0.068   3.556   1.975
 5828SOL    HW118383   0.103   3.565   2.068
 5828SOL    HW218384   0.121   3.487   1.925
 5829SOL     OW18385   2.384   1.711   1.425
 5829SOL    HW118386   2.315   1.676   1.361
 5829SOL    HW218387   2.473   1.671   1.404
 5830SOL     OW18388   3.140   1.415   6.057
 5830SOL    HW118389   3.110   1.426   6.152
 5830SOL    HW218390   3.188   1.497   6.027
 5831SOL     OW18391   5.422   6.832   3.319
 5831SOL    HW118392   5.445   6.788   3.406
 5831SOL    HW218393   5.459   6.924   3.318
 5832SOL     OW18394   4.002   3.913   5.238
 5832SOL    HW118395   3.949   3.992   5.206
 5832SOL    HW218396   3.981   3.896   5.334
 5833SOL     OW18397   3.201   3.300   4.725
 5833SOL    HW118398   3.108   3.336   4.714
 5833SOL    HW218399   3.196   3.201   4.740
 5834SOL     OW18400   6.097   1.189   0.800
 5834SOL    HW118401   6.196   1.192   0.817
 5834SOL    HW218402   6.057   1.277   0.823
 5835SOL     OW18403   5.167   2.314   3.665
 5835SOL    HW118404   5.205   2.292   3.576
 5835SOL    HW218405   5.111   2.397   3.658
 5836SOL     OW18406   3.709   5.861   2.054
 5836SOL    HW118407   3.800   5.837   2.021
 5836SOL    HW218408   3.710   5.871   2.153
 5837SOL     OW18409   4.810   4.054   6.861
 5837SOL    HW118410   4.901   4.013   6.851
 5837SOL    HW218411   4.776   4.080   6.771
 5838SOL     OW18412   1.032   0.947   5.060
 5838SOL    HW118413   1.101   0.988   5.001
 5838SOL    HW218414   1.076   0.896   5.133
 5839SOL     OW18415   6.627   2.976   3.174
 5839SOL    HW118416   6.550   3.040   3.170
 5839SOL    HW218417   6.711   3.023   3.146
 5840SOL     OW18418   1.461   5.202   6.772
 5840SOL    HW118419   1.384   5.188   6.710
 5840SOL    HW218420   1.510   5.115   6.785
 5841SOL     OW18421   6.654   2.495   3.679
 5841SOL    HW118422   6.582   2.495   3.749
 5841SOL    HW218423   6.731   2.439   3.710
 5842SOL     OW18424   3.898   3.158   0.959
 5842SOL    HW118425   3.928   3.103   1.037
 5842SOL    HW218426   3.854   3.099   0.891
 5843SOL     OW18427   1.956   4.009   2.262
 5843SOL    HW118428   2.052   4.035   2.252
 5843SOL    HW218429   1.948   3.937   2.331
 5844SOL     OW18430   1.046   6.470   6.370
 5844SOL    HW118431   1.002   6.538   6.312
 5844SOL    HW218432   1.018   6.484   6.465
 5845SOL     OW18433   0.487   2.499   4.312
 5845SOL    HW118434   0.517   2.464   4.223
 5845SOL    HW218435   0.454   2.423   4.368
 5846SOL     OW18436   0.018   2.549   5.630
 5846SOL    HW118437   0.085   2.507   5.691
 5846SOL    HW218438   6.992   2.616   5.681
 5847SOL     OW18439   2.266   2.999   2.389
 5847SOL    HW118440   2.178   3.044   2.403
 5847SOL    HW218441   2.322   3.011   2.470
 5848SOL     OW18442   1.255   4.612   3.199
 5848SOL    HW118443   1.231   4.668   3.279
 5848SOL    HW218444   1.339   4.562   3.218
 5849SOL     OW18445   2.530   0.110   5.581
 5849SOL    HW118446   2.615   0.142   5.624
 5849SOL    HW218447   2.549   0.085   5.486
 5850SOL     OW18448   0.653   4.354   1.968
 5850SOL    HW118449   0.625   4.328   2.060
 5850SOL    HW218450   0.571   4.368   1.911
 5851SOL     OW18451   6.287   4.020   2.216
 5851SOL    HW118452   6.257   4.110   2.246
 5851SOL    HW218453   6.212   3.954   2.226
 5852SOL     OW18454   4.417   6.123   2.485
 5852SOL    HW118455   4.368   6.111   2.398
 5852SOL    HW218456   4.461   6.213   2.487
 5853SOL     OW18457   3.279   4.627   5.761
 5853SOL    HW118458   3.317   4.718   5.750
 5853SOL    HW218459   3.353   4.559   5.756
 5854SOL     OW18460   6.868   1.178   6.088
 5854SOL    HW118461   6.837   1.272   6.076
 5854SOL    HW218462   6.800   1.116   6.048
 5855SOL     OW18463   1.062   1.236   4.432
 5855SOL    HW118464   1.041   1.196   4.521
 5855SOL    HW218465   1.068   1.335   4.441
 5856SOL     OW18466   1.529   4.442   3.583
 5856SOL    HW118467   1.507   4.364   3.641
 5856SOL    HW218468   1.530   4.414   3.487
 5857SOL     OW18469   6.671   3.170   5.712
 5857SOL    HW118470   6.761   3.205   5.684
 5857SOL    HW218471   6.612   3.247   5.736
 5858SOL     OW18472   3.436   1.402   2.875
 5858SOL    HW118473   3.443   1.354   2.787
 5858SOL    HW218474   3.528   1.414   2.913
 5859SOL     OW18475   5.746   6.471   0.931
 5859SOL    HW118476   5.699   6.390   0.895
 5859SOL    HW218477   5.679   6.540   0.958
 5860SOL     OW18478   1.612   3.947   1.635
 5860SOL    HW118479   1.682   3.876   1.640
 5860SOL    HW218480   1.571   3.948   1.543
 5861SOL     OW18481   6.110   2.453   4.330
 5861SOL    HW118482   6.083   2.528   4.270
 5861SOL    HW218483   6.138   2.489   4.419
 5862SOL     OW18484   4.278   4.829   2.992
 5862SOL    HW118485   4.185   4.797   3.009
 5862SOL    HW218486   4.277   4.900   2.921
 5863SOL     OW18487   2.193   0.955   6.853
 5863SOL    HW118488   2.219   0.934   6.947
 5863SOL    HW218489   2.274   0.978   6.800
 5864SOL     OW18490   4.715   4.646   1.662
 5864SOL    HW118491   4.769   4.624   1.581
 5864SOL    HW218492   4.772   4.693   1.729
 5865SOL     OW18493   4.975   1.169   3.258
 5865SOL    HW118494   4.990   1.265   3.281
 5865SOL    HW218495   4.948   1.161   3.162
 5866SOL     OW18496   4.105   0.025   5.870
 5866SOL    HW118497   4.204   0.014   5.875
 5866SOL    HW218498   4.081   0.070   5.783
 5867SOL     OW18499   0.210   2.839   1.681
 5867SOL    HW118500   0.137   2.830   1.749
 5867SOL    HW218501   0.291   2.790   1.713
 5868SOL     OW18502   1.992   0.202   5.357
 5868SOL    HW118503   2.048   0.213   5.275
 5868SOL    HW218504   1.897   0.188   5.331
 5869SOL     OW18505   2.926   4.846   4.338
 5869SOL    HW118506   2.912   4.893   4.250
 5869SOL    HW218507   2.980   4.905   4.398
 5870SOL     OW18508   5.104   5.265   4.830
 5870SOL    HW118509   5.090   5.181   4.882
 5870SOL    HW218510   5.096   5.245   4.732
 5871SOL     OW18511   3.441   3.055   6.946
 5871SOL    HW118512   3.357   3.056   7.001
 5871SOL    HW218513   3.519   3.032   7.005
 5872SOL     OW18514   3.211   6.118   5.647
 5872SOL    HW118515   3.265   6.044   5.686
 5872SOL    HW218516   3.183   6.181   5.720
 5873SOL     OW18517   3.135   3.412   0.042
 5873SOL    HW118518   3.068   3.392   0.114
 5873SOL    HW218519   3.168   3.506   0.051
 5874SOL     OW18520   2.120   3.454   1.251
 5874SOL    HW118521   2.156   3.543   1.280
 5874SOL    HW218522   2.193   3.385   1.258
 5875SOL     OW18523   3.229   1.614   0.263
 5875SOL    HW118524   3.178   1.562   0.194
 5875SOL    HW218525   3.326   1.612   0.240
 5876SOL     OW18526   3.284   4.107   6.196
 5876SOL    HW118527   3.362   4.057   6.234
 5876SOL    HW218528   3.200   4.071   6.235
 5877SOL     OW18529   6.735   0.051   2.867
 5877SOL    HW118530   6.744   0.085   2.961
 5877SOL    HW218531   6.638   0.046   2.843
 5878SOL     OW18532   4.936   4.779   2.711
 5878SOL    HW118533   4.969   4.873   2.723
 5878SOL    HW218534   4.838   4.780   2.691
 5879SOL     OW18535   3.935   3.457   5.961
 5879SOL    HW118536   3.880   3.422   6.037
 5879SOL    HW218537   4.013   3.396   5.945
 5880SOL     OW18538   4.934   2.717   5.688
 5880SOL    HW118539   4.893   2.676   5.770
 5880SOL    HW218540   5.027   2.747   5.709
 5881SOL     OW18541   1.469   5.994   2.453
 5881SOL    HW118542   1.381   6.025   2.417
 5881SOL    HW218543   1.467   5.894   2.465
 5882SOL     OW18544   1.761   5.685   6.205
 5882SOL    HW118545   1.688   5.748   6.231
 5882SOL    HW218546   1.850   5.731   6.214
 5883SOL     OW18547   0.412   4.536   0.950
 5883SOL    HW118548   0.504   4.556   0.917
 5883SOL    HW218549   0.403   4.565   1.045
 5884SOL     OW18550   6.285   1.792   3.811
 5884SOL    HW118551   6.312   1.806   3.716
 5884SOL    HW218552   6.266   1.881   3.853
 5885SOL     OW18553   0.272   5.256   6.910
 5885SOL    HW118554   0.314   5.197   6.840
 5885SOL    HW218555   0.223   5.199   6.976
 5886SOL     OW18556   2.145   4.125   3.639
 5886SOL    HW118557   2.147   4.091   3.545
 5886SOL    HW218558   2.238   4.150   3.666
 5887SOL     OW18559   2.248   2.856   1.029
 5887SOL    HW118560   2.175   2.813   1.081
 5887SOL    HW218561   2.260   2.950   1.059
 5888SOL     OW18562   3.289   6.738   0.786
 5888SOL    HW118563   3.263   6.830   0.816
 5888SOL    HW218564   3.209   6.690   0.751
 5889SOL     OW18565   6.551   0.886   1.888
 5889SOL    HW118566   6.549   0.839   1.977
 5889SOL    HW218567   6.493   0.837   1.823
 5890SOL     OW18568   2.689   6.433   2.526
 5890SOL    HW118569   2.649   6.413   2.615
 5890SOL    HW218570   2.780   6.391   2.520
 5891SOL     OW18571   2.821   3.540   0.664
 5891SOL    HW118572   2.831   3.624   0.718
 5891SOL    HW218573   2.831   3.460   0.724
 5892SOL     OW18574   1.112   3.867   1.033
 5892SOL    HW118575   1.063   3.805   1.095
 5892SOL    HW218576   1.210   3.847   1.037
 5893SOL     OW18577   0.705   6.322   2.013
 5893SOL    HW118578   0.631   6.359   2.069
 5893SOL    HW218579   0.791   6.324   2.066
 5894SOL     OW18580   2.083   5.148   5.899
 5894SOL    HW118581   2.065   5.061   5.854
 5894SOL    HW218582   1.996   5.192   5.922
 5895SOL     OW18583   5.186   2.977   4.726
 5895SOL    HW118584   5.266   3.009   4.777
 5895SOL    HW218585   5.202   2.989   4.628
 5896SOL     OW18586   5.257   2.224   1.961
 5896SOL    HW118587   5.175   2.264   2.002
 5896SOL    HW218588   5.300   2.162   2.026
 5897SOL     OW18589   4.188   2.425   0.596
 5897SOL    HW118590   4.176   2.507   0.539
 5897SOL    HW218591   4.172   2.448   0.692
 5898SOL     OW18592   1.853   1.574   5.831
 5898SOL    HW118593   1.881   1.635   5.905
 5898SOL    HW218594   1.920   1.580   5.756
 5899SOL     OW18595   6.815   5.548   5.846
 5899SOL    HW118596   6.865   5.548   5.760
 5899SOL    HW218597   6.739   5.613   5.841
 5900SOL     OW18598   5.909   6.329   3.426
 5900SOL    HW118599   5.918   6.307   3.329
 5900SOL    HW218600   5.854   6.413   3.436
 5901SOL     OW18601   1.720   0.823   5.644
 5901SOL    HW118602   1.673   0.907   5.670
 5901SOL    HW218603   1.667   0.744   5.676
 5902SOL     OW18604   4.849   3.986   5.694
 5902SOL    HW118605   4.821   4.018   5.603
 5902SOL    HW218606   4.774   4.000   5.758
 5903SOL     OW18607   6.285   2.507   5.626
 5903SOL    HW118608   6.262   2.588   5.680
 5903SOL    HW218609   6.358   2.457   5.672
 5904SOL     OW18610   2.060   4.634   1.960
 5904SOL    HW118611   2.120   4.635   2.040
 5904SOL    HW218612   2.114   4.613   1.879
 5905SOL     OW18613   5.915   1.333   4.242
 5905SOL    HW118614   5.954   1.245   4.215
 5905SOL    HW218615   5.816   1.324   4.253
 5906SOL     OW18616   4.652   0.741   5.588
 5906SOL    HW118617   4.748   0.720   5.604
 5906SOL    HW218618   4.643   0.791   5.501
 5907SOL     OW18619   1.751   3.190   6.323
 5907SOL    HW118620   1.770   3.181   6.421
 5907SOL    HW218621   1.723   3.284   6.302
 5908SOL     OW18622   4.812   2.949   6.126
 5908SOL    HW118623   4.780   3.031   6.175
 5908SOL    HW218624   4.881   2.902   6.181
 5909SOL     OW18625   6.701   4.847   4.275
 5909SOL    HW118626   6.733   4.852   4.181
 5909SOL    HW218627   6.770   4.803   4.332
 5910SOL     OW18628   2.043   3.952   1.107
 5910SOL    HW118629   1.994   3.915   1.186
 5910SOL    HW218630   2.026   4.050   1.101
 5911SOL     OW18631   5.559   6.668   6.150
 5911SOL    HW118632   5.506   6.747   6.181
 5911SOL    HW218633   5.629   6.698   6.085
 5912SOL     OW18634   6.542   3.536   6.819
 5912SOL    HW118635   6.459   3.524   6.873
 5912SOL    HW218636   6.572   3.631   6.823
 5913SOL     OW18637   1.343   1.658   6.144
 5913SOL    HW118638   1.352   1.566   6.182
 5913SOL    HW218639   1.396   1.664   6.059
 5914SOL     OW18640   2.315   6.308   0.571
 5914SOL    HW118641   2.259   6.227   0.560
 5914SOL    HW218642   2.412   6.281   0.577
 5915SOL     OW18643   4.933   3.355   2.583
 5915SOL    HW118644   5.005   3.424   2.576
 5915SOL    HW218645   4.885   3.366   2.670
 5916SOL     OW18646   3.621   0.485   5.836
 5916SOL    HW118647   3.669   0.491   5.924
 5916SOL    HW218648   3.556   0.560   5.829
 5917SOL     OW18649   3.472   2.864   3.228
 5917SOL    HW118650   3.530   2.880   3.308
 5917SOL    HW218651   3.523   2.810   3.161
 5918SOL     OW18652   2.213   3.152   4.487
 5918SOL    HW118653   2.180   3.229   4.542
 5918SOL    HW218654   2.201   3.173   4.390
 5919SOL     OW18655   1.211   3.317   6.747
 5919SOL    HW118656   1.264   3.401   6.760
 5919SOL    HW218657   1.259   3.241   6.790
 5920SOL     OW18658   3.708   6.438   6.565
 5920SOL    HW118659   3.686   6.365   6.630
 5920SOL    HW218660   3.799   6.474   6.585
 5921SOL     OW18661   4.009   5.257   5.109
 5921SOL    HW118662   4.006   5.338   5.168
 5921SOL    HW218663   4.079   5.194   5.142
 5922SOL     OW18664   5.582   4.434   2.042
 5922SOL    HW118665   5.643   4.496   1.994
 5922SOL    HW218666   5.635   4.375   2.104
 5923SOL     OW18667   0.225   6.920   3.772
 5923SOL    HW118668   0.254   6.912   3.867
 5923SOL    HW218669   0.130   6.950   3.768
 5924SOL     OW18670   5.522   2.041   4.272
 5924SOL    HW118671   5.513   2.105   4.196
 5924SOL    HW218672   5.473   2.078   4.351
 5925SOL     OW18673   5.815   6.397   1.219
 5925SOL    HW118674   5.815   6.385   1.318
 5925SOL    HW218675   5.724   6.423   1.188
 5926SOL     OW18676   3.757   5.097   1.661
 5926SOL    HW118677   3.698   5.083   1.581
 5926SOL    HW218678   3.718   5.168   1.719
 5927SOL     OW18679   2.802   5.682   2.618
 5927SOL    HW118680   2.814   5.602   2.677
 5927SOL    HW218681   2.705   5.694   2.598
 5928SOL     OW18682   1.342   6.778   1.834
 5928SOL    HW118683   1.373   6.751   1.743
 5928SOL    HW218684   1.379   6.869   1.856
 5929SOL     OW18685   1.177   0.038   6.326
 5929SOL    HW118686   1.136   6.990   6.377
 5929SOL    HW218687   1.270   0.015   6.300
 5930SOL     OW18688   6.911   1.916   4.845
 5930SOL    HW118689   6.819   1.919   4.883
 5930SOL    HW218690   6.977   1.945   4.914
 5931SOL     OW18691   6.120   5.310   1.385
 5931SOL    HW118692   6.073   5.225   1.362
 5931SOL    HW218693   6.174   5.341   1.306
 5932SOL     OW18694   2.770   6.664   0.490
 5932SOL    HW118695   2.829   6.664   0.570
 5932SOL    HW218696   2.680   6.628   0.515
 5933SOL     OW18697   6.156   3.664   2.852
 5933SOL    HW118698   6.237   3.626   2.809
 5933SOL    HW218699   6.103   3.716   2.785
 5934SOL     OW18700   3.294   3.680   2.990
 5934SOL    HW118701   3.298   3.730   2.904
 5934SOL    HW218702   3.238   3.731   3.056
 5935SOL     OW18703   3.716   3.257   3.828
 5935SOL    HW118704   3.690   3.331   3.890
 5935SOL    HW218705   3.634   3.209   3.798
 5936SOL     OW18706   5.050   5.763   6.441
 5936SOL    HW118707   4.984   5.834   6.466
 5936SOL    HW218708   5.043   5.744   6.343
 5937SOL     OW18709   1.908   3.455   1.077
 5937SOL    HW118710   1.986   3.488   1.129
 5937SOL    HW218711   1.849   3.401   1.137
 5938SOL     OW18712   1.931   4.899   1.927
 5938SOL    HW118713   1.963   4.954   2.003
 5938SOL    HW218714   1.995   4.824   1.910
 5939SOL     OW18715   3.496   0.343   3.477
 5939SOL    HW118716   3.496   0.404   3.556
 5939SOL    HW218717   3.431   0.269   3.491
 5940SOL     OW18718   4.051   5.784   3.239
 5940SOL    HW118719   4.072   5.875   3.273
 5940SOL    HW218720   3.974   5.746   3.289
 5941SOL     OW18721   6.410   4.815   2.124
 5941SOL    HW118722   6.374   4.754   2.054
 5941SOL    HW218723   6.407   4.769   2.213
 5942SOL     OW18724   5.102   2.150   5.431
 5942SOL    HW118725   5.024   2.091   5.408
 5942SOL    HW218726   5.187   2.099   5.421
 5943SOL     OW18727   1.301   6.131   0.389
 5943SOL    HW118728   1.265   6.207   0.443
 5943SOL    HW218729   1.280   6.145   0.293
 5944SOL     OW18730   4.630   1.452   2.392
 5944SOL    HW118731   4.579   1.378   2.349
 5944SOL    HW218732   4.694   1.490   2.325
 5945SOL     OW18733   6.942   4.604   5.334
 5945SOL    HW118734   7.013   4.573   5.398
 5945SOL    HW218735   6.883   4.671   5.379
 5946SOL     OW18736   3.913   2.953   5.504
 5946SOL    HW118737   3.992   2.919   5.453
 5946SOL    HW218738   3.910   3.053   5.497
 5947SOL     OW18739   4.283   3.350   1.646
 5947SOL    HW118740   4.371   3.384   1.677
 5947SOL    HW218741   4.217   3.425   1.641
 5948SOL     OW18742   3.587   4.924   2.323
 5948SOL    HW118743   3.612   4.869   2.243
 5948SOL    HW218744   3.518   4.991   2.296
 5949SOL     OW18745   4.509   4.877   1.844
 5949SOL    HW118746   4.459   4.824   1.912
 5949SOL    HW218747   4.592   4.914   1.884
 5950SOL     OW18748   5.729   2.459   3.651
 5950SOL    HW118749   5.702   2.553   3.628
 5950SOL    HW218750   5.795   2.462   3.726
 5951SOL     OW18751   1.541   5.671   3.858
 5951SOL    HW118752   1.460   5.696   3.805
 5951SOL    HW218753   1.622   5.672   3.799
 5952SOL     OW18754   0.248   6.615   4.844
 5952SOL    HW118755   0.273   6.587   4.751
 5952SOL    HW218756   0.174   6.557   4.878
 5953SOL     OW18757   0.275   3.325   6.252
 5953SOL    HW118758   0.272   3.225   6.257
 5953SOL    HW218759   0.241   3.355   6.163
 5954SOL     OW18760   0.157   5.400   6.693
 5954SOL    HW118761   0.063   5.396   6.726
 5954SOL    HW218762   0.218   5.360   6.761
 5955SOL     OW18763   5.468   5.575   2.320
 5955SOL    HW118764   5.373   5.546   2.313
 5955SOL    HW218765   5.498   5.569   2.415
 5956SOL     OW18766   5.572   1.960   0.008
 5956SOL    HW118767   5.599   2.024   0.079
 5956SOL    HW218768   5.591   1.999   6.946
 5957SOL     OW18769   5.596   6.887   5.765
 5957SOL    HW118770   5.555   6.919   5.851
 5957SOL    HW218771   5.550   6.930   5.688
 5958SOL     OW18772   0.328   5.239   1.992
 5958SOL    HW118773   0.385   5.266   2.070
 5958SOL    HW218774   0.384   5.189   1.926
 5959SOL     OW18775   2.274   1.504   6.286
 5959SOL    HW118776   2.359   1.502   6.340
 5959SOL    HW218777   2.292   1.548   6.198
 5960SOL     OW18778   3.210   0.494   3.664
 5960SOL    HW118779   3.154   0.572   3.690
 5960SOL    HW218780   3.215   0.487   3.565
 5961SOL     OW18781   2.918   0.606   5.863
 5961SOL    HW118782   2.987   0.577   5.930
 5961SOL    HW218783   2.930   0.702   5.842
 5962SOL     OW18784   4.990   5.344   2.367
 5962SOL    HW118785   4.901   5.332   2.409
 5962SOL    HW218786   5.001   5.278   2.292
 5963SOL     OW18787   4.172   3.640   1.933
 5963SOL    HW118788   4.115   3.612   2.010
 5963SOL    HW218789   4.246   3.699   1.965
 5964SOL     OW18790   0.793   5.069   5.374
 5964SOL    HW118791   0.712   5.095   5.427
 5964SOL    HW218792   0.767   5.002   5.305
 5965SOL     OW18793   2.932   2.284   5.744
 5965SOL    HW118794   2.838   2.311   5.725
 5965SOL    HW218795   2.994   2.332   5.682
 5966SOL     OW18796   2.398   6.256   3.734
 5966SOL    HW118797   2.476   6.266   3.796
 5966SOL    HW218798   2.402   6.166   3.690
 5967SOL     OW18799   4.740   6.846   2.192
 5967SOL    HW118800   4.676   6.815   2.121
 5967SOL    HW218801   4.691   6.905   2.257
 5968SOL     OW18802   0.532   2.929   4.767
 5968SOL    HW118803   0.485   2.841   4.773
 5968SOL    HW218804   0.626   2.920   4.797
 5969SOL     OW18805   5.832   3.669   3.399
 5969SOL    HW118806   5.797   3.760   3.419
 5969SOL    HW218807   5.830   3.613   3.483
 5970SOL     OW18808   1.677   2.872   3.375
 5970SOL    HW118809   1.653   2.819   3.293
 5970SOL    HW218810   1.776   2.868   3.389
 5971SOL     OW18811   2.496   6.712   2.211
 5971SOL    HW118812   2.476   6.807   2.186
 5971SOL    HW218813   2.456   6.692   2.301
 5972SOL     OW18814   4.334   5.991   0.529
 5972SOL    HW118815   4.387   5.933   0.468
 5972SOL    HW218816   4.396   6.044   0.588
 5973SOL     OW18817   1.204   4.053   3.571
 5973SOL    HW118818   1.252   4.134   3.536
 5973SOL    HW218819   1.126   4.082   3.627
 5974SOL     OW18820   0.625   4.075   6.724
 5974SOL    HW118821   0.718   4.052   6.752
 5974SOL    HW218822   0.608   4.036   6.633
 5975SOL     OW18823   2.488   2.876   0.857
 5975SOL    HW118824   2.390   2.860   0.873
 5975SOL    HW218825   2.515   2.833   0.771
 5976SOL     OW18826   3.273   3.100   5.282
 5976SOL    HW118827   3.341   3.078   5.352
 5976SOL    HW218828   3.255   3.198   5.283
 5977SOL     OW18829   1.010   3.375   2.814
 5977SOL    HW118830   0.955   3.343   2.736
 5977SOL    HW218831   1.063   3.299   2.851
 5978SOL     OW18832   5.029   5.725   2.069
 5978SOL    HW118833   5.053   5.663   1.994
 5978SOL    HW218834   5.071   5.693   2.154
 5979SOL     OW18835   0.201   0.472   3.680
 5979SOL    HW118836   0.195   0.385   3.631
 5979SOL    HW218837   0.274   0.527   3.642
 5980SOL     OW18838   6.063   4.117   6.825
 5980SOL    HW118839   6.087   4.041   6.885
 5980SOL    HW218840   6.052   4.201   6.879
 5981SOL     OW18841   4.461   0.891   2.301
 5981SOL    HW118842   4.376   0.854   2.338
 5981SOL    HW218843   4.482   0.845   2.214
 5982SOL     OW18844   6.851   2.141   6.276
 5982SOL    HW118845   6.830   2.092   6.192
 5982SOL    HW218846   6.818   2.235   6.269
 5983SOL     OW18847   1.421   1.086   4.834
 5983SOL    HW118848   1.416   1.162   4.899
 5983SOL    HW218849   1.360   1.104   4.757
 5984SOL     OW18850   0.107   6.803   5.197
 5984SOL    HW118851   0.146   6.847   5.278
 5984SOL    HW218852   0.061   6.719   5.223
 5985SOL     OW18853   4.441   2.068   4.206
 5985SOL    HW118854   4.511   2.105   4.267
 5985SOL    HW218855   4.465   2.087   4.111
 5986SOL     OW18856   3.718   2.923   2.309
 5986SOL    HW118857   3.723   2.950   2.213
 5986SOL    HW218858   3.644   2.858   2.323
 5987SOL     OW18859   3.876   0.243   5.020
 5987SOL    HW118860   3.850   0.326   5.068
 5987SOL    HW218861   3.959   0.259   4.967
 5988SOL     OW18862   3.695   0.139   4.087
 5988SOL    HW118863   3.735   0.150   3.996
 5988SOL    HW218864   3.669   0.043   4.100
 5989SOL     OW18865   2.965   0.885   6.034
 5989SOL    HW118866   2.920   0.971   6.010
 5989SOL    HW218867   3.021   0.855   5.957
 5990SOL     OW18868   3.300   4.792   1.758
 5990SOL    HW118869   3.220   4.755   1.805
 5990SOL    HW218870   3.340   4.722   1.699
 5991SOL     OW18871   2.756   5.225   4.472
 5991SOL    HW118872   2.836   5.282   4.492
 5991SOL    HW218873   2.749   5.153   4.540
 5992SOL     OW18874   4.735   0.722   3.833
 5992SOL    HW118875   4.703   0.634   3.799
 5992SOL    HW218876   4.788   0.708   3.917
 5993SOL     OW18877   2.812   5.684   5.390
 5993SOL    HW118878   2.875   5.759   5.409
 5993SOL    HW218879   2.770   5.653   5.476
 5994SOL     OW18880   0.021   2.307   2.028
 5994SOL    HW118881   0.069   2.394   2.024
 5994SOL    HW218882   0.085   2.232   2.012
 5995SOL     OW18883   0.038   4.722   1.619
 5995SOL    HW118884   0.030   4.769   1.707
 5995SOL    HW218885   0.113   4.656   1.623
 5996SOL     OW18886   0.584   5.111   5.941
 5996SOL    HW118887   0.548   5.165   5.865
 5996SOL    HW218888   0.677   5.082   5.919
 5997SOL     OW18889   0.301   6.631   2.338
 5997SOL    HW118890   0.212   6.595   2.367
 5997SOL    HW218891   0.301   6.731   2.345
 5998SOL     OW18892   5.514   1.853   2.730
 5998SOL    HW118893   5.473   1.944   2.735
 5998SOL    HW218894   5.444   1.787   2.700
 5999SOL     OW18895   1.698   1.288   2.624
 5999SOL    HW118896   1.654   1.200   2.639
 5999SOL    HW218897   1.777   1.297   2.684
 6000SOL     OW18898   4.738   5.720   2.095
 6000SOL    HW118899   4.804   5.646   2.083
 6000SOL    HW218900   4.772   5.803   2.051
 6001SOL     OW18901   6.484   2.398   7.024
 6001SOL    HW118902   6.528   2.329   0.053
 6001SOL    HW218903   6.433   2.462   0.054
 6002SOL     OW18904   1.843   6.905   1.946
 6002SOL    HW118905   1.828   6.961   1.864
 6002SOL    HW218906   1.776   6.930   2.016
 6003SOL     OW18907   4.839   4.207   4.196
 6003SOL    HW118908   4.763   4.256   4.240
 6003SOL    HW218909   4.906   4.181   4.266
 6004SOL     OW18910   6.976   3.887   2.471
 6004SOL    HW118911   6.900   3.909   2.533
 6004SOL    HW218912   0.034   3.886   2.522
 6005SOL     OW18913   3.209   5.870   2.826
 6005SOL    HW118914   3.121   5.918   2.828
 6005SOL    HW218915   3.227   5.839   2.732
 6006SOL     OW18916   2.473   6.290   6.988
 6006SOL    HW118917   2.427   6.232   6.920
 6006SOL    HW218918   2.498   6.235   0.039
 6007SOL     OW18919   5.623   2.719   3.546
 6007SOL    HW118920   5.525   2.696   3.541
 6007SOL    HW218921   5.639   2.803   3.494
 6008SOL     OW18922   3.184   4.846   6.678
 6008SOL    HW118923   3.275   4.875   6.649
 6008SOL    HW218924   3.186   4.749   6.701
 6009SOL     OW18925   3.184   2.210   4.270
 6009SOL    HW118926   3.255   2.238   4.334
 6009SOL    HW218927   3.189   2.111   4.256
 6010SOL     OW18928   1.065   3.600   3.369
 6010SOL    HW118929   1.042   3.554   3.455
 6010SOL    HW218930   1.129   3.675   3.387
 6011SOL     OW18931   6.080   3.178   3.255
 6011SOL    HW118932   6.134   3.127   3.323
 6011SOL    HW218933   5.991   3.134   3.245
 6012SOL     OW18934   6.713   3.610   0.352
 6012SOL    HW118935   6.778   3.543   0.317
 6012SOL    HW218936   6.653   3.640   0.279
 6013SOL     OW18937   5.709   1.023   2.274
 6013SOL    HW118938   5.784   0.975   2.230
 6013SOL    HW218939   5.665   1.085   2.208
 6014SOL     OW18940   5.975   0.356   1.104
 6014SOL    HW118941   6.047   0.377   1.169
 6014SOL    HW218942   5.960   0.257   1.101
 6015SOL     OW18943   5.912   1.837   4.882
 6015SOL    HW118944   5.831   1.779   4.875
 6015SOL    HW218945   5.981   1.793   4.939
 6016SOL     OW18946   2.120   6.947   4.956
 6016SOL    HW118947   2.122   6.930   5.055
 6016SOL    HW218948   2.184   7.020   4.934
 6017SOL     OW18949   6.687   4.950   2.450
 6017SOL    HW118950   6.768   5.000   2.418
 6017SOL    HW218951   6.708   4.853   2.456
 6018SOL     OW18952   2.139   4.475   0.874
 6018SOL    HW118953   2.098   4.566   0.883
 6018SOL    HW218954   2.237   4.480   0.893
 6019SOL     OW18955   3.823   6.785   4.156
 6019SOL    HW118956   3.906   6.838   4.142
 6019SOL    HW218957   3.744   6.847   4.156
 6020SOL     OW18958   3.957   0.519   2.969
 6020SOL    HW118959   3.905   0.529   3.054
 6020SOL    HW218960   3.984   0.423   2.958
 6021SOL     OW18961   4.338   1.057   2.780
 6021SOL    HW118962   4.287   0.998   2.844
 6021SOL    HW218963   4.273   1.111   2.727
 6022SOL     OW18964   4.500   1.864   4.582
 6022SOL    HW118965   4.577   1.811   4.616
 6022SOL    HW218966   4.422   1.855   4.644
 6023SOL     OW18967   6.899   1.236   2.327
 6023SOL    HW118968   6.917   1.217   2.423
 6023SOL    HW218969   6.970   1.193   2.270
 6024SOL     OW18970   0.784   4.687   2.674
 6024SOL    HW118971   0.786   4.772   2.621
 6024SOL    HW218972   0.689   4.655   2.682
 6025SOL     OW18973   4.546   1.824   1.509
 6025SOL    HW118974   4.502   1.752   1.455
 6025SOL    HW218975   4.629   1.854   1.461
 6026SOL     OW18976   0.352   4.792   5.406
 6026SOL    HW118977   0.259   4.768   5.432
 6026SOL    HW218978   0.351   4.878   5.355
 6027SOL     OW18979   3.006   3.738   0.123
 6027SOL    HW118980   2.948   3.817   0.142
 6027SOL    HW218981   3.101   3.767   0.113
 6028SOL     OW18982   1.469   3.642   0.014
 6028SOL    HW118983   1.525   3.713   6.999
 6028SOL    HW218984   1.396   3.685   0.067
 6029SOL     OW18985   1.884   5.558   1.248
 6029SOL    HW118986   1.858   5.504   1.328
 6029SOL    HW218987   1.834   5.644   1.248
 6030SOL     OW18988   2.084   0.380   1.279
 6030SOL    HW118989   2.144   0.441   1.331
 6030SOL    HW218990   1.998   0.368   1.328
 6031SOL     OW18991   4.961   0.430   5.016
 6031SOL    HW118992   4.970   0.447   5.114
 6031SOL    HW218993   4.879   0.476   4.981
 6032SOL     OW18994   0.437   3.459   2.688
 6032SOL    HW118995   0.487   3.500   2.765
 6032SOL    HW218996   0.492   3.468   2.605
 6033SOL     OW18997   1.114   0.661   4.299
 6033SOL    HW118998   1.020   0.628   4.293
 6033SOL    HW218999   1.155   0.629   4.384
 6034SOL     OW19000   1.712   3.963   5.352
 6034SOL    HW119001   1.720   4.041   5.291
 6034SOL    HW219002   1.796   3.909   5.349
 6035SOL     OW19003   6.109   1.118   4.238
 6035SOL    HW119004   6.146   1.196   4.288
 6035SOL    HW219005   6.184   1.061   4.205
 6036SOL     OW19006   6.985   0.033   4.913
 6036SOL    HW119007   0.024   6.989   4.894
 6036SOL    HW219008   6.999   0.067   5.006
 6037SOL     OW19009   6.289   5.443   4.880
 6037SOL    HW119010   6.209   5.503   4.888
 6037SOL    HW219011   6.280   5.387   4.798
 6038SOL     OW19012   4.930   3.815   6.502
 6038SOL    HW119013   5.025   3.807   6.470
 6038SOL    HW219014   4.874   3.746   6.455
 6039SOL     OW19015   3.293   4.100   2.990
 6039SOL    HW119016   3.264   4.104   2.895
 6039SOL    HW219017   3.216   4.069   3.047
 6040SOL     OW19018   0.133   1.708   0.248
 6040SOL    HW119019   0.223   1.671   0.271
 6040SOL    HW219020   0.129   1.727   0.150
 6041SOL     OW19021   0.760   2.683   0.509
 6041SOL    HW119022   0.723   2.724   0.593
 6041SOL    HW219023   0.817   2.604   0.532
 6042SOL     OW19024   4.965   5.517   3.714
 6042SOL    HW119025   5.026   5.582   3.758
 6042SOL    HW219026   4.889   5.495   3.775
 6043SOL     OW19027   0.927   4.399   3.808
 6043SOL    HW119028   1.019   4.368   3.786
 6043SOL    HW219029   0.925   4.499   3.813
 6044SOL     OW19030   1.130   0.431   1.764
 6044SOL    HW119031   1.201   0.360   1.760
 6044SOL    HW219032   1.098   0.441   1.858
 6045SOL     OW19033   0.108   4.167   1.672
 6045SOL    HW119034   0.116   4.241   1.739
 6045SOL    HW219035   0.012   4.152   1.650
 6046SOL     OW19036   2.751   2.840   0.642
 6046SOL    HW119037   2.746   2.938   0.622
 6046SOL    HW219038   2.846   2.810   0.641
 6047SOL     OW19039   6.994   0.108   4.429
 6047SOL    HW119040   6.970   0.131   4.523
 6047SOL    HW219041   0.011   0.019   4.426
 6048SOL     OW19042   4.181   6.579   5.347
 6048SOL    HW119043   4.254   6.540   5.403
 6048SOL    HW219044   4.094   6.571   5.396
 6049SOL     OW19045   6.405   4.924   0.949
 6049SOL    HW119046   6.416   4.931   0.850
 6049SOL    HW219047   6.411   5.016   0.989
 6050SOL     OW19048   5.347   4.616   5.103
 6050SOL    HW119049   5.338   4.603   5.202
 6050SOL    HW219050   5.327   4.530   5.056
 6051SOL     OW19051   2.050   1.511   2.747
 6051SOL    HW119052   2.140   1.478   2.776
 6051SOL    HW219053   1.987   1.434   2.743
 6052SOL     OW19054   6.738   1.096   0.422
 6052SOL    HW119055   6.823   1.141   0.450
 6052SOL    HW219056   6.694   1.055   0.502
 6053SOL     OW19057   1.817   0.023   6.533
 6053SOL    HW119058   1.864   0.004   6.619
 6053SOL    HW219059   1.747   0.093   6.548
 6054SOL     OW19060   2.174   4.719   0.414
 6054SOL    HW119061   2.223   4.657   0.475
 6054SOL    HW219062   2.191   4.814   0.444
 6055SOL     OW19063   4.718   0.249   4.749
 6055SOL    HW119064   4.713   0.217   4.843
 6055SOL    HW219065   4.673   0.338   4.741
 6056SOL     OW19066   4.771   2.103   6.433
 6056SOL    HW119067   4.807   2.017   6.470
 6056SOL    HW219068   4.696   2.082   6.370
 6057SOL     OW19069   3.732   1.121   5.466
 6057SOL    HW119070   3.788   1.047   5.503
 6057SOL    HW219071   3.753   1.206   5.513
 6058SOL     OW19072   5.682   2.303   4.433
 6058SOL    HW119073   5.748   2.229   4.414
 6058SOL    HW219074   5.656   2.300   4.529
 6059SOL     OW19075   6.701   5.127   6.425
 6059SOL    HW119076   6.689   5.029   6.441
 6059SOL    HW219077   6.765   5.141   6.349
 6060SOL     OW19078   4.213   5.952   5.609
 6060SOL    HW119079   4.193   6.045   5.578
 6060SOL    HW219080   4.306   5.948   5.644
 6061SOL     OW19081   2.457   1.790   6.138
 6061SOL    HW119082   2.408   1.876   6.147
 6061SOL    HW219083   2.406   1.728   6.079
 6062SOL     OW19084   2.561   7.023   4.210
 6062SOL    HW119085   2.538   0.066   4.276
 6062SOL    HW219086   2.598   0.037   4.127
 6063SOL     OW19087   4.537   0.549   6.366
 6063SOL    HW119088   4.496   0.479   6.424
 6063SOL    HW219089   4.573   0.623   6.423
 6064SOL     OW19090   1.218   5.541   3.561
 6064SOL    HW119091   1.183   5.459   3.516
 6064SOL    HW219092   1.310   5.561   3.526
 6065SOL     OW19093   0.302   0.534   0.886
 6065SOL    HW119094   0.233   0.467   0.861
 6065SOL    HW219095   0.304   0.608   0.817
 6066SOL     OW19096   4.227   2.884   0.032
 6066SOL    HW119097   4.176   2.868   6.975
 6066SOL    HW219098   4.252   2.796   0.073
 6067SOL     OW19099   6.644   1.997   7.002
 6067SOL    HW119100   6.595   2.056   0.038
 6067SOL    HW219101   6.602   2.004   6.911
 6068SOL     OW19102   4.583   2.759   5.045
 6068SOL    HW119103   4.533   2.673   5.057
 6068SOL    HW219104   4.620   2.788   5.133
 6069SOL     OW19105   6.194   4.416   4.670
 6069SOL    HW119106   6.125   4.488   4.660
 6069SOL    HW219107   6.219   4.382   4.579
 6070SOL     OW19108   4.807   2.205   6.133
 6070SOL    HW119109   4.733   2.272   6.141
 6070SOL    HW219110   4.768   2.115   6.114
 6071SOL     OW19111   4.269   5.810   5.056
 6071SOL    HW119112   4.196   5.742   5.047
 6071SOL    HW219113   4.231   5.896   5.088
 6072SOL     OW19114   0.278   1.872   1.140
 6072SOL    HW119115   0.330   1.788   1.148
 6072SOL    HW219116   0.276   1.901   1.044
 6073SOL     OW19117   6.656   2.816   1.093
 6073SOL    HW119118   6.614   2.819   1.184
 6073SOL    HW219119   6.628   2.733   1.046
 6074SOL     OW19120   0.718   0.540   4.853
 6074SOL    HW119121   0.770   0.455   4.850
 6074SOL    HW219122   0.781   0.617   4.862
 6075SOL     OW19123   5.744   4.223   6.887
 6075SOL    HW119124   5.788   4.168   6.958
 6075SOL    HW219125   5.730   4.166   6.806
 6076SOL     OW19126   1.922   6.189   4.060
 6076SOL    HW119127   1.899   6.142   4.145
 6076SOL    HW219128   2.003   6.246   4.074
 6077SOL     OW19129   5.929   6.282   2.382
 6077SOL    HW119130   5.991   6.286   2.304
 6077SOL    HW219131   5.901   6.187   2.397
 6078SOL     OW19132   2.460   4.618   3.647
 6078SOL    HW119133   2.528   4.690   3.658
 6078SOL    HW219134   2.467   4.578   3.556
 6079SOL     OW19135   2.100   1.708   0.193
 6079SOL    HW119136   2.088   1.759   0.108
 6079SOL    HW219137   2.103   1.610   0.174
 6080SOL     OW19138   5.763   2.444   2.095
 6080SOL    HW119139   5.695   2.427   2.024
 6080SOL    HW219140   5.768   2.365   2.156
 6081SOL     OW19141   0.242   3.442   3.443
 6081SOL    HW119142   0.208   3.491   3.523
 6081SOL    HW219143   0.203   3.481   3.360
 6082SOL     OW19144   4.164   1.452   3.926
 6082SOL    HW119145   4.065   1.441   3.925
 6082SOL    HW219146   4.189   1.543   3.894
 6083SOL     OW19147   1.603   6.548   0.386
 6083SOL    HW119148   1.677   6.556   0.452
 6083SOL    HW219149   1.636   6.501   0.304
 6084SOL     OW19150   0.537   4.806   5.640
 6084SOL    HW119151   0.487   4.858   5.570
 6084SOL    HW219152   0.510   4.709   5.635
 6085SOL     OW19153   5.542   4.225   1.116
 6085SOL    HW119154   5.573   4.261   1.027
 6085SOL    HW219155   5.455   4.178   1.104
 6086SOL     OW19156   3.055   1.871   3.444
 6086SOL    HW119157   3.042   1.811   3.523
 6086SOL    HW219158   3.000   1.838   3.367
 6087SOL     OW19159   5.070   6.912   6.804
 6087SOL    HW119160   5.026   6.842   6.860
 6087SOL    HW219161   5.029   7.001   6.825
 6088SOL     OW19162   1.052   0.134   4.738
 6088SOL    HW119163   1.134   0.190   4.745
 6088SOL    HW219164   1.076   0.038   4.755
 6089SOL     OW19165   6.961   3.667   7.006
 6089SOL    HW119166   6.989   3.581   0.020
 6089SOL    HW219167   6.980   3.665   6.908
 6090SOL     OW19168   0.464   5.860   4.744
 6090SOL    HW119169   0.545   5.918   4.752
 6090SOL    HW219170   0.460   5.797   4.822
 6091SOL     OW19171   5.872   1.843   1.984
 6091SOL    HW119172   5.832   1.917   1.930
 6091SOL    HW219173   5.971   1.843   1.973
 6092SOL     OW19174   2.010   2.099   1.770
 6092SOL    HW119175   2.031   2.032   1.841
 6092SOL    HW219176   2.014   2.055   1.680
 6093SOL     OW19177   0.829   2.934   1.076
 6093SOL    HW119178   0.837   3.013   1.137
 6093SOL    HW219179   0.820   2.850   1.130
 6094SOL     OW19180   1.358   0.646   1.453
 6094SOL    HW119181   1.265   0.610   1.463
 6094SOL    HW219182   1.408   0.592   1.386
 6095SOL     OW19183   6.486   3.778   5.976
 6095SOL    HW119184   6.396   3.750   6.007
 6095SOL    HW219185   6.488   3.782   5.877
 6096SOL     OW19186   3.267   1.986   3.258
 6096SOL    HW119187   3.325   1.913   3.294
 6096SOL    HW219188   3.219   2.030   3.334
 6097SOL     OW19189   2.887   2.156   2.178
 6097SOL    HW119190   2.981   2.163   2.211
 6097SOL    HW219191   2.864   2.236   2.122
 6098SOL     OW19192   2.133   2.124   5.830
 6098SOL    HW119193   2.082   2.038   5.825
 6098SOL    HW219194   2.218   2.111   5.881
 6099SOL     OW19195   5.848   5.585   4.981
 6099SOL    HW119196   5.826   5.678   4.952
 6099SOL    HW219197   5.813   5.520   4.914
 6100SOL     OW19198   6.663   3.093   0.275
 6100SOL    HW119199   6.616   3.022   0.222
 6100SOL    HW219200   6.755   3.061   0.299
 6101SOL     OW19201   6.243   1.471   5.024
 6101SOL    HW119202   6.236   1.372   5.037
 6101SOL    HW219203   6.271   1.490   4.929
 6102SOL     OW19204   2.850   0.390   5.418
 6102SOL    HW119205   2.817   0.345   5.500
 6102SOL    HW219206   2.950   0.398   5.422
 6103SOL     OW19207   6.110   6.713   5.943
 6103SOL    HW119208   6.164   6.693   6.025
 6103SOL    HW219209   6.164   6.771   5.882
 6104SOL     OW19210   0.361   2.604   6.872
 6104SOL    HW119211   0.453   2.642   6.875
 6104SOL    HW219212   0.366   2.505   6.855
 6105SOL     OW19213   3.396   6.064   4.185
 6105SOL    HW119214   3.451   6.065   4.101
 6105SOL    HW219215   3.314   6.119   4.172
 6106SOL     OW19216   3.048   5.577   5.224
 6106SOL    HW119217   2.961   5.574   5.272
 6106SOL    HW219218   3.098   5.492   5.241
 6107SOL     OW19219   2.231   4.619   5.412
 6107SOL    HW119220   2.271   4.693   5.359
 6107SOL    HW219221   2.248   4.531   5.367
 6108SOL     OW19222   0.338   2.497   5.047
 6108SOL    HW119223   0.419   2.495   4.988
 6108SOL    HW219224   0.333   2.585   5.094
 6109SOL     OW19225   6.608   4.491   1.325
 6109SOL    HW119226   6.546   4.443   1.262
 6109SOL    HW219227   6.564   4.573   1.360
 6110SOL     OW19228   3.126   1.305   4.502
 6110SOL    HW119229   3.139   1.401   4.528
 6110SOL    HW219230   3.041   1.296   4.450
 6111SOL     OW19231   1.632   4.661   2.962
 6111SOL    HW119232   1.619   4.741   2.903
 6111SOL    HW219233   1.605   4.578   2.913
 6112SOL     OW19234   0.572   1.756   2.137
 6112SOL    HW119235   0.477   1.787   2.138
 6112SOL    HW219236   0.575   1.656   2.136
 6113SOL     OW19237   1.405   6.388   5.810
 6113SOL    HW119238   1.496   6.408   5.774
 6113SOL    HW219239   1.369   6.305   5.767
 6114SOL     OW19240   4.891   5.821   0.533
 6114SOL    HW119241   4.929   5.889   0.594
 6114SOL    HW219242   4.870   5.738   0.585
 6115SOL     OW19243   5.623   5.239   2.451
 6115SOL    HW119244   5.549   5.292   2.491
 6115SOL    HW219245   5.595   5.143   2.443
 6116SOL     OW19246   4.399   1.287   1.905
 6116SOL    HW119247   4.494   1.286   1.937
 6116SOL    HW219248   4.347   1.216   1.952
 6117SOL     OW19249   4.914   0.465   4.767
 6117SOL    HW119250   4.931   0.382   4.713
 6117SOL    HW219251   4.956   0.454   4.858
 6118SOL     OW19252   5.794   0.468   3.152
 6118SOL    HW119253   5.753   0.376   3.157
 6118SOL    HW219254   5.842   0.487   3.237
 6119SOL     OW19255   0.317   5.367   4.254
 6119SOL    HW119256   0.415   5.384   4.240
 6119SOL    HW219257   0.301   5.343   4.350
 6120SOL     OW19258   2.634   0.729   3.126
 6120SOL    HW119259   2.654   0.633   3.105
 6120SOL    HW219260   2.560   0.734   3.193
 6121SOL     OW19261   6.902   2.353   4.403
 6121SOL    HW119262   6.905   2.338   4.501
 6121SOL    HW219263   6.877   2.268   4.357
 6122SOL     OW19264   4.716   5.619   3.178
 6122SOL    HW119265   4.643   5.560   3.143
 6122SOL    HW219266   4.748   5.583   3.266
 6123SOL     OW19267   5.919   0.852   2.221
 6123SOL    HW119268   5.984   0.780   2.244
 6123SOL    HW219269   5.969   0.939   2.211
 6124SOL     OW19270   3.659   0.803   5.625
 6124SOL    HW119271   3.621   0.711   5.641
 6124SOL    HW219272   3.716   0.801   5.544
 6125SOL     OW19273   2.015   5.824   1.481
 6125SOL    HW119274   1.936   5.827   1.542
 6125SOL    HW219275   2.054   5.732   1.481
 6126SOL     OW19276   5.296   5.494   2.672
 6126SOL    HW119277   5.274   5.451   2.759
 6126SOL    HW219278   5.228   5.565   2.652
 6127SOL     OW19279   2.049   5.331   1.915
 6127SOL    HW119280   1.998   5.311   1.999
 6127SOL    HW219281   2.139   5.368   1.938
 6128SOL     OW19282   5.464   1.574   0.639
 6128SOL    HW119283   5.416   1.571   0.551
 6128SOL    HW219284   5.514   1.660   0.646
 6129SOL     OW19285   6.305   4.742   3.812
 6129SOL    HW119286   6.289   4.836   3.784
 6129SOL    HW219287   6.273   4.679   3.741
 6130SOL     OW19288   5.177   3.461   2.317
 6130SOL    HW119289   5.174   3.520   2.237
 6130SOL    HW219290   5.271   3.430   2.332
 6131SOL     OW19291   6.537   1.208   5.087
 6131SOL    HW119292   6.614   1.160   5.128
 6131SOL    HW219293   6.545   1.205   4.987
 6132SOL     OW19294   5.688   2.767   0.915
 6132SOL    HW119295   5.588   2.773   0.927
 6132SOL    HW219296   5.712   2.673   0.890
 6133SOL     OW19297   0.890   4.279   0.567
 6133SOL    HW119298   0.886   4.285   0.468
 6133SOL    HW219299   0.965   4.219   0.594
 6134SOL     OW19300   4.575   3.741   6.247
 6134SOL    HW119301   4.618   3.651   6.237
 6134SOL    HW219302   4.501   3.735   6.314
 6135SOL     OW19303   5.562   7.027   1.173
 6135SOL    HW119304   5.572   0.097   1.160
 6135SOL    HW219305   5.645   6.990   1.215
 6136SOL     OW19306   0.393   1.805   1.618
 6136SOL    HW119307   0.462   1.875   1.598
 6136SOL    HW219308   0.382   1.745   1.539
 6137SOL     OW19309   2.841   0.032   6.197
 6137SOL    HW119310   2.865   0.125   6.226
 6137SOL    HW219311   2.760   0.035   6.139
 6138SOL     OW19312   4.508   0.300   2.725
 6138SOL    HW119313   4.415   0.336   2.720
 6138SOL    HW219314   4.531   0.279   2.821
 6139SOL     OW19315   1.974   4.821   4.033
 6139SOL    HW119316   2.072   4.807   4.050
 6139SOL    HW219317   1.921   4.773   4.103
 6140SOL     OW19318   2.258   6.582   1.081
 6140SOL    HW119319   2.186   6.619   1.022
 6140SOL    HW219320   2.346   6.620   1.052
 6141SOL     OW19321   6.467   6.287   6.265
 6141SOL    HW119322   6.549   6.232   6.251
 6141SOL    HW219323   6.442   6.332   6.180
 6142SOL     OW19324   0.424   4.364   1.849
 6142SOL    HW119325   0.340   4.324   1.887
 6142SOL    HW219326   0.421   4.463   1.860
 6143SOL     OW19327   6.274   5.325   6.458
 6143SOL    HW119328   6.297   5.308   6.554
 6143SOL    HW219329   6.182   5.290   6.439
 6144SOL     OW19330   0.769   4.515   4.067
 6144SOL    HW119331   0.756   4.416   4.069
 6144SOL    HW219332   0.759   4.552   4.159
 6145SOL     OW19333   5.365   6.211   3.521
 6145SOL    HW119334   5.284   6.157   3.541
 6145SOL    HW219335   5.446   6.153   3.527
 6146SOL     OW19336   5.730   1.081   3.029
 6146SOL    HW119337   5.810   1.027   3.002
 6146SOL    HW219338   5.659   1.021   3.064
 6147SOL     OW19339   1.753   3.447   3.489
 6147SOL    HW119340   1.771   3.349   3.479
 6147SOL    HW219341   1.688   3.461   3.564
 6148SOL     OW19342   6.466   6.736   4.648
 6148SOL    HW119343   6.545   6.789   4.677
 6148SOL    HW219344   6.494   6.667   4.581
 6149SOL     OW19345   2.394   6.560   3.642
 6149SOL    HW119346   2.310   6.540   3.591
 6149SOL    HW219347   2.451   6.478   3.646
 6150SOL     OW19348   4.559   5.309   5.890
 6150SOL    HW119349   4.465   5.320   5.857
 6150SOL    HW219350   4.558   5.270   5.982
 6151SOL     OW19351   5.273   2.713   5.710
 6151SOL    HW119352   5.320   2.627   5.686
 6151SOL    HW219353   5.291   2.735   5.805
 6152SOL     OW19354   6.898   4.639   6.877
 6152SOL    HW119355   6.827   4.607   6.814
 6152SOL    HW219356   6.961   4.699   6.828
 6153SOL     OW19357   4.386   3.287   0.995
 6153SOL    HW119358   4.453   3.332   1.052
 6153SOL    HW219359   4.352   3.205   1.041
 6154SOL     OW19360   5.368   3.313   2.698
 6154SOL    HW119361   5.389   3.238   2.635
 6154SOL    HW219362   5.278   3.298   2.739
 6155SOL     OW19363   0.556   4.008   4.845
 6155SOL    HW119364   0.545   3.946   4.768
 6155SOL    HW219365   0.477   4.000   4.906
 6156SOL     OW19366   6.444   0.457   3.237
 6156SOL    HW119367   6.400   0.394   3.172
 6156SOL    HW219368   6.540   0.470   3.210
 6157SOL     OW19369   2.155   1.484   3.724
 6157SOL    HW119370   2.232   1.440   3.679
 6157SOL    HW219371   2.113   1.550   3.662
 6158SOL     OW19372   5.033   0.800   6.824
 6158SOL    HW119373   5.071   0.823   6.913
 6158SOL    HW219374   5.080   0.855   6.754
 6159SOL     OW19375   5.316   3.344   6.748
 6159SOL    HW119376   5.292   3.377   6.657
 6159SOL    HW219377   5.332   3.421   6.809
 6160SOL     OW19378   6.133   5.980   1.799
 6160SOL    HW119379   6.225   5.941   1.807
 6160SOL    HW219380   6.093   5.991   1.890
 6161SOL     OW19381   5.796   0.792   5.848
 6161SOL    HW119382   5.770   0.750   5.762
 6161SOL    HW219383   5.874   0.744   5.887
 6162SOL     OW19384   6.425   5.355   4.145
 6162SOL    HW119385   6.467   5.438   4.110
 6162SOL    HW219386   6.352   5.326   4.082
 6163SOL     OW19387   6.654   4.346   2.295
 6163SOL    HW119388   6.579   4.412   2.289
 6163SOL    HW219389   6.631   4.276   2.362
 6164SOL     OW19390   4.085   2.669   0.499
 6164SOL    HW119391   4.070   2.749   0.558
 6164SOL    HW219392   4.014   2.666   0.428
 6165SOL     OW19393   4.109   6.021   6.874
 6165SOL    HW119394   4.164   6.065   6.803
 6165SOL    HW219395   4.137   6.053   6.964
 6166SOL     OW19396   3.316   1.883   6.081
 6166SOL    HW119397   3.380   1.832   6.139
 6166SOL    HW219398   3.368   1.936   6.014
 6167SOL     OW19399   6.742   4.097   3.740
 6167SOL    HW119400   6.791   4.180   3.765
 6167SOL    HW219401   6.771   4.022   3.800
 6168SOL     OW19402   0.462   2.777   2.776
 6168SOL    HW119403   0.385   2.783   2.840
 6168SOL    HW219404   0.429   2.791   2.683
 6169SOL     OW19405   2.221   4.074   2.208
 6169SOL    HW119406   2.211   4.025   2.121
 6169SOL    HW219407   2.318   4.092   2.225
 6170SOL     OW19408   6.979   3.263   4.776
 6170SOL    HW119409   6.941   3.188   4.722
 6170SOL    HW219410   6.990   3.344   4.717
 6171SOL     OW19411   0.382   0.582   6.274
 6171SOL    HW119412   0.328   0.565   6.191
 6171SOL    HW219413   0.321   0.606   6.349
 6172SOL     OW19414   0.766   3.514   3.697
 6172SOL    HW119415   0.848   3.482   3.650
 6172SOL    HW219416   0.693   3.530   3.630
 6173SOL     OW19417   6.793   6.319   3.651
 6173SOL    HW119418   6.779   6.220   3.649
 6173SOL    HW219419   6.871   6.340   3.710
 6174SOL     OW19420   5.968   4.141   2.177
 6174SOL    HW119421   5.885   4.193   2.199
 6174SOL    HW219422   5.954   4.090   2.093
 6175SOL     OW19423   3.200   2.261   5.884
 6175SOL    HW119424   3.118   2.222   5.842
 6175SOL    HW219425   3.192   2.360   5.887
 6176SOL     OW19426   4.774   4.024   6.074
 6176SOL    HW119427   4.706   4.030   6.147
 6176SOL    HW219428   4.744   4.078   5.996
 6177SOL     OW19429   6.182   1.143   1.437
 6177SOL    HW119430   6.141   1.051   1.432
 6177SOL    HW219431   6.192   1.169   1.533
 6178SOL     OW19432   3.872   4.543   1.401
 6178SOL    HW119433   3.801   4.582   1.341
 6178SOL    HW219434   3.864   4.584   1.492
 6179SOL     OW19435   5.907   4.915   3.595
 6179SOL    HW119436   5.962   4.989   3.634
 6179SOL    HW219437   5.826   4.954   3.551
 6180SOL     OW19438   2.880   3.999   0.185
 6180SOL    HW119439   2.784   3.992   0.157
 6180SOL    HW219440   2.885   4.039   0.276
 6181SOL     OW19441   6.156   5.775   6.579
 6181SOL    HW119442   6.098   5.800   6.656
 6181SOL    HW219443   6.102   5.777   6.495
 6182SOL     OW19444   3.464   2.697   0.739
 6182SOL    HW119445   3.427   2.705   0.646
 6182SOL    HW219446   3.405   2.636   0.793
 6183SOL     OW19447   0.718   0.277   0.695
 6183SOL    HW119448   0.658   0.250   0.770
 6183SOL    HW219449   0.680   0.356   0.648
 6184SOL     OW19450   2.293   0.257   5.603
 6184SOL    HW119451   2.378   0.213   5.575
 6184SOL    HW219452   2.258   0.314   5.528
 6185SOL     OW19453   3.674   2.780   5.523
 6185SOL    HW119454   3.646   2.706   5.462
 6185SOL    HW219455   3.764   2.815   5.494
 6186SOL     OW19456   7.003   1.821   1.770
 6186SOL    HW119457   6.911   1.858   1.756
 6186SOL    HW219458   0.022   1.814   1.682
 6187SOL     OW19459   5.295   1.653   5.826
 6187SOL    HW119460   5.272   1.728   5.888
 6187SOL    HW219461   5.211   1.609   5.794
 6188SOL     OW19462   1.418   1.807   5.059
 6188SOL    HW119463   1.367   1.892   5.070
 6188SOL    HW219464   1.362   1.741   5.008
 6189SOL     OW19465   6.224   6.554   1.305
 6189SOL    HW119466   6.306   6.596   1.343
 6189SOL    HW219467   6.206   6.590   1.214
 6190SOL     OW19468   0.434   2.856   5.210
 6190SOL    HW119469   0.394   2.845   5.119
 6190SOL    HW219470   0.532   2.874   5.201
 6191SOL     OW19471   3.906   3.841   0.080
 6191SOL    HW119472   3.811   3.858   0.054
 6191SOL    HW219473   3.935   3.752   0.044
 6192SOL     OW19474   2.872   1.651   0.513
 6192SOL    HW119475   2.779   1.677   0.487
 6192SOL    HW219476   2.869   1.573   0.576
 6193SOL     OW19477   4.512   5.734   6.782
 6193SOL    HW119478   4.427   5.712   6.829
 6193SOL    HW219479   4.587   5.681   6.822
 6194SOL     OW19480   5.910   6.723   6.298
 6194SOL    HW119481   5.887   6.646   6.238
 6194SOL    HW219482   6.009   6.735   6.300
 6195SOL     OW19483   6.689   6.080   6.244
 6195SOL    HW119484   6.775   6.131   6.239
 6195SOL    HW219485   6.707   5.984   6.262
 6196SOL     OW19486   6.190   3.775   3.100
 6196SOL    HW119487   6.185   3.737   3.007
 6196SOL    HW219488   6.209   3.701   3.165
 6197SOL     OW19489   2.545   5.589   1.895
 6197SOL    HW119490   2.560   5.687   1.883
 6197SOL    HW219491   2.447   5.569   1.892
 6198SOL     OW19492   6.380   0.819   0.017
 6198SOL    HW119493   6.344   0.831   0.109
 6198SOL    HW219494   6.323   0.754   6.994
 6199SOL     OW19495   1.111   7.000   6.730
 6199SOL    HW119496   1.169   6.950   6.795
 6199SOL    HW219497   1.155   0.059   6.706
 6200SOL     OW19498   1.915   1.615   2.111
 6200SOL    HW119499   2.014   1.600   2.107
 6200SOL    HW219500   1.896   1.713   2.117
 6201SOL     OW19501   6.912   4.327   3.757
 6201SOL    HW119502   6.977   4.291   3.824
 6201SOL    HW219503   6.960   4.359   3.676
 6202SOL     OW19504   6.178   1.519   2.559
 6202SOL    HW119505   6.179   1.476   2.649
 6202SOL    HW219506   6.257   1.580   2.549
 6203SOL     OW19507   6.752   0.024   1.693
 6203SOL    HW119508   6.849   0.048   1.692
 6203SOL    HW219509   6.732   7.000   1.777
 6204SOL     OW19510   2.069   0.238   5.084
 6204SOL    HW119511   1.999   0.213   5.017
 6204SOL    HW219512   2.121   0.316   5.049
 6205SOL     OW19513   5.189   4.870   3.390
 6205SOL    HW119514   5.232   4.796   3.442
 6205SOL    HW219515   5.099   4.889   3.429
 6206SOL     OW19516   5.991   1.472   4.471
 6206SOL    HW119517   5.924   1.507   4.536
 6206SOL    HW219518   5.945   1.416   4.402
 6207SOL     OW19519   2.276   4.578   4.673
 6207SOL    HW119520   2.232   4.490   4.688
 6207SOL    HW219521   2.321   4.578   4.584
 6208SOL     OW19522   3.904   3.726   5.968
 6208SOL    HW119523   3.904   3.628   5.949
 6208SOL    HW219524   3.993   3.765   5.944
 6209SOL     OW19525   3.232   2.384   1.311
 6209SOL    HW119526   3.302   2.361   1.379
 6209SOL    HW219527   3.168   2.307   1.302
 6210SOL     OW19528   4.860   2.165   4.127
 6210SOL    HW119529   4.789   2.213   4.178
 6210SOL    HW219530   4.892   2.223   4.052
 6211SOL     OW19531   5.559   4.439   5.315
 6211SOL    HW119532   5.552   4.363   5.380
 6211SOL    HW219533   5.467   4.473   5.294
 6212SOL     OW19534   4.329   5.611   4.790
 6212SOL    HW119535   4.400   5.567   4.736
 6212SOL    HW219536   4.331   5.709   4.775
 6213SOL     OW19537   4.099   6.182   0.110
 6213SOL    HW119538   4.112   6.188   0.209
 6213SOL    HW219539   4.003   6.161   0.090
 6214SOL     OW19540   6.881   5.780   6.269
 6214SOL    HW119541   6.897   5.873   6.302
 6214SOL    HW219542   6.784   5.759   6.273
 6215SOL     OW19543   5.615   2.505   5.860
 6215SOL    HW119544   5.561   2.519   5.777
 6215SOL    HW219545   5.712   2.500   5.836
 6216SOL     OW19546   4.745   2.060   3.458
 6216SOL    HW119547   4.736   1.979   3.517
 6216SOL    HW219548   4.701   2.042   3.370
 6217SOL     OW19549   0.200   4.362   3.086
 6217SOL    HW119550   0.116   4.313   3.111
 6217SOL    HW219551   0.259   4.302   3.033
 6218SOL     OW19552   4.511   6.368   0.157
 6218SOL    HW119553   4.550   6.418   0.080
 6218SOL    HW219554   4.583   6.351   0.225
 6219SOL     OW19555   2.077   1.031   6.018
 6219SOL    HW119556   2.104   1.126   6.005
 6219SOL    HW219557   1.982   1.019   5.991
 6220SOL     OW19558   3.415   6.990   0.689
 6220SOL    HW119559   3.392   6.898   0.659
 6220SOL    HW219560   3.514   6.998   0.703
 6221SOL     OW19561   5.836   5.330   6.852
 6221SOL    HW119562   5.763   5.331   6.783
 6221SOL    HW219563   5.875   5.239   6.856
 6222SOL     OW19564   6.438   1.584   1.797
 6222SOL    HW119565   6.393   1.525   1.863
 6222SOL    HW219566   6.378   1.598   1.718
 6223SOL     OW19567   0.286   4.741   4.006
 6223SOL    HW119568   0.213   4.764   3.941
 6223SOL    HW219569   0.346   4.820   4.017
 6224SOL     OW19570   4.101   0.666   0.211
 6224SOL    HW119571   4.135   0.574   0.232
 6224SOL    HW219572   4.130   0.729   0.283
 6225SOL     OW19573   4.843   6.242   6.484
 6225SOL    HW119574   4.925   6.300   6.483
 6225SOL    HW219575   4.764   6.297   6.459
 6226SOL     OW19576   1.322   1.295   5.040
 6226SOL    HW119577   1.254   1.251   4.982
 6226SOL    HW219578   1.346   1.384   5.001
 6227SOL     OW19579   2.738   4.597   5.341
 6227SOL    HW119580   2.693   4.520   5.387
 6227SOL    HW219581   2.811   4.563   5.281
 6228SOL     OW19582   0.981   2.943   3.150
 6228SOL    HW119583   0.984   2.922   3.053
 6228SOL    HW219584   1.068   2.918   3.193
 6229SOL     OW19585   0.582   3.108   4.354
 6229SOL    HW119586   0.545   3.190   4.311
 6229SOL    HW219587   0.641   3.135   4.431
 6230SOL     OW19588   0.068   0.629   1.712
 6230SOL    HW119589   0.045   0.540   1.674
 6230SOL    HW219590   0.061   0.699   1.640
 6231SOL     OW19591   1.871   5.070   0.033
 6231SOL    HW119592   1.969   5.090   0.037
 6231SOL    HW219593   1.840   5.037   0.122
 6232SOL     OW19594   3.939   0.872   6.733
 6232SOL    HW119595   3.951   0.836   6.641
 6232SOL    HW219596   3.913   0.969   6.728
 6233SOL     OW19597   6.601   3.051   1.866
 6233SOL    HW119598   6.640   3.127   1.814
 6233SOL    HW219599   6.582   2.975   1.805
 6234SOL     OW19600   4.917   5.944   4.483
 6234SOL    HW119601   4.856   5.877   4.442
 6234SOL    HW219602   4.889   5.959   4.578
 6235SOL     OW19603   6.860   0.254   2.741
 6235SOL    HW119604   6.810   0.172   2.771
 6235SOL    HW219605   6.838   0.330   2.802
 6236SOL     OW19606   0.052   6.011   1.614
 6236SOL    HW119607   0.123   6.065   1.569
 6236SOL    HW219608   0.074   5.914   1.607
 6237SOL     OW19609   3.437   1.793   0.501
 6237SOL    HW119610   3.489   1.714   0.533
 6237SOL    HW219611   3.385   1.768   0.420
 6238SOL     OW19612   2.208   0.514   4.011
 6238SOL    HW119613   2.305   0.501   3.989
 6238SOL    HW219614   2.153   0.447   3.960
 6239SOL     OW19615   4.542   1.392   4.264
 6239SOL    HW119616   4.459   1.441   4.239
 6239SOL    HW219617   4.518   1.306   4.310
 6240SOL     OW19618   3.633   2.866   3.954
 6240SOL    HW119619   3.624   2.885   3.857
 6240SOL    HW219620   3.679   2.778   3.967
 6241SOL     OW19621   3.205   0.424   3.358
 6241SOL    HW119622   3.110   0.405   3.380
 6241SOL    HW219623   3.256   0.339   3.350
 6242SOL     OW19624   2.481   1.947   3.274
 6242SOL    HW119625   2.565   1.912   3.233
 6242SOL    HW219626   2.503   2.027   3.331
 6243SOL     OW19627   4.747   1.744   6.354
 6243SOL    HW119628   4.816   1.702   6.295
 6243SOL    HW219629   4.792   1.796   6.427
 6244SOL     OW19630   5.173   3.624   2.084
 6244SOL    HW119631   5.118   3.704   2.108
 6244SOL    HW219632   5.126   3.570   2.015
 6245SOL     OW19633   0.095   4.456   2.348
 6245SOL    HW119634   0.070   4.363   2.374
 6245SOL    HW219635   0.164   4.453   2.275
 6246SOL     OW19636   6.582   0.154   3.923
 6246SOL    HW119637   6.676   0.160   3.888
 6246SOL    HW219638   6.552   0.059   3.920
 6247SOL     OW19639   6.639   6.680   4.005
 6247SOL    HW119640   6.546   6.655   3.978
 6247SOL    HW219641   6.637   6.728   4.093
 6248SOL     OW19642   3.816   2.748   5.819
 6248SOL    HW119643   3.774   2.825   5.869
 6248SOL    HW219644   3.744   2.687   5.786
 6249SOL     OW19645   5.860   2.928   1.908
 6249SOL    HW119646   5.853   2.914   1.809
 6249SOL    HW219647   5.916   3.008   1.927
 6250SOL     OW19648   6.164   0.605   6.990
 6250SOL    HW119649   6.074   0.619   6.948
 6250SOL    HW219650   6.175   0.508   7.012
 6251SOL     OW19651   2.927   6.973   3.931
 6251SOL    HW119652   2.992   6.969   3.854
 6251SOL    HW219653   2.942   6.895   3.991
 6252SOL     OW19654   2.945   5.634   6.580
 6252SOL    HW119655   3.007   5.689   6.637
 6252SOL    HW219656   2.854   5.631   6.623
 6253SOL     OW19657   3.689   5.546   4.634
 6253SOL    HW119658   3.623   5.554   4.560
 6253SOL    HW219659   3.736   5.634   4.646
 6254SOL     OW19660   0.154   0.045   1.266
 6254SOL    HW119661   0.102   0.118   1.224
 6254SOL    HW219662   0.123   0.030   1.360
 6255SOL     OW19663   0.624   1.268   1.609
 6255SOL    HW119664   0.679   1.349   1.590
 6255SOL    HW219665   0.624   1.209   1.529
 6256SOL     OW19666   5.316   6.574   2.278
 6256SOL    HW119667   5.334   6.520   2.196
 6256SOL    HW219668   5.261   6.520   2.342
 6257SOL     OW19669   3.256   3.985   1.130
 6257SOL    HW119670   3.272   3.951   1.222
 6257SOL    HW219671   3.276   3.913   1.064
 6258SOL     OW19672   4.385   5.185   5.059
 6258SOL    HW119673   4.313   5.183   5.129
 6258SOL    HW219674   4.343   5.189   4.968
 6259SOL     OW19675   3.467   0.553   4.610
 6259SOL    HW119676   3.389   0.586   4.556
 6259SOL    HW219677   3.551   0.566   4.558
 6260SOL     OW19678   1.542   1.063   6.919
 6260SOL    HW119679   1.531   0.973   6.962
 6260SOL    HW219680   1.522   1.135   6.986
 6261SOL     OW19681   3.546   6.876   0.998
 6261SOL    HW119682   3.463   6.889   1.053
 6261SOL    HW219683   3.522   6.843   0.907
 6262SOL     OW19684   5.488   0.453   2.157
 6262SOL    HW119685   5.468   0.357   2.174
 6262SOL    HW219686   5.437   0.484   2.076
 6263SOL     OW19687   5.823   6.091   5.899
 6263SOL    HW119688   5.766   6.009   5.899
 6263SOL    HW219689   5.908   6.074   5.949
 6264SOL     OW19690   2.247   6.478   6.959
 6264SOL    HW119691   2.214   6.477   6.865
 6264SOL    HW219692   2.335   6.431   6.964
 6265SOL     OW19693   4.911   0.129   6.398
 6265SOL    HW119694   4.849   0.166   6.329
 6265SOL    HW219695   4.916   0.192   6.476
 6266SOL     OW19696   2.692   5.031   3.237
 6266SOL    HW119697   2.670   4.938   3.267
 6266SOL    HW219698   2.637   5.054   3.156
 6267SOL     OW19699   2.351   6.285   4.712
 6267SOL    HW119700   2.340   6.378   4.675
 6267SOL    HW219701   2.324   6.218   4.643
 6268SOL     OW19702   3.361   1.546   1.158
 6268SOL    HW119703   3.349   1.637   1.197
 6268SOL    HW219704   3.395   1.483   1.228
 6269SOL     OW19705   6.123   4.914   6.992
 6269SOL    HW119706   6.126   4.846   6.918
 6269SOL    HW219707   6.029   4.925   7.025
 6270SOL     OW19708   1.828   5.936   0.522
 6270SOL    HW119709   1.769   5.959   0.600
 6270SOL    HW219710   1.773   5.894   0.450
 6271SOL     OW19711   6.375   3.496   5.607
 6271SOL    HW119712   6.298   3.443   5.571
 6271SOL    HW219713   6.399   3.461   5.698
 6272SOL     OW19714   6.877   0.164   0.150
 6272SOL    HW119715   6.806   0.165   0.221
 6272SOL    HW219716   6.961   0.124   0.187
 6273SOL     OW19717   0.972   6.573   1.345
 6273SOL    HW119718   0.882   6.610   1.319
 6273SOL    HW219719   0.986   6.586   1.443
 6274SOL     OW19720   3.182   5.429   3.659
 6274SOL    HW119721   3.235   5.372   3.596
 6274SOL    HW219722   3.111   5.373   3.702
 6275SOL     OW19723   2.260   5.657   0.026
 6275SOL    HW119724   2.294   5.587   0.089
 6275SOL    HW219725   2.266   5.624   6.960
 6276SOL     OW19726   1.877   4.902   2.917
 6276SOL    HW119727   1.825   4.982   2.887
 6276SOL    HW219728   1.878   4.899   3.017
 6277SOL     OW19729   5.458   3.128   1.372
 6277SOL    HW119730   5.471   3.214   1.422
 6277SOL    HW219731   5.517   3.127   1.292
 6278SOL     OW19732   2.915   1.919   0.026
 6278SOL    HW119733   2.964   1.851   6.998
 6278SOL    HW219734   2.881   1.992   6.995
 6279SOL     OW19735   3.122   6.827   1.766
 6279SOL    HW119736   3.218   6.808   1.745
 6279SOL    HW219737   3.087   6.758   1.829
 6280SOL     OW19738   5.768   2.831   6.305
 6280SOL    HW119739   5.770   2.795   6.398
 6280SOL    HW219740   5.739   2.927   6.308
 6281SOL     OW19741   5.744   3.985   5.912
 6281SOL    HW119742   5.722   3.968   5.816
 6281SOL    HW219743   5.734   3.900   5.964
 6282SOL     OW19744   6.958   3.233   6.250
 6282SOL    HW119745   6.970   3.194   6.342
 6282SOL    HW219746   6.899   3.313   6.255
 6283SOL     OW19747   1.682   6.468   4.759
 6283SOL    HW119748   1.667   6.473   4.660
 6283SOL    HW219749   1.605   6.419   4.802
 6284SOL     OW19750   1.324   4.093   5.087
 6284SOL    HW119751   1.334   4.124   5.182
 6284SOL    HW219752   1.292   4.169   5.031
 6285SOL     OW19753   1.276   3.449   3.285
 6285SOL    HW119754   1.199   3.502   3.322
 6285SOL    HW219755   1.332   3.509   3.228
 6286SOL     OW19756   0.189   2.401   0.317
 6286SOL    HW119757   0.241   2.483   0.343
 6286SOL    HW219758   0.224   2.367   0.230
 6287SOL     OW19759   4.769   4.964   5.093
 6287SOL    HW119760   4.793   5.058   5.068
 6287SOL    HW219761   4.846   4.921   5.141
 6288SOL     OW19762   3.201   4.203   6.662
 6288SOL    HW119763   3.294   4.187   6.629
 6288SOL    HW219764   3.154   4.116   6.675
 6289SOL     OW19765   2.286   4.382   6.316
 6289SOL    HW119766   2.219   4.380   6.242
 6289SOL    HW219767   2.366   4.328   6.290
 6290SOL     OW19768   6.300   6.163   4.544
 6290SOL    HW119769   6.374   6.200   4.599
 6290SOL    HW219770   6.218   6.153   4.601
 6291SOL     OW19771   4.021   3.238   2.990
 6291SOL    HW119772   3.990   3.314   3.045
 6291SOL    HW219773   4.081   3.271   2.917
 6292SOL     OW19774   2.125   3.947   4.400
 6292SOL    HW119775   2.031   3.916   4.385
 6292SOL    HW219776   2.160   3.992   4.318
 6293SOL     OW19777   3.031   1.136   6.667
 6293SOL    HW119778   3.111   1.107   6.614
 6293SOL    HW219779   2.949   1.097   6.626
 6294SOL     OW19780   1.613   1.202   2.326
 6294SOL    HW119781   1.666   1.257   2.261
 6294SOL    HW219782   1.636   1.231   2.419
 6295SOL     OW19783   5.027   3.400   6.364
 6295SOL    HW119784   4.965   3.325   6.386
 6295SOL    HW219785   4.975   3.477   6.328
 6296SOL     OW19786   1.111   3.189   0.284
 6296SOL    HW119787   1.114   3.126   0.206
 6296SOL    HW219788   1.198   3.238   0.291
 6297SOL     OW19789   5.663   1.482   4.577
 6297SOL    HW119790   5.601   1.558   4.597
 6297SOL    HW219791   5.644   1.447   4.485
 6298SOL     OW19792   6.649   6.095   0.899
 6298SOL    HW119793   6.687   6.002   0.896
 6298SOL    HW219794   6.554   6.093   0.866
 6299SOL     OW19795   3.730   1.247   3.502
 6299SOL    HW119796   3.702   1.305   3.426
 6299SOL    HW219797   3.816   1.281   3.540
 6300SOL     OW19798   2.701   1.249   6.771
 6300SOL    HW119799   2.745   1.326   6.817
 6300SOL    HW219800   2.616   1.280   6.728
 6301SOL     OW19801   4.133   6.382   6.971
 6301SOL    HW119802   4.230   6.403   6.962
 6301SOL    HW219803   4.120   6.313   0.014
 6302SOL     OW19804   3.456   2.632   6.271
 6302SOL    HW119805   3.540   2.664   6.316
 6302SOL    HW219806   3.395   2.593   6.340
 6303SOL     OW19807   0.484   5.614   4.924
 6303SOL    HW119808   0.417   5.625   4.997
 6303SOL    HW219809   0.561   5.676   4.939
 6304SOL     OW19810   3.882   0.698   4.652
 6304SOL    HW119811   3.976   0.732   4.655
 6304SOL    HW219812   3.829   0.742   4.724
 6305SOL     OW19813   0.942   5.832   6.326
 6305SOL    HW119814   0.940   5.735   6.353
 6305SOL    HW219815   0.898   5.887   6.397
 6306SOL     OW19816   0.588   5.293   4.446
 6306SOL    HW119817   0.676   5.291   4.494
 6306SOL    HW219818   0.589   5.365   4.377
 6307SOL     OW19819   3.922   2.926   1.913
 6307SOL    HW119820   3.834   2.901   1.954
 6307SOL    HW219821   3.944   3.021   1.936
 6308SOL     OW19822   0.539   2.273   0.551
 6308SOL    HW119823   0.504   2.367   0.551
 6308SOL    HW219824   0.518   2.230   0.463
 6309SOL     OW19825   2.405   6.214   4.971
 6309SOL    HW119826   2.499   6.181   4.968
 6309SOL    HW219827   2.380   6.251   4.882
 6310SOL     OW19828   1.270   0.325   3.150
 6310SOL    HW119829   1.354   0.369   3.181
 6310SOL    HW219830   1.230   0.273   3.226
 6311SOL     OW19831   5.899   0.856   6.491
 6311SOL    HW119832   5.997   0.870   6.478
 6311SOL    HW219833   5.883   0.762   6.521
 6312SOL     OW19834   3.417   6.139   6.933
 6312SOL    HW119835   3.432   6.047   6.897
 6312SOL    HW219836   3.376   6.133   7.024
 6313SOL     OW19837   6.290   5.262   4.679
 6313SOL    HW119838   6.340   5.252   4.593
 6313SOL    HW219839   6.328   5.199   4.747
 6314SOL     OW19840   2.197   6.504   2.624
 6314SOL    HW119841   2.216   6.409   2.601
 6314SOL    HW219842   2.173   6.510   2.721
 6315SOL     OW19843   2.390   2.301   3.869
 6315SOL    HW119844   2.304   2.337   3.831
 6315SOL    HW219845   2.466   2.359   3.840
 6316SOL     OW19846   4.586   1.064   4.489
 6316SOL    HW119847   4.518   1.082   4.561
 6316SOL    HW219848   4.624   0.973   4.501
 6317SOL     OW19849   5.280   5.332   1.938
 6317SOL    HW119850   5.197   5.292   1.899
 6317SOL    HW219851   5.267   5.430   1.949
 6318SOL     OW19852   6.511   6.735   0.105
 6318SOL    HW119853   6.519   6.656   0.165
 6318SOL    HW219854   6.596   6.747   0.053
 6319SOL     OW19855   5.146   1.575   3.785
 6319SOL    HW119856   5.215   1.621   3.841
 6319SOL    HW219857   5.059   1.574   3.834
 6320SOL     OW19858   6.438   1.194   5.698
 6320SOL    HW119859   6.474   1.107   5.730
 6320SOL    HW219860   6.365   1.224   5.759
 6321SOL     OW19861   6.606   2.631   6.939
 6321SOL    HW119862   6.586   2.539   6.971
 6321SOL    HW219863   6.695   2.660   6.974
 6322SOL     OW19864   0.937   1.023   2.313
 6322SOL    HW119865   0.984   1.052   2.229
 6322SOL    HW219866   0.858   0.967   2.289
 6323SOL     OW19867   2.331   4.892   1.193
 6323SOL    HW119868   2.298   4.798   1.187
 6323SOL    HW219869   2.257   4.952   1.223
 6324SOL     OW19870   4.546   2.825   1.032
 6324SOL    HW119871   4.590   2.755   1.088
 6324SOL    HW219872   4.533   2.908   1.087
 6325SOL     OW19873   1.487   2.649   4.046
 6325SOL    HW119874   1.552   2.578   4.074
 6325SOL    HW219875   1.535   2.736   4.035
 6326SOL     OW19876   5.480   4.549   5.778
 6326SOL    HW119877   5.539   4.469   5.771
 6326SOL    HW219878   5.530   4.630   5.746
 6327SOL     OW19879   0.563   1.016   3.396
 6327SOL    HW119880   0.561   1.056   3.487
 6327SOL    HW219881   0.523   1.080   3.330
 6328SOL     OW19882   4.477   3.569   5.365
 6328SOL    HW119883   4.551   3.587   5.301
 6328SOL    HW219884   4.419   3.650   5.373
 6329SOL     OW19885   0.823   2.075   5.619
 6329SOL    HW119886   0.790   2.083   5.713
 6329SOL    HW219887   0.921   2.093   5.616
 6330SOL     OW19888   5.535   1.335   3.448
 6330SOL    HW119889   5.478   1.403   3.403
 6330SOL    HW219890   5.567   1.372   3.535
 6331SOL     OW19891   0.692   2.730   3.156
 6331SOL    HW119892   0.630   2.769   3.225
 6331SOL    HW219893   0.739   2.804   3.108
 6332SOL     OW19894   3.197   1.679   6.374
 6332SOL    HW119895   3.175   1.581   6.379
 6332SOL    HW219896   3.155   1.719   6.292
 6333SOL     OW19897   5.690   1.303   1.149
 6333SOL    HW119898   5.722   1.393   1.119
 6333SOL    HW219899   5.767   1.252   1.187
 6334SOL     OW19900   1.616   1.313   1.683
 6334SOL    HW119901   1.664   1.253   1.746
 6334SOL    HW219902   1.553   1.260   1.626
 6335SOL     OW19903   6.382   2.769   6.736
 6335SOL    HW119904   6.310   2.701   6.749
 6335SOL    HW219905   6.450   2.761   6.809
 6336SOL     OW19906   0.702   4.215   5.132
 6336SOL    HW119907   0.668   4.263   5.052
 6336SOL    HW219908   0.790   4.171   5.109
 6337SOL     OW19909   5.481   6.767   4.885
 6337SOL    HW119910   5.549   6.768   4.958
 6337SOL    HW219911   5.437   6.857   4.878
 6338SOL     OW19912   1.470   1.283   2.959
 6338SOL    HW119913   1.416   1.269   3.042
 6338SOL    HW219914   1.481   1.196   2.911
 6339SOL     OW19915   0.477   4.545   3.939
 6339SOL    HW119916   0.559   4.602   3.943
 6339SOL    HW219917   0.395   4.602   3.946
 6340SOL     OW19918   2.909   4.125   0.447
 6340SOL    HW119919   2.971   4.199   0.474
 6340SOL    HW219920   2.843   4.110   0.520
 6341SOL     OW19921   0.777   4.843   2.415
 6341SOL    HW119922   0.687   4.884   2.401
 6341SOL    HW219923   0.845   4.916   2.425
 6342SOL     OW19924   1.888   0.742   1.540
 6342SOL    HW119925   1.847   0.666   1.589
 6342SOL    HW219926   1.875   0.827   1.592
 6343SOL     OW19927   0.844   5.513   0.390
 6343SOL    HW119928   0.760   5.516   0.444
 6343SOL    HW219929   0.904   5.588   0.418
 6344SOL     OW19930   0.603   1.388   3.937
 6344SOL    HW119931   0.667   1.334   3.992
 6344SOL    HW219932   0.512   1.347   3.942
 6345SOL     OW19933   5.988   2.656   2.211
 6345SOL    HW119934   5.907   2.646   2.154
 6345SOL    HW219935   6.025   2.566   2.232
 6346SOL     OW19936   0.177   4.456   5.919
 6346SOL    HW119937   0.178   4.381   5.984
 6346SOL    HW219938   0.239   4.528   5.950
 6347SOL     OW19939   2.278   2.090   3.109
 6347SOL    HW119940   2.248   2.044   3.025
 6347SOL    HW219941   2.357   2.044   3.147
 6348SOL     OW19942   0.648   2.043   5.930
 6348SOL    HW119943   0.716   2.111   5.958
 6348SOL    HW219944   0.621   1.989   6.010
 6349SOL     OW19945   7.016   1.159   0.507
 6349SOL    HW119946   0.071   1.181   0.558
 6349SOL    HW219947   7.024   1.069   0.465
 6350SOL     OW19948   0.918   6.079   1.728
 6350SOL    HW119949   0.889   6.175   1.729
 6350SOL    HW219950   0.960   6.056   1.816
 6351SOL     OW19951   5.624   3.996   1.858
 6351SOL    HW119952   5.573   4.056   1.796
 6351SOL    HW219953   5.565   3.923   1.891
 6352SOL     OW19954   3.264   0.698   4.470
 6352SOL    HW119955   3.269   0.787   4.424
 6352SOL    HW219956   3.173   0.687   4.511
 6353SOL     OW19957   3.567   6.804   5.935
 6353SOL    HW119958   3.656   6.788   5.978
 6353SOL    HW219959   3.495   6.762   5.991
 6354SOL     OW19960   4.751   5.641   1.245
 6354SOL    HW119961   4.757   5.635   1.344
 6354SOL    HW219962   4.829   5.692   1.209
 6355SOL     OW19963   3.124   4.841   0.496
 6355SOL    HW119964   3.127   4.941   0.496
 6355SOL    HW219965   3.211   4.806   0.531
 6356SOL     OW19966   6.892   5.429   6.079
 6356SOL    HW119967   6.981   5.465   6.107
 6356SOL    HW219968   6.864   5.472   5.993
 6357SOL     OW19969   5.335   0.918   1.810
 6357SOL    HW119970   5.431   0.901   1.787
 6357SOL    HW219971   5.325   0.921   1.909
 6358SOL     OW19972   1.378   1.849   5.718
 6358SOL    HW119973   1.451   1.914   5.697
 6358SOL    HW219974   1.373   1.780   5.646
 6359SOL     OW19975   5.430   6.331   0.419
 6359SOL    HW119976   5.486   6.338   0.336
 6359SOL    HW219977   5.489   6.339   0.499
 6360SOL     OW19978   0.659   1.384   1.907
 6360SOL    HW119979   0.593   1.454   1.879
 6360SOL    HW219980   0.686   1.330   1.828
 6361SOL     OW19981   0.331   0.933   0.482
 6361SOL    HW119982   0.361   0.865   0.549
 6361SOL    HW219983   0.411   0.978   0.442
 6362SOL     OW19984   0.821   5.581   0.670
 6362SOL    HW119985   0.891   5.512   0.655
 6362SOL    HW219986   0.745   5.541   0.722
 6363SOL     OW19987   2.272   4.049   2.819
 6363SOL    HW119988   2.280   3.975   2.885
 6363SOL    HW219989   2.200   4.112   2.848
 6364SOL     OW19990   2.323   2.665   4.008
 6364SOL    HW119991   2.239   2.611   4.011
 6364SOL    HW219992   2.326   2.728   4.085
 6365SOL     OW19993   5.572   6.619   3.239
 6365SOL    HW119994   5.546   6.713   3.261
 6365SOL    HW219995   5.522   6.589   3.158
 6366SOL     OW19996   6.008   0.962   5.157
 6366SOL    HW119997   6.009   1.026   5.234
 6366SOL    HW219998   5.915   0.956   5.120
 6367SOL     OW19999   1.463   2.379   2.468
 6367SOL    HW120000   1.386   2.441   2.482
 6367SOL    HW220001   1.502   2.355   2.557
 6368SOL     OW20002   5.132   3.838   4.754
 6368SOL    HW120003   5.154   3.802   4.663
 6368SOL    HW220004   5.038   3.815   4.778
 6369SOL     OW20005   4.346   5.322   0.443
 6369SOL    HW120006   4.278   5.368   0.386
 6369SOL    HW220007   4.404   5.264   0.385
 6370SOL     OW20008   5.211   4.154   4.561
 6370SOL    HW120009   5.152   4.096   4.505
 6370SOL    HW220010   5.159   4.191   4.638
 6371SOL     OW20011   5.306   4.189   1.612
 6371SOL    HW120012   5.225   4.134   1.633
 6371SOL    HW220013   5.283   4.256   1.542
 6372SOL     OW20014   6.809   1.861   2.420
 6372SOL    HW120015   6.723   1.855   2.470
 6372SOL    HW220016   6.831   1.772   2.380
 6373SOL     OW20017   5.087   4.042   1.655
 6373SOL    HW120018   5.039   3.955   1.665
 6373SOL    HW220019   5.021   4.115   1.635
 6374SOL     OW20020   4.273   3.750   6.906
 6374SOL    HW120021   4.344   3.797   6.959
 6374SOL    HW220022   4.210   3.817   6.868
 6375SOL     OW20023   4.640   1.207   2.095
 6375SOL    HW120024   4.674   1.117   2.123
 6375SOL    HW220025   4.605   1.255   2.175
 6376SOL     OW20026   3.449   0.547   0.141
 6376SOL    HW120027   3.457   0.638   0.181
 6376SOL    HW220028   3.371   0.545   0.078
 6377SOL     OW20029   0.690   0.651   0.830
 6377SOL    HW120030   0.623   0.719   0.860
 6377SOL    HW220031   0.693   0.575   0.895
 6378SOL     OW20032   4.949   4.730   1.833
 6378SOL    HW120033   4.965   4.646   1.886
 6378SOL    HW220034   5.035   4.761   1.792
 6379SOL     OW20035   2.110   5.384   0.021
 6379SOL    HW120036   2.026   5.431   0.049
 6379SOL    HW220037   2.101   5.351   6.955
 6380SOL     OW20038   0.934   4.129   5.045
 6380SOL    HW120039   0.929   4.126   4.945
 6380SOL    HW220040   1.012   4.184   5.073
 6381SOL     OW20041   4.766   2.864   0.584
 6381SOL    HW120042   4.741   2.802   0.510
 6381SOL    HW220043   4.690   2.871   0.649
 6382SOL     OW20044   1.449   1.536   0.505
 6382SOL    HW120045   1.466   1.600   0.431
 6382SOL    HW220046   1.536   1.513   0.550
 6383SOL     OW20047   2.476   2.287   1.731
 6383SOL    HW120048   2.518   2.243   1.652
 6383SOL    HW220049   2.384   2.250   1.745
 6384SOL     OW20050   6.375   2.815   2.371
 6384SOL    HW120051   6.386   2.909   2.340
 6384SOL    HW220052   6.340   2.759   2.297
 6385SOL     OW20053   0.330   3.139   0.519
 6385SOL    HW120054   0.368   3.157   0.428
 6385SOL    HW220055   0.385   3.069   0.564
 6386SOL     OW20056   2.470   3.088   0.444
 6386SOL    HW120057   2.530   3.143   0.502
 6386SOL    HW220058   2.439   3.144   0.367
 6387SOL     OW20059   0.017   6.997   0.235
 6387SOL    HW120060   0.010   6.924   0.166
 6387SOL    HW220061   0.073   6.966   0.311
 6388SOL     OW20062   5.830   5.288   2.301
 6388SOL    HW120063   5.750   5.244   2.341
 6388SOL    HW220064   5.849   5.373   2.348
 6389SOL     OW20065   6.943   0.525   0.648
 6389SOL    HW120066   6.938   0.618   0.684
 6389SOL    HW220067   6.923   0.526   0.550
 6390SOL     OW20068   5.313   0.261   6.699
 6390SOL    HW120069   5.262   0.261   6.613
 6390SOL    HW220070   5.346   0.353   6.719
 6391SOL     OW20071   1.117   2.134   4.782
 6391SOL    HW120072   1.101   2.090   4.693
 6391SOL    HW220073   1.035   2.181   4.812
 6392SOL     OW20074   3.780   6.629   3.438
 6392SOL    HW120075   3.805   6.708   3.494
 6392SOL    HW220076   3.862   6.588   3.399
 6393SOL     OW20077   0.940   5.295   0.255
 6393SOL    HW120078   0.916   5.365   0.323
 6393SOL    HW220079   0.860   5.273   0.200
 6394SOL     OW20080   1.626   5.414   2.029
 6394SOL    HW120081   1.537   5.440   1.991
 6394SOL    HW220082   1.671   5.349   1.968
 6395SOL     OW20083   2.108   3.507   3.646
 6395SOL    HW120084   2.159   3.430   3.608
 6395SOL    HW220085   2.093   3.492   3.744
 6396SOL     OW20086   1.409   2.906   5.662
 6396SOL    HW120087   1.456   2.822   5.634
 6396SOL    HW220088   1.314   2.886   5.685
 6397SOL     OW20089   5.882   3.698   4.609
 6397SOL    HW120090   5.979   3.673   4.618
 6397SOL    HW220091   5.827   3.638   4.667
 6398SOL     OW20092   2.075   6.865   2.098
 6398SOL    HW120093   2.075   6.919   2.182
 6398SOL    HW220094   1.984   6.867   2.057
 6399SOL     OW20095   3.094   0.638   6.517
 6399SOL    HW120096   3.082   0.640   6.418
 6399SOL    HW220097   3.165   0.572   6.541
 6400SOL     OW20098   0.975   5.965   3.394
 6400SOL    HW120099   1.000   6.060   3.377
 6400SOL    HW220100   0.886   5.946   3.351
 6401SOL     OW20101   3.775   4.999   3.199
 6401SOL    HW120102   3.841   4.980   3.273
 6401SOL    HW220103   3.825   5.023   3.116
 6402SOL     OW20104   2.528   4.754   5.282
 6402SOL    HW120105   2.533   4.837   5.337
 6402SOL    HW220106   2.611   4.700   5.297
 6403SOL     OW20107   5.039   5.037   4.952
 6403SOL    HW120108   5.106   5.042   5.026
 6403SOL    HW220109   5.059   4.958   4.894
 6404SOL     OW20110   4.579   6.922   1.837
 6404SOL    HW120111   4.614   6.864   1.763
 6404SOL    HW220112   4.567   6.866   1.919
 6405SOL     OW20113   5.501   1.706   2.965
 6405SOL    HW120114   5.549   1.755   2.892
 6405SOL    HW220115   5.455   1.626   2.926
 6406SOL     OW20116   0.058   3.517   2.999
 6406SOL    HW120117   7.012   3.449   2.998
 6406SOL    HW220118   0.104   3.516   3.088
 6407SOL     OW20119   0.537   6.305   2.837
 6407SOL    HW120120   0.546   6.207   2.852
 6407SOL    HW220121   0.489   6.346   2.914
 6408SOL     OW20122   6.598   0.667   2.043
 6408SOL    HW120123   6.654   0.587   2.022
 6408SOL    HW220124   6.528   0.643   2.111
 6409SOL     OW20125   5.044   5.198   3.925
 6409SOL    HW120126   5.077   5.226   3.835
 6409SOL    HW220127   5.048   5.099   3.932
 6410SOL     OW20128   1.667   1.717   0.073
 6410SOL    HW120129   1.653   1.805   0.029
 6410SOL    HW220130   1.736   1.727   0.145
 6411SOL     OW20131   0.608   2.671   1.895
 6411SOL    HW120132   0.576   2.751   1.945
 6411SOL    HW220133   0.681   2.626   1.947
 6412SOL     OW20134   3.241   1.329   0.363
 6412SOL    HW120135   3.166   1.315   0.298
 6412SOL    HW220136   3.212   1.392   0.435
 6413SOL     OW20137   5.014   6.089   2.925
 6413SOL    HW120138   5.021   6.188   2.913
 6413SOL    HW220139   4.921   6.066   2.953
 6414SOL     OW20140   2.143   0.203   0.668
 6414SOL    HW120141   2.176   0.111   0.650
 6414SOL    HW220142   2.139   0.254   0.582
 6415SOL     OW20143   0.320   2.496   3.782
 6415SOL    HW120144   0.379   2.565   3.823
 6415SOL    HW220145   0.374   2.415   3.759
 6416SOL     OW20146   2.670   5.850   0.169
 6416SOL    HW120147   2.631   5.915   0.234
 6416SOL    HW220148   2.631   5.759   0.184
 6417SOL     OW20149   4.703   2.690   6.252
 6417SOL    HW120150   4.685   2.595   6.279
 6417SOL    HW220151   4.651   2.711   6.169
 6418SOL     OW20152   4.832   4.253   0.548
 6418SOL    HW120153   4.738   4.283   0.533
 6418SOL    HW220154   4.868   4.212   0.464
 6419SOL     OW20155   0.682   6.135   5.891
 6419SOL    HW120156   0.712   6.202   5.959
 6419SOL    HW220157   0.607   6.173   5.838
 6420SOL     OW20158   2.200   4.736   4.139
 6420SOL    HW120159   2.239   4.752   4.229
 6420SOL    HW220160   2.220   4.643   4.110
 6421SOL     OW20161   3.596   0.798   2.016
 6421SOL    HW120162   3.537   0.719   2.002
 6421SOL    HW220163   3.627   0.833   1.928
 6422SOL     OW20164   5.800   2.119   4.677
 6422SOL    HW120165   5.767   2.039   4.628
 6422SOL    HW220166   5.895   2.104   4.706
 6423SOL     OW20167   1.656   4.601   4.462
 6423SOL    HW120168   1.652   4.520   4.521
 6423SOL    HW220169   1.575   4.604   4.404
 6424SOL     OW20170   6.751   4.776   5.445
 6424SOL    HW120171   6.810   4.845   5.488
 6424SOL    HW220172   6.756   4.691   5.497
 6425SOL     OW20173   0.142   5.825   3.845
 6425SOL    HW120174   0.237   5.796   3.828
 6425SOL    HW220175   0.135   5.866   3.936
 6426SOL     OW20176   5.067   4.288   4.749
 6426SOL    HW120177   5.026   4.297   4.839
 6426SOL    HW220178   5.131   4.364   4.734
 6427SOL     OW20179   3.853   3.415   3.378
 6427SOL    HW120180   3.771   3.377   3.334
 6427SOL    HW220181   3.834   3.507   3.411
 6428SOL     OW20182   5.591   2.582   0.268
 6428SOL    HW120183   5.617   2.488   0.243
 6428SOL    HW220184   5.616   2.599   0.363
 6429SOL     OW20185   2.177   1.199   5.727
 6429SOL    HW120186   2.078   1.205   5.720
 6429SOL    HW220187   2.217   1.193   5.635
 6430SOL     OW20188   6.089   0.018   5.247
 6430SOL    HW120189   6.139   0.102   5.227
 6430SOL    HW220190   6.017   0.037   5.315
 6431SOL     OW20191   3.823   4.866   1.800
 6431SOL    HW120192   3.742   4.817   1.834
 6431SOL    HW220193   3.799   4.918   1.719
 6432SOL     OW20194   5.105   4.464   6.159
 6432SOL    HW120195   5.097   4.522   6.078
 6432SOL    HW220196   5.079   4.517   6.240
 6433SOL     OW20197   3.105   4.491   5.944
 6433SOL    HW120198   3.149   4.561   5.888
 6433SOL    HW220199   3.024   4.530   5.988
 6434SOL     OW20200   4.789   5.582   6.535
 6434SOL    HW120201   4.695   5.614   6.544
 6434SOL    HW220202   4.850   5.659   6.516
 6435SOL     OW20203   4.922   2.481   1.058
 6435SOL    HW120204   4.875   2.427   0.989
 6435SOL    HW220205   4.864   2.491   1.139
 6436SOL     OW20206   6.223   3.153   3.697
 6436SOL    HW120207   6.260   3.138   3.606
 6436SOL    HW220208   6.278   3.102   3.764
 6437SOL     OW20209   1.561   2.377   5.599
 6437SOL    HW120210   1.497   2.378   5.523
 6437SOL    HW220211   1.654   2.361   5.565
 6438SOL     OW20212   0.489   4.932   0.052
 6438SOL    HW120213   0.414   4.906   0.113
 6438SOL    HW220214   0.564   4.866   0.062
 6439SOL     OW20215   4.905   6.864   3.377
 6439SOL    HW120216   5.003   6.873   3.364
 6439SOL    HW220217   4.884   6.774   3.414
 6440SOL     OW20218   3.071   1.862   6.176
 6440SOL    HW120219   3.160   1.874   6.132
 6440SOL    HW220220   3.018   1.946   6.168
 6441SOL     OW20221   0.155   1.889   2.363
 6441SOL    HW120222   0.107   1.920   2.445
 6441SOL    HW220223   0.100   1.908   2.282
 6442SOL     OW20224   2.928   2.164   4.873
 6442SOL    HW120225   3.007   2.167   4.934
 6442SOL    HW220226   2.867   2.241   4.893
 6443SOL     OW20227   4.175   3.304   6.602
 6443SOL    HW120228   4.270   3.334   6.587
 6443SOL    HW220229   4.169   3.256   6.689
 6444SOL     OW20230   6.255   3.863   4.885
 6444SOL    HW120231   6.168   3.897   4.921
 6444SOL    HW220232   6.330   3.910   4.930
 6445SOL     OW20233   3.063   3.329   3.607
 6445SOL    HW120234   3.150   3.288   3.580
 6445SOL    HW220235   3.060   3.337   3.707
 6446SOL     OW20236   1.493   1.282   6.581
 6446SOL    HW120237   1.559   1.272   6.656
 6446SOL    HW220238   1.447   1.370   6.588
 6447SOL     OW20239   6.004   3.400   2.298
 6447SOL    HW120240   5.950   3.414   2.381
 6447SOL    HW220241   6.019   3.302   2.284
 6448SOL     OW20242   3.034   5.052   1.891
 6448SOL    HW120243   3.090   4.971   1.872
 6448SOL    HW220244   3.088   5.135   1.874
 6449SOL     OW20245   2.770   5.072   0.690
 6449SOL    HW120246   2.724   5.088   0.777
 6449SOL    HW220247   2.866   5.098   0.698
 6450SOL     OW20248   0.051   4.241   0.016
 6450SOL    HW120249   0.002   4.327   0.027
 6450SOL    HW220250   0.108   4.245   6.962
 6451SOL     OW20251   4.086   2.720   1.472
 6451SOL    HW120252   4.054   2.785   1.403
 6451SOL    HW220253   4.100   2.768   1.559
 6452SOL     OW20254   4.218   1.930   3.965
 6452SOL    HW120255   4.310   1.956   3.937
 6452SOL    HW220256   4.166   1.899   3.885
 6453SOL     OW20257   2.192   0.658   2.343
 6453SOL    HW120258   2.286   0.639   2.315
 6453SOL    HW220259   2.188   0.743   2.394
 6454SOL     OW20260   4.972   2.493   3.561
 6454SOL    HW120261   4.889   2.446   3.531
 6454SOL    HW220262   5.004   2.553   3.488
 6455SOL     OW20263   6.383   2.782   3.935
 6455SOL    HW120264   6.405   2.871   3.895
 6455SOL    HW220265   6.374   2.792   4.034
 6456SOL     OW20266   6.029   0.621   2.287
 6456SOL    HW120267   5.937   0.585   2.270
 6456SOL    HW220268   6.037   0.649   2.383
 6457SOL     OW20269   3.756   0.023   2.302
 6457SOL    HW120270   3.733   0.078   2.383
 6457SOL    HW220271   3.682   0.029   2.236
 6458SOL     OW20272   0.130   5.513   3.832
 6458SOL    HW120273   0.116   5.609   3.857
 6458SOL    HW220274   0.162   5.462   3.912
 6459SOL     OW20275   0.336   3.425   2.995
 6459SOL    HW120276   0.373   3.337   2.964
 6459SOL    HW220277   0.238   3.428   2.976
 6460SOL     OW20278   0.299   5.603   6.813
 6460SOL    HW120279   0.253   5.549   6.744
 6460SOL    HW220280   0.398   5.586   6.809
 6461SOL     OW20281   1.567   6.178   1.162
 6461SOL    HW120282   1.554   6.263   1.110
 6461SOL    HW220283   1.558   6.100   1.100
 6462SOL     OW20284   1.817   4.177   5.187
 6462SOL    HW120285   1.807   4.249   5.118
 6462SOL    HW220286   1.913   4.156   5.200
 6463SOL     OW20287   4.528   2.246   1.173
 6463SOL    HW120288   4.589   2.287   1.105
 6463SOL    HW220289   4.489   2.318   1.231
 6464SOL     OW20290   0.954   3.998   3.851
 6464SOL    HW120291   0.944   3.924   3.784
 6464SOL    HW220292   0.865   4.041   3.866
 6465SOL     OW20293   3.548   1.208   3.777
 6465SOL    HW120294   3.593   1.143   3.839
 6465SOL    HW220295   3.611   1.233   3.704
 6466SOL     OW20296   6.181   4.387   6.997
 6466SOL    HW120297   6.106   4.431   6.948
 6466SOL    HW220298   6.210   4.444   0.045
 6467SOL     OW20299   2.783   3.051   0.318
 6467SOL    HW120300   2.761   3.139   0.276
 6467SOL    HW220301   2.792   3.063   0.417
 6468SOL     OW20302   2.568   0.997   1.276
 6468SOL    HW120303   2.629   1.064   1.233
 6468SOL    HW220304   2.500   1.045   1.332
 6469SOL     OW20305   2.729   1.646   1.921
 6469SOL    HW120306   2.679   1.721   1.965
 6469SOL    HW220307   2.827   1.666   1.922
 6470SOL     OW20308   6.955   1.437   0.072
 6470SOL    HW120309   6.997   1.401   0.155
 6470SOL    HW220310   6.950   1.537   0.078
 6471SOL     OW20311   0.636   6.320   5.442
 6471SOL    HW120312   0.728   6.282   5.448
 6471SOL    HW220313   0.585   6.297   5.525
 6472SOL     OW20314   6.664   6.559   2.913
 6472SOL    HW120315   6.658   6.655   2.941
 6472SOL    HW220316   6.637   6.551   2.817
 6473SOL     OW20317   2.610   1.262   3.622
 6473SOL    HW120318   2.557   1.257   3.707
 6473SOL    HW220319   2.549   1.252   3.544
 6474SOL     OW20320   3.958   5.336   4.740
 6474SOL    HW120321   4.003   5.425   4.745
 6474SOL    HW220322   3.872   5.340   4.791
 6475SOL     OW20323   5.960   5.499   2.474
 6475SOL    HW120324   5.966   5.561   2.396
 6475SOL    HW220325   5.961   5.552   2.559
 6476SOL     OW20326   3.981   2.373   6.838
 6476SOL    HW120327   3.897   2.425   6.824
 6476SOL    HW220328   4.049   2.430   6.882
 6477SOL     OW20329   0.142   5.981   2.235
 6477SOL    HW120330   0.099   5.939   2.156
 6477SOL    HW220331   0.132   6.080   2.230
 6478SOL     OW20332   2.930   5.927   1.410
 6478SOL    HW120333   2.870   5.944   1.488
 6478SOL    HW220334   3.005   5.993   1.410
 6479SOL     OW20335   4.038   6.281   3.152
 6479SOL    HW120336   3.944   6.278   3.117
 6479SOL    HW220337   4.052   6.209   3.219
 6480SOL     OW20338   3.886   1.145   6.705
 6480SOL    HW120339   3.803   1.191   6.673
 6480SOL    HW220340   3.949   1.212   6.744
 6481SOL     OW20341   3.772   2.785   1.675
 6481SOL    HW120342   3.818   2.849   1.736
 6481SOL    HW220343   3.684   2.759   1.715
 6482SOL     OW20344   5.625   3.770   6.021
 6482SOL    HW120345   5.686   3.691   6.006
 6482SOL    HW220346   5.575   3.756   6.107
 6483SOL     OW20347   2.008   6.417   5.292
 6483SOL    HW120348   2.005   6.427   5.193
 6483SOL    HW220349   2.090   6.461   5.328
 6484SOL     OW20350   2.769   0.760   3.550
 6484SOL    HW120351   2.680   0.792   3.517
 6484SOL    HW220352   2.830   0.748   3.472
 6485SOL     OW20353   2.328   5.757   5.177
 6485SOL    HW120354   2.409   5.763   5.235
 6485SOL    HW220355   2.343   5.808   5.093
 6486SOL     OW20356   0.893   5.064   2.924
 6486SOL    HW120357   0.825   5.073   2.851
 6486SOL    HW220358   0.899   4.968   2.952
 6487SOL     OW20359   5.797   4.461   4.217
 6487SOL    HW120360   5.761   4.545   4.177
 6487SOL    HW220361   5.773   4.383   4.159
 6488SOL     OW20362   3.512   5.423   4.800
 6488SOL    HW120363   3.571   5.499   4.771
 6488SOL    HW220364   3.565   5.358   4.855
 6489SOL     OW20365   4.970   2.482   5.096
 6489SOL    HW120366   5.021   2.457   5.014
 6489SOL    HW220367   4.963   2.582   5.102
 6490SOL     OW20368   1.995   2.306   7.019
 6490SOL    HW120369   2.087   2.311   6.981
 6490SOL    HW220370   1.996   2.343   0.084
 6491SOL     OW20371   2.224   6.670   1.954
 6491SOL    HW120372   2.221   6.687   1.856
 6491SOL    HW220373   2.190   6.750   2.003
 6492SOL     OW20374   4.057   3.259   5.072
 6492SOL    HW120375   3.976   3.202   5.056
 6492SOL    HW220376   4.090   3.295   4.985
 6493SOL     OW20377   1.427   4.608   4.300
 6493SOL    HW120378   1.458   4.534   4.240
 6493SOL    HW220379   1.328   4.599   4.314
 6494SOL     OW20380   6.254   0.411   1.158
 6494SOL    HW120381   6.259   0.460   1.071
 6494SOL    HW220382   6.292   0.319   1.147
 6495SOL     OW20383   6.393   0.718   3.271
 6495SOL    HW120384   6.469   0.750   3.215
 6495SOL    HW220385   6.398   0.618   3.279
 6496SOL     OW20386   3.483   2.144   1.417
 6496SOL    HW120387   3.454   2.112   1.326
 6496SOL    HW220388   3.580   2.121   1.430
 6497SOL     OW20389   0.516   1.189   0.645
 6497SOL    HW120390   0.595   1.173   0.586
 6497SOL    HW220391   0.538   1.261   0.711
 6498SOL     OW20392   1.836   4.497   3.798
 6498SOL    HW120393   1.806   4.414   3.751
 6498SOL    HW220394   1.771   4.520   3.870
 6499SOL     OW20395   4.772   2.998   3.270
 6499SOL    HW120396   4.789   3.037   3.360
 6499SOL    HW220397   4.846   3.022   3.208
 6500SOL     OW20398   1.497   4.497   3.202
 6500SOL    HW120399   1.513   4.540   3.113
 6500SOL    HW220400   1.578   4.445   3.229
 6501SOL     OW20401   6.020   1.749   2.386
 6501SOL    HW120402   6.072   1.687   2.327
 6501SOL    HW220403   6.049   1.736   2.481
 6502SOL     OW20404   0.005   3.926   2.208
 6502SOL    HW120405   6.957   3.888   2.155
 6502SOL    HW220406   7.003   3.941   2.303
 6503SOL     OW20407   6.752   3.548   5.927
 6503SOL    HW120408   6.743   3.632   5.981
 6503SOL    HW220409   6.706   3.473   5.975
 6504SOL     OW20410   4.089   6.618   5.991
 6504SOL    HW120411   4.179   6.602   6.033
 6504SOL    HW220412   4.092   6.592   5.895
 6505SOL     OW20413   0.018   5.536   0.885
 6505SOL    HW120414   0.043   5.474   0.959
 6505SOL    HW220415   6.979   5.603   0.919
 6506SOL     OW20416   0.566   3.673   2.494
 6506SOL    HW120417   0.657   3.679   2.454
 6506SOL    HW220418   0.508   3.615   2.436
 6507SOL     OW20419   3.946   5.106   0.139
 6507SOL    HW120420   3.869   5.139   0.084
 6507SOL    HW220421   3.960   5.168   0.216
 6508SOL     OW20422   0.555   0.312   3.102
 6508SOL    HW120423   0.570   0.221   3.063
 6508SOL    HW220424   0.642   0.349   3.135
 6509SOL     OW20425   2.617   1.626   6.706
 6509SOL    HW120426   2.624   1.596   6.801
 6509SOL    HW220427   2.656   1.557   6.646
 6510SOL     OW20428   3.124   6.413   5.537
 6510SOL    HW120429   3.093   6.359   5.459
 6510SOL    HW220430   3.168   6.353   5.604
 6511SOL     OW20431   3.529   1.951   0.751
 6511SOL    HW120432   3.548   2.045   0.778
 6511SOL    HW220433   3.448   1.948   0.693
 6512SOL     OW20434   4.075   1.395   0.274
 6512SOL    HW120435   4.104   1.306   0.310
 6512SOL    HW220436   3.989   1.384   0.223
 6513SOL     OW20437   2.833   4.773   3.012
 6513SOL    HW120438   2.864   4.751   3.105
 6513SOL    HW220439   2.884   4.852   2.978
 6514SOL     OW20440   5.119   6.876   5.183
 6514SOL    HW120441   5.034   6.919   5.212
 6514SOL    HW220442   5.115   6.778   5.202
 6515SOL     OW20443   1.123   4.738   2.755
 6515SOL    HW120444   1.079   4.655   2.720
 6515SOL    HW220445   1.096   4.816   2.699
 6516SOL     OW20446   6.317   3.217   1.866
 6516SOL    HW120447   6.385   3.228   1.794
 6516SOL    HW220448   6.232   3.181   1.826
 6517SOL     OW20449   0.112   3.754   0.823
 6517SOL    HW120450   0.114   3.699   0.906
 6517SOL    HW220451   0.186   3.821   0.826
 6518SOL     OW20452   0.648   1.464   2.159
 6518SOL    HW120453   0.694   1.403   2.224
 6518SOL    HW220454   0.645   1.421   2.069
 6519SOL     OW20455   1.162   1.564   3.054
 6519SOL    HW120456   1.135   1.641   3.111
 6519SOL    HW220457   1.247   1.586   3.007
 6520SOL     OW20458   0.287   5.451   0.481
 6520SOL    HW120459   0.201   5.491   0.515
 6520SOL    HW220460   0.275   5.424   0.386
 6521SOL     OW20461   1.695   3.856   4.123
 6521SOL    HW120462   1.673   3.935   4.066
 6521SOL    HW220463   1.616   3.833   4.180
 6522SOL     OW20464   2.662   2.863   5.384
 6522SOL    HW120465   2.614   2.926   5.322
 6522SOL    HW220466   2.733   2.912   5.433
 6523SOL     OW20467   6.140   6.831   0.403
 6523SOL    HW120468   6.043   6.845   0.384
 6523SOL    HW220469   6.151   6.800   0.497
 6524SOL     OW20470   3.021   2.792   0.716
 6524SOL    HW120471   2.987   2.752   0.801
 6524SOL    HW220472   3.112   2.831   0.731
 6525SOL     OW20473   1.154   4.500   3.492
 6525SOL    HW120474   1.228   4.565   3.482
 6525SOL    HW220475   1.068   4.549   3.506
 6526SOL     OW20476   0.602   5.813   0.634
 6526SOL    HW120477   0.515   5.812   0.585
 6526SOL    HW220478   0.671   5.763   0.580
 6527SOL     OW20479   6.526   1.824   0.300
 6527SOL    HW120480   6.477   1.748   0.256
 6527SOL    HW220481   6.547   1.800   0.394
 6528SOL     OW20482   4.253   7.001   6.621
 6528SOL    HW120483   4.349   7.004   6.593
 6528SOL    HW220484   4.196   0.012   6.548
 6529SOL     OW20485   5.789   0.316   2.078
 6529SOL    HW120486   5.737   0.234   2.103
 6529SOL    HW220487   5.851   0.341   2.153
 6530SOL     OW20488   0.346   2.275   3.114
 6530SOL    HW120489   0.390   2.240   3.197
 6530SOL    HW220490   0.247   2.269   3.123
 6531SOL     OW20491   3.600   3.986   4.924
 6531SOL    HW120492   3.660   4.039   4.864
 6531SOL    HW220493   3.557   3.912   4.872
 6532SOL     OW20494   1.217   0.073   0.167
 6532SOL    HW120495   1.308   0.080   0.126
 6532SOL    HW220496   1.175   7.014   0.141
 6533SOL     OW20497   4.979   4.653   1.479
 6533SOL    HW120498   4.898   4.617   1.432
 6533SOL    HW220499   4.997   4.598   1.561
 6534SOL     OW20500   6.889   4.045   3.192
 6534SOL    HW120501   6.865   3.954   3.227
 6534SOL    HW220502   6.821   4.112   3.223
 6535SOL     OW20503   4.770   2.958   4.942
 6535SOL    HW120504   4.693   2.897   4.959
 6535SOL    HW220505   4.769   3.032   5.009
 6536SOL     OW20506   0.919   4.504   5.062
 6536SOL    HW120507   0.900   4.460   4.974
 6536SOL    HW220508   1.005   4.468   5.100
 6537SOL     OW20509   6.488   5.768   3.828
 6537SOL    HW120510   6.503   5.854   3.877
 6537SOL    HW220511   6.499   5.783   3.730
 6538SOL     OW20512   1.867   2.842   5.517
 6538SOL    HW120513   1.796   2.866   5.450
 6538SOL    HW220514   1.927   2.773   5.478
 6539SOL     OW20515   5.222   0.222   6.131
 6539SOL    HW120516   5.287   0.248   6.060
 6539SOL    HW220517   5.259   0.147   6.185
 6540SOL     OW20518   6.560   2.782   5.669
 6540SOL    HW120519   6.474   2.833   5.664
 6540SOL    HW220520   6.636   2.841   5.642
 6541SOL     OW20521   5.801   1.721   5.514
 6541SOL    HW120522   5.789   1.652   5.586
 6541SOL    HW220523   5.891   1.708   5.471
 6542SOL     OW20524   1.346   4.172   3.158
 6542SOL    HW120525   1.392   4.084   3.171
 6542SOL    HW220526   1.402   4.230   3.100
 6543SOL     OW20527   3.501   1.454   4.553
 6543SOL    HW120528   3.438   1.437   4.476
 6543SOL    HW220529   3.457   1.515   4.619
 6544SOL     OW20530   0.947   6.464   1.071
 6544SOL    HW120531   0.939   6.458   1.170
 6544SOL    HW220532   0.863   6.502   1.032
 6545SOL     OW20533   4.627   6.648   0.922
 6545SOL    HW120534   4.571   6.716   0.970
 6545SOL    HW220535   4.587   6.630   0.832
 6546SOL     OW20536   4.600   4.003   6.274
 6546SOL    HW120537   4.662   4.022   6.350
 6546SOL    HW220538   4.591   3.904   6.263
 6547SOL     OW20539   0.574   5.898   6.256
 6547SOL    HW120540   0.600   5.919   6.161
 6547SOL    HW220541   0.581   5.799   6.271
 6548SOL     OW20542   6.965   1.689   5.730
 6548SOL    HW120543   6.984   1.608   5.675
 6548SOL    HW220544   6.868   1.713   5.722
 6549SOL     OW20545   3.983   1.478   2.405
 6549SOL    HW120546   4.041   1.478   2.323
 6549SOL    HW220547   4.014   1.549   2.468
 6550SOL     OW20548   6.329   6.240   2.986
 6550SOL    HW120549   6.418   6.195   2.988
 6550SOL    HW220550   6.322   6.297   2.904
 6551SOL     OW20551   3.099   4.146   0.817
 6551SOL    HW120552   3.083   4.204   0.737
 6551SOL    HW220553   3.016   4.143   0.872
 6552SOL     OW20554   2.005   5.207   0.413
 6552SOL    HW120555   1.908   5.229   0.400
 6552SOL    HW220556   2.045   5.272   0.477
 6553SOL     OW20557   1.120   1.141   3.271
 6553SOL    HW120558   1.034   1.162   3.317
 6553SOL    HW220559   1.103   1.123   3.174
 6554SOL     OW20560   1.353   2.092   3.857
 6554SOL    HW120561   1.362   1.993   3.871
 6554SOL    HW220562   1.395   2.140   3.934
 6555SOL     OW20563   6.464   3.827   3.686
 6555SOL    HW120564   6.374   3.797   3.653
 6555SOL    HW220565   6.452   3.904   3.750
 6556SOL     OW20566   4.857   3.130   2.432
 6556SOL    HW120567   4.865   3.219   2.477
 6556SOL    HW220568   4.933   3.072   2.459
 6557SOL     OW20569   1.978   0.723   2.168
 6557SOL    HW120570   2.064   0.698   2.213
 6557SOL    HW220571   1.902   0.677   2.215
 6558SOL     OW20572   5.518   6.242   6.349
 6558SOL    HW120573   5.586   6.205   6.285
 6558SOL    HW220574   5.489   6.332   6.317
 6559SOL     OW20575   6.810   2.752   6.492
 6559SOL    HW120576   6.848   2.710   6.409
 6559SOL    HW220577   6.860   2.718   6.572
 6560SOL     OW20578   5.247   4.413   0.518
 6560SOL    HW120579   5.226   4.319   0.546
 6560SOL    HW220580   5.333   4.441   0.560
 6561SOL     OW20581   3.634   4.617   6.761
 6561SOL    HW120582   3.590   4.604   6.850
 6561SOL    HW220583   3.689   4.701   6.763
 6562SOL     OW20584   5.488   2.380   1.324
 6562SOL    HW120585   5.537   2.387   1.411
 6562SOL    HW220586   5.535   2.435   1.255
 6563SOL     OW20587   5.993   5.033   5.098
 6563SOL    HW120588   6.025   4.939   5.091
 6563SOL    HW220589   5.923   5.039   5.168
 6564SOL     OW20590   6.171   3.354   3.062
 6564SOL    HW120591   6.192   3.445   3.097
 6564SOL    HW220592   6.128   3.299   3.134
 6565SOL     OW20593   5.445   0.225   2.980
 6565SOL    HW120594   5.517   0.188   2.920
 6565SOL    HW220595   5.356   0.190   2.950
 6566SOL     OW20596   4.897   5.790   3.150
 6566SOL    HW120597   4.825   5.721   3.148
 6566SOL    HW220598   4.891   5.846   3.067
 6567SOL     OW20599   4.095   0.400   1.203
 6567SOL    HW120600   4.016   0.393   1.263
 6567SOL    HW220601   4.070   0.368   1.111
 6568SOL     OW20602   4.277   1.906   0.667
 6568SOL    HW120603   4.336   1.938   0.741
 6568SOL    HW220604   4.233   1.984   0.623
 6569SOL     OW20605   0.708   4.933   4.648
 6569SOL    HW120606   0.722   5.028   4.677
 6569SOL    HW220607   0.752   4.871   4.713
 6570SOL     OW20608   4.429   0.295   1.887
 6570SOL    HW120609   4.515   0.246   1.901
 6570SOL    HW220610   4.420   0.322   1.792
 6571SOL     OW20611   3.431   5.203   2.726
 6571SOL    HW120612   3.366   5.202   2.802
 6571SOL    HW220613   3.421   5.119   2.672
 6572SOL     OW20614   1.322   5.881   4.029
 6572SOL    HW120615   1.313   5.824   3.948
 6572SOL    HW220616   1.246   5.862   4.092
 6573SOL     OW20617   1.436   1.970   2.746
 6573SOL    HW120618   1.414   2.015   2.660
 6573SOL    HW220619   1.464   1.876   2.729
 6574SOL     OW20620   1.589   5.058   2.567
 6574SOL    HW120621   1.634   5.102   2.490
 6574SOL    HW220622   1.517   5.118   2.603
 6575SOL     OW20623   0.064   1.315   3.219
 6575SOL    HW120624   0.133   1.342   3.285
 6575SOL    HW220625   0.049   1.217   3.224
 6576SOL     OW20626   4.960   5.757   0.839
 6576SOL    HW120627   5.041   5.792   0.793
 6576SOL    HW220628   4.888   5.826   0.838
 6577SOL     OW20629   3.299   1.201   4.073
 6577SOL    HW120630   3.325   1.260   3.996
 6577SOL    HW220631   3.216   1.236   4.116
 6578SOL     OW20632   1.221   4.753   1.378
 6578SOL    HW120633   1.315   4.725   1.397
 6578SOL    HW220634   1.161   4.674   1.385
 6579SOL     OW20635   6.608   0.925   4.070
 6579SOL    HW120636   6.589   0.952   3.976
 6579SOL    HW220637   6.706   0.933   4.087
 6580SOL     OW20638   2.321   2.321   0.153
 6580SOL    HW120639   2.317   2.397   0.217
 6580SOL    HW220640   2.282   2.239   0.195
 6581SOL     OW20641   0.643   1.947   1.341
 6581SOL    HW120642   0.570   1.880   1.349
 6581SOL    HW220643   0.641   1.987   1.250
 6582SOL     OW20644   6.407   1.480   3.053
 6582SOL    HW120645   6.319   1.521   3.028
 6582SOL    HW220646   6.400   1.381   3.048
 6583SOL     OW20647   3.672   5.252   6.756
 6583SOL    HW120648   3.768   5.276   6.761
 6583SOL    HW220649   3.616   5.335   6.760
 6584SOL     OW20650   4.525   2.587   6.918
 6584SOL    HW120651   4.510   2.587   7.017
 6584SOL    HW220652   4.461   2.523   6.875
 6585SOL     OW20653   5.701   6.734   1.462
 6585SOL    HW120654   5.656   6.665   1.519
 6585SOL    HW220655   5.797   6.708   1.447
 6586SOL     OW20656   0.446   1.329   0.074
 6586SOL    HW120657   0.454   1.335   0.174
 6586SOL    HW220658   0.403   1.412   0.039
 6587SOL     OW20659   1.794   4.282   5.452
 6587SOL    HW120660   1.798   4.258   5.355
 6587SOL    HW220661   1.859   4.226   5.503
 6588SOL     OW20662   6.925   2.626   0.897
 6588SOL    HW120663   6.840   2.593   0.937
 6588SOL    HW220664   6.939   2.722   0.923
 6589SOL     OW20665   6.384   0.488   2.486
 6589SOL    HW120666   6.293   0.468   2.523
 6589SOL    HW220667   6.375   0.552   2.410
 6590SOL     OW20668   1.474   6.364   3.970
 6590SOL    HW120669   1.408   6.343   4.042
 6590SOL    HW220670   1.512   6.279   3.934
 6591SOL     OW20671   6.078   4.269   3.633
 6591SOL    HW120672   6.002   4.281   3.697
 6591SOL    HW220673   6.109   4.174   3.636
 6592SOL     OW20674   6.125   6.935   3.203
 6592SOL    HW120675   6.220   6.964   3.188
 6592SOL    HW220676   6.121   6.876   3.283
 6593SOL     OW20677   2.180   1.571   2.047
 6593SOL    HW120678   2.193   1.494   1.984
 6593SOL    HW220679   2.246   1.642   2.026
 6594SOL     OW20680   5.259   0.299   6.408
 6594SOL    HW120681   5.212   0.216   6.438
 6594SOL    HW220682   5.285   0.290   6.312
 6595SOL     OW20683   0.917   2.140   5.327
 6595SOL    HW120684   0.895   2.127   5.424
 6595SOL    HW220685   0.836   2.173   5.279
 6596SOL     OW20686   5.363   0.113   2.706
 6596SOL    HW120687   5.423   0.035   2.724
 6596SOL    HW220688   5.305   0.130   2.785
 6597SOL     OW20689   1.194   4.281   2.163
 6597SOL    HW120690   1.157   4.318   2.249
 6597SOL    HW220691   1.225   4.187   2.178
 6598SOL     OW20692   1.528   4.390   4.142
 6598SOL    HW120693   1.455   4.334   4.102
 6598SOL    HW220694   1.610   4.334   4.153
 6599SOL     OW20695   6.727   5.481   6.314
 6599SOL    HW120696   6.802   5.476   6.249
 6599SOL    HW220697   6.639   5.474   6.266
 6600SOL     OW20698   4.438   0.460   5.268
 6600SOL    HW120699   4.379   0.526   5.222
 6600SOL    HW220700   4.450   0.488   5.364
 6601SOL     OW20701   1.659   2.429   1.351
 6601SOL    HW120702   1.687   2.478   1.268
 6601SOL    HW220703   1.596   2.486   1.404
 6602SOL     OW20704   1.057   5.583   1.798
 6602SOL    HW120705   0.997   5.505   1.816
 6602SOL    HW220706   1.122   5.559   1.727
 6603SOL     OW20707   0.272   3.743   2.802
 6603SOL    HW120708   0.283   3.647   2.827
 6603SOL    HW220709   0.335   3.799   2.857
 6604SOL     OW20710   1.863   6.305   3.189
 6604SOL    HW120711   1.945   6.285   3.243
 6604SOL    HW220712   1.798   6.358   3.244
 6605SOL     OW20713   0.170   5.782   0.892
 6605SOL    HW120714   0.161   5.876   0.859
 6605SOL    HW220715   0.081   5.737   0.889
 6606SOL     OW20716   1.752   2.969   2.972
 6606SOL    HW120717   1.666   3.020   2.966
 6606SOL    HW220718   1.731   2.872   2.987
 6607SOL     OW20719   6.026   3.837   3.407
 6607SOL    HW120720   5.950   3.775   3.386
 6607SOL    HW220721   6.085   3.795   3.476
 6608SOL     OW20722   1.111   5.842   5.862
 6608SOL    HW120723   1.113   5.889   5.951
 6608SOL    HW220724   1.042   5.884   5.804
 6609SOL     OW20725   4.655   1.407   6.322
 6609SOL    HW120726   4.620   1.414   6.228
 6609SOL    HW220727   4.687   1.497   6.352
 6610SOL     OW20728   3.044   5.437   0.723
 6610SOL    HW120729   2.997   5.471   0.804
 6610SOL    HW220730   3.000   5.474   0.641
 6611SOL     OW20731   3.676   1.875   4.524
 6611SOL    HW120732   3.657   1.813   4.600
 6611SOL    HW220733   3.627   1.842   4.442
 6612SOL     OW20734   0.821   0.297   6.326
 6612SOL    HW120735   0.775   0.383   6.302
 6612SOL    HW220736   0.877   0.312   6.407
 6613SOL     OW20737   4.678   0.186   0.679
 6613SOL    HW120738   4.768   0.148   0.656
 6613SOL    HW220739   4.645   0.144   0.764
 6614SOL     OW20740   4.368   5.412   1.042
 6614SOL    HW120741   4.314   5.402   0.958
 6614SOL    HW220742   4.359   5.506   1.076
 6615SOL     OW20743   3.703   5.130   5.924
 6615SOL    HW120744   3.655   5.095   5.844
 6615SOL    HW220745   3.643   5.194   5.973
 6616SOL     OW20746   3.792   1.487   6.287
 6616SOL    HW120747   3.801   1.387   6.293
 6616SOL    HW220748   3.711   1.510   6.234
 6617SOL     OW20749   3.564   0.250   4.363
 6617SOL    HW120750   3.612   0.221   4.281
 6617SOL    HW220751   3.509   0.332   4.344
 6618SOL     OW20752   6.094   2.695   4.150
 6618SOL    HW120753   6.097   2.626   4.078
 6618SOL    HW220754   6.028   2.766   4.125
 6619SOL     OW20755   4.492   6.134   3.961
 6619SOL    HW120756   4.568   6.072   3.983
 6619SOL    HW220757   4.523   6.228   3.971
 6620SOL     OW20758   0.793   3.058   3.347
 6620SOL    HW120759   0.853   3.011   3.281
 6620SOL    HW220760   0.745   2.990   3.402
 6621SOL     OW20761   3.928   3.183   4.519
 6621SOL    HW120762   3.857   3.250   4.493
 6621SOL    HW220763   4.005   3.231   4.560
 6622SOL     OW20764   0.921   5.559   1.016
 6622SOL    HW120765   0.863   5.602   0.947
 6622SOL    HW220766   0.918   5.612   1.101
 6623SOL     OW20767   3.076   4.074   5.099
 6623SOL    HW120768   3.175   4.069   5.109
 6623SOL    HW220769   3.051   4.054   5.004
 6624SOL     OW20770   2.221   1.541   3.365
 6624SOL    HW120771   2.287   1.615   3.369
 6624SOL    HW220772   2.250   1.467   3.426
 6625SOL     OW20773   5.691   3.997   5.655
 6625SOL    HW120774   5.613   3.988   5.593
 6625SOL    HW220775   5.776   3.985   5.604
 6626SOL     OW20776   2.952   6.074   5.186
 6626SOL    HW120777   2.947   6.134   5.107
 6626SOL    HW220778   2.928   5.981   5.159
 6627SOL     OW20779   2.068   6.225   4.647
 6627SOL    HW120780   2.079   6.176   4.733
 6627SOL    HW220781   2.143   6.203   4.585
 6628SOL     OW20782   3.579   5.938   4.645
 6628SOL    HW120783   3.579   5.995   4.563
 6628SOL    HW220784   3.660   5.879   4.645
 6629SOL     OW20785   4.792   6.012   6.199
 6629SOL    HW120786   4.820   6.060   6.283
 6629SOL    HW220787   4.800   6.074   6.121
 6630SOL     OW20788   1.873   0.855   0.428
 6630SOL    HW120789   1.800   0.917   0.455
 6630SOL    HW220790   1.855   0.764   0.464
 6631SOL     OW20791   1.554   3.678   6.008
 6631SOL    HW120792   1.475   3.624   6.038
 6631SOL    HW220793   1.631   3.660   6.068
 6632SOL     OW20794   1.866   0.294   0.448
 6632SOL    HW120795   1.877   0.348   0.365
 6632SOL    HW220796   1.932   0.218   0.448
 6633SOL     OW20797   3.753   5.728   5.738
 6633SOL    HW120798   3.851   5.747   5.731
 6633SOL    HW220799   3.739   5.652   5.802
 6634SOL     OW20800   3.727   1.482   3.756
 6634SOL    HW120801   3.651   1.476   3.691
 6634SOL    HW220802   3.735   1.575   3.791
 6635SOL     OW20803   5.177   5.000   4.416
 6635SOL    HW120804   5.265   5.034   4.381
 6635SOL    HW220805   5.135   4.939   4.349
 6636SOL     OW20806   4.157   0.924   6.893
 6636SOL    HW120807   4.190   0.831   6.906
 6636SOL    HW220808   4.079   0.923   6.831
 6637SOL     OW20809   1.084   1.792   1.145
 6637SOL    HW120810   1.163   1.849   1.167
 6637SOL    HW220811   1.018   1.795   1.219
 6638SOL     OW20812   2.971   3.552   4.387
 6638SOL    HW120813   2.971   3.640   4.434
 6638SOL    HW220814   3.049   3.547   4.325
 6639SOL     OW20815   5.022   2.869   0.986
 6639SOL    HW120816   5.026   2.839   1.081
 6639SOL    HW220817   4.977   2.958   0.981
 6640SOL     OW20818   1.971   3.573   4.857
 6640SOL    HW120819   1.934   3.480   4.853
 6640SOL    HW220820   2.023   3.591   4.773
 6641SOL     OW20821   5.081   1.793   1.378
 6641SOL    HW120822   4.985   1.764   1.373
 6641SOL    HW220823   5.120   1.793   1.286
 6642SOL     OW20824   1.528   5.645   0.100
 6642SOL    HW120825   1.498   5.578   0.031
 6642SOL    HW220826   1.449   5.692   0.138
 6643SOL     OW20827   3.701   5.768   6.440
 6643SOL    HW120828   3.702   5.777   6.540
 6643SOL    HW220829   3.795   5.762   6.406
 6644SOL     OW20830   1.878   6.831   3.558
 6644SOL    HW120831   1.801   6.860   3.614
 6644SOL    HW220832   1.964   6.856   3.604
 6645SOL     OW20833   5.990   2.442   0.296
 6645SOL    HW120834   5.936   2.523   0.314
 6645SOL    HW220835   6.069   2.466   0.239
 6646SOL     OW20836   4.312   6.804   5.701
 6646SOL    HW120837   4.366   6.722   5.686
 6646SOL    HW220838   4.222   6.792   5.659
 6647SOL     OW20839   4.193   5.383   0.837
 6647SOL    HW120840   4.103   5.391   0.879
 6647SOL    HW220841   4.195   5.303   0.777
 6648SOL     OW20842   3.323   6.427   5.853
 6648SOL    HW120843   3.418   6.415   5.881
 6648SOL    HW220844   3.312   6.518   5.811
 6649SOL     OW20845   5.524   3.119   6.825
 6649SOL    HW120846   5.548   3.215   6.805
 6649SOL    HW220847   5.454   3.089   6.760
 6650SOL     OW20848   2.158   1.449   5.114
 6650SOL    HW120849   2.172   1.352   5.132
 6650SOL    HW220850   2.073   1.480   5.158
 6651SOL     OW20851   6.456   1.940   6.477
 6651SOL    HW120852   6.357   1.946   6.463
 6651SOL    HW220853   6.491   1.856   6.435
 6652SOL     OW20854   6.817   4.250   0.416
 6652SOL    HW120855   6.778   4.187   0.349
 6652SOL    HW220856   6.913   4.226   0.432
 6653SOL     OW20857   5.616   5.022   0.360
 6653SOL    HW120858   5.581   4.971   0.439
 6653SOL    HW220859   5.619   4.961   0.281
 6654SOL     OW20860   6.690   4.258   3.223
 6654SOL    HW120861   6.680   4.326   3.150
 6654SOL    HW220862   6.615   4.192   3.217
 6655SOL     OW20863   0.172   5.063   2.150
 6655SOL    HW120864   0.097   5.117   2.188
 6655SOL    HW220865   0.213   5.111   2.073
 6656SOL     OW20866   4.360   1.581   3.241
 6656SOL    HW120867   4.398   1.562   3.151
 6656SOL    HW220868   4.434   1.606   3.304
 6657SOL     OW20869   5.546   2.394   3.411
 6657SOL    HW120870   5.599   2.448   3.477
 6657SOL    HW220871   5.606   2.363   3.337
 6658SOL     OW20872   6.582   5.825   5.338
 6658SOL    HW120873   6.526   5.761   5.286
 6658SOL    HW220874   6.529   5.862   5.415
 6659SOL     OW20875   0.750   5.022   1.990
 6659SOL    HW120876   0.771   4.937   2.038
 6659SOL    HW220877   0.782   5.016   1.895
 6660SOL     OW20878   6.656   6.393   4.389
 6660SOL    HW120879   6.590   6.356   4.322
 6660SOL    HW220880   6.606   6.438   4.463
 6661SOL     OW20881   3.729   5.510   4.053
 6661SOL    HW120882   3.750   5.526   3.956
 6661SOL    HW220883   3.766   5.584   4.108
 6662SOL     OW20884   3.975   6.478   1.995
 6662SOL    HW120885   3.892   6.530   2.015
 6662SOL    HW220886   3.954   6.407   1.927
 6663SOL     OW20887   0.995   3.725   6.060
 6663SOL    HW120888   1.069   3.767   6.008
 6663SOL    HW220889   0.910   3.729   6.007
 6664SOL     OW20890   2.803   0.128   0.895
 6664SOL    HW120891   2.878   0.062   0.899
 6664SOL    HW220892   2.716   0.081   0.906
 6665SOL     OW20893   2.500   0.933   6.134
 6665SOL    HW120894   2.403   0.909   6.136
 6665SOL    HW220895   2.514   1.019   6.184
 6666SOL     OW20896   3.901   6.468   5.498
 6666SOL    HW120897   3.823   6.426   5.452
 6666SOL    HW220898   3.880   6.479   5.596
 6667SOL     OW20899   0.818   6.259   6.535
 6667SOL    HW120900   0.783   6.167   6.518
 6667SOL    HW220901   0.908   6.253   6.579
 6668SOL     OW20902   6.891   4.734   0.727
 6668SOL    HW120903   6.980   4.776   0.746
 6668SOL    HW220904   6.868   4.747   0.631
 6669SOL     OW20905   1.424   1.635   2.952
 6669SOL    HW120906   1.465   1.681   2.873
 6669SOL    HW220907   1.488   1.570   2.991
 6670SOL     OW20908   4.297   2.254   0.858
 6670SOL    HW120909   4.227   2.227   0.792
 6670SOL    HW220910   4.258   2.257   0.950
 6671SOL     OW20911   4.964   5.466   0.488
 6671SOL    HW120912   5.040   5.475   0.552
 6671SOL    HW220913   4.959   5.549   0.432
 6672SOL     OW20914   1.859   2.926   1.361
 6672SOL    HW120915   1.929   2.948   1.429
 6672SOL    HW220916   1.897   2.864   1.292
 6673SOL     OW20917   6.223   3.464   3.644
 6673SOL    HW120918   6.155   3.407   3.691
 6673SOL    HW220919   6.314   3.427   3.661
 6674SOL     OW20920   0.626   1.536   0.554
 6674SOL    HW120921   0.548   1.537   0.617
 6674SOL    HW220922   0.700   1.480   0.592
 6675SOL     OW20923   5.028   1.256   6.440
 6675SOL    HW120924   5.066   1.258   6.348
 6675SOL    HW220925   5.015   1.349   6.473
 6676SOL     OW20926   1.320   4.035   4.223
 6676SOL    HW120927   1.236   4.032   4.169
 6676SOL    HW220928   1.327   3.952   4.279
 6677SOL     OW20929   0.775   1.605   0.118
 6677SOL    HW120930   0.866   1.634   0.147
 6677SOL    HW220931   0.750   1.521   0.166
 6678SOL     OW20932   2.159   4.289   6.529
 6678SOL    HW120933   2.205   4.345   6.461
 6678SOL    HW220934   2.198   4.197   6.530
 6679SOL     OW20935   1.599   1.051   3.788
 6679SOL    HW120936   1.609   1.010   3.697
 6679SOL    HW220937   1.506   1.035   3.822
 6680SOL     OW20938   5.929   6.628   1.349
 6680SOL    HW120939   6.014   6.579   1.333
 6680SOL    HW220940   5.856   6.586   1.295
 6681SOL     OW20941   3.406   5.943   2.054
 6681SOL    HW120942   3.424   6.024   2.110
 6681SOL    HW220943   3.493   5.909   2.016
 6682SOL     OW20944   3.468   5.288   5.723
 6682SOL    HW120945   3.393   5.327   5.670
 6682SOL    HW220946   3.442   5.286   5.820
 6683SOL     OW20947   6.925   4.248   6.234
 6683SOL    HW120948   6.856   4.315   6.259
 6683SOL    HW220949   6.938   4.183   6.309
 6684SOL     OW20950   3.204   5.790   0.329
 6684SOL    HW120951   3.146   5.734   0.269
 6684SOL    HW220952   3.148   5.859   0.375
 6685SOL     OW20953   5.143   2.791   0.063
 6685SOL    HW120954   5.141   2.804   6.992
 6685SOL    HW220955   5.232   2.756   0.091
 6686SOL     OW20956   5.076   5.244   4.513
 6686SOL    HW120957   5.102   5.153   4.482
 6686SOL    HW220958   4.991   5.272   4.466
 6687SOL     OW20959   6.343   1.970   2.014
 6687SOL    HW120960   6.364   1.877   2.043
 6687SOL    HW220961   6.339   2.030   2.094
 6688SOL     OW20962   4.682   4.962   0.585
 6688SOL    HW120963   4.695   5.060   0.566
 6688SOL    HW220964   4.737   4.937   0.665
 6689SOL     OW20965   2.101   4.468   5.697
 6689SOL    HW120966   2.141   4.505   5.612
 6689SOL    HW220967   2.081   4.543   5.759
 6690SOL     OW20968   0.552   6.782   5.618
 6690SOL    HW120969   0.539   6.800   5.521
 6690SOL    HW220970   0.597   6.861   5.661
 6691SOL     OW20971   2.707   2.280   2.676
 6691SOL    HW120972   2.718   2.293   2.578
 6691SOL    HW220973   2.797   2.267   2.719
 6692SOL     OW20974   4.557   4.982   2.116
 6692SOL    HW120975   4.615   5.056   2.082
 6692SOL    HW220976   4.467   4.988   2.072
 6693SOL     OW20977   4.058   1.660   4.810
 6693SOL    HW120978   4.022   1.589   4.750
 6693SOL    HW220979   3.991   1.735   4.816
 6694SOL     OW20980   3.454   4.160   1.836
 6694SOL    HW120981   3.393   4.238   1.825
 6694SOL    HW220982   3.516   4.154   1.758
 6695SOL     OW20983   2.126   2.266   6.725
 6695SOL    HW120984   2.182   2.256   6.808
 6695SOL    HW220985   2.175   2.321   6.658
 6696SOL     OW20986   4.153   3.322   4.587
 6696SOL    HW120987   4.242   3.307   4.629
 6696SOL    HW220988   4.154   3.409   4.537
 6697SOL     OW20989   3.876   2.145   2.841
 6697SOL    HW120990   3.849   2.134   2.746
 6697SOL    HW220991   3.974   2.167   2.846
 6698SOL     OW20992   3.316   3.964   1.523
 6698SOL    HW120993   3.414   3.959   1.538
 6698SOL    HW220994   3.291   4.056   1.493
 6699SOL     OW20995   1.105   4.331   5.722
 6699SOL    HW120996   1.109   4.431   5.726
 6699SOL    HW220997   1.165   4.292   5.791
 6700SOL     OW20998   5.804   0.035   7.008
 6700SOL    HW120999   5.891   7.020   0.005
 6700SOL    HW221000   5.735   0.013   0.050
 6701SOL     OW21001   6.013   0.426   1.376
 6701SOL    HW121002   5.923   0.466   1.359
 6701SOL    HW221003   6.084   0.494   1.360
 6702SOL     OW21004   3.100   2.545   1.503
 6702SOL    HW121005   3.022   2.500   1.546
 6702SOL    HW221006   3.133   2.489   1.427
 6703SOL     OW21007   0.056   0.882   0.443
 6703SOL    HW121008   0.144   0.835   0.444
 6703SOL    HW221009   7.023   0.839   0.377
 6704SOL     OW21010   2.906   0.284   6.293
 6704SOL    HW121011   2.889   0.247   6.385
 6704SOL    HW221012   2.844   0.361   6.277
 6705SOL     OW21013   6.629   4.106   2.460
 6705SOL    HW121014   6.652   4.073   2.369
 6705SOL    HW221015   6.684   4.058   2.528
 6706SOL     OW21016   0.308   6.657   1.435
 6706SOL    HW121017   0.343   6.590   1.499
 6706SOL    HW221018   0.333   6.632   1.342
 6707SOL     OW21019   5.269   0.651   2.302
 6707SOL    HW121020   5.184   0.660   2.355
 6707SOL    HW221021   5.258   0.579   2.234
 6708SOL     OW21022   0.716   4.111   1.222
 6708SOL    HW121023   0.698   4.031   1.166
 6708SOL    HW221024   0.778   4.173   1.172
 6709SOL     OW21025   1.982   4.322   2.144
 6709SOL    HW121026   2.002   4.234   2.187
 6709SOL    HW221027   2.066   4.375   2.135
 6710SOL     OW21028   4.710   1.318   0.536
 6710SOL    HW121029   4.714   1.218   0.545
 6710SOL    HW221030   4.697   1.360   0.626
 6711SOL     OW21031   3.478   5.982   6.660
 6711SOL    HW121032   3.496   6.064   6.606
 6711SOL    HW221033   3.565   5.943   6.692
 6712SOL     OW21034   5.885   3.767   2.134
 6712SOL    HW121035   5.979   3.763   2.169
 6712SOL    HW221036   5.886   3.805   2.042
 6713SOL     OW21037   1.754   5.435   5.003
 6713SOL    HW121038   1.832   5.498   5.007
 6713SOL    HW221039   1.710   5.442   4.913
 6714SOL     OW21040   4.800   1.455   1.272
 6714SOL    HW121041   4.719   1.442   1.216
 6714SOL    HW221042   4.879   1.471   1.213
 6715SOL     OW21043   0.941   0.532   0.097
 6715SOL    HW121044   0.967   0.436   0.109
 6715SOL    HW221045   1.023   0.585   0.072
 6716SOL     OW21046   0.113   5.738   3.046
 6716SOL    HW121047   0.123   5.717   3.144
 6716SOL    HW221048   0.041   5.680   3.007
 6717SOL     OW21049   5.776   2.355   5.243
 6717SOL    HW121050   5.776   2.383   5.147
 6717SOL    HW221051   5.795   2.434   5.301
 6718SOL     OW21052   3.973   0.934   1.303
 6718SOL    HW121053   4.014   0.938   1.212
 6718SOL    HW221054   3.995   1.017   1.353
 6719SOL     OW21055   2.078   1.294   0.311
 6719SOL    HW121056   2.117   1.204   0.327
 6719SOL    HW221057   2.059   1.306   0.214
 6720SOL     OW21058   2.041   0.426   6.320
 6720SOL    HW121059   2.048   0.486   6.400
 6720SOL    HW221060   2.051   0.331   6.348
 6721SOL     OW21061   6.093   1.224   0.502
 6721SOL    HW121062   6.044   1.289   0.444
 6721SOL    HW221063   6.080   1.249   0.598
 6722SOL     OW21064   5.895   3.429   0.045
 6722SOL    HW121065   5.957   3.387   0.112
 6722SOL    HW221066   5.818   3.367   0.027
 6723SOL     OW21067   1.174   2.352   5.908
 6723SOL    HW121068   1.217   2.426   5.856
 6723SOL    HW221069   1.232   2.271   5.905
 6724SOL     OW21070   1.951   3.789   5.300
 6724SOL    HW121071   1.911   3.744   5.220
 6724SOL    HW221072   2.050   3.777   5.299
 6725SOL     OW21073   4.968   2.858   3.576
 6725SOL    HW121074   4.999   2.810   3.494
 6725SOL    HW221075   4.936   2.950   3.550
 6726SOL     OW21076   0.485   1.106   5.742
 6726SOL    HW121077   0.414   1.067   5.685
 6726SOL    HW221078   0.537   1.173   5.689
 6727SOL     OW21079   0.974   4.749   5.332
 6727SOL    HW121080   0.931   4.741   5.422
 6727SOL    HW221081   0.962   4.663   5.282
 6728SOL     OW21082   3.122   2.127   3.437
 6728SOL    HW121083   3.070   2.204   3.399
 6728SOL    HW221084   3.065   2.045   3.435
 6729SOL     OW21085   4.214   1.126   2.416
 6729SOL    HW121086   4.225   1.027   2.427
 6729SOL    HW221087   4.177   1.145   2.326
 6730SOL     OW21088   0.761   1.026   1.439
 6730SOL    HW121089   0.712   0.977   1.367
 6730SOL    HW221090   0.764   0.969   1.522
 6731SOL     OW21091   3.880   6.882   6.387
 6731SOL    HW121092   3.923   6.819   6.452
 6731SOL    HW221093   3.815   6.831   6.330
 6732SOL     OW21094   0.264   5.757   4.301
 6732SOL    HW121095   0.358   5.728   4.318
 6732SOL    HW221096   0.209   5.742   4.383
 6733SOL     OW21097   4.750   4.978   6.298
 6733SOL    HW121098   4.803   5.061   6.281
 6733SOL    HW221099   4.801   4.899   6.264
 6734SOL     OW21100   6.535   1.290   4.134
 6734SOL    HW121101   6.540   1.233   4.216
 6734SOL    HW221102   6.604   1.363   4.140
 6735SOL     OW21103   6.402   2.875   3.502
 6735SOL    HW121104   6.312   2.891   3.462
 6735SOL    HW221105   6.441   2.791   3.465
 6736SOL     OW21106   3.626   3.730   0.759
 6736SOL    HW121107   3.717   3.749   0.797
 6736SOL    HW221108   3.607   3.632   0.768
 6737SOL     OW21109   0.235   3.431   0.357
 6737SOL    HW121110   0.263   3.343   0.317
 6737SOL    HW221111   0.305   3.461   0.422
 6738SOL     OW21112   0.960   5.513   3.566
 6738SOL    HW121113   1.056   5.538   3.564
 6738SOL    HW221114   0.932   5.478   3.477
 6739SOL     OW21115   6.242   0.042   4.750
 6739SOL    HW121116   6.233   6.977   4.712
 6739SOL    HW221117   6.152   0.084   4.757
 6740SOL     OW21118   0.461   6.917   3.616
 6740SOL    HW121119   0.389   6.954   3.676
 6740SOL    HW221120   0.433   6.930   3.521
 6741SOL     OW21121   4.380   2.049   6.499
 6741SOL    HW121122   4.389   2.003   6.587
 6741SOL    HW221123   4.284   2.053   6.472
 6742SOL     OW21124   5.632   5.006   3.532
 6742SOL    HW121125   5.601   4.960   3.448
 6742SOL    HW221126   5.634   5.105   3.516
 6743SOL     OW21127   4.286   4.346   0.531
 6743SOL    HW121128   4.244   4.287   0.600
 6743SOL    HW221129   4.290   4.440   0.565
 6744SOL     OW21130   0.333   6.336   6.204
 6744SOL    HW121131   0.407   6.397   6.177
 6744SOL    HW221132   0.270   6.385   6.265
 6745SOL     OW21133   6.917   4.960   5.061
 6745SOL    HW121134   6.895   5.056   5.078
 6745SOL    HW221135   7.009   4.940   5.097
 6746SOL     OW21136   1.347   2.206   2.306
 6746SOL    HW121137   1.248   2.193   2.310
 6746SOL    HW221138   1.375   2.275   2.372
 6747SOL     OW21139   1.871   6.349   5.852
 6747SOL    HW121140   1.868   6.262   5.803
 6747SOL    HW221141   1.920   6.417   5.797
 6748SOL     OW21142   1.958   1.196   4.958
 6748SOL    HW121143   1.907   1.128   4.905
 6748SOL    HW221144   1.895   1.264   4.994
 6749SOL     OW21145   3.647   5.059   1.410
 6749SOL    HW121146   3.565   5.114   1.391
 6749SOL    HW221147   3.620   4.963   1.425
 6750SOL     OW21148   3.214   1.231   5.052
 6750SOL    HW121149   3.273   1.205   4.975
 6750SOL    HW221150   3.197   1.150   5.109
 6751SOL     OW21151   4.360   0.080   4.100
 6751SOL    HW121152   4.350   7.018   4.143
 6751SOL    HW221153   4.396   0.069   4.007
 6752SOL     OW21154   2.217   5.396   2.529
 6752SOL    HW121155   2.221   5.487   2.568
 6752SOL    HW221156   2.140   5.346   2.568
 6753SOL     OW21157   3.812   3.058   5.933
 6753SOL    HW121158   3.767   3.064   5.844
 6753SOL    HW221159   3.907   3.027   5.921
 6754SOL     OW21160   6.325   1.992   1.144
 6754SOL    HW121161   6.268   2.075   1.148
 6754SOL    HW221162   6.384   1.997   1.063
 6755SOL     OW21163   2.655   5.612   6.256
 6755SOL    HW121164   2.678   5.608   6.353
 6755SOL    HW221165   2.738   5.624   6.202
 6756SOL     OW21166   2.695   2.325   5.558
 6756SOL    HW121167   2.761   2.263   5.515
 6756SOL    HW221168   2.636   2.364   5.487
 6757SOL     OW21169   3.660   6.820   0.281
 6757SOL    HW121170   3.735   6.783   0.336
 6757SOL    HW221171   3.697   6.863   0.199
 6758SOL     OW21172   5.927   2.103   2.747
 6758SOL    HW121173   5.876   2.030   2.701
 6758SOL    HW221174   5.942   2.077   2.843
 6759SOL     OW21175   0.984   2.611   2.829
 6759SOL    HW121176   1.030   2.551   2.763
 6759SOL    HW221177   0.885   2.611   2.810
 6760SOL     OW21178   5.299   2.394   3.049
 6760SOL    HW121179   5.297   2.354   2.957
 6760SOL    HW221180   5.226   2.461   3.058
 6761SOL     OW21181   4.170   2.065   4.666
 6761SOL    HW121182   4.170   2.080   4.567
 6761SOL    HW221183   4.075   2.055   4.697
 6762SOL     OW21184   6.975   6.037   3.975
 6762SOL    HW121185   0.035   6.005   4.010
 6762SOL    HW221186   6.903   5.975   4.003
 6763SOL     OW21187   5.072   5.245   5.401
 6763SOL    HW121188   4.983   5.273   5.366
 6763SOL    HW221189   5.107   5.169   5.346
 6764SOL     OW21190   1.678   5.350   0.965
 6764SOL    HW121191   1.614   5.381   1.035
 6764SOL    HW221192   1.656   5.256   0.940
 6765SOL     OW21193   6.664   5.321   2.730
 6765SOL    HW121194   6.595   5.249   2.720
 6765SOL    HW221195   6.697   5.322   2.825
 6766SOL     OW21196   5.860   0.505   0.683
 6766SOL    HW121197   5.890   0.571   0.614
 6766SOL    HW221198   5.817   0.427   0.639
 6767SOL     OW21199   3.112   0.187   0.352
 6767SOL    HW121200   3.149   0.159   0.440
 6767SOL    HW221201   3.170   0.259   0.313
 6768SOL     OW21202   1.598   0.562   0.934
 6768SOL    HW121203   1.580   0.546   0.837
 6768SOL    HW221204   1.511   0.580   0.981
 6769SOL     OW21205   4.364   2.713   1.460
 6769SOL    HW121206   4.417   2.706   1.545
 6769SOL    HW221207   4.273   2.676   1.474
 6770SOL     OW21208   0.016   0.386   1.578
 6770SOL    HW121209   0.079   0.328   1.630
 6770SOL    HW221210   6.950   0.360   1.598
 6771SOL     OW21211   3.968   2.099   3.379
 6771SOL    HW121212   4.025   2.139   3.451
 6771SOL    HW221213   4.013   2.110   3.290
 6772SOL     OW21214   2.775   1.620   2.379
 6772SOL    HW121215   2.787   1.717   2.398
 6772SOL    HW221216   2.817   1.597   2.291
 6773SOL     OW21217   0.237   4.037   2.495
 6773SOL    HW121218   0.227   4.055   2.397
 6773SOL    HW221219   0.333   4.017   2.515
 6774SOL     OW21220   0.709   1.903   7.015
 6774SOL    HW121221   0.807   1.924   7.019
 6774SOL    HW221222   0.692   1.840   6.939
 6775SOL     OW21223   2.551   4.762   0.788
 6775SOL    HW121224   2.642   4.798   0.769
 6775SOL    HW221225   2.518   4.798   0.875
 6776SOL     OW21226   6.305   5.127   6.902
 6776SOL    HW121227   6.242   5.053   6.925
 6776SOL    HW221228   6.393   5.111   6.947
 6777SOL     OW21229   4.488   4.692   6.503
 6777SOL    HW121230   4.528   4.619   6.559
 6777SOL    HW221231   4.403   4.723   6.546
 6778SOL     OW21232   0.855   5.531   2.907
 6778SOL    HW121233   0.801   5.482   2.976
 6778SOL    HW221234   0.950   5.537   2.938
 6779SOL     OW21235   0.114   4.990   0.567
 6779SOL    HW121236   0.165   4.981   0.481
 6779SOL    HW221237   0.169   4.951   0.641
 6780SOL     OW21238   0.297   2.159   1.947
 6780SOL    HW121239   0.360   2.195   2.016
 6780SOL    HW221240   0.302   2.215   1.865
 6781SOL     OW21241   5.445   5.665   5.759
 6781SOL    HW121242   5.372   5.683   5.692
 6781SOL    HW221243   5.430   5.722   5.840
 6782SOL     OW21244   6.488   1.629   2.839
 6782SOL    HW121245   6.506   1.726   2.857
 6782SOL    HW221246   6.501   1.576   2.923
 6783SOL     OW21247   0.112   6.247   6.730
 6783SOL    HW121248   0.106   6.168   6.792
 6783SOL    HW221249   0.042   6.313   6.755
 6784SOL     OW21250   3.269   3.440   0.548
 6784SOL    HW121251   3.260   3.528   0.500
 6784SOL    HW221252   3.227   3.447   0.638
 6785SOL     OW21253   5.608   6.099   2.152
 6785SOL    HW121254   5.587   6.066   2.244
 6785SOL    HW221255   5.707   6.099   2.139
 6786SOL     OW21256   1.970   2.621   5.851
 6786SOL    HW121257   1.897   2.680   5.818
 6786SOL    HW221258   2.052   2.633   5.794
 6787SOL     OW21259   1.658   3.609   2.365
 6787SOL    HW121260   1.723   3.589   2.292
 6787SOL    HW221261   1.706   3.617   2.452
 6788SOL     OW21262   3.347   3.710   1.039
 6788SOL    HW121263   3.403   3.635   1.005
 6788SOL    HW221264   3.272   3.727   0.976
 6789SOL     OW21265   0.576   6.594   2.489
 6789SOL    HW121266   0.636   6.543   2.551
 6789SOL    HW221267   0.488   6.547   2.484
 6790SOL     OW21268   2.336   3.043   6.857
 6790SOL    HW121269   2.338   3.138   6.825
 6790SOL    HW221270   2.242   3.017   6.876
 6791SOL     OW21271   4.269   3.095   6.246
 6791SOL    HW121272   4.336   3.093   6.171
 6791SOL    HW221273   4.215   3.012   6.245
 6792SOL     OW21274   6.303   6.122   0.422
 6792SOL    HW121275   6.295   6.130   0.322
 6792SOL    HW221276   6.399   6.125   0.448
 6793SOL     OW21277   0.839   2.916   1.396
 6793SOL    HW121278   0.871   2.891   1.488
 6793SOL    HW221279   0.848   2.837   1.336
 6794SOL     OW21280   5.370   1.062   5.276
 6794SOL    HW121281   5.283   1.019   5.251
 6794SOL    HW221282   5.409   1.107   5.196
 6795SOL     OW21283   3.002   5.950   0.454
 6795SOL    HW121284   2.970   5.947   0.359
 6795SOL    HW221285   2.942   5.895   0.511
 6796SOL     OW21286   4.476   1.610   2.982
 6796SOL    HW121287   4.567   1.581   3.012
 6796SOL    HW221288   4.485   1.690   2.922
 6797SOL     OW21289   5.527   3.407   2.279
 6797SOL    HW121290   5.580   3.433   2.199
 6797SOL    HW221291   5.565   3.451   2.361
 6798SOL     OW21292   5.150   5.765   2.664
 6798SOL    HW121293   5.143   5.784   2.762
 6798SOL    HW221294   5.247   5.764   2.637
 6799SOL     OW21295   5.403   5.932   0.177
 6799SOL    HW121296   5.333   5.921   0.247
 6799SOL    HW221297   5.468   6.002   0.206
 6800SOL     OW21298   1.946   4.847   0.234
 6800SOL    HW121299   1.976   4.924   0.289
 6800SOL    HW221300   1.885   4.788   0.288
 6801SOL     OW21301   1.616   2.597   2.116
 6801SOL    HW121302   1.542   2.613   2.050
 6801SOL    HW221303   1.582   2.613   2.209
 6802SOL     OW21304   2.411   6.180   1.694
 6802SOL    HW121305   2.352   6.101   1.707
 6802SOL    HW221306   2.408   6.209   1.598
 6803SOL     OW21307   5.134   1.766   6.883
 6803SOL    HW121308   5.036   1.748   6.894
 6803SOL    HW221309   5.153   1.861   6.907
 6804SOL     OW21310   1.582   6.141   3.467
 6804SOL    HW121311   1.676   6.124   3.497
 6804SOL    HW221312   1.531   6.055   3.466
 6805SOL     OW21313   5.960   0.496   4.830
 6805SOL    HW121314   6.007   0.538   4.753
 6805SOL    HW221315   5.873   0.457   4.800
 6806SOL     OW21316   4.196   1.001   5.231
 6806SOL    HW121317   4.127   1.036   5.295
 6806SOL    HW221318   4.276   1.061   5.233
 6807SOL     OW21319   2.974   2.975   0.136
 6807SOL    HW121320   2.992   2.877   0.143
 6807SOL    HW221321   2.898   2.999   0.196
 6808SOL     OW21322   0.917   2.584   6.070
 6808SOL    HW121323   0.840   2.525   6.094
 6808SOL    HW221324   0.998   2.554   6.121
 6809SOL     OW21325   2.360   3.920   6.984
 6809SOL    HW121326   2.368   3.951   0.051
 6809SOL    HW221327   2.451   3.907   6.945
 6810SOL     OW21328   6.610   1.022   2.453
 6810SOL    HW121329   6.561   0.957   2.395
 6810SOL    HW221330   6.642   1.100   2.399
 6811SOL     OW21331   5.878   4.734   1.266
 6811SOL    HW121332   5.928   4.790   1.201
 6811SOL    HW221333   5.933   4.721   1.348
 6812SOL     OW21334   3.616   3.343   3.260
 6812SOL    HW121335   3.592   3.335   3.163
 6812SOL    HW221336   3.534   3.334   3.316
 6813SOL     OW21337   4.575   2.887   0.765
 6813SOL    HW121338   4.596   2.985   0.760
 6813SOL    HW221339   4.559   2.861   0.860
 6814SOL     OW21340   2.549   3.760   0.874
 6814SOL    HW121341   2.503   3.839   0.916
 6814SOL    HW221342   2.481   3.701   0.831
 6815SOL     OW21343   2.259   0.527   1.428
 6815SOL    HW121344   2.294   0.601   1.369
 6815SOL    HW221345   2.315   0.522   1.511
 6816SOL     OW21346   6.719   4.749   0.041
 6816SOL    HW121347   6.633   4.697   0.034
 6816SOL    HW221348   6.778   4.725   6.992
 6817SOL     OW21349   0.126   1.881   5.699
 6817SOL    HW121350   0.154   1.887   5.795
 6817SOL    HW221351   0.056   1.810   5.690
 6818SOL     OW21352   3.873   6.141   2.821
 6818SOL    HW121353   3.916   6.059   2.858
 6818SOL    HW221354   3.929   6.177   2.746
 6819SOL     OW21355   3.681   1.035   3.931
 6819SOL    HW121356   3.768   1.065   3.968
 6819SOL    HW221357   3.668   0.938   3.950
 6820SOL     OW21358   1.076   4.168   3.130
 6820SOL    HW121359   1.041   4.124   3.213
 6820SOL    HW221360   1.175   4.176   3.135
 6821SOL     OW21361   2.314   2.559   4.513
 6821SOL    HW121362   2.236   2.498   4.497
 6821SOL    HW221363   2.397   2.505   4.523
 6822SOL     OW21364   5.900   2.185   5.943
 6822SOL    HW121365   5.985   2.203   5.895
 6822SOL    HW221366   5.829   2.157   5.877
 6823SOL     OW21367   3.252   3.124   3.076
 6823SOL    HW121368   3.273   3.061   3.002
 6823SOL    HW221369   3.178   3.185   3.047
 6824SOL     OW21370   1.029   4.337   6.805
 6824SOL    HW121371   0.935   4.368   6.794
 6824SOL    HW221372   1.030   4.247   6.849
 6825SOL     OW21373   5.143   6.932   2.322
 6825SOL    HW121374   5.110   7.026   2.331
 6825SOL    HW221375   5.181   6.918   2.230
 6826SOL     OW21376   1.797   3.401   2.810
 6826SOL    HW121377   1.736   3.460   2.861
 6826SOL    HW221378   1.863   3.456   2.759
 6827SOL     OW21379   5.464   5.696   6.241
 6827SOL    HW121380   5.555   5.656   6.227
 6827SOL    HW221381   5.462   5.743   6.330
 6828SOL     OW21382   1.253   2.570   1.224
 6828SOL    HW121383   1.323   2.544   1.158
 6828SOL    HW221384   1.290   2.565   1.317
 6829SOL     OW21385   5.175   5.982   3.569
 6829SOL    HW121386   5.154   5.920   3.494
 6829SOL    HW221387   5.108   5.969   3.643
 6830SOL     OW21388   5.425   2.002   3.437
 6830SOL    HW121389   5.369   2.085   3.431
 6830SOL    HW221390   5.499   2.017   3.502
 6831SOL     OW21391   0.569   0.401   5.558
 6831SOL    HW121392   0.587   0.308   5.525
 6831SOL    HW221393   0.639   0.463   5.522
 6832SOL     OW21394   3.450   5.171   2.164
 6832SOL    HW121395   3.379   5.107   2.133
 6832SOL    HW221396   3.409   5.262   2.178
 6833SOL     OW21397   4.038   4.868   0.489
 6833SOL    HW121398   3.982   4.787   0.508
 6833SOL    HW221399   4.095   4.888   0.569
 6834SOL     OW21400   3.925   6.259   1.820
 6834SOL    HW121401   3.993   6.193   1.851
 6834SOL    HW221402   3.834   6.226   1.844
 6835SOL     OW21403   3.786   6.834   4.885
 6835SOL    HW121404   3.687   6.843   4.878
 6835SOL    HW221405   3.828   6.925   4.875
 6836SOL     OW21406   3.827   6.658   6.799
 6836SOL    HW121407   3.822   6.561   6.779
 6836SOL    HW221408   3.748   6.705   6.760
 6837SOL     OW21409   1.737   3.330   2.028
 6837SOL    HW121410   1.671   3.291   2.093
 6837SOL    HW221411   1.762   3.422   2.058
 6838SOL     OW21412   2.533   1.396   0.148
 6838SOL    HW121413   2.457   1.408   0.212
 6838SOL    HW221414   2.619   1.416   0.195
 6839SOL     OW21415   4.424   1.095   0.678
 6839SOL    HW121416   4.396   1.070   0.586
 6839SOL    HW221417   4.386   1.185   0.702
 6840SOL     OW21418   1.636   1.315   6.108
 6840SOL    HW121419   1.541   1.304   6.080
 6840SOL    HW221420   1.644   1.391   6.173
 6841SOL     OW21421   6.597   2.891   6.378
 6841SOL    HW121422   6.675   2.849   6.423
 6841SOL    HW221423   6.607   2.990   6.379
 6842SOL     OW21424   2.432   4.947   2.733
 6842SOL    HW121425   2.413   4.894   2.816
 6842SOL    HW221426   2.378   5.031   2.734
 6843SOL     OW21427   4.639   6.674   6.739
 6843SOL    HW121428   4.693   6.595   6.769
 6843SOL    HW221429   4.593   6.715   6.817
 6844SOL     OW21430   5.445   0.676   5.375
 6844SOL    HW121431   5.454   0.751   5.441
 6844SOL    HW221432   5.369   0.617   5.402
 6845SOL     OW21433   5.276   2.070   2.217
 6845SOL    HW121434   5.262   2.114   2.306
 6845SOL    HW221435   5.187   2.053   2.174
 6846SOL     OW21436   2.361   3.637   0.281
 6846SOL    HW121437   2.449   3.684   0.273
 6846SOL    HW221438   2.321   3.624   0.190
 6847SOL     OW21439   5.824   3.808   4.120
 6847SOL    HW121440   5.740   3.860   4.106
 6847SOL    HW221441   5.814   3.717   4.080
 6848SOL     OW21442   5.943   5.043   3.285
 6848SOL    HW121443   5.925   4.952   3.247
 6848SOL    HW221444   6.037   5.046   3.320
 6849SOL     OW21445   3.794   4.258   6.499
 6849SOL    HW121446   3.717   4.269   6.562
 6849SOL    HW221447   3.846   4.343   6.495
 6850SOL     OW21448   3.975   1.353   3.636
 6850SOL    HW121449   4.039   1.294   3.685
 6850SOL    HW221450   3.937   1.421   3.699
 6851SOL     OW21451   1.863   2.875   3.751
 6851SOL    HW121452   1.902   2.959   3.788
 6851SOL    HW221453   1.895   2.862   3.657
 6852SOL     OW21454   2.748   5.323   0.544
 6852SOL    HW121455   2.682   5.297   0.473
 6852SOL    HW221456   2.758   5.248   0.610
 6853SOL     OW21457   5.012   3.052   0.152
 6853SOL    HW121458   5.056   2.965   0.127
 6853SOL    HW221459   4.917   3.036   0.176
 6854SOL     OW21460   5.317   6.606   5.753
 6854SOL    HW121461   5.334   6.582   5.848
 6854SOL    HW221462   5.402   6.597   5.701
 6855SOL     OW21463   3.877   5.167   3.752
 6855SOL    HW121464   3.862   5.159   3.850
 6855SOL    HW221465   3.975   5.175   3.733
 6856SOL     OW21466   1.107   1.862   6.887
 6856SOL    HW121467   1.198   1.835   6.921
 6856SOL    HW221468   1.092   1.822   6.797
 6857SOL     OW21469   0.794   3.779   5.452
 6857SOL    HW121470   0.762   3.788   5.358
 6857SOL    HW221471   0.891   3.804   5.457
 6858SOL     OW21472   2.944   4.186   1.604
 6858SOL    HW121473   2.988   4.265   1.647
 6858SOL    HW221474   2.985   4.102   1.638
 6859SOL     OW21475   1.004   1.200   2.503
 6859SOL    HW121476   0.973   1.132   2.437
 6859SOL    HW221477   1.100   1.223   2.485
 6860SOL     OW21478   0.736   6.627   2.162
 6860SOL    HW121479   0.779   6.691   2.226
 6860SOL    HW221480   0.766   6.534   2.181
 6861SOL     OW21481   4.998   2.224   5.125
 6861SOL    HW121482   4.963   2.317   5.111
 6861SOL    HW221483   4.949   2.161   5.064
 6862SOL     OW21484   0.473   4.586   5.297
 6862SOL    HW121485   0.559   4.607   5.251
 6862SOL    HW221486   0.439   4.669   5.341
 6863SOL     OW21487   6.606   6.729   5.750
 6863SOL    HW121488   6.534   6.769   5.694
 6863SOL    HW221489   6.690   6.720   5.695
 6864SOL     OW21490   1.363   3.844   6.302
 6864SOL    HW121491   1.373   3.876   6.207
 6864SOL    HW221492   1.301   3.766   6.304
 6865SOL     OW21493   2.227   7.006   4.286
 6865SOL    HW121494   2.284   6.929   4.256
 6865SOL    HW221495   2.211   0.039   4.208
 6866SOL     OW21496   0.452   4.358   1.548
 6866SOL    HW121497   0.454   4.378   1.646
 6866SOL    HW221498   0.392   4.280   1.531
 6867SOL     OW21499   2.034   3.749   6.840
 6867SOL    HW121500   2.066   3.844   6.831
 6867SOL    HW221501   1.962   3.745   6.909
 6868SOL     OW21502   2.491   5.178   4.362
 6868SOL    HW121503   2.479   5.082   4.336
 6868SOL    HW221504   2.588   5.201   4.364
 6869SOL     OW21505   4.196   0.898   5.834
 6869SOL    HW121506   4.227   0.813   5.791
 6869SOL    HW221507   4.098   0.894   5.851
 6870SOL     OW21508   6.907   2.907   1.012
 6870SOL    HW121509   6.917   2.986   0.950
 6870SOL    HW221510   6.810   2.894   1.033
 6871SOL     OW21511   0.605   3.738   2.766
 6871SOL    HW121512   0.655   3.665   2.813
 6871SOL    HW221513   0.594   3.714   2.669
 6872SOL     OW21514   2.355   3.558   0.766
 6872SOL    HW121515   2.267   3.540   0.810
 6872SOL    HW221516   2.420   3.486   0.791
 6873SOL     OW21517   0.879   4.109   4.344
 6873SOL    HW121518   0.786   4.073   4.349
 6873SOL    HW221519   0.940   4.050   4.397
 6874SOL     OW21520   5.487   6.669   3.543
 6874SOL    HW121521   5.581   6.635   3.544
 6874SOL    HW221522   5.428   6.604   3.590
 6875SOL     OW21523   1.411   2.741   0.680
 6875SOL    HW121524   1.377   2.779   0.766
 6875SOL    HW221525   1.498   2.695   0.695
 6876SOL     OW21526   4.399   5.598   3.490
 6876SOL    HW121527   4.391   5.664   3.565
 6876SOL    HW221528   4.312   5.593   3.441
 6877SOL     OW21529   1.770   3.765   2.590
 6877SOL    HW121530   1.773   3.853   2.543
 6877SOL    HW221531   1.730   3.777   2.681
 6878SOL     OW21532   1.921   0.229   4.318
 6878SOL    HW121533   1.984   0.217   4.395
 6878SOL    HW221534   1.929   0.321   4.282
 6879SOL     OW21535   1.766   2.084   0.317
 6879SOL    HW121536   1.730   2.148   0.250
 6879SOL    HW221537   1.818   2.134   0.386
 6880SOL     OW21538   1.382   5.504   6.632
 6880SOL    HW121539   1.362   5.602   6.645
 6880SOL    HW221540   1.345   5.475   6.544
 6881SOL     OW21541   1.326   3.049   0.489
 6881SOL    HW121542   1.232   3.031   0.516
 6881SOL    HW221543   1.353   3.140   0.520
 6882SOL     OW21544   3.022   6.299   6.288
 6882SOL    HW121545   3.114   6.261   6.282
 6882SOL    HW221546   3.027   6.399   6.293
 6883SOL     OW21547   5.162   0.200   6.936
 6883SOL    HW121548   5.069   0.170   6.915
 6883SOL    HW221549   5.211   0.222   6.851
 6884SOL     OW21550   1.958   3.968   3.005
 6884SOL    HW121551   1.942   3.992   2.910
 6884SOL    HW221552   2.046   3.921   3.013
 6885SOL     OW21553   5.760   5.834   4.935
 6885SOL    HW121554   5.803   5.913   4.891
 6885SOL    HW221555   5.661   5.847   4.937
 6886SOL     OW21556   4.878   1.865   6.547
 6886SOL    HW121557   4.969   1.850   6.588
 6886SOL    HW221558   4.812   1.882   6.620
 6887SOL     OW21559   5.330   5.971   6.392
 6887SOL    HW121560   5.272   5.918   6.329
 6887SOL    HW221561   5.317   6.068   6.375
 6888SOL     OW21562   6.016   5.006   6.510
 6888SOL    HW121563   5.918   5.020   6.492
 6888SOL    HW221564   6.027   4.936   6.580
 6889SOL     OW21565   0.619   2.138   6.838
 6889SOL    HW121566   0.565   2.092   6.768
 6889SOL    HW221567   0.708   2.093   6.847
 6890SOL     OW21568   4.517   5.103   3.010
 6890SOL    HW121569   4.422   5.074   3.016
 6890SOL    HW221570   4.532   5.182   3.070
 6891SOL     OW21571   1.746   1.136   1.102
 6891SOL    HW121572   1.812   1.212   1.099
 6891SOL    HW221573   1.683   1.144   1.025
 6892SOL     OW21574   2.940   1.000   4.427
 6892SOL    HW121575   2.907   0.906   4.430
 6892SOL    HW221576   3.010   1.013   4.497
 6893SOL     OW21577   6.805   3.321   0.250
 6893SOL    HW121578   6.897   3.300   0.282
 6893SOL    HW221579   6.739   3.261   0.294
 6894SOL     OW21580   5.778   5.479   0.648
 6894SOL    HW121581   5.704   5.541   0.676
 6894SOL    HW221582   5.795   5.413   0.721
 6895SOL     OW21583   0.744   6.729   1.294
 6895SOL    HW121584   0.659   6.682   1.271
 6895SOL    HW221585   0.723   6.819   1.332
 6896SOL     OW21586   4.308   2.349   4.466
 6896SOL    HW121587   4.247   2.377   4.540
 6896SOL    HW221588   4.258   2.291   4.402
 6897SOL     OW21589   4.847   3.488   5.337
 6897SOL    HW121590   4.945   3.479   5.321
 6897SOL    HW221591   4.802   3.525   5.256
 6898SOL     OW21592   2.591   1.273   1.397
 6898SOL    HW121593   2.659   1.201   1.384
 6898SOL    HW221594   2.504   1.231   1.426
 6899SOL     OW21595   6.065   6.093   2.789
 6899SOL    HW121596   6.122   6.131   2.715
 6899SOL    HW221597   6.117   6.022   2.837
 6900SOL     OW21598   6.718   3.837   5.373
 6900SOL    HW121599   6.686   3.819   5.280
 6900SOL    HW221600   6.772   3.921   5.374
 6901SOL     OW21601   4.803   4.714   6.530
 6901SOL    HW121602   4.815   4.671   6.620
 6901SOL    HW221603   4.717   4.766   6.529
 6902SOL     OW21604   0.641   5.633   6.220
 6902SOL    HW121605   0.597   5.573   6.154
 6902SOL    HW221606   0.730   5.663   6.185
 6903SOL     OW21607   2.016   5.450   4.380
 6903SOL    HW121608   1.944   5.477   4.315
 6903SOL    HW221609   1.984   5.463   4.473
 6904SOL     OW21610   6.702   6.659   5.314
 6904SOL    HW121611   6.703   6.727   5.242
 6904SOL    HW221612   6.607   6.642   5.343
 6905SOL     OW21613   4.553   5.855   6.198
 6905SOL    HW121614   4.642   5.900   6.186
 6905SOL    HW221615   4.567   5.758   6.214
 6906SOL     OW21616   3.524   1.655   3.599
 6906SOL    HW121617   3.614   1.697   3.590
 6906SOL    HW221618   3.458   1.724   3.630
 6907SOL     OW21619   6.139   1.941   0.652
 6907SOL    HW121620   6.114   1.974   0.561
 6907SOL    HW221621   6.193   1.858   0.644
 6908SOL     OW21622   2.739   4.550   6.848
 6908SOL    HW121623   2.751   4.513   6.756
 6908SOL    HW221624   2.791   4.496   6.913
 6909SOL     OW21625   5.891   6.024   2.448
 6909SOL    HW121626   5.870   6.030   2.545
 6909SOL    HW221627   5.985   5.992   2.436
 6910SOL     OW21628   1.607   2.627   3.533
 6910SOL    HW121629   1.604   2.552   3.466
 6910SOL    HW221630   1.654   2.705   3.492
 6911SOL     OW21631   2.604   6.992   5.897
 6911SOL    HW121632   2.667   7.018   5.823
 6911SOL    HW221633   2.531   6.936   5.859
 6912SOL     OW21634   2.585   3.754   6.868
 6912SOL    HW121635   2.648   3.824   6.833
 6912SOL    HW221636   2.636   3.686   6.920
 6913SOL     OW21637   4.953   6.405   5.934
 6913SOL    HW121638   4.995   6.457   5.860
 6913SOL    HW221639   5.021   6.387   6.005
 6914SOL     OW21640   6.441   3.063   2.301
 6914SOL    HW121641   6.366   3.119   2.337
 6914SOL    HW221642   6.419   3.033   2.209
 6915SOL     OW21643   0.966   2.871   2.875
 6915SOL    HW121644   0.875   2.884   2.836
 6915SOL    HW221645   0.988   2.773   2.876
 6916SOL     OW21646   4.692   5.989   6.983
 6916SOL    HW121647   4.760   5.956   6.917
 6916SOL    HW221648   4.737   6.051   0.020
 6917SOL     OW21649   5.408   5.516   1.265
 6917SOL    HW121650   5.456   5.598   1.233
 6917SOL    HW221651   5.363   5.472   1.187
 6918SOL     OW21652   2.152   3.530   1.664
 6918SOL    HW121653   2.201   3.538   1.577
 6918SOL    HW221654   2.218   3.518   1.738
 6919SOL     OW21655   6.467   6.232   3.378
 6919SOL    HW121656   6.383   6.263   3.333
 6919SOL    HW221657   6.495   6.298   3.447
 6920SOL     OW21658   6.040   0.675   5.710
 6920SOL    HW121659   6.090   0.762   5.704
 6920SOL    HW221660   5.954   0.682   5.659
 6921SOL     OW21661   4.048   0.369   4.149
 6921SOL    HW121662   4.064   0.373   4.051
 6921SOL    HW221663   4.121   0.315   4.193
 6922SOL     OW21664   1.476   4.911   5.790
 6922SOL    HW121665   1.447   4.817   5.770
 6922SOL    HW221666   1.405   4.975   5.761
 6923SOL     OW21667   6.088   6.942   2.776
 6923SOL    HW121668   6.148   6.866   2.800
 6923SOL    HW221669   6.012   6.946   2.841
 6924SOL     OW21670   3.298   6.210   0.914
 6924SOL    HW121671   3.333   6.158   0.992
 6924SOL    HW221672   3.313   6.159   0.830
 6925SOL     OW21673   5.692   6.202   6.117
 6925SOL    HW121674   5.744   6.133   6.067
 6925SOL    HW221675   5.749   6.283   6.131
 6926SOL     OW21676   2.968   2.463   0.200
 6926SOL    HW121677   2.882   2.437   0.157
 6926SOL    HW221678   2.978   2.413   0.287
 6927SOL     OW21679   4.908   0.402   0.597
 6927SOL    HW121680   4.957   0.389   0.511
 6927SOL    HW221681   4.820   0.354   0.594
 6928SOL     OW21682   4.511   5.209   1.235
 6928SOL    HW121683   4.443   5.250   1.175
 6928SOL    HW221684   4.590   5.270   1.243
 6929SOL     OW21685   6.331   5.381   1.193
 6929SOL    HW121686   6.402   5.319   1.227
 6929SOL    HW221687   6.314   5.361   1.096
 6930SOL     OW21688   1.364   7.025   0.849
 6930SOL    HW121689   1.361   0.037   0.757
 6930SOL    HW221690   1.430   0.046   0.905
 6931SOL     OW21691   3.179   2.977   0.837
 6931SOL    HW121692   3.249   3.009   0.773
 6931SOL    HW221693   3.128   3.055   0.873
 6932SOL     OW21694   4.972   5.644   0.055
 6932SOL    HW121695   4.992   5.551   0.025
 6932SOL    HW221696   5.033   5.668   0.131
 6933SOL     OW21697   3.502   5.342   6.383
 6933SOL    HW121698   3.466   5.265   6.332
 6933SOL    HW221699   3.602   5.333   6.391
 6934SOL     OW21700   5.211   3.739   0.162
 6934SOL    HW121701   5.123   3.691   0.160
 6934SOL    HW221702   5.266   3.703   0.237
 6935SOL     OW21703   5.156   5.755   1.643
 6935SOL    HW121704   5.130   5.823   1.574
 6935SOL    HW221705   5.224   5.693   1.605
 6936SOL     OW21706   0.930   2.395   5.084
 6936SOL    HW121707   1.016   2.407   5.034
 6936SOL    HW221708   0.944   2.418   5.180
 6937SOL     OW21709   5.346   5.615   0.052
 6937SOL    HW121710   5.312   5.603   0.145
 6937SOL    HW221711   5.280   5.668   7.027
 6938SOL     OW21712   1.340   0.498   4.920
 6938SOL    HW121713   1.245   0.478   4.943
 6938SOL    HW221714   1.392   0.515   5.004
 6939SOL     OW21715   5.899   4.082   3.477
 6939SOL    HW121716   5.936   3.993   3.449
 6939SOL    HW221717   5.913   4.148   3.404
 6940SOL     OW21718   3.237   6.091   0.562
 6940SOL    HW121719   3.255   6.181   0.522
 6940SOL    HW221720   3.142   6.065   0.543
 6941SOL     OW21721   3.255   3.737   2.714
 6941SOL    HW121722   3.261   3.714   2.617
 6941SOL    HW221723   3.208   3.825   2.724
 6942SOL     OW21724   6.129   6.977   1.823
 6942SOL    HW121725   6.078   6.953   1.905
 6942SOL    HW221726   6.200   0.015   1.846
 6943SOL     OW21727   4.611   4.924   6.536
 6943SOL    HW121728   4.555   4.842   6.527
 6943SOL    HW221729   4.631   4.960   6.445
 6944SOL     OW21730   1.108   4.289   5.196
 6944SOL    HW121731   1.188   4.339   5.228
 6944SOL    HW221732   1.056   4.255   5.275
 6945SOL     OW21733   5.975   2.348   0.796
 6945SOL    HW121734   5.897   2.395   0.838
 6945SOL    HW221735   5.984   2.257   0.837
 6946SOL     OW21736   4.356   5.747   3.149
 6946SOL    HW121737   4.387   5.735   3.055
 6946SOL    HW221738   4.258   5.767   3.150
 6947SOL     OW21739   5.456   4.933   5.084
 6947SOL    HW121740   5.484   4.848   5.128
 6947SOL    HW221741   5.462   4.923   4.985
 6948SOL     OW21742   0.078   4.728   0.346
 6948SOL    HW121743   0.157   4.784   0.369
 6948SOL    HW221744   0.107   4.635   0.323
 6949SOL     OW21745   2.329   1.419   3.966
 6949SOL    HW121746   2.239   1.438   3.926
 6949SOL    HW221747   2.387   1.500   3.955
 6950SOL     OW21748   0.484   0.251   4.434
 6950SOL    HW121749   0.466   0.348   4.418
 6950SOL    HW221750   0.533   0.239   4.520
 6951SOL     OW21751   0.344   5.152   6.310
 6951SOL    HW121752   0.284   5.208   6.368
 6951SOL    HW221753   0.289   5.101   6.244
 6952SOL     OW21754   4.108   5.575   3.485
 6952SOL    HW121755   4.033   5.536   3.432
 6952SOL    HW221756   4.093   5.558   3.582
 6953SOL     OW21757   5.286   1.262   1.452
 6953SOL    HW121758   5.361   1.326   1.466
 6953SOL    HW221759   5.233   1.290   1.372
 6954SOL     OW21760   6.098   4.050   0.263
 6954SOL    HW121761   6.183   4.101   0.279
 6954SOL    HW221762   6.095   3.970   0.323
 6955SOL     OW21763   4.970   6.675   2.201
 6955SOL    HW121764   5.047   6.736   2.217
 6955SOL    HW221765   4.887   6.729   2.188
 6956SOL     OW21766   5.556   5.549   2.579
 6956SOL    HW121767   5.621   5.608   2.628
 6956SOL    HW221768   5.481   5.524   2.640
 6957SOL     OW21769   5.399   5.782   5.995
 6957SOL    HW121770   5.431   5.876   5.998
 6957SOL    HW221771   5.410   5.740   6.085
 6958SOL     OW21772   3.018   3.634   3.847
 6958SOL    HW121773   2.958   3.606   3.922
 6958SOL    HW221774   2.982   3.600   3.760
 6959SOL     OW21775   0.742   4.108   3.027
 6959SOL    HW121776   0.828   4.157   3.037
 6959SOL    HW221777   0.747   4.020   3.075
 6960SOL     OW21778   3.136   4.289   0.534
 6960SOL    HW121779   3.108   4.340   0.452
 6960SOL    HW221780   3.206   4.223   0.509
 6961SOL     OW21781   4.818   1.879   4.926
 6961SOL    HW121782   4.903   1.874   4.978
 6961SOL    HW221783   4.804   1.973   4.895
 6962SOL     OW21784   2.347   6.605   6.480
 6962SOL    HW121785   2.323   6.552   6.398
 6962SOL    HW221786   2.394   6.689   6.453
 6963SOL     OW21787   5.124   6.392   1.073
 6963SOL    HW121788   5.184   6.362   0.999
 6963SOL    HW221789   5.043   6.436   1.035
 6964SOL     OW21790   1.629   0.308   5.477
 6964SOL    HW121791   1.659   0.249   5.402
 6964SOL    HW221792   1.672   0.397   5.470
 6965SOL     OW21793   0.558   1.837   0.198
 6965SOL    HW121794   0.612   1.771   0.250
 6965SOL    HW221795   0.616   1.879   0.128
 6966SOL     OW21796   1.371   6.800   1.492
 6966SOL    HW121797   1.302   6.832   1.428
 6966SOL    HW221798   1.456   6.779   1.443
 6967SOL     OW21799   4.477   1.631   6.390
 6967SOL    HW121800   4.479   1.607   6.487
 6967SOL    HW221801   4.560   1.681   6.366
 6968SOL     OW21802   3.881   6.269   2.543
 6968SOL    HW121803   3.967   6.318   2.537
 6968SOL    HW221804   3.805   6.335   2.548
 6969SOL     OW21805   2.098   1.946   2.020
 6969SOL    HW121806   2.024   1.887   1.988
 6969SOL    HW221807   2.127   1.917   2.111
 6970SOL     OW21808   3.591   5.049   5.706
 6970SOL    HW121809   3.630   5.021   5.619
 6970SOL    HW221810   3.532   5.128   5.693
 6971SOL     OW21811   6.823   4.490   0.292
 6971SOL    HW121812   6.814   4.399   0.331
 6971SOL    HW221813   6.833   4.557   0.365
 6972SOL     OW21814   5.279   3.969   2.033
 6972SOL    HW121815   5.219   4.008   2.103
 6972SOL    HW221816   5.266   4.016   1.946
 6973SOL     OW21817   1.612   3.347   3.223
 6973SOL    HW121818   1.618   3.427   3.163
 6973SOL    HW221819   1.705   3.313   3.242
 6974SOL     OW21820   3.782   3.800   3.156
 6974SOL    HW121821   3.733   3.887   3.167
 6974SOL    HW221822   3.716   3.726   3.145
 6975SOL     OW21823   3.116   5.292   4.508
 6975SOL    HW121824   3.052   5.342   4.567
 6975SOL    HW221825   3.209   5.324   4.526
 6976SOL     OW21826   4.349   4.055   6.155
 6976SOL    HW121827   4.427   4.034   6.215
 6976SOL    HW221828   4.325   3.974   6.102
 6977SOL     OW21829   4.480   5.049   1.026
 6977SOL    HW121830   4.500   5.095   1.112
 6977SOL    HW221831   4.469   5.117   0.954
 6978SOL     OW21832   6.333   3.474   1.540
 6978SOL    HW121833   6.323   3.523   1.627
 6978SOL    HW221834   6.276   3.393   1.540
 6979SOL     OW21835   1.323   3.486   1.551
 6979SOL    HW121836   1.373   3.442   1.625
 6979SOL    HW221837   1.373   3.567   1.521
 6980SOL     OW21838   1.779   5.981   2.855
 6980SOL    HW121839   1.700   6.006   2.799
 6980SOL    HW221840   1.843   5.927   2.801
 6981SOL     OW21841   3.942   3.263   6.984
 6981SOL    HW121842   3.908   3.248   6.891
 6981SOL    HW221843   4.040   3.280   6.981
 6982SOL     OW21844   1.687   1.000   3.169
 6982SOL    HW121845   1.694   1.098   3.189
 6982SOL    HW221846   1.596   0.980   3.133
 6983SOL     OW21847   4.922   0.665   4.034
 6983SOL    HW121848   4.869   0.599   4.086
 6983SOL    HW221849   4.939   0.746   4.090
 6984SOL     OW21850   0.917   2.253   3.440
 6984SOL    HW121851   1.017   2.248   3.437
 6984SOL    HW221852   0.888   2.349   3.449
 6985SOL     OW21853   6.130   3.838   0.428
 6985SOL    HW121854   6.139   3.739   0.421
 6985SOL    HW221855   6.178   3.870   0.510
 6986SOL     OW21856   4.940   4.837   5.277
 6986SOL    HW121857   4.952   4.898   5.355
 6986SOL    HW221858   4.904   4.749   5.308
 6987SOL     OW21859   0.457   1.461   6.342
 6987SOL    HW121860   0.455   1.434   6.438
 6987SOL    HW221861   0.391   1.535   6.327
 6988SOL     OW21862   3.538   1.523   6.086
 6988SOL    HW121863   3.535   1.556   5.992
 6988SOL    HW221864   3.487   1.586   6.145
 6989SOL     OW21865   0.687   5.190   2.456
 6989SOL    HW121866   0.620   5.255   2.421
 6989SOL    HW221867   0.757   5.173   2.386
 6990SOL     OW21868   3.523   2.660   1.040
 6990SOL    HW121869   3.472   2.649   1.125
 6990SOL    HW221870   3.514   2.755   1.008
 6991SOL     OW21871   6.607   3.420   2.451
 6991SOL    HW121872   6.664   3.338   2.449
 6991SOL    HW221873   6.664   3.500   2.431
 6992SOL     OW21874   0.940   6.129   0.213
 6992SOL    HW121875   0.852   6.084   0.226
 6992SOL    HW221876   0.944   6.212   0.269
 6993SOL     OW21877   4.423   1.629   1.380
 6993SOL    HW121878   4.480   1.553   1.411
 6993SOL    HW221879   4.430   1.638   1.281
 6994SOL     OW21880   2.420   0.431   3.380
 6994SOL    HW121881   2.349   0.498   3.360
 6994SOL    HW221882   2.510   0.474   3.370
 6995SOL     OW21883   0.330   4.036   1.276
 6995SOL    HW121884   0.319   4.130   1.245
 6995SOL    HW221885   0.352   4.035   1.374
 6996SOL     OW21886   1.497   0.924   0.257
 6996SOL    HW121887   1.524   0.850   0.318
 6996SOL    HW221888   1.481   0.887   0.165
 6997SOL     OW21889   5.687   5.304   6.033
 6997SOL    HW121890   5.592   5.316   6.062
 6997SOL    HW221891   5.690   5.288   5.935
 6998SOL     OW21892   6.213   1.189   6.879
 6998SOL    HW121893   6.307   1.176   6.911
 6998SOL    HW221894   6.201   1.283   6.847
 6999SOL     OW21895   0.152   3.178   0.052
 6999SOL    HW121896   0.116   3.199   6.990
 6999SOL    HW221897   0.106   3.097   0.089
 7000SOL     OW21898   6.836   6.806   3.835
 7000SOL    HW121899   6.908   6.740   3.862
 7000SOL    HW221900   6.749   6.776   3.873
 7001SOL     OW21901   0.382   1.824   4.618
 7001SOL    HW121902   0.373   1.893   4.691
 7001SOL    HW221903   0.434   1.863   4.542
 7002SOL     OW21904   0.690   5.052   2.724
 7002SOL    HW121905   0.720   5.078   2.632
 7002SOL    HW221906   0.628   4.974   2.717
 7003SOL     OW21907   6.940   4.295   0.876
 7003SOL    HW121908   6.979   4.370   0.823
 7003SOL    HW221909   6.845   4.316   0.900
 7004SOL     OW21910   2.083   6.656   0.631
 7004SOL    HW121911   2.137   6.594   0.574
 7004SOL    HW221912   1.987   6.653   0.603
 7005SOL     OW21913   0.534   5.988   0.829
 7005SOL    HW121914   0.563   5.918   0.763
 7005SOL    HW221915   0.518   5.945   0.918
 7006SOL     OW21916   1.297   0.152   4.396
 7006SOL    HW121917   1.261   0.064   4.364
 7006SOL    HW221918   1.396   0.145   4.407
 7007SOL     OW21919   2.329   0.107   5.981
 7007SOL    HW121920   2.333   0.205   5.999
 7007SOL    HW221921   2.421   0.073   5.956
 7008SOL     OW21922   5.843   3.741   3.139
 7008SOL    HW121923   5.830   3.691   3.224
 7008SOL    HW221924   5.869   3.676   3.067
 7009SOL     OW21925   4.592   5.436   1.957
 7009SOL    HW121926   4.691   5.439   1.972
 7009SOL    HW221927   4.574   5.408   1.862
 7010SOL     OW21928   5.212   3.810   1.825
 7010SOL    HW121929   5.293   3.766   1.786
 7010SOL    HW221930   5.236   3.850   1.913
 7011SOL     OW21931   3.401   5.978   0.150
 7011SOL    HW121932   3.398   5.878   0.151
 7011SOL    HW221933   3.470   6.010   0.214
 7012SOL     OW21934   6.337   2.364   0.569
 7012SOL    HW121935   6.279   2.333   0.645
 7012SOL    HW221936   6.419   2.407   0.605
 7013SOL     OW21937   2.755   1.480   0.298
 7013SOL    HW121938   2.771   1.573   0.264
 7013SOL    HW221939   2.841   1.430   0.300
 7014SOL     OW21940   6.080   2.879   1.467
 7014SOL    HW121941   6.171   2.896   1.503
 7014SOL    HW221942   6.085   2.813   1.392
 7015SOL     OW21943   5.285   6.071   0.797
 7015SOL    HW121944   5.333   6.158   0.810
 7015SOL    HW221945   5.251   6.038   0.885
 7016SOL     OW21946   3.060   4.850   0.804
 7016SOL    HW121947   3.039   4.800   0.720
 7016SOL    HW221948   3.135   4.915   0.786
 7017SOL     OW21949   5.518   5.108   4.837
 7017SOL    HW121950   5.559   5.158   4.760
 7017SOL    HW221951   5.493   5.173   4.909
 7018SOL     OW21952   4.900   3.396   4.432
 7018SOL    HW121953   4.941   3.314   4.472
 7018SOL    HW221954   4.834   3.369   4.362
 7019SOL     OW21955   4.447   5.373   2.204
 7019SOL    HW121956   4.515   5.397   2.134
 7019SOL    HW221957   4.358   5.407   2.177
 7020SOL     OW21958   0.982   2.905   6.671
 7020SOL    HW121959   1.060   2.955   6.634
 7020SOL    HW221960   0.920   2.881   6.596
 7021SOL     OW21961   1.152   2.262   5.394
 7021SOL    HW121962   1.073   2.226   5.343
 7021SOL    HW221963   1.236   2.243   5.343
 7022SOL     OW21964   3.215   2.128   0.443
 7022SOL    HW121965   3.170   2.049   0.402
 7022SOL    HW221966   3.314   2.117   0.435
 7023SOL     OW21967   0.640   1.824   0.835
 7023SOL    HW121968   0.629   1.911   0.883
 7023SOL    HW221969   0.636   1.839   0.736
 7024SOL     OW21970   3.805   3.089   4.019
 7024SOL    HW121971   3.748   3.007   4.022
 7024SOL    HW221972   3.783   3.142   3.937
 7025SOL     OW21973   3.977   6.502   0.726
 7025SOL    HW121974   4.028   6.582   0.758
 7025SOL    HW221975   3.880   6.516   0.745
 7026SOL     OW21976   3.367   2.652   1.326
 7026SOL    HW121977   3.276   2.620   1.300
 7026SOL    HW221978   3.408   2.587   1.390
 7027SOL     OW21979   2.153   5.388   3.123
 7027SOL    HW121980   2.129   5.293   3.105
 7027SOL    HW221981   2.207   5.393   3.207
 7028SOL     OW21982   2.852   0.047   3.449
 7028SOL    HW121983   2.753   0.054   3.462
 7028SOL    HW221984   2.878   0.091   3.363
 7029SOL     OW21985   3.269   3.584   4.692
 7029SOL    HW121986   3.276   3.553   4.597
 7029SOL    HW221987   3.238   3.508   4.749
 7030SOL     OW21988   6.403   1.605   5.222
 7030SOL    HW121989   6.480   1.543   5.237
 7030SOL    HW221990   6.338   1.563   5.159
 7031SOL     OW21991   3.865   6.743   0.453
 7031SOL    HW121992   3.936   6.693   0.403
 7031SOL    HW221993   3.908   6.801   0.523
 7032SOL     OW21994   4.048   6.041   4.181
 7032SOL    HW121995   4.148   6.036   4.183
 7032SOL    HW221996   4.016   6.097   4.258
 7033SOL     OW21997   1.619   2.127   4.780
 7033SOL    HW121998   1.612   2.226   4.770
 7033SOL    HW221999   1.697   2.094   4.726
 7034SOL     OW22000   6.547   0.909   3.536
 7034SOL    HW122001   6.485   0.950   3.603
 7034SOL    HW222002   6.629   0.966   3.528
 7035SOL     OW22003   1.780   0.502   0.265
 7035SOL    HW122004   1.720   0.460   0.196
 7035SOL    HW222005   1.727   0.520   0.348
 7036SOL     OW22006   6.620   1.225   2.292
 7036SOL    HW122007   6.705   1.268   2.321
 7036SOL    HW222008   6.619   1.216   2.192
 7037SOL     OW22009   1.172   0.856   6.309
 7037SOL    HW122010   1.202   0.820   6.220
 7037SOL    HW222011   1.251   0.870   6.368
 7038SOL     OW22012   1.376   3.548   6.760
 7038SOL    HW122013   1.305   3.613   6.734
 7038SOL    HW222014   1.444   3.541   6.687
 7039SOL     OW22015   0.816   6.305   2.458
 7039SOL    HW122016   0.838   6.220   2.506
 7039SOL    HW222017   0.781   6.372   2.524
 7040SOL     OW22018   4.892   3.162   4.785
 7040SOL    HW122019   4.859   3.078   4.829
 7040SOL    HW222020   4.905   3.233   4.854
 7041SOL     OW22021   1.548   0.121   3.925
 7041SOL    HW122022   1.594   0.202   3.962
 7041SOL    HW222023   1.559   0.044   3.989
 7042SOL     OW22024   4.769   6.366   5.137
 7042SOL    HW122025   4.739   6.272   5.151
 7042SOL    HW222026   4.866   6.366   5.110
 7043SOL     OW22027   2.122   5.085   1.361
 7043SOL    HW122028   2.169   5.071   1.449
 7043SOL    HW222029   2.023   5.076   1.375
 7044SOL     OW22030   5.174   6.336   4.436
 7044SOL    HW122031   5.174   6.291   4.525
 7044SOL    HW222032   5.263   6.321   4.392
 7045SOL     OW22033   6.398   6.108   2.554
 7045SOL    HW122034   6.436   6.183   2.608
 7045SOL    HW222035   6.299   6.120   2.547
 7046SOL     OW22036   2.950   2.206   4.366
 7046SOL    HW122037   3.037   2.212   4.318
 7046SOL    HW222038   2.967   2.189   4.463
 7047SOL     OW22039   1.247   6.258   0.880
 7047SOL    HW122040   1.342   6.247   0.851
 7047SOL    HW222041   1.234   6.351   0.915
 7048SOL     OW22042   6.907   6.268   4.984
 7048SOL    HW122043   6.855   6.223   4.912
 7048SOL    HW222044   6.851   6.340   5.026
 7049SOL     OW22045   3.731   0.965   2.953
 7049SOL    HW122046   3.738   0.867   2.930
 7049SOL    HW222047   3.662   0.977   3.024
 7050SOL     OW22048   4.284   4.075   1.185
 7050SOL    HW122049   4.364   4.022   1.214
 7050SOL    HW222050   4.219   4.081   1.260
 7051SOL     OW22051   0.635   0.936   1.769
 7051SOL    HW122052   0.641   0.982   1.857
 7051SOL    HW222053   0.539   0.927   1.743
 7052SOL     OW22054   4.946   0.131   2.613
 7052SOL    HW122055   4.897   0.087   2.688
 7052SOL    HW222056   4.909   0.223   2.599
 7053SOL     OW22057   2.145   3.367   3.251
 7053SOL    HW122058   2.165   3.464   3.238
 7053SOL    HW222059   2.163   3.317   3.167
 7054SOL     OW22060   6.588   0.651   0.239
 7054SOL    HW122061   6.504   0.704   0.242
 7054SOL    HW222062   6.643   0.679   0.161
 7055SOL     OW22063   2.562   1.142   0.028
 7055SOL    HW122064   2.558   1.240   0.047
 7055SOL    HW222065   2.516   1.092   0.101
 7056SOL     OW22066   0.244   5.548   1.237
 7056SOL    HW122067   0.312   5.555   1.310
 7056SOL    HW222068   0.236   5.636   1.191
 7057SOL     OW22069   2.996   4.911   4.615
 7057SOL    HW122070   2.907   4.865   4.616
 7057SOL    HW222071   3.028   4.924   4.709
 7058SOL     OW22072   5.287   3.105   5.890
 7058SOL    HW122073   5.359   3.158   5.936
 7058SOL    HW222074   5.302   3.109   5.791
 7059SOL     OW22075   2.132   0.428   5.448
 7059SOL    HW122076   2.079   0.505   5.483
 7059SOL    HW222077   2.070   0.356   5.418
 7060SOL     OW22078   3.805   0.944   1.544
 7060SOL    HW122079   3.862   1.001   1.604
 7060SOL    HW222080   3.864   0.885   1.490
 7061SOL     OW22081   0.739   1.721   1.820
 7061SOL    HW122082   0.772   1.787   1.753
 7061SOL    HW222083   0.733   1.765   1.909
 7062SOL     OW22084   3.549   0.998   3.148
 7062SOL    HW122085   3.456   0.982   3.116
 7062SOL    HW222086   3.548   1.011   3.247
 7063SOL     OW22087   0.879   0.817   1.966
 7063SOL    HW122088   0.794   0.774   1.936
 7063SOL    HW222089   0.891   0.904   1.917
 7064SOL     OW22090   4.352   1.543   5.199
 7064SOL    HW122091   4.399   1.628   5.223
 7064SOL    HW222092   4.282   1.562   5.129
 7065SOL     OW22093   4.030   5.076   5.457
 7065SOL    HW122094   3.981   5.163   5.467
 7065SOL    HW222095   3.965   5.000   5.464
 7066SOL     OW22096   3.906   0.248   6.937
 7066SOL    HW122097   3.948   0.338   6.925
 7066SOL    HW222098   3.812   0.250   6.901
 7067SOL     OW22099   1.745   3.525   6.734
 7067SOL    HW122100   1.727   3.596   6.666
 7067SOL    HW222101   1.761   3.568   6.823
 7068SOL     OW22102   5.198   3.422   4.412
 7068SOL    HW122103   5.206   3.480   4.331
 7068SOL    HW222104   5.102   3.403   4.430
 7069SOL     OW22105   6.012   0.399   6.509
 7069SOL    HW122106   6.101   0.371   6.544
 7069SOL    HW222107   5.956   0.317   6.493
 7070SOL     OW22108   0.107   6.822   4.812
 7070SOL    HW122109   0.162   6.899   4.779
 7070SOL    HW222110   0.168   6.747   4.840
 7071SOL     OW22111   4.917   6.239   6.985
 7071SOL    HW122112   4.869   6.192   6.911
 7071SOL    HW222113   4.910   6.186   0.042
 7072SOL     OW22114   0.394   3.740   6.316
 7072SOL    HW122115   0.313   3.682   6.307
 7072SOL    HW222116   0.454   3.703   6.387
 7073SOL     OW22117   5.319   1.458   3.338
 7073SOL    HW122118   5.264   1.400   3.277
 7073SOL    HW222119   5.366   1.528   3.283
 7074SOL     OW22120   5.966   4.430   3.037
 7074SOL    HW122121   6.045   4.426   2.975
 7074SOL    HW222122   5.968   4.351   3.098
 7075SOL     OW22123   3.000   4.831   3.719
 7075SOL    HW122124   3.029   4.837   3.815
 7075SOL    HW222125   3.063   4.884   3.662
 7076SOL     OW22126   5.682   2.138   2.257
 7076SOL    HW122127   5.759   2.139   2.321
 7076SOL    HW222128   5.603   2.095   2.300
 7077SOL     OW22129   3.324   5.438   1.425
 7077SOL    HW122130   3.376   5.514   1.386
 7077SOL    HW222131   3.227   5.449   1.403
 7078SOL     OW22132   5.567   0.463   6.890
 7078SOL    HW122133   5.468   0.471   6.878
 7078SOL    HW222134   5.608   0.426   6.806
 7079SOL     OW22135   1.232   6.549   5.054
 7079SOL    HW122136   1.150   6.493   5.053
 7079SOL    HW222137   1.210   6.640   5.090
 7080SOL     OW22138   4.318   2.115   5.611
 7080SOL    HW122139   4.369   2.190   5.567
 7080SOL    HW222140   4.353   2.027   5.579
 7081SOL     OW22141   2.037   0.068   0.405
 7081SOL    HW122142   2.064   0.061   0.309
 7081SOL    HW222143   2.075   7.017   0.455
 7082SOL     OW22144   6.674   4.476   3.020
 7082SOL    HW122145   6.595   4.435   2.975
 7082SOL    HW222146   6.739   4.507   2.950
 7083SOL     OW22147   6.144   2.756   3.057
 7083SOL    HW122148   6.215   2.693   3.026
 7083SOL    HW222149   6.073   2.763   2.986
 7084SOL     OW22150   0.845   6.085   6.995
 7084SOL    HW122151   0.903   6.079   6.914
 7084SOL    HW222152   0.888   6.143   0.036
 7085SOL     OW22153   0.683   3.465   1.990
 7085SOL    HW122154   0.600   3.410   1.992
 7085SOL    HW222155   0.755   3.415   1.942
 7086SOL     OW22156   5.824   1.042   4.367
 7086SOL    HW122157   5.744   1.007   4.318
 7086SOL    HW222158   5.906   1.028   4.311
 7087SOL     OW22159   5.225   3.554   2.908
 7087SOL    HW122160   5.167   3.595   2.839
 7087SOL    HW222161   5.184   3.468   2.940
 7088SOL     OW22162   6.325   1.696   4.832
 7088SOL    HW122163   6.293   1.634   4.760
 7088SOL    HW222164   6.404   1.655   4.878
 7089SOL     OW22165   2.916   5.915   2.007
 7089SOL    HW122166   2.823   5.910   2.044
 7089SOL    HW222167   2.964   5.830   2.028
 7090SOL     OW22168   4.360   2.611   1.005
 7090SOL    HW122169   4.381   2.708   1.022
 7090SOL    HW222170   4.302   2.576   1.077
 7091SOL     OW22171   6.845   6.243   0.008
 7091SOL    HW122172   6.847   6.195   6.948
 7091SOL    HW222173   6.870   6.179   0.081
 7092SOL     OW22174   4.340   1.463   6.068
 7092SOL    HW122175   4.272   1.532   6.093
 7092SOL    HW222176   4.432   1.501   6.080
 7093SOL     OW22177   3.210   3.080   1.511
 7093SOL    HW122178   3.245   3.022   1.438
 7093SOL    HW222179   3.111   3.090   1.501
 7094SOL     OW22180   3.224   0.096   5.674
 7094SOL    HW122181   3.299   0.152   5.639
 7094SOL    HW222182   3.221   0.103   5.774
 7095SOL     OW22183   2.546   4.616   5.029
 7095SOL    HW122184   2.514   4.683   5.095
 7095SOL    HW222185   2.646   4.612   5.031
 7096SOL     OW22186   0.037   0.851   1.301
 7096SOL    HW122187   6.990   0.815   1.245
 7096SOL    HW222188   0.040   0.951   1.291
 7097SOL     OW22189   4.342   0.969   1.710
 7097SOL    HW122190   4.333   0.870   1.715
 7097SOL    HW222191   4.329   1.009   1.801
 7098SOL     OW22192   1.455   6.782   4.198
 7098SOL    HW122193   1.531   6.822   4.145
 7098SOL    HW222194   1.386   6.747   4.135
 7099SOL     OW22195   2.793   2.151   3.574
 7099SOL    HW122196   2.875   2.168   3.629
 7099SOL    HW222197   2.741   2.075   3.615
 7100SOL     OW22198   6.082   3.827   1.414
 7100SOL    HW122199   6.077   3.912   1.466
 7100SOL    HW222200   6.178   3.802   1.400
 7101SOL     OW22201   2.730   6.199   5.748
 7101SOL    HW122202   2.796   6.132   5.714
 7101SOL    HW222203   2.769   6.247   5.827
 7102SOL     OW22204   5.595   0.757   1.849
 7102SOL    HW122205   5.529   0.682   1.860
 7102SOL    HW222206   5.649   0.765   1.933
 7103SOL     OW22207   4.916   3.728   2.859
 7103SOL    HW122208   4.831   3.677   2.853
 7103SOL    HW222209   4.899   3.824   2.837
 7104SOL     OW22210   5.373   3.797   3.506
 7104SOL    HW122211   5.362   3.712   3.557
 7104SOL    HW222212   5.469   3.826   3.512
 7105SOL     OW22213   3.106   3.996   4.052
 7105SOL    HW122214   3.118   3.896   4.051
 7105SOL    HW222215   3.020   4.018   4.099
 7106SOL     OW22216   2.974   2.643   0.946
 7106SOL    HW122217   3.034   2.707   0.994
 7106SOL    HW222218   3.010   2.550   0.957
 7107SOL     OW22219   3.360   1.021   6.183
 7107SOL    HW122220   3.380   1.117   6.202
 7107SOL    HW222221   3.281   0.992   6.237
 7108SOL     OW22222   4.756   0.703   1.973
 7108SOL    HW122223   4.753   0.617   1.922
 7108SOL    HW222224   4.851   0.736   1.976
 7109SOL     OW22225   2.638   5.585   6.551
 7109SOL    HW122226   2.683   5.497   6.566
 7109SOL    HW222227   2.610   5.624   6.639
 7110SOL     OW22228   3.418   6.424   4.284
 7110SOL    HW122229   3.516   6.423   4.264
 7110SOL    HW222230   3.387   6.332   4.309
 7111SOL     OW22231   6.731   0.474   5.188
 7111SOL    HW122232   6.715   0.383   5.226
 7111SOL    HW222233   6.788   0.467   5.106
 7112SOL     OW22234   1.513   4.928   5.262
 7112SOL    HW122235   1.528   5.027   5.260
 7112SOL    HW222236   1.517   4.892   5.169
 7113SOL     OW22237   3.672   6.359   5.364
 7113SOL    HW122238   3.651   6.262   5.356
 7113SOL    HW222239   3.614   6.411   5.302
 7114SOL     OW22240   5.003   4.531   0.526
 7114SOL    HW122241   4.945   4.464   0.572
 7114SOL    HW222242   5.093   4.492   0.510
 7115SOL     OW22243   6.087   3.750   6.357
 7115SOL    HW122244   6.031   3.729   6.437
 7115SOL    HW222245   6.165   3.687   6.353
 7116SOL     OW22246   6.241   3.655   4.053
 7116SOL    HW122247   6.334   3.693   4.050
 7116SOL    HW222248   6.245   3.558   4.074
 7117SOL     OW22249   5.896   0.227   2.901
 7117SOL    HW122250   5.825   0.173   2.856
 7117SOL    HW222251   5.947   0.169   2.965
 7118SOL     OW22252   4.231   4.462   5.674
 7118SOL    HW122253   4.160   4.491   5.738
 7118SOL    HW222254   4.256   4.539   5.614
 7119SOL     OW22255   3.505   6.828   4.850
 7119SOL    HW122256   3.471   6.921   4.836
 7119SOL    HW222257   3.491   6.802   4.946
 7120SOL     OW22258   4.871   0.237   0.140
 7120SOL    HW122259   4.779   0.207   0.166
 7120SOL    HW222260   4.938   0.167   0.166
 7121SOL     OW22261   1.820   5.827   2.206
 7121SOL    HW122262   1.807   5.803   2.302
 7121SOL    HW222263   1.889   5.898   2.198
 7122SOL     OW22264   2.813   1.480   6.864
 7122SOL    HW122265   2.754   1.533   6.926
 7122SOL    HW222266   2.900   1.529   6.852
 7123SOL     OW22267   5.212   5.354   5.951
 7123SOL    HW122268   5.177   5.417   6.021
 7123SOL    HW222269   5.135   5.314   5.901
 7124SOL     OW22270   1.428   2.250   1.374
 7124SOL    HW122271   1.511   2.266   1.322
 7124SOL    HW222272   1.350   2.245   1.311
 7125SOL     OW22273   0.742   6.663   1.647
 7125SOL    HW122274   0.723   6.761   1.643
 7125SOL    HW222275   0.840   6.647   1.632
 7126SOL     OW22276   3.272   5.046   0.784
 7126SOL    HW122277   3.299   5.084   0.873
 7126SOL    HW222278   3.353   5.036   0.726
 7127SOL     OW22279   2.324   6.693   5.599
 7127SOL    HW122280   2.249   6.715   5.662
 7127SOL    HW222281   2.354   6.776   5.553
 7128SOL     OW22282   4.106   4.147   6.582
 7128SOL    HW122283   4.053   4.223   6.620
 7128SOL    HW222284   4.118   4.160   6.484
 7129SOL     OW22285   0.605   0.063   0.514
 7129SOL    HW122286   0.633   0.137   0.575
 7129SOL    HW222287   0.636   7.003   0.552
 7130SOL     OW22288   3.356   6.375   3.798
 7130SOL    HW122289   3.410   6.339   3.721
 7130SOL    HW222290   3.418   6.402   3.872
 7131SOL     OW22291   3.259   1.557   2.637
 7131SOL    HW122292   3.179   1.556   2.577
 7131SOL    HW222293   3.340   1.584   2.584
 7132SOL     OW22294   5.338   4.675   0.760
 7132SOL    HW122295   5.299   4.766   0.748
 7132SOL    HW222296   5.436   4.682   0.773
 7133SOL     OW22297   5.130   5.667   3.033
 7133SOL    HW122298   5.146   5.576   2.994
 7133SOL    HW222299   5.035   5.673   3.063
 7134SOL     OW22300   5.212   5.161   0.570
 7134SOL    HW122301   5.304   5.193   0.548
 7134SOL    HW222302   5.161   5.234   0.616
 7135SOL     OW22303   1.640   2.639   0.809
 7135SOL    HW122304   1.604   2.547   0.825
 7135SOL    HW222305   1.683   2.673   0.892
 7136SOL     OW22306   2.101   1.592   1.586
 7136SOL    HW122307   2.156   1.673   1.569
 7136SOL    HW222308   2.149   1.511   1.555
 7137SOL     OW22309   3.065   1.973   1.563
 7137SOL    HW122310   3.051   1.958   1.661
 7137SOL    HW222311   3.161   1.955   1.540
 7138SOL     OW22312   1.047   2.923   0.657
 7138SOL    HW122313   1.013   2.999   0.603
 7138SOL    HW222314   1.092   2.857   0.597
 7139SOL     OW22315   5.984   6.364   0.980
 7139SOL    HW122316   5.979   6.332   0.886
 7139SOL    HW222317   5.894   6.392   1.012
 7140SOL     OW22318   6.316   3.665   0.149
 7140SOL    HW122319   6.283   3.663   0.054
 7140SOL    HW222320   6.237   3.663   0.211
 7141SOL     OW22321   3.423   0.723   0.653
 7141SOL    HW122322   3.337   0.729   0.704
 7141SOL    HW222323   3.477   0.646   0.687
 7142SOL     OW22324   3.102   0.079   4.745
 7142SOL    HW122325   3.108   0.113   4.839
 7142SOL    HW222326   3.158   7.025   4.735
 7143SOL     OW22327   2.819   4.449   6.606
 7143SOL    HW122328   2.837   4.519   6.536
 7143SOL    HW222329   2.862   4.363   6.579
 7144SOL     OW22330   6.860   0.635   6.001
 7144SOL    HW122331   6.846   0.721   5.951
 7144SOL    HW222332   6.905   0.569   5.942
 7145SOL     OW22333   5.226   2.318   6.660
 7145SOL    HW122334   5.301   2.279   6.607
 7145SOL    HW222335   5.155   2.248   6.674
 7146SOL     OW22336   1.859   2.370   4.893
 7146SOL    HW122337   1.828   2.310   4.967
 7146SOL    HW222338   1.943   2.417   4.920
 7147SOL     OW22339   6.246   6.788   2.050
 7147SOL    HW122340   6.270   6.874   2.005
 7147SOL    HW222341   6.153   6.762   2.026
 7148SOL     OW22342   6.331   0.122   0.850
 7148SOL    HW122343   6.418   0.078   0.829
 7148SOL    HW222344   6.319   0.128   0.949
 7149SOL     OW22345   5.764   4.719   5.854
 7149SOL    HW122346   5.774   4.663   5.936
 7149SOL    HW222347   5.821   4.682   5.781
 7150SOL     OW22348   3.624   3.047   6.729
 7150SOL    HW122349   3.545   3.081   6.782
 7150SOL    HW222350   3.695   3.117   6.726
 7151SOL     OW22351   3.232   1.230   0.792
 7151SOL    HW122352   3.275   1.320   0.786
 7151SOL    HW222353   3.158   1.223   0.725
 7152SOL     OW22354   6.652   1.184   6.432
 7152SOL    HW122355   6.554   1.182   6.452
 7152SOL    HW222356   6.693   1.264   6.476
 7153SOL     OW22357   3.688   5.472   0.646
 7153SOL    HW122358   3.758   5.489   0.716
 7153SOL    HW222359   3.598   5.492   0.684
 7154SOL     OW22360   3.957   2.203   1.888
 7154SOL    HW122361   3.926   2.235   1.799
 7154SOL    HW222362   3.881   2.207   1.953
 7155SOL     OW22363   1.911   1.222   2.153
 7155SOL    HW122364   1.879   1.130   2.174
 7155SOL    HW222365   1.898   1.240   2.055
 7156SOL     OW22366   5.960   3.497   5.985
 7156SOL    HW122367   5.954   3.567   6.057
 7156SOL    HW222368   5.888   3.513   5.918
 7157SOL     OW22369   6.454   4.256   5.900
 7157SOL    HW122370   6.502   4.171   5.924
 7157SOL    HW222371   6.422   4.251   5.806
 7158SOL     OW22372   4.143   6.867   3.809
 7158SOL    HW122373   4.145   6.876   3.710
 7158SOL    HW222374   4.075   6.929   3.847
 7159SOL     OW22375   0.768   5.974   3.170
 7159SOL    HW122376   0.730   6.066   3.174
 7159SOL    HW222377   0.693   5.908   3.158
 7160SOL     OW22378   6.614   0.228   3.383
 7160SOL    HW122379   6.574   0.258   3.470
 7160SOL    HW222380   6.710   0.256   3.380
 7161SOL     OW22381   4.016   3.097   3.236
 7161SOL    HW122382   4.068   3.117   3.153
 7161SOL    HW222383   4.038   3.164   3.307
 7162SOL     OW22384   0.383   5.856   1.865
 7162SOL    HW122385   0.447   5.932   1.874
 7162SOL    HW222386   0.413   5.797   1.789
 7163SOL     OW22387   6.867   1.423   1.381
 7163SOL    HW122388   6.961   1.458   1.379
 7163SOL    HW222389   6.809   1.486   1.433
 7164SOL     OW22390   2.097   1.153   6.661
 7164SOL    HW122391   2.088   1.106   6.573
 7164SOL    HW222392   2.110   1.085   6.733
 7165SOL     OW22393   5.617   1.178   0.727
 7165SOL    HW122394   5.524   1.217   0.725
 7165SOL    HW222395   5.636   1.141   0.817
 7166SOL     OW22396   6.592   5.754   6.263
 7166SOL    HW122397   6.526   5.744   6.337
 7166SOL    HW222398   6.614   5.664   6.225
 7167SOL     OW22399   6.017   2.684   4.581
 7167SOL    HW122400   5.941   2.638   4.535
 7167SOL    HW222401   6.005   2.678   4.680
 7168SOL     OW22402   2.568   0.957   2.019
 7168SOL    HW122403   2.497   1.028   2.012
 7168SOL    HW222404   2.638   0.973   1.949
 7169SOL     OW22405   2.027   4.035   6.321
 7169SOL    HW122406   2.099   4.068   6.260
 7169SOL    HW222407   1.942   4.022   6.269
 7170SOL     OW22408   3.830   1.170   0.259
 7170SOL    HW122409   3.929   1.185   0.259
 7170SOL    HW222410   3.805   1.114   0.180
 7171SOL     OW22411   6.924   4.042   0.710
 7171SOL    HW122412   6.879   4.119   0.756
 7171SOL    HW222413   7.003   4.076   0.660
 7172SOL     OW22414   1.254   2.412   4.001
 7172SOL    HW122415   1.303   2.341   4.052
 7172SOL    HW222416   1.321   2.476   3.962
 7173SOL     OW22417   4.724   5.645   6.017
 7173SOL    HW122418   4.665   5.614   6.092
 7173SOL    HW222419   4.725   5.577   5.945
 7174SOL     OW22420   6.422   4.524   1.958
 7174SOL    HW122421   6.395   4.440   1.911
 7174SOL    HW222422   6.517   4.545   1.936
 7175SOL     OW22423   6.274   3.604   6.043
 7175SOL    HW122424   6.243   3.577   5.952
 7175SOL    HW222425   6.230   3.548   6.112
 7176SOL     OW22426   0.858   0.302   5.338
 7176SOL    HW122427   0.840   0.400   5.351
 7176SOL    HW222428   0.770   0.253   5.333
 7177SOL     OW22429   1.294   5.753   3.740
 7177SOL    HW122430   1.254   5.812   3.669
 7177SOL    HW222431   1.242   5.668   3.746
 7178SOL     OW22432   2.129   6.913   5.243
 7178SOL    HW122433   2.136   6.963   5.329
 7178SOL    HW222434   2.204   6.847   5.237
 7179SOL     OW22435   3.113   5.442   5.984
 7179SOL    HW122436   3.067   5.398   6.061
 7179SOL    HW222437   3.118   5.378   5.907
 7180SOL     OW22438   1.996   3.206   0.929
 7180SOL    HW122439   2.002   3.179   1.025
 7180SOL    HW222440   1.927   3.151   0.882
 7181SOL     OW22441   2.595   1.374   5.476
 7181SOL    HW122442   2.539   1.453   5.497
 7181SOL    HW222443   2.572   1.299   5.538
 7182SOL     OW22444   1.519   1.725   3.836
 7182SOL    HW122445   1.515   1.747   3.738
 7182SOL    HW222446   1.610   1.746   3.871
 7183SOL     OW22447   0.777   6.988   1.838
 7183SOL    HW122448   0.802   6.895   1.865
 7183SOL    HW222449   0.847   7.025   1.777
 7184SOL     OW22450   6.548   0.322   4.135
 7184SOL    HW122451   6.558   0.252   4.064
 7184SOL    HW222452   6.455   0.321   4.170
 7185SOL     OW22453   4.335   1.047   4.601
 7185SOL    HW122454   4.284   1.113   4.657
 7185SOL    HW222455   4.281   1.021   4.522
 7186SOL     OW22456   0.281   0.576   6.642
 7186SOL    HW122457   0.237   0.486   6.632
 7186SOL    HW222458   0.250   0.636   6.569
 7187SOL     OW22459   3.248   2.966   3.987
 7187SOL    HW122460   3.167   2.908   3.982
 7187SOL    HW222461   3.305   2.937   4.064
 7188SOL     OW22462   4.215   4.352   0.250
 7188SOL    HW122463   4.299   4.306   0.220
 7188SOL    HW222464   4.216   4.363   0.349
 7189SOL     OW22465   6.614   2.694   5.948
 7189SOL    HW122466   6.577   2.747   5.873
 7189SOL    HW222467   6.679   2.750   6.000
 7190SOL     OW22468   5.721   5.252   0.889
 7190SOL    HW122469   5.685   5.218   0.975
 7190SOL    HW222470   5.705   5.185   0.817
 7191SOL     OW22471   6.970   5.199   4.347
 7191SOL    HW122472   6.944   5.122   4.405
 7191SOL    HW222473   6.969   5.284   4.400
 7192SOL     OW22474   2.769   4.962   6.749
 7192SOL    HW122475   2.709   5.031   6.707
 7192SOL    HW222476   2.723   4.920   6.827
 7193SOL     OW22477   2.559   2.126   2.851
 7193SOL    HW122478   2.471   2.096   2.813
 7193SOL    HW222479   2.622   2.146   2.776
 7194SOL     OW22480   3.466   2.465   6.012
 7194SOL    HW122481   3.401   2.529   5.971
 7194SOL    HW222482   3.509   2.507   6.091
 7195SOL     OW22483   0.684   4.921   5.184
 7195SOL    HW122484   0.640   4.909   5.096
 7195SOL    HW222485   0.700   4.832   5.226
 7196SOL     OW22486   3.355   4.032   2.098
 7196SOL    HW122487   3.410   4.064   2.021
 7196SOL    HW222488   3.258   4.034   2.072
 7197SOL     OW22489   3.159   4.213   5.941
 7197SOL    HW122490   3.154   4.312   5.932
 7197SOL    HW222491   3.167   4.188   6.038
 7198SOL     OW22492   0.414   0.581   2.130
 7198SOL    HW122493   0.424   0.491   2.172
 7198SOL    HW222494   0.376   0.571   2.038
 7199SOL     OW22495   6.546   1.164   1.981
 7199SOL    HW122496   6.470   1.180   2.043
 7199SOL    HW222497   6.556   1.066   1.964
 7200SOL     OW22498   0.891   2.463   0.612
 7200SOL    HW122499   0.979   2.458   0.566
 7200SOL    HW222500   0.857   2.370   0.630
 7201SOL     OW22501   5.485   5.415   3.915
 7201SOL    HW122502   5.453   5.457   4.000
 7201SOL    HW222503   5.414   5.353   3.880
 7202SOL     OW22504   4.843   0.968   5.821
 7202SOL    HW122505   4.890   0.883   5.802
 7202SOL    HW222506   4.884   1.042   5.767
 7203SOL     OW22507   0.105   1.128   1.262
 7203SOL    HW122508   0.009   1.145   1.241
 7203SOL    HW222509   0.159   1.210   1.242
 7204SOL     OW22510   5.973   6.975   2.043
 7204SOL    HW122511   5.937   0.027   1.995
 7204SOL    HW222512   5.958   6.986   2.141
 7205SOL     OW22513   2.890   1.903   3.848
 7205SOL    HW122514   2.871   1.858   3.936
 7205SOL    HW222515   2.937   1.989   3.864
 7206SOL     OW22516   2.285   3.457   0.526
 7206SOL    HW122517   2.329   3.498   0.606
 7206SOL    HW222518   2.264   3.529   0.459
 7207SOL     OW22519   1.812   1.475   4.064
 7207SOL    HW122520   1.760   1.536   4.124
 7207SOL    HW222521   1.752   1.437   3.994
 7208SOL     OW22522   2.645   0.283   4.598
 7208SOL    HW122523   2.638   0.334   4.512
 7208SOL    HW222524   2.726   0.225   4.597
 7209SOL     OW22525   3.380   1.491   2.147
 7209SOL    HW122526   3.387   1.459   2.241
 7209SOL    HW222527   3.446   1.565   2.132
 7210SOL     OW22528   2.544   1.709   3.120
 7210SOL    HW122529   2.609   1.700   3.044
 7210SOL    HW222530   2.571   1.649   3.195
 7211SOL     OW22531   4.359   5.883   4.784
 7211SOL    HW122532   4.443   5.868   4.836
 7211SOL    HW222533   4.283   5.903   4.847
 7212SOL     OW22534   6.833   4.232   5.768
 7212SOL    HW122535   6.840   4.184   5.855
 7212SOL    HW222536   6.920   4.276   5.747
 7213SOL     OW22537   3.599   1.953   7.010
 7213SOL    HW122538   3.624   2.033   0.036
 7213SOL    HW222539   3.641   1.872   0.022
 7214SOL     OW22540   6.944   0.646   6.290
 7214SOL    HW122541   6.862   0.616   6.337
 7214SOL    HW222542   6.920   0.681   6.199
 7215SOL     OW22543   6.503   2.242   2.643
 7215SOL    HW122544   6.457   2.153   2.645
 7215SOL    HW222545   6.444   2.311   2.686
 7216SOL     OW22546   3.175   6.505   3.098
 7216SOL    HW122547   3.231   6.493   3.180
 7216SOL    HW222548   3.094   6.445   3.103
 7217SOL     OW22549   1.919   2.835   3.481
 7217SOL    HW122550   2.008   2.863   3.445
 7217SOL    HW222551   1.907   2.736   3.467
 7218SOL     OW22552   6.330   3.643   4.347
 7218SOL    HW122553   6.319   3.741   4.366
 7218SOL    HW222554   6.246   3.595   4.371
 7219SOL     OW22555   3.547   5.809   2.698
 7219SOL    HW122556   3.578   5.905   2.694
 7219SOL    HW222557   3.580   5.760   2.617
 7220SOL     OW22558   6.500   4.797   4.677
 7220SOL    HW122559   6.556   4.849   4.612
 7220SOL    HW222560   6.466   4.714   4.631
 7221SOL     OW22561   3.546   5.345   4.133
 7221SOL    HW122562   3.543   5.282   4.055
 7221SOL    HW222563   3.612   5.418   4.114
 7222SOL     OW22564   0.304   6.157   4.416
 7222SOL    HW122565   0.290   6.135   4.512
 7222SOL    HW222566   0.216   6.162   4.369
 7223SOL     OW22567   6.964   3.529   1.698
 7223SOL    HW122568   6.988   3.562   1.607
 7223SOL    HW222569   7.027   3.566   1.766
 7224SOL     OW22570   3.776   1.691   3.375
 7224SOL    HW122571   3.697   1.635   3.350
 7224SOL    HW222572   3.750   1.787   3.378
 7225SOL     OW22573   1.790   6.083   0.777
 7225SOL    HW122574   1.819   6.126   0.691
 7225SOL    HW222575   1.713   6.135   0.814
 7226SOL     OW22576   5.954   6.299   0.707
 7226SOL    HW122577   5.900   6.301   0.623
 7226SOL    HW222578   6.045   6.262   0.687
 7227SOL     OW22579   2.320   0.636   1.772
 7227SOL    HW122580   2.341   0.670   1.864
 7227SOL    HW222581   2.223   0.610   1.767
 7228SOL     OW22582   6.948   3.016   2.289
 7228SOL    HW122583   6.933   2.935   2.231
 7228SOL    HW222584   6.875   3.082   2.274
 7229SOL     OW22585   6.947   1.096   5.549
 7229SOL    HW122586   6.918   1.089   5.644
 7229SOL    HW222587   6.889   1.037   5.492
 7230SOL     OW22588   1.794   4.723   4.239
 7230SOL    HW122589   1.768   4.674   4.322
 7230SOL    HW222590   1.822   4.816   4.262
 7231SOL     OW22591   4.250   1.484   6.380
 7231SOL    HW122592   4.333   1.538   6.383
 7231SOL    HW222593   4.224   1.469   6.284
 7232SOL     OW22594   5.159   6.869   3.282
 7232SOL    HW122595   5.254   6.860   3.312
 7232SOL    HW222596   5.134   6.788   3.229
 7233SOL     OW22597   6.952   1.160   4.501
 7233SOL    HW122598   6.943   1.259   4.495
 7233SOL    HW222599   6.865   1.120   4.530
 7234SOL     OW22600   5.370   3.858   3.228
 7234SOL    HW122601   5.380   3.774   3.175
 7234SOL    HW222602   5.332   3.836   3.318
 7235SOL     OW22603   6.977   5.624   1.339
 7235SOL    HW122604   7.008   5.623   1.244
 7235SOL    HW222605   6.940   5.534   1.363
 7236SOL     OW22606   1.700   2.951   2.650
 7236SOL    HW122607   1.688   3.008   2.732
 7236SOL    HW222608   1.790   2.908   2.654
 7237SOL     OW22609   5.377   0.691   0.122
 7237SOL    HW122610   5.281   0.696   0.095
 7237SOL    HW222611   5.388   0.628   0.198
 7238SOL     OW22612   3.664   3.300   0.831
 7238SOL    HW122613   3.643   3.266   0.923
 7238SOL    HW222614   3.761   3.325   0.827
 7239SOL     OW22615   7.024   2.630   2.273
 7239SOL    HW122616   0.059   2.599   2.202
 7239SOL    HW222617   6.930   2.621   2.242
 7240SOL     OW22618   6.810   1.957   6.489
 7240SOL    HW122619   6.815   2.027   6.418
 7240SOL    HW222620   6.802   2.000   6.579
 7241SOL     OW22621   2.573   1.593   1.229
 7241SOL    HW122622   2.606   1.544   1.149
 7241SOL    HW222623   2.539   1.683   1.201
 7242SOL     OW22624   6.564   5.488   4.881
 7242SOL    HW122625   6.599   5.415   4.821
 7242SOL    HW222626   6.464   5.485   4.883
 7243SOL     OW22627   6.256   4.389   6.489
 7243SOL    HW122628   6.191   4.370   6.416
 7243SOL    HW222629   6.347   4.358   6.462
 7244SOL     OW22630   0.587   6.162   6.994
 7244SOL    HW122631   0.673   6.111   6.996
 7244SOL    HW222632   0.511   6.098   6.987
 7245SOL     OW22633   0.861   3.259   6.992
 7245SOL    HW122634   0.803   3.195   0.015
 7245SOL    HW222635   0.853   3.350   0.004
 7246SOL     OW22636   3.622   6.678   3.845
 7246SOL    HW122637   3.586   6.769   3.863
 7246SOL    HW222638   3.721   6.678   3.861
 7247SOL     OW22639   3.326   3.498   5.784
 7247SOL    HW122640   3.253   3.557   5.751
 7247SOL    HW222641   3.402   3.497   5.718
 7248SOL     OW22642   3.399   0.672   4.859
 7248SOL    HW122643   3.445   0.655   4.772
 7248SOL    HW222644   3.326   0.739   4.846
 7249SOL     OW22645   4.152   5.227   2.065
 7249SOL    HW122646   4.053   5.229   2.053
 7249SOL    HW222647   4.175   5.202   2.159
 7250SOL     OW22648   5.013   5.558   5.710
 7250SOL    HW122649   4.999   5.632   5.644
 7250SOL    HW222650   4.925   5.519   5.736
 7251SOL     OW22651   6.841   5.779   5.426
 7251SOL    HW122652   6.905   5.790   5.350
 7251SOL    HW222653   6.747   5.785   5.392
 7252SOL     OW22654   3.527   4.099   2.319
 7252SOL    HW122655   3.440   4.091   2.271
 7252SOL    HW222656   3.586   4.164   2.272
 7253SOL     OW22657   1.464   5.976   5.286
 7253SOL    HW122658   1.366   5.993   5.293
 7253SOL    HW222659   1.497   5.934   5.370
 7254SOL     OW22660   5.255   3.912   4.121
 7254SOL    HW122661   5.330   3.942   4.180
 7254SOL    HW222662   5.179   3.879   4.178
 7255SOL     OW22663   5.429   3.301   6.397
 7255SOL    HW122664   5.355   3.329   6.336
 7255SOL    HW222665   5.489   3.379   6.415
 7256SOL     OW22666   3.329   6.735   6.069
 7256SOL    HW122667   3.235   6.766   6.054
 7256SOL    HW222668   3.327   6.648   6.118
 7257SOL     OW22669   0.835   1.684   4.688
 7257SOL    HW122670   0.789   1.773   4.690
 7257SOL    HW222671   0.934   1.697   4.684
 7258SOL     OW22672   6.629   1.846   3.506
 7258SOL    HW122673   6.545   1.899   3.495
 7258SOL    HW222674   6.685   1.854   3.423
 7259SOL     OW22675   0.993   4.580   3.179
 7259SOL    HW122676   0.950   4.507   3.232
 7259SOL    HW222677   1.093   4.567   3.180
 7260SOL     OW22678   5.832   3.387   1.304
 7260SOL    HW122679   5.848   3.309   1.364
 7260SOL    HW222680   5.886   3.465   1.336
 7261SOL     OW22681   7.018   4.165   6.685
 7261SOL    HW122682   0.066   4.215   6.728
 7261SOL    HW222683   6.932   4.209   6.708
 7262SOL     OW22684   6.577   2.054   5.842
 7262SOL    HW122685   6.499   2.009   5.798
 7262SOL    HW222686   6.660   2.036   5.790
 7263SOL     OW22687   0.430   5.443   0.043
 7263SOL    HW122688   0.399   5.376   7.003
 7263SOL    HW222689   0.360   5.454   0.113
 7264SOL     OW22690   5.840   1.484   0.996
 7264SOL    HW122691   5.931   1.518   1.020
 7264SOL    HW222692   5.840   1.453   0.901
 7265SOL     OW22693   4.161   5.462   5.254
 7265SOL    HW122694   4.173   5.469   5.155
 7265SOL    HW222695   4.209   5.381   5.288
 7266SOL     OW22696   0.118   0.592   3.931
 7266SOL    HW122697   0.133   0.557   3.839
 7266SOL    HW222698   0.199   0.575   3.987
 7267SOL     OW22699   6.258   5.648   4.429
 7267SOL    HW122700   6.184   5.587   4.458
 7267SOL    HW222701   6.268   5.643   4.330
 7268SOL     OW22702   6.424   6.330   4.187
 7268SOL    HW122703   6.409   6.348   4.090
 7268SOL    HW222704   6.373   6.249   4.215
 7269SOL     OW22705   2.415   4.982   5.043
 7269SOL    HW122706   2.499   4.974   5.096
 7269SOL    HW222707   2.433   4.958   4.948
 7270SOL     OW22708   0.710   1.839   4.330
 7270SOL    HW122709   0.718   1.846   4.230
 7270SOL    HW222710   0.627   1.788   4.353
 7271SOL     OW22711   0.736   4.214   3.761
 7271SOL    HW122712   0.789   4.296   3.786
 7271SOL    HW222713   0.643   4.222   3.798
 7272SOL     OW22714   5.897   5.681   2.998
 7272SOL    HW122715   5.963   5.733   2.942
 7272SOL    HW222716   5.927   5.586   3.005
 7273SOL     OW22717   0.214   2.849   5.636
 7273SOL    HW122718   0.162   2.905   5.571
 7273SOL    HW222719   0.263   2.778   5.587
 7274SOL     OW22720   0.798   4.553   6.885
 7274SOL    HW122721   0.813   4.639   6.836
 7274SOL    HW222722   0.705   4.521   6.869
 7275SOL     OW22723   6.305   0.286   3.012
 7275SOL    HW122724   6.238   0.359   3.026
 7275SOL    HW222725   6.279   0.232   2.932
 7276SOL     OW22726   4.587   6.827   3.901
 7276SOL    HW122727   4.676   6.871   3.892
 7276SOL    HW222728   4.517   6.896   3.920
 7277SOL     OW22729   4.339   0.391   5.799
 7277SOL    HW122730   4.371   0.328   5.871
 7277SOL    HW222731   4.333   0.342   5.712
 7278SOL     OW22732   2.897   3.733   2.701
 7278SOL    HW122733   2.911   3.672   2.623
 7278SOL    HW222734   2.817   3.791   2.684
 7279SOL     OW22735   3.555   5.840   6.239
 7279SOL    HW122736   3.604   5.815   6.322
 7279SOL    HW222737   3.532   5.757   6.188
 7280SOL     OW22738   4.431   0.705   5.938
 7280SOL    HW122739   4.355   0.671   5.994
 7280SOL    HW222740   4.411   0.686   5.842
 7281SOL     OW22741   4.311   1.442   6.766
 7281SOL    HW122742   4.365   1.414   6.686
 7281SOL    HW222743   4.373   1.472   6.839
 7282SOL     OW22744   6.009   5.330   1.856
 7282SOL    HW122745   6.092   5.318   1.911
 7282SOL    HW222746   5.937   5.271   1.891
 7283SOL     OW22747   2.517   0.845   3.481
 7283SOL    HW122748   2.460   0.924   3.502
 7283SOL    HW222749   2.535   0.842   3.383
 7284SOL     OW22750   0.052   3.786   5.559
 7284SOL    HW122751   0.115   3.858   5.587
 7284SOL    HW222752   6.998   3.788   5.616
 7285SOL     OW22753   5.621   5.785   2.272
 7285SOL    HW122754   5.575   5.696   2.278
 7285SOL    HW222755   5.557   5.857   2.298
 7286SOL     OW22756   2.643   3.012   1.027
 7286SOL    HW122757   2.668   3.104   0.996
 7286SOL    HW222758   2.609   2.959   0.949
 7287SOL     OW22759   6.379   0.874   6.345
 7287SOL    HW122760   6.360   0.878   6.443
 7287SOL    HW222761   6.455   0.934   6.323
 7288SOL     OW22762   3.990   0.460   6.590
 7288SOL    HW122763   4.043   0.375   6.587
 7288SOL    HW222764   3.902   0.446   6.545
 7289SOL     OW22765   5.487   2.147   2.820
 7289SOL    HW122766   5.508   2.112   2.911
 7289SOL    HW222767   5.555   2.217   2.796
 7290SOL     OW22768   2.311   5.150   4.779
 7290SOL    HW122769   2.373   5.072   4.789
 7290SOL    HW222770   2.231   5.123   4.725
 7291SOL     OW22771   2.623   6.173   1.374
 7291SOL    HW122772   2.643   6.110   1.449
 7291SOL    HW222773   2.525   6.188   1.368
 7292SOL     OW22774   2.692   6.685   3.900
 7292SOL    HW122775   2.785   6.655   3.879
 7292SOL    HW222776   2.670   6.765   3.844
 7293SOL     OW22777   2.072   1.855   5.129
 7293SOL    HW122778   2.116   1.944   5.130
 7293SOL    HW222779   2.138   1.785   5.101
 7294SOL     OW22780   2.871   4.996   0.274
 7294SOL    HW122781   2.931   5.038   0.343
 7294SOL    HW222782   2.911   4.911   0.242
 7295SOL     OW22783   0.106   1.106   0.963
 7295SOL    HW122784   0.181   1.152   0.916
 7295SOL    HW222785   0.032   1.172   0.980
 7296SOL     OW22786   3.352   4.762   0.677
 7296SOL    HW122787   3.320   4.716   0.759
 7296SOL    HW222788   3.423   4.829   0.701
 7297SOL     OW22789   4.918   6.553   0.979
 7297SOL    HW122790   4.959   6.587   0.894
 7297SOL    HW222791   4.822   6.583   0.984
 7298SOL     OW22792   5.898   3.975   4.685
 7298SOL    HW122793   5.816   4.030   4.674
 7298SOL    HW222794   5.883   3.883   4.647
 7299SOL     OW22795   6.419   3.243   0.337
 7299SOL    HW122796   6.501   3.186   0.332
 7299SOL    HW222797   6.399   3.282   0.247
 7300SOL     OW22798   5.189   5.631   0.938
 7300SOL    HW122799   5.237   5.697   0.879
 7300SOL    HW222800   5.090   5.643   0.926
 7301SOL     OW22801   6.934   6.814   6.116
 7301SOL    HW122802   0.003   6.789   6.123
 7301SOL    HW222803   6.907   6.817   6.020
 7302SOL     OW22804   6.705   0.827   0.030
 7302SOL    HW122805   6.671   0.831   6.964
 7302SOL    HW222806   6.668   0.905   0.081
 7303SOL     OW22807   3.243   0.550   7.021
 7303SOL    HW122808   3.147   0.546   0.021
 7303SOL    HW222809   3.257   0.630   6.963
 7304SOL     OW22810   4.177   3.797   5.915
 7304SOL    HW122811   4.191   3.741   5.833
 7304SOL    HW222812   4.259   3.793   5.972
 7305SOL     OW22813   4.839   1.454   0.171
 7305SOL    HW122814   4.822   1.493   0.261
 7305SOL    HW222815   4.937   1.462   0.149
 7306SOL     OW22816   4.983   4.925   1.460
 7306SOL    HW122817   5.023   4.841   1.497
 7306SOL    HW222818   4.980   4.920   1.360
 7307SOL     OW22819   3.628   6.686   1.626
 7307SOL    HW122820   3.718   6.728   1.616
 7307SOL    HW222821   3.606   6.635   1.543
 7308SOL     OW22822   6.712   3.005   4.343
 7308SOL    HW122823   6.672   2.916   4.365
 7308SOL    HW222824   6.647   3.078   4.366
 7309SOL     OW22825   4.876   6.579   0.632
 7309SOL    HW122826   4.911   6.488   0.609
 7309SOL    HW222827   4.938   6.623   0.697
 7310SOL     OW22828   2.659   5.526   1.358
 7310SOL    HW122829   2.744   5.558   1.315
 7310SOL    HW222830   2.654   5.427   1.352
 7311SOL     OW22831   2.766   2.160   1.888
 7311SOL    HW122832   2.823   2.232   1.926
 7311SOL    HW222833   2.691   2.141   1.952
 7312SOL     OW22834   6.913   2.138   5.429
 7312SOL    HW122835   6.922   2.220   5.485
 7312SOL    HW222836   6.821   2.133   5.392
 7313SOL     OW22837   4.149   2.306   6.560
 7313SOL    HW122838   4.086   2.315   6.638
 7313SOL    HW222839   4.138   2.216   6.518
 7314SOL     OW22840   0.019   3.451   5.207
 7314SOL    HW122841   0.074   3.402   5.275
 7314SOL    HW222842   0.052   3.546   5.201
 7315SOL     OW22843   6.820   0.231   3.808
 7315SOL    HW122844   6.887   0.261   3.877
 7315SOL    HW222845   6.796   0.308   3.749
 7316SOL     OW22846   3.818   3.402   5.725
 7316SOL    HW122847   3.747   3.337   5.753
 7316SOL    HW222848   3.860   3.441   5.807
 7317SOL     OW22849   3.296   1.101   3.008
 7317SOL    HW122850   3.206   1.072   3.041
 7317SOL    HW222851   3.323   1.046   2.929
 7318SOL     OW22852   1.370   2.301   1.684
 7318SOL    HW122853   1.417   2.376   1.732
 7318SOL    HW222854   1.411   2.288   1.594
 7319SOL     OW22855   6.220   4.653   6.582
 7319SOL    HW122856   6.255   4.707   6.506
 7319SOL    HW222857   6.221   4.556   6.557
 7320SOL     OW22858   0.422   3.546   2.295
 7320SOL    HW122859   0.370   3.598   2.227
 7320SOL    HW222860   0.360   3.508   2.363
 7321SOL     OW22861   2.218   1.738   4.661
 7321SOL    HW122862   2.219   1.713   4.758
 7321SOL    HW222863   2.126   1.727   4.625
 7322SOL     OW22864   0.815   3.885   3.167
 7322SOL    HW122865   0.736   3.830   3.195
 7322SOL    HW222866   0.858   3.926   3.247
 7323SOL     OW22867   1.795   2.255   3.114
 7323SOL    HW122868   1.860   2.304   3.056
 7323SOL    HW222869   1.834   2.167   3.140
 7324SOL     OW22870   6.155   0.999   3.630
 7324SOL    HW122871   6.057   1.018   3.632
 7324SOL    HW222872   6.202   1.074   3.584
 7325SOL     OW22873   3.585   6.775   6.350
 7325SOL    HW122874   3.521   6.717   6.401
 7325SOL    HW222875   3.534   6.847   6.303
 7326SOL     OW22876   3.049   6.739   5.946
 7326SOL    HW122877   3.094   6.753   5.858
 7326SOL    HW222878   2.950   6.740   5.933
 7327SOL     OW22879   1.645   2.735   6.270
 7327SOL    HW122880   1.669   2.643   6.238
 7327SOL    HW222881   1.569   2.729   6.335
 7328SOL     OW22882   2.873   6.712   6.562
 7328SOL    HW122883   2.939   6.685   6.633
 7328SOL    HW222884   2.791   6.655   6.570
 7329SOL     OW22885   4.339   3.469   0.816
 7329SOL    HW122886   4.372   3.432   0.729
 7329SOL    HW222887   4.372   3.413   0.891
 7330SOL     OW22888   3.369   1.293   6.454
 7330SOL    HW122889   3.309   1.226   6.497
 7330SOL    HW222890   3.446   1.314   6.516
 7331SOL     OW22891   4.707   0.672   2.255
 7331SOL    HW122892   4.723   0.732   2.334
 7331SOL    HW222893   4.758   0.707   2.176
 7332SOL     OW22894   2.941   5.893   0.180
 7332SOL    HW122895   3.005   5.845   0.120
 7332SOL    HW222896   2.848   5.863   0.160
 7333SOL     OW22897   0.999   4.525   2.627
 7333SOL    HW122898   0.928   4.595   2.640
 7333SOL    HW222899   0.994   4.459   2.702
 7334SOL     OW22900   3.780   5.952   5.012
 7334SOL    HW122901   3.684   5.932   5.032
 7334SOL    HW222902   3.832   5.956   5.097
 7335SOL     OW22903   2.022   2.445   2.730
 7335SOL    HW122904   1.943   2.397   2.692
 7335SOL    HW222905   2.034   2.532   2.682
 7336SOL     OW22906   1.882   5.576   4.192
 7336SOL    HW122907   1.907   5.670   4.171
 7336SOL    HW222908   1.828   5.538   4.116
 7337SOL     OW22909   0.211   2.988   2.236
 7337SOL    HW122910   0.193   3.072   2.184
 7337SOL    HW222911   0.124   2.942   2.255
 7338SOL     OW22912   7.021   2.136   1.468
 7338SOL    HW122913   6.984   2.080   1.394
 7338SOL    HW222914   0.037   2.077   1.536
 7339SOL     OW22915   6.735   5.866   4.036
 7339SOL    HW122916   6.659   5.916   3.994
 7339SOL    HW222917   6.724   5.867   4.136
 7340SOL     OW22918   2.406   0.100   0.069
 7340SOL    HW122919   2.422   0.176   0.132
 7340SOL    HW222920   2.313   0.065   0.083
 7341SOL     OW22921   6.065   2.525   7.006
 7341SOL    HW122922   6.117   2.591   0.030
 7341SOL    HW222923   5.973   2.561   6.989
 7342SOL     OW22924   0.051   6.718   2.776
 7342SOL    HW122925   0.026   6.703   2.872
 7342SOL    HW222926   0.081   6.813   2.764
 7343SOL     OW22927   5.534   3.531   0.753
 7343SOL    HW122928   5.532   3.431   0.748
 7343SOL    HW222929   5.562   3.559   0.844
 7344SOL     OW22930   1.343   5.802   6.598
 7344SOL    HW122931   1.295   5.837   6.518
 7344SOL    HW222932   1.376   5.879   6.653
 7345SOL     OW22933   3.827   4.274   5.746
 7345SOL    HW122934   3.897   4.202   5.741
 7345SOL    HW222935   3.777   4.279   5.660
 7346SOL     OW22936   4.057   5.624   2.741
 7346SOL    HW122937   3.958   5.617   2.730
 7346SOL    HW222938   4.088   5.559   2.810
 7347SOL     OW22939   6.217   2.249   6.685
 7347SOL    HW122940   6.306   2.271   6.725
 7347SOL    HW222941   6.199   2.307   6.606
 7348SOL     OW22942   1.382   4.158   2.378
 7348SOL    HW122943   1.460   4.117   2.425
 7348SOL    HW222944   1.321   4.086   2.345
 7349SOL     OW22945   3.856   1.151   0.758
 7349SOL    HW122946   3.822   1.199   0.839
 7349SOL    HW222947   3.795   1.075   0.736
 7350SOL     OW22948   3.075   0.532   5.628
 7350SOL    HW122949   3.167   0.498   5.648
 7350SOL    HW222950   3.038   0.577   5.710
 7351SOL     OW22951   4.220   5.109   4.009
 7351SOL    HW122952   4.235   5.093   3.912
 7351SOL    HW222953   4.129   5.073   4.035
 7352SOL     OW22954   0.323   2.519   3.345
 7352SOL    HW122955   0.240   2.527   3.290
 7352SOL    HW222956   0.396   2.477   3.290
 7353SOL     OW22957   6.374   0.077   6.891
 7353SOL    HW122958   6.369   0.142   6.966
 7353SOL    HW222959   6.343   0.120   6.807
 7354SOL     OW22960   1.529   1.512   2.549
 7354SOL    HW122961   1.582   1.434   2.584
 7354SOL    HW222962   1.492   1.489   2.459
 7355SOL     OW22963   0.463   2.125   6.360
 7355SOL    HW122964   0.522   2.205   6.355
 7355SOL    HW222965   0.518   2.045   6.386
 7356SOL     OW22966   4.171   3.585   6.293
 7356SOL    HW122967   4.232   3.554   6.219
 7356SOL    HW222968   4.077   3.587   6.261
 7357SOL     OW22969   5.332   6.105   2.058
 7357SOL    HW122970   5.299   6.015   2.086
 7357SOL    HW222971   5.427   6.117   2.087
 7358SOL     OW22972   5.994   2.004   3.012
 7358SOL    HW122973   5.947   1.970   3.093
 7358SOL    HW222974   6.024   1.927   2.955
 7359SOL     OW22975   4.637   0.431   6.661
 7359SOL    HW122976   4.620   0.409   6.757
 7359SOL    HW222977   4.607   0.525   6.642
 7360SOL     OW22978   2.691   3.288   5.314
 7360SOL    HW122979   2.631   3.368   5.308
 7360SOL    HW222980   2.645   3.209   5.273
 7361SOL     OW22981   4.901   0.372   2.167
 7361SOL    HW122982   4.896   0.399   2.071
 7361SOL    HW222983   4.809   0.367   2.206
 7362SOL     OW22984   3.639   5.529   6.614
 7362SOL    HW122985   3.628   5.565   6.706
 7362SOL    HW222986   3.643   5.604   6.549
 7363SOL     OW22987   3.865   0.254   1.064
 7363SOL    HW122988   3.780   0.304   1.080
 7363SOL    HW222989   3.847   0.155   1.064
 7364SOL     OW22990   4.945   0.002   1.673
 7364SOL    HW122991   4.995   0.088   1.680
 7364SOL    HW222992   4.992   6.959   1.726
 7365SOL     OW22993   5.770   4.830   2.230
 7365SOL    HW122994   5.848   4.767   2.230
 7365SOL    HW222995   5.686   4.778   2.240
 7366SOL     OW22996   2.402   1.303   4.208
 7366SOL    HW122997   2.372   1.363   4.134
 7366SOL    HW222998   2.493   1.331   4.238
 7367SOL     OW22999   4.418   0.933   6.480
 7367SOL    HW123000   4.360   1.007   6.513
 7367SOL    HW223001   4.492   0.971   6.424
 7368SOL     OW23002   3.986   3.496   3.135
 7368SOL    HW123003   3.935   3.489   3.220
 7368SOL    HW223004   4.012   3.591   3.119
 7369SOL     OW23005   5.756   2.447   0.902
 7369SOL    HW123006   5.656   2.449   0.902
 7369SOL    HW223007   5.790   2.487   0.987
 7370SOL     OW23008   2.398   1.865   4.500
 7370SOL    HW123009   2.363   1.901   4.413
 7370SOL    HW223010   2.329   1.807   4.542
 7371SOL     OW23011   4.084   0.259   3.839
 7371SOL    HW123012   4.175   0.284   3.805
 7371SOL    HW223013   4.018   0.327   3.807
 7372SOL     OW23014   4.649   6.746   4.964
 7372SOL    HW123015   4.613   6.657   4.937
 7372SOL    HW223016   4.735   6.762   4.916
 7373SOL     OW23017   5.263   2.965   4.479
 7373SOL    HW123018   5.332   2.920   4.423
 7373SOL    HW223019   5.182   2.907   4.486
 7374SOL     OW23020   0.412   1.866   5.460
 7374SOL    HW123021   0.356   1.917   5.525
 7374SOL    HW223022   0.451   1.930   5.393
 7375SOL     OW23023   2.041   3.350   2.220
 7375SOL    HW123024   2.000   3.266   2.186
 7375SOL    HW223025   2.116   3.378   2.161
 7376SOL     OW23026   0.390   4.363   0.295
 7376SOL    HW123027   0.466   4.347   0.358
 7376SOL    HW223028   0.327   4.285   0.299
 7377SOL     OW23029   3.375   5.638   0.522
 7377SOL    HW123030   3.317   5.695   0.463
 7377SOL    HW223031   3.387   5.548   0.481
 7378SOL     OW23032   1.450   6.073   4.154
 7378SOL    HW123033   1.474   6.069   4.251
 7378SOL    HW223034   1.383   6.001   4.133
 7379SOL     OW23035   4.414   0.670   0.527
 7379SOL    HW123036   4.404   0.574   0.499
 7379SOL    HW223037   4.443   0.673   0.622
 7380SOL     OW23038   5.648   3.646   2.972
 7380SOL    HW123039   5.723   3.579   2.968
 7380SOL    HW223040   5.683   3.733   3.007
 7381SOL     OW23041   4.014   0.742   0.543
 7381SOL    HW123042   3.946   0.800   0.498
 7381SOL    HW223043   4.106   0.772   0.516
 7382SOL     OW23044   6.676   1.002   6.220
 7382SOL    HW123045   6.681   0.915   6.269
 7382SOL    HW223046   6.669   1.077   6.285
 7383SOL     OW23047   2.188   6.610   1.451
 7383SOL    HW123048   2.161   6.516   1.429
 7383SOL    HW223049   2.163   6.671   1.376
 7384SOL     OW23050   0.338   7.001   1.017
 7384SOL    HW123051   0.300   7.003   1.110
 7384SOL    HW223052   0.287   6.935   0.962
 7385SOL     OW23053   5.268   4.494   2.658
 7385SOL    HW123054   5.268   4.534   2.749
 7385SOL    HW223055   5.189   4.433   2.649
 7386SOL     OW23056   6.321   3.452   0.481
 7386SOL    HW123057   6.367   3.407   0.405
 7386SOL    HW223058   6.374   3.531   0.512
 7387SOL     OW23059   6.529   5.506   5.605
 7387SOL    HW123060   6.560   5.455   5.525
 7387SOL    HW223061   6.521   5.442   5.683
 7388SOL     OW23062   1.837   6.164   2.634
 7388SOL    HW123063   1.810   6.260   2.625
 7388SOL    HW223064   1.804   6.128   2.721
 7389SOL     OW23065   6.081   3.326   0.621
 7389SOL    HW123066   6.024   3.267   0.563
 7389SOL    HW223067   6.159   3.359   0.568
 7390SOL     OW23068   2.432   1.664   2.727
 7390SOL    HW123069   2.426   1.686   2.630
 7390SOL    HW223070   2.393   1.573   2.743
 7391SOL     OW23071   3.736   3.077   3.229
 7391SOL    HW123072   3.836   3.080   3.230
 7391SOL    HW223073   3.700   3.170   3.221
 7392SOL     OW23074   3.368   5.745   6.555
 7392SOL    HW123075   3.331   5.717   6.644
 7392SOL    HW223076   3.398   5.840   6.559
 7393SOL     OW23077   5.723   5.754   4.503
 7393SOL    HW123078   5.774   5.677   4.463
 7393SOL    HW223079   5.665   5.795   4.434
 7394SOL     OW23080   2.424   1.997   5.685
 7394SOL    HW123081   2.429   2.093   5.714
 7394SOL    HW223082   2.501   1.977   5.624
 7395SOL     OW23083   2.824   5.302   1.046
 7395SOL    HW123084   2.858   5.295   1.140
 7395SOL    HW223085   2.826   5.397   1.017
 7396SOL     OW23086   2.325   5.307   2.090
 7396SOL    HW123087   2.419   5.299   2.122
 7396SOL    HW223088   2.280   5.218   2.096
 7397SOL     OW23089   5.470   4.217   3.846
 7397SOL    HW123090   5.550   4.182   3.799
 7397SOL    HW223091   5.488   4.309   3.880
 7398SOL     OW23092   2.180   4.324   2.449
 7398SOL    HW123093   2.175   4.225   2.460
 7398SOL    HW223094   2.192   4.347   2.352
 7399SOL     OW23095   5.214   2.241   4.813
 7399SOL    HW123096   5.209   2.323   4.756
 7399SOL    HW223097   5.211   2.269   4.910
 7400SOL     OW23098   5.384   3.052   5.574
 7400SOL    HW123099   5.346   3.144   5.583
 7400SOL    HW223100   5.309   2.986   5.572
 7401SOL     OW23101   1.401   2.824   3.782
 7401SOL    HW123102   1.389   2.822   3.682
 7401SOL    HW223103   1.333   2.764   3.824
 7402SOL     OW23104   3.224   6.357   5.183
 7402SOL    HW123105   3.238   6.292   5.257
 7402SOL    HW223106   3.204   6.308   5.099
 7403SOL     OW23107   1.308   3.462   4.952
 7403SOL    HW123108   1.244   3.454   5.028
 7403SOL    HW223109   1.371   3.538   4.969
 7404SOL     OW23110   3.246   3.947   0.715
 7404SOL    HW123111   3.189   4.013   0.764
 7404SOL    HW223112   3.210   3.934   0.622
 7405SOL     OW23113   3.171   6.100   4.911
 7405SOL    HW123114   3.248   6.083   4.849
 7405SOL    HW223115   3.138   6.194   4.898
 7406SOL     OW23116   0.994   1.425   4.886
 7406SOL    HW123117   0.949   1.364   4.951
 7406SOL    HW223118   0.947   1.513   4.885
 7407SOL     OW23119   1.196   6.041   5.317
 7407SOL    HW123120   1.134   5.963   5.318
 7407SOL    HW223121   1.181   6.093   5.232
 7408SOL     OW23122   3.616   3.920   5.274
 7408SOL    HW123123   3.539   3.968   5.315
 7408SOL    HW223124   3.582   3.851   5.211
 7409SOL     OW23125   6.320   4.094   0.715
 7409SOL    HW123126   6.406   4.127   0.753
 7409SOL    HW223127   6.334   4.068   0.619
 7410SOL     OW23128   6.994   0.245   1.175
 7410SOL    HW123129   6.900   0.216   1.161
 7410SOL    HW223130   6.995   0.332   1.225
 7411SOL     OW23131   1.357   2.360   4.757
 7411SOL    HW123132   1.454   2.382   4.758
 7411SOL    HW223133   1.327   2.346   4.663
 7412SOL     OW23134   4.391   6.459   6.859
 7412SOL    HW123135   4.321   6.521   6.823
 7412SOL    HW223136   4.482   6.492   6.832
 7413SOL     OW23137   4.127   6.737   2.863
 7413SOL    HW123138   4.102   6.735   2.960
 7413SOL    HW223139   4.077   6.665   2.815
 7414SOL     OW23140   2.580   2.106   3.932
 7414SOL    HW123141   2.584   2.085   4.030
 7414SOL    HW223142   2.506   2.170   3.914
 7415SOL     OW23143   3.882   6.324   6.337
 7415SOL    HW123144   3.789   6.328   6.375
 7415SOL    HW223145   3.903   6.411   6.292
 7416SOL     OW23146   1.182   1.501   2.062
 7416SOL    HW123147   1.125   1.436   2.112
 7416SOL    HW223148   1.126   1.553   1.999
 7417SOL     OW23149   0.544   1.475   3.357
 7417SOL    HW123150   0.639   1.499   3.334
 7417SOL    HW223151   0.543   1.392   3.412
 7418SOL     OW23152   1.875   4.182   6.124
 7418SOL    HW123153   1.822   4.215   6.202
 7418SOL    HW223154   1.813   4.143   6.056
 7419SOL     OW23155   6.993   3.653   4.092
 7419SOL    HW123156   0.028   3.574   4.089
 7419SOL    HW223157   6.961   3.667   4.185
 7420SOL     OW23158   6.389   0.022   1.434
 7420SOL    HW123159   6.363   6.961   1.396
 7420SOL    HW223160   6.489   0.031   1.433
 7421SOL     OW23161   4.893   4.288   1.492
 7421SOL    HW123162   4.935   4.304   1.402
 7421SOL    HW223163   4.823   4.357   1.509
 7422SOL     OW23164   5.611   2.630   2.271
 7422SOL    HW123165   5.686   2.582   2.226
 7422SOL    HW223166   5.550   2.564   2.313
 7423SOL     OW23167   5.956   2.126   6.199
 7423SOL    HW123168   6.021   2.050   6.200
 7423SOL    HW223169   5.932   2.147   6.104
 7424SOL     OW23170   0.848   1.830   3.716
 7424SOL    HW123171   0.784   1.757   3.693
 7424SOL    HW223172   0.809   1.918   3.688
 7425SOL     OW23173   5.915   0.864   0.028
 7425SOL    HW123174   5.978   0.896   6.986
 7425SOL    HW223175   5.950   0.890   0.118
 7426SOL     OW23176   3.593   2.959   5.752
 7426SOL    HW123177   3.594   2.892   5.678
 7426SOL    HW223178   3.527   2.931   5.821
 7427SOL     OW23179   3.368   1.386   3.886
 7427SOL    HW123180   3.306   1.409   3.811
 7427SOL    HW223181   3.449   1.340   3.850
 7428SOL     OW23182   4.166   5.954   5.261
 7428SOL    HW123183   4.067   5.968   5.263
 7428SOL    HW223184   4.191   5.881   5.324
 7429SOL     OW23185   1.545   6.731   2.761
 7429SOL    HW123186   1.620   6.744   2.696
 7429SOL    HW223187   1.466   6.784   2.731
 7430SOL     OW23188   6.787   5.442   2.481
 7430SOL    HW123189   6.694   5.410   2.463
 7430SOL    HW223190   6.801   5.452   2.579
 7431SOL     OW23191   1.666   1.638   4.225
 7431SOL    HW123192   1.568   1.658   4.228
 7431SOL    HW223193   1.717   1.724   4.226
 7432SOL     OW23194   1.642   0.020   3.180
 7432SOL    HW123195   1.624   7.001   3.267
 7432SOL    HW223196   1.698   6.990   3.121
 7433SOL     OW23197   2.695   0.369   0.247
 7433SOL    HW123198   2.725   0.274   0.239
 7433SOL    HW223199   2.623   0.387   0.180
 7434SOL     OW23200   3.915   6.050   5.569
 7434SOL    HW123201   3.963   6.067   5.483
 7434SOL    HW223202   3.852   5.973   5.558
 7435SOL     OW23203   4.838   5.254   3.130
 7435SOL    HW123204   4.799   5.236   3.221
 7435SOL    HW223205   4.866   5.168   3.088
 7436SOL     OW23206   5.350   2.968   6.408
 7436SOL    HW123207   5.282   3.013   6.349
 7436SOL    HW223208   5.394   2.894   6.357
 7437SOL     OW23209   3.900   6.258   0.947
 7437SOL    HW123210   3.925   6.239   0.852
 7437SOL    HW223211   3.801   6.268   0.954
 7438SOL     OW23212   2.178   0.630   0.445
 7438SOL    HW123213   2.260   0.687   0.443
 7438SOL    HW223214   2.122   0.649   0.364
 7439SOL     OW23215   1.121   4.574   5.902
 7439SOL    HW123216   1.130   4.496   5.963
 7439SOL    HW223217   1.027   4.578   5.868
 7440SOL     OW23218   5.199   3.409   4.702
 7440SOL    HW123219   5.153   3.352   4.634
 7440SOL    HW223220   5.172   3.379   4.793
 7441SOL     OW23221   5.885   5.981   1.670
 7441SOL    HW123222   5.899   5.997   1.572
 7441SOL    HW223223   5.974   5.968   1.714
 7442SOL     OW23224   5.122   0.938   5.277
 7442SOL    HW123225   5.098   0.847   5.244
 7442SOL    HW223226   5.049   0.971   5.338
 7443SOL     OW23227   6.939   0.390   2.062
 7443SOL    HW123228   6.878   0.456   2.017
 7443SOL    HW223229   6.964   0.319   1.997
 7444SOL     OW23230   1.273   6.212   6.736
 7444SOL    HW123231   1.259   6.279   6.808
 7444SOL    HW223232   1.292   6.259   6.650
 7445SOL     OW23233   3.996   6.257   1.201
 7445SOL    HW123234   3.953   6.259   1.110
 7445SOL    HW223235   3.944   6.317   1.263
 7446SOL     OW23236   5.322   3.692   0.400
 7446SOL    HW123237   5.280   3.670   0.488
 7446SOL    HW223238   5.400   3.632   0.384
 7447SOL     OW23239   0.749   4.824   1.300
 7447SOL    HW123240   0.728   4.732   1.268
 7447SOL    HW223241   0.829   4.821   1.360
 7448SOL     OW23242   4.265   4.795   6.590
 7448SOL    HW123243   4.210   4.841   6.521
 7448SOL    HW223244   4.240   4.829   6.681
 7449SOL     OW23245   0.782   4.250   6.326
 7449SOL    HW123246   0.775   4.151   6.315
 7449SOL    HW223247   0.745   4.295   6.246
 7450SOL     OW23248   5.241   1.986   5.148
 7450SOL    HW123249   5.337   2.006   5.125
 7450SOL    HW223250   5.190   2.071   5.155
 7451SOL     OW23251   5.575   5.230   3.293
 7451SOL    HW123252   5.500   5.163   3.297
 7451SOL    HW223253   5.608   5.237   3.199
 7452SOL     OW23254   6.390   5.266   5.360
 7452SOL    HW123255   6.330   5.345   5.372
 7452SOL    HW223256   6.413   5.256   5.263
 7453SOL     OW23257   3.669   5.791   6.757
 7453SOL    HW123258   3.758   5.759   6.790
 7453SOL    HW223259   3.600   5.775   6.828
 7454SOL     OW23260   3.632   2.428   0.613
 7454SOL    HW123261   3.638   2.339   0.658
 7454SOL    HW223262   3.553   2.478   0.647
 7455SOL     OW23263   6.647   2.923   3.610
 7455SOL    HW123264   6.554   2.910   3.577
 7455SOL    HW223265   6.711   2.892   3.539
 7456SOL     OW23266   3.418   1.912   5.595
 7456SOL    HW123267   3.486   1.883   5.527
 7456SOL    HW223268   3.347   1.965   5.550
 7457SOL     OW23269   2.686   0.209   3.034
 7457SOL    HW123270   2.702   0.164   2.946
 7457SOL    HW223271   2.592   0.192   3.064
 7458SOL     OW23272   1.094   5.348   5.002
 7458SOL    HW123273   1.150   5.302   5.071
 7458SOL    HW223274   0.998   5.347   5.031
 7459SOL     OW23275   5.801   0.615   2.777
 7459SOL    HW123276   5.748   0.556   2.838
 7459SOL    HW223277   5.846   0.686   2.831
 7460SOL     OW23278   1.621   6.427   0.958
 7460SOL    HW123279   1.568   6.464   0.881
 7460SOL    HW223280   1.718   6.448   0.945
 7461SOL     OW23281   1.343   5.016   6.033
 7461SOL    HW123282   1.396   4.934   6.014
 7461SOL    HW223283   1.277   5.031   5.959
 7462SOL     OW23284   1.124   4.961   0.642
 7462SOL    HW123285   1.118   4.915   0.731
 7462SOL    HW223286   1.217   4.995   0.629
 7463SOL     OW23287   3.340   4.862   1.079
 7463SOL    HW123288   3.436   4.855   1.052
 7463SOL    HW223289   3.287   4.792   1.030
 7464SOL     OW23290   6.401   5.947   5.488
 7464SOL    HW123291   6.389   5.967   5.585
 7464SOL    HW223292   6.324   5.987   5.437
 7465SOL     OW23293   1.630   5.035   0.432
 7465SOL    HW123294   1.636   5.072   0.339
 7465SOL    HW223295   1.534   5.034   0.461
 7466SOL     OW23296   0.478   6.664   4.962
 7466SOL    HW123297   0.384   6.648   4.930
 7466SOL    HW223298   0.524   6.725   4.898
 7467SOL     OW23299   0.117   2.710   5.967
 7467SOL    HW123300   0.116   2.743   6.061
 7467SOL    HW223301   0.190   2.757   5.916
 7468SOL     OW23302   6.213   3.888   5.795
 7468SOL    HW123303   6.203   3.830   5.714
 7468SOL    HW223304   6.150   3.965   5.789
 7469SOL     OW23305   6.265   2.266   1.283
 7469SOL    HW123306   6.268   2.359   1.247
 7469SOL    HW223307   6.344   2.251   1.343
 7470SOL     OW23308   5.181   2.901   4.065
 7470SOL    HW123309   5.147   2.921   3.973
 7470SOL    HW223310   5.104   2.876   4.124
 7471SOL     OW23311   5.233   6.097   5.514
 7471SOL    HW123312   5.182   6.023   5.470
 7471SOL    HW223313   5.169   6.169   5.542
 7472SOL     OW23314   6.193   6.047   5.326
 7472SOL    HW123315   6.186   6.146   5.338
 7472SOL    HW223316   6.109   6.003   5.358
 7473SOL     OW23317   4.020   5.995   3.744
 7473SOL    HW123318   4.092   6.030   3.803
 7473SOL    HW223319   4.059   5.964   3.658
 7474SOL     OW23320   6.672   1.976   5.360
 7474SOL    HW123321   6.628   2.032   5.430
 7474SOL    HW223322   6.602   1.925   5.310
 7475SOL     OW23323   4.959   2.750   0.755
 7475SOL    HW123324   4.873   2.760   0.704
 7475SOL    HW223325   4.942   2.769   0.852
 7476SOL     OW23326   1.447   0.749   2.932
 7476SOL    HW123327   1.546   0.733   2.939
 7476SOL    HW223328   1.401   0.664   2.905
 7477SOL     OW23329   0.494   4.540   4.933
 7477SOL    HW123330   0.482   4.446   4.902
 7477SOL    HW223331   0.474   4.603   4.858
 7478SOL     OW23332   0.849   1.487   6.055
 7478SOL    HW123333   0.940   1.475   6.015
 7478SOL    HW223334   0.792   1.542   5.993
 7479SOL     OW23335   6.096   3.295   0.177
 7479SOL    HW123336   6.063   3.240   0.253
 7479SOL    HW223337   6.158   3.241   0.121
 7480SOL     OW23338   3.948   4.774   2.761
 7480SOL    HW123339   3.859   4.747   2.724
 7480SOL    HW223340   4.021   4.727   2.712
 7481SOL     OW23341   0.245   3.974   6.359
 7481SOL    HW123342   0.331   3.933   6.389
 7481SOL    HW223343   0.244   3.979   6.259
 7482SOL     OW23344   3.881   1.874   2.702
 7482SOL    HW123345   3.977   1.886   2.730
 7482SOL    HW223346   3.831   1.959   2.718
 7483SOL     OW23347   5.038   2.198   5.998
 7483SOL    HW123348   4.955   2.176   6.047
 7483SOL    HW223349   5.079   2.115   5.961
 7484SOL     OW23350   3.190   6.799   4.112
 7484SOL    HW123351   3.093   6.809   4.133
 7484SOL    HW223352   3.243   6.799   4.196
 7485SOL     OW23353   2.965   0.113   4.984
 7485SOL    HW123354   2.909   0.124   5.066
 7485SOL    HW223355   2.917   0.055   4.918
 7486SOL     OW23356   2.563   6.480   1.145
 7486SOL    HW123357   2.468   6.450   1.150
 7486SOL    HW223358   2.616   6.438   1.218
 7487SOL     OW23359   4.468   6.583   4.034
 7487SOL    HW123360   4.514   6.658   3.986
 7487SOL    HW223361   4.369   6.593   4.024
 7488SOL     OW23362   1.148   5.062   3.860
 7488SOL    HW123363   1.137   5.154   3.898
 7488SOL    HW223364   1.190   5.068   3.770
 7489SOL     OW23365   6.061   3.322   6.440
 7489SOL    HW123366   6.101   3.342   6.529
 7489SOL    HW223367   6.044   3.223   6.433
 7490SOL     OW23368   1.253   2.394   1.975
 7490SOL    HW123369   1.318   2.454   1.928
 7490SOL    HW223370   1.301   2.340   2.043
 7491SOL     OW23371   4.226   2.999   0.275
 7491SOL    HW123372   4.138   3.003   0.321
 7491SOL    HW223373   4.214   2.963   0.182
 7492SOL     OW23374   1.537   0.591   4.152
 7492SOL    HW123375   1.583   0.597   4.241
 7492SOL    HW223376   1.451   0.642   4.155
 7493SOL     OW23377   6.758   4.203   5.097
 7493SOL    HW123378   6.737   4.206   4.999
 7493SOL    HW223379   6.805   4.118   5.118
 7494SOL     OW23380   6.002   0.674   2.572
 7494SOL    HW123381   5.996   0.773   2.590
 7494SOL    HW223382   5.944   0.625   2.637
 7495SOL     OW23383   1.405   3.738   5.515
 7495SOL    HW123384   1.472   3.679   5.562
 7495SOL    HW223385   1.435   3.833   5.520
 7496SOL     OW23386   5.911   4.387   2.567
 7496SOL    HW123387   5.990   4.444   2.545
 7496SOL    HW223388   5.835   4.410   2.506
 7497SOL     OW23389   0.334   6.836   0.284
 7497SOL    HW123390   0.390   6.763   0.323
 7497SOL    HW223391   0.257   6.797   0.234
 7498SOL     OW23392   3.150   0.127   2.814
 7498SOL    HW123393   3.100   0.171   2.739
 7498SOL    HW223394   3.143   0.184   2.896
 7499SOL     OW23395   4.100   1.907   3.693
 7499SOL    HW123396   4.145   1.946   3.612
 7499SOL    HW223397   4.001   1.909   3.679
 7500SOL     OW23398   3.799   6.933   2.697
 7500SOL    HW123399   3.825   6.901   2.788
 7500SOL    HW223400   3.714   6.985   2.703
 7501SOL     OW23401   5.780   2.352   4.968
 7501SOL    HW123402   5.847   2.358   4.894
 7501SOL    HW223403   5.770   2.257   4.997
 7502SOL     OW23404   4.170   0.679   4.664
 7502SOL    HW123405   4.258   0.661   4.621
 7502SOL    HW223406   4.166   0.775   4.693
 7503SOL     OW23407   1.888   6.468   1.541
 7503SOL    HW123408   1.816   6.460   1.472
 7503SOL    HW223409   1.876   6.553   1.592
 7504SOL     OW23410   6.390   6.618   3.739
 7504SOL    HW123411   6.472   6.674   3.738
 7504SOL    HW223412   6.344   6.627   3.828
 7505SOL     OW23413   1.084   6.732   5.427
 7505SOL    HW123414   1.032   6.813   5.454
 7505SOL    HW223415   1.050   6.652   5.476
 7506SOL     OW23416   2.665   1.707   2.874
 7506SOL    HW123417   2.586   1.702   2.813
 7506SOL    HW223418   2.731   1.635   2.850
 7507SOL     OW23419   6.353   4.279   5.025
 7507SOL    HW123420   6.416   4.354   5.046
 7507SOL    HW223421   6.402   4.192   5.033
 7508SOL     OW23422   1.968   5.837   6.761
 7508SOL    HW123423   2.051   5.882   6.728
 7508SOL    HW223424   1.889   5.870   6.710
 7509SOL     OW23425   5.617   4.018   0.348
 7509SOL    HW123426   5.665   4.028   0.435
 7509SOL    HW223427   5.652   4.086   0.283
 7510SOL     OW23428   3.761   3.665   3.796
 7510SOL    HW123429   3.760   3.655   3.696
 7510SOL    HW223430   3.770   3.762   3.819
 7511SOL     OW23431   3.756   6.174   3.291
 7511SOL    HW123432   3.821   6.218   3.352
 7511SOL    HW223433   3.759   6.217   3.201
 7512SOL     OW23434   3.721   0.184   6.204
 7512SOL    HW123435   3.776   0.163   6.124
 7512SOL    HW223436   3.771   0.159   6.287
 7513SOL     OW23437   0.928   2.179   2.125
 7513SOL    HW123438   0.830   2.158   2.123
 7513SOL    HW223439   0.969   2.155   2.037
 7514SOL     OW23440   1.506   4.321   1.911
 7514SOL    HW123441   1.474   4.340   1.818
 7514SOL    HW223442   1.514   4.222   1.925
 7515SOL     OW23443   0.235   4.723   4.347
 7515SOL    HW123444   0.245   4.752   4.252
 7515SOL    HW223445   0.251   4.625   4.354
 7516SOL     OW23446   1.484   6.398   4.989
 7516SOL    HW123447   1.504   6.349   5.075
 7516SOL    HW223448   1.405   6.458   5.002
 7517SOL     OW23449   0.697   1.610   6.892
 7517SOL    HW123450   0.712   1.635   6.988
 7517SOL    HW223451   0.611   1.649   6.860
 7518SOL     OW23452   4.747   2.732   3.332
 7518SOL    HW123453   4.836   2.707   3.367
 7518SOL    HW223454   4.740   2.832   3.327
 7519SOL     OW23455   3.950   6.212   4.357
 7519SOL    HW123456   3.870   6.208   4.297
 7519SOL    HW223457   3.920   6.222   4.452
 7520SOL     OW23458   1.521   2.368   0.663
 7520SOL    HW123459   1.568   2.302   0.604
 7520SOL    HW223460   1.508   2.328   0.754
 7521SOL     OW23461   3.901   1.574   5.187
 7521SOL    HW123462   3.948   1.550   5.272
 7521SOL    HW223463   3.836   1.502   5.163
 7522SOL     OW23464   1.919   0.157   3.284
 7522SOL    HW123465   1.996   0.191   3.337
 7522SOL    HW223466   1.837   0.157   3.341
 7523SOL     OW23467   5.530   0.730   6.553
 7523SOL    HW123468   5.469   0.778   6.615
 7523SOL    HW223469   5.591   0.796   6.508
 7524SOL     OW23470   0.181   3.307   4.913
 7524SOL    HW123471   0.103   3.247   4.891
 7524SOL    HW223472   0.235   3.265   4.986
 7525SOL     OW23473   4.621   5.967   6.638
 7525SOL    HW123474   4.577   5.977   6.549
 7525SOL    HW223475   4.586   5.885   6.683
 7526SOL     OW23476   2.471   3.399   1.622
 7526SOL    HW123477   2.439   3.444   1.706
 7526SOL    HW223478   2.436   3.447   1.542
 7527SOL     OW23479   4.318   4.955   3.764
 7527SOL    HW123480   4.375   4.893   3.818
 7527SOL    HW223481   4.245   4.902   3.720
 7528SOL     OW23482   6.475   3.241   6.643
 7528SOL    HW123483   6.478   3.212   6.739
 7528SOL    HW223484   6.485   3.341   6.638
 7529SOL     OW23485   6.712   2.833   4.634
 7529SOL    HW123486   6.728   2.793   4.544
 7529SOL    HW223487   6.753   2.774   4.704
 7530SOL     OW23488   6.752   1.938   1.708
 7530SOL    HW123489   6.748   1.945   1.608
 7530SOL    HW223490   6.672   1.888   1.742
 7531SOL     OW23491   4.355   2.060   3.664
 7531SOL    HW123492   4.355   2.094   3.570
 7531SOL    HW223493   4.317   2.130   3.724
 7532SOL     OW23494   4.558   5.562   6.238
 7532SOL    HW123495   4.498   5.490   6.205
 7532SOL    HW223496   4.601   5.533   6.324
 7533SOL     OW23497   4.704   3.867   1.566
 7533SOL    HW123498   4.693   3.947   1.624
 7533SOL    HW223499   4.798   3.832   1.575
 7534SOL     OW23500   4.501   7.001   4.593
 7534SOL    HW123501   4.571   6.932   4.609
 7534SOL    HW223502   4.435   7.001   4.668
 7535SOL     OW23503   0.357   5.765   3.612
 7535SOL    HW123504   0.389   5.763   3.707
 7535SOL    HW223505   0.352   5.859   3.580
 7536SOL     OW23506   4.608   6.130   4.915
 7536SOL    HW123507   4.602   6.031   4.902
 7536SOL    HW223508   4.621   6.176   4.827
 7537SOL     OW23509   3.270   6.462   3.343
 7537SOL    HW123510   3.286   6.544   3.397
 7537SOL    HW223511   3.357   6.429   3.306
 7538SOL     OW23512   0.606   4.284   0.465
 7538SOL    HW123513   0.690   4.256   0.418
 7538SOL    HW223514   0.617   4.274   0.563
 7539SOL     OW23515   0.555   6.648   3.979
 7539SOL    HW123516   0.592   6.575   3.922
 7539SOL    HW223517   0.455   6.646   3.976
 7540SOL     OW23518   6.281   5.235   2.985
 7540SOL    HW123519   6.305   5.316   3.039
 7540SOL    HW223520   6.220   5.261   2.911
 7541SOL     OW23521   1.680   4.073   6.750
 7541SOL    HW123522   1.629   4.090   6.666
 7541SOL    HW223523   1.668   4.149   6.813
 7542SOL     OW23524   5.728   5.693   5.282
 7542SOL    HW123525   5.670   5.656   5.355
 7542SOL    HW223526   5.761   5.618   5.225
 7543SOL     OW23527   2.383   0.976   6.548
 7543SOL    HW123528   2.407   1.012   6.638
 7543SOL    HW223529   2.378   1.051   6.482
 7544SOL     OW23530   6.789   2.595   4.211
 7544SOL    HW123531   6.828   2.516   4.163
 7544SOL    HW223532   6.857   2.632   4.274
 7545SOL     OW23533   1.021   5.100   6.770
 7545SOL    HW123534   1.020   5.066   6.864
 7545SOL    HW223535   0.955   5.050   6.715
 7546SOL     OW23536   2.937   2.865   1.757
 7546SOL    HW123537   2.968   2.919   1.835
 7546SOL    HW223538   3.003   2.793   1.738
 7547SOL     OW23539   4.684   0.417   1.970
 7547SOL    HW123540   4.603   0.463   2.004
 7547SOL    HW223541   4.666   0.319   1.961
 7548SOL     OW23542   4.108   2.033   6.431
 7548SOL    HW123543   4.119   2.047   6.333
 7548SOL    HW223544   4.091   1.936   6.449
 7549SOL     OW23545   5.024   2.359   4.339
 7549SOL    HW123546   4.976   2.337   4.424
 7549SOL    HW223547   5.115   2.396   4.361
 7550SOL     OW23548   2.540   4.662   4.759
 7550SOL    HW123549   2.534   4.636   4.855
 7550SOL    HW223550   2.450   4.654   4.716
 7551SOL     OW23551   5.881   2.495   5.823
 7551SOL    HW123552   5.903   2.592   5.827
 7551SOL    HW223553   5.902   2.452   5.910
 7552SOL     OW23554   2.472   6.032   5.243
 7552SOL    HW123555   2.532   6.001   5.169
 7552SOL    HW223556   2.387   6.067   5.205
 7553SOL     OW23557   5.614   6.412   5.921
 7553SOL    HW123558   5.526   6.458   5.932
 7553SOL    HW223559   5.603   6.314   5.939
 7554SOL     OW23560   5.122   0.751   1.094
 7554SOL    HW123561   5.071   0.834   1.073
 7554SOL    HW223562   5.058   0.679   1.122
 7555SOL     OW23563   3.426   5.071   5.405
 7555SOL    HW123564   3.368   5.118   5.339
 7555SOL    HW223565   3.471   4.993   5.360
 7556SOL     OW23566   0.174   6.855   0.880
 7556SOL    HW123567   0.085   6.877   0.921
 7556SOL    HW223568   0.195   6.759   0.896
 7557SOL     OW23569   4.888   6.915   0.177
 7557SOL    HW123570   4.962   6.848   0.167
 7557SOL    HW223571   4.845   6.904   0.267
 7558SOL     OW23572   1.374   2.119   4.335
 7558SOL    HW123573   1.295   2.062   4.310
 7558SOL    HW223574   1.424   2.076   4.410
 7559SOL     OW23575   3.344   1.642   4.752
 7559SOL    HW123576   3.431   1.691   4.757
 7559SOL    HW223577   3.335   1.582   4.832
 7560SOL     OW23578   0.899   0.872   5.992
 7560SOL    HW123579   0.930   0.866   5.897
 7560SOL    HW223580   0.808   0.912   5.995
 7561SOL     OW23581   5.465   2.165   4.948
 7561SOL    HW123582   5.386   2.219   4.978
 7561SOL    HW223583   5.491   2.193   4.856
 7562SOL     OW23584   1.329   4.259   4.013
 7562SOL    HW123585   1.353   4.256   3.917
 7562SOL    HW223586   1.232   4.282   4.023
 7563SOL     OW23587   3.129   5.529   2.396
 7563SOL    HW123588   3.165   5.507   2.487
 7563SOL    HW223589   3.043   5.481   2.382
 7564SOL     OW23590   4.152   1.956   5.045
 7564SOL    HW123591   4.113   1.880   5.096
 7564SOL    HW223592   4.196   1.922   4.962
 7565SOL     OW23593   5.745   4.206   6.326
 7565SOL    HW123594   5.805   4.148   6.270
 7565SOL    HW223595   5.656   4.162   6.336
 7566SOL     OW23596   4.557   4.366   1.194
 7566SOL    HW123597   4.631   4.299   1.196
 7566SOL    HW223598   4.476   4.325   1.154
 7567SOL     OW23599   1.870   0.830   4.761
 7567SOL    HW123600   1.877   0.752   4.824
 7567SOL    HW223601   1.949   0.830   4.701
 7568SOL     OW23602   6.020   5.157   1.643
 7568SOL    HW123603   6.039   5.216   1.722
 7568SOL    HW223604   5.951   5.200   1.585
 7569SOL     OW23605   4.664   4.054   0.074
 7569SOL    HW123606   4.656   4.081   0.170
 7569SOL    HW223607   4.658   4.134   0.015
 7570SOL     OW23608   6.811   2.717   2.994
 7570SOL    HW123609   6.826   2.731   2.896
 7570SOL    HW223610   6.738   2.778   3.026
 7571SOL     OW23611   4.686   2.403   3.011
 7571SOL    HW123612   4.775   2.403   2.965
 7571SOL    HW223613   4.669   2.493   3.052
 7572SOL     OW23614   4.214   6.455   2.189
 7572SOL    HW123615   4.153   6.450   2.110
 7572SOL    HW223616   4.227   6.551   2.216
 7573SOL     OW23617   5.098   6.612   5.224
 7573SOL    HW123618   5.195   6.623   5.247
 7573SOL    HW223619   5.067   6.522   5.256
 7574SOL     OW23620   0.391   1.331   3.679
 7574SOL    HW123621   0.394   1.430   3.665
 7574SOL    HW223622   0.362   1.312   3.773
 7575SOL     OW23623   0.074   6.975   2.855
 7575SOL    HW123624   0.072   0.047   2.847
 7575SOL    HW223625   0.056   6.949   2.949
 7576SOL     OW23626   5.552   3.270   0.764
 7576SOL    HW123627   5.645   3.266   0.800
 7576SOL    HW223628   5.489   3.233   0.831
 7577SOL     OW23629   1.367   6.748   0.812
 7577SOL    HW123630   1.270   6.749   0.837
 7577SOL    HW223631   1.402   6.841   0.812
 7578SOL     OW23632   6.878   5.535   3.416
 7578SOL    HW123633   6.969   5.528   3.376
 7578SOL    HW223634   6.885   5.550   3.514
 7579SOL     OW23635   0.043   1.372   0.315
 7579SOL    HW123636   0.131   1.419   0.311
 7579SOL    HW223637   0.054   1.284   0.360
 7580SOL     OW23638   2.311   4.864   3.545
 7580SOL    HW123639   2.342   4.787   3.601
 7580SOL    HW223640   2.215   4.882   3.564
 7581SOL     OW23641   6.706   1.015   2.756
 7581SOL    HW123642   6.668   1.001   2.664
 7581SOL    HW223643   6.676   0.941   2.816
 7582SOL     OW23644   3.213   1.484   5.175
 7582SOL    HW123645   3.121   1.511   5.147
 7582SOL    HW223646   3.223   1.385   5.166
 7583SOL     OW23647   5.134   2.940   2.549
 7583SOL    HW123648   5.141   2.922   2.451
 7583SOL    HW223649   5.207   3.001   2.578
 7584SOL     OW23650   0.266   1.020   3.174
 7584SOL    HW123651   0.182   0.974   3.203
 7584SOL    HW223652   0.261   1.038   3.076
 7585SOL     OW23653   1.371   1.427   0.000
 7585SOL    HW123654   1.367   1.330   0.027
 7585SOL    HW223655   1.464   1.451   7.002
 7586SOL     OW23656   1.277   1.597   2.665
 7586SOL    HW123657   1.233   1.523   2.716
 7586SOL    HW223658   1.375   1.577   2.656
 7587SOL     OW23659   3.642   0.739   0.925
 7587SOL    HW123660   3.572   0.677   0.962
 7587SOL    HW223661   3.649   0.819   0.984
 7588SOL     OW23662   1.916   2.299   4.277
 7588SOL    HW123663   2.002   2.308   4.326
 7588SOL    HW223664   1.862   2.383   4.287
 7589SOL     OW23665   0.781   0.972   2.924
 7589SOL    HW123666   0.794   0.877   2.896
 7589SOL    HW223667   0.843   1.031   2.871
 7590SOL     OW23668   0.319   1.550   6.986
 7590SOL    HW123669   0.369   1.623   6.939
 7590SOL    HW223670   0.224   1.577   6.998
 7591SOL     OW23671   4.195   3.150   5.290
 7591SOL    HW123672   4.216   3.225   5.351
 7591SOL    HW223673   4.147   3.184   5.209
 7592SOL     OW23674   0.253   6.384   5.185
 7592SOL    HW123675   0.209   6.463   5.228
 7592SOL    HW223676   0.208   6.365   5.097
 7593SOL     OW23677   1.189   1.398   6.211
 7593SOL    HW123678   1.223   1.330   6.275
 7593SOL    HW223679   1.095   1.424   6.236
 7594SOL     OW23680   0.205   4.664   0.036
 7594SOL    HW123681   0.117   4.617   0.040
 7594SOL    HW223682   0.256   4.645   0.120
 7595SOL     OW23683   0.214   3.067   6.304
 7595SOL    HW123684   0.174   2.977   6.289
 7595SOL    HW223685   0.219   3.086   6.402
 7596SOL     OW23686   3.120   0.961   5.457
 7596SOL    HW123687   3.133   1.010   5.542
 7596SOL    HW223688   3.023   0.963   5.431
 7597SOL     OW23689   1.427   4.744   2.336
 7597SOL    HW123690   1.435   4.761   2.237
 7597SOL    HW223691   1.506   4.785   2.383
 7598SOL     OW23692   6.448   1.379   3.418
 7598SOL    HW123693   6.437   1.476   3.397
 7598SOL    HW223694   6.541   1.362   3.451
 7599SOL     OW23695   4.036   3.504   0.608
 7599SOL    HW123696   4.023   3.462   0.697
 7599SOL    HW223697   4.057   3.601   0.619
 7600SOL     OW23698   1.802   6.959   4.495
 7600SOL    HW123699   1.861   6.975   4.574
 7600SOL    HW223700   1.858   6.932   4.417
 7601SOL     OW23701   3.465   6.240   2.655
 7601SOL    HW123702   3.448   6.314   2.591
 7601SOL    HW223703   3.446   6.271   2.748
 7602SOL     OW23704   6.944   1.492   0.534
 7602SOL    HW123705   6.979   1.425   0.468
 7602SOL    HW223706   6.844   1.486   0.537
 7603SOL     OW23707   3.182   0.343   5.343
 7603SOL    HW123708   3.157   0.428   5.298
 7603SOL    HW223709   3.246   0.361   5.418
 7604SOL     OW23710   0.524   2.367   4.616
 7604SOL    HW123711   0.614   2.325   4.613
 7604SOL    HW223712   0.463   2.320   4.552
 7605SOL     OW23713   2.040   6.366   0.117
 7605SOL    HW123714   1.980   6.301   0.070
 7605SOL    HW223715   2.087   6.423   0.050
 7606SOL     OW23716   6.381   1.718   3.555
 7606SOL    HW123717   6.464   1.670   3.528
 7606SOL    HW223718   6.386   1.813   3.525
 7607SOL     OW23719   2.549   5.875   5.862
 7607SOL    HW123720   2.547   5.862   5.962
 7607SOL    HW223721   2.465   5.837   5.823
 7608SOL     OW23722   6.215   2.603   6.225
 7608SOL    HW123723   6.308   2.571   6.206
 7608SOL    HW223724   6.211   2.639   6.319
 7609SOL     OW23725   0.661   2.134   4.702
 7609SOL    HW123726   0.614   2.100   4.621
 7609SOL    HW223727   0.594   2.160   4.771
 7610SOL     OW23728   3.769   5.177   5.175
 7610SOL    HW123729   3.859   5.207   5.143
 7610SOL    HW223730   3.763   5.077   5.169
 7611SOL     OW23731   4.985   3.478   1.171
 7611SOL    HW123732   4.952   3.415   1.241
 7611SOL    HW223733   4.930   3.468   1.088
 7612SOL     OW23734   2.973   1.405   3.105
 7612SOL    HW123735   3.064   1.384   3.070
 7612SOL    HW223736   2.968   1.502   3.130
 7613SOL     OW23737   0.319   1.136   2.398
 7613SOL    HW123738   0.343   1.231   2.417
 7613SOL    HW223739   0.251   1.133   2.325
 7614SOL     OW23740   5.149   4.101   0.770
 7614SOL    HW123741   5.249   4.098   0.771
 7614SOL    HW223742   5.113   4.009   0.760
 7615SOL     OW23743   5.712   3.697   4.972
 7615SOL    HW123744   5.623   3.726   5.008
 7615SOL    HW223745   5.701   3.662   4.879
 7616SOL     OW23746   6.064   0.127   3.523
 7616SOL    HW123747   5.996   0.055   3.531
 7616SOL    HW223748   6.027   0.202   3.469
 7617SOL     OW23749   5.357   5.180   3.737
 7617SOL    HW123750   5.436   5.231   3.702
 7617SOL    HW223751   5.273   5.225   3.709
 7618SOL     OW23752   2.350   2.764   7.021
 7618SOL    HW123753   2.254   2.773   0.017
 7618SOL    HW223754   2.396   2.706   0.061
 7619SOL     OW23755   0.578   2.045   4.446
 7619SOL    HW123756   0.592   2.113   4.374
 7619SOL    HW223757   0.626   1.961   4.422
 7620SOL     OW23758   4.091   4.085   1.365
 7620SOL    HW123759   4.053   4.145   1.435
 7620SOL    HW223760   4.019   4.024   1.331
 7621SOL     OW23761   6.473   4.456   0.332
 7621SOL    HW123762   6.538   4.456   0.408
 7621SOL    HW223763   6.518   4.420   0.250
 7622SOL     OW23764   3.057   3.524   1.209
 7622SOL    HW123765   3.059   3.580   1.292
 7622SOL    HW223766   2.963   3.503   1.185
 7623SOL     OW23767   4.865   4.629   1.027
 7623SOL    HW123768   4.961   4.603   1.033
 7623SOL    HW223769   4.808   4.551   1.052
 7624SOL     OW23770   0.693   2.804   2.316
 7624SOL    HW123771   0.640   2.739   2.370
 7624SOL    HW223772   0.771   2.757   2.274
 7625SOL     OW23773   5.607   1.104   1.468
 7625SOL    HW123774   5.589   1.199   1.444
 7625SOL    HW223775   5.527   1.049   1.447
 7626SOL     OW23776   5.089   1.298   5.491
 7626SOL    HW123777   5.014   1.359   5.466
 7626SOL    HW223778   5.171   1.353   5.512
 7627SOL     OW23779   3.725   2.481   6.799
 7627SOL    HW123780   3.689   2.405   6.852
 7627SOL    HW223781   3.658   2.555   6.798
 7628SOL     OW23782   3.203   2.317   0.108
 7628SOL    HW123783   3.286   2.314   0.163
 7628SOL    HW223784   3.136   2.379   0.150
 7629SOL     OW23785   5.872   2.829   4.046
 7629SOL    HW123786   5.859   2.842   3.948
 7629SOL    HW223787   5.794   2.779   4.083
 7630SOL     OW23788   1.428   7.022   5.320
 7630SOL    HW123789   1.457   6.931   5.293
 7630SOL    HW223790   1.507   0.046   5.353
 7631SOL     OW23791   1.452   6.974   5.882
 7631SOL    HW123792   1.399   6.941   5.805
 7631SOL    HW223793   1.419   0.036   5.909
 7632SOL     OW23794   5.346   5.559   0.382
 7632SOL    HW123795   5.362   5.478   0.325
 7632SOL    HW223796   5.367   5.537   0.477
 7633SOL     OW23797   6.509   1.243   1.065
 7633SOL    HW123798   6.551   1.240   1.155
 7633SOL    HW223799   6.514   1.152   1.023
 7634SOL     OW23800   6.620   2.067   0.663
 7634SOL    HW123801   6.609   1.970   0.682
 7634SOL    HW223802   6.568   2.092   0.582
 7635SOL     OW23803   2.326   4.222   5.857
 7635SOL    HW123804   2.256   4.154   5.835
 7635SOL    HW223805   2.393   4.183   5.920
 7636SOL     OW23806   0.447   3.490   4.295
 7636SOL    HW123807   0.494   3.551   4.231
 7636SOL    HW223808   0.451   3.396   4.260
 7637SOL     OW23809   0.307   6.500   4.610
 7637SOL    HW123810   0.252   6.533   4.533
 7637SOL    HW223811   0.375   6.435   4.576
 7638SOL     OW23812   0.512   6.314   1.783
 7638SOL    HW123813   0.532   6.235   1.726
 7638SOL    HW223814   0.584   6.324   1.851
 7639SOL     OW23815   1.737   0.658   0.031
 7639SOL    HW123816   1.781   0.621   0.113
 7639SOL    HW223817   1.805   0.667   6.986
 7640SOL     OW23818   3.165   0.930   0.368
 7640SOL    HW123819   3.170   0.926   0.268
 7640SOL    HW223820   3.162   0.837   0.405
 7641SOL     OW23821   0.098   4.307   3.470
 7641SOL    HW123822   0.194   4.336   3.480
 7641SOL    HW223823   0.093   4.228   3.410
 7642SOL     OW23824   5.919   0.716   3.219
 7642SOL    HW123825   5.881   0.788   3.277
 7642SOL    HW223826   6.001   0.679   3.263
 7643SOL     OW23827   5.557   4.048   3.107
 7643SOL    HW123828   5.569   4.128   3.166
 7643SOL    HW223829   5.490   3.987   3.149
 7644SOL     OW23830   5.685   3.240   1.108
 7644SOL    HW123831   5.724   3.254   1.017
 7644SOL    HW223832   5.723   3.307   1.172
 7645SOL     OW23833   3.319   4.517   6.082
 7645SOL    HW123834   3.229   4.529   6.039
 7645SOL    HW223835   3.383   4.478   6.015
 7646SOL     OW23836   0.274   2.243   1.387
 7646SOL    HW123837   0.354   2.278   1.436
 7646SOL    HW223838   0.205   2.214   1.453
 7647SOL     OW23839   6.636   2.812   5.117
 7647SOL    HW123840   6.602   2.904   5.097
 7647SOL    HW223841   6.715   2.818   5.178
 7648SOL     OW23842   3.078   1.695   1.926
 7648SOL    HW123843   3.094   1.781   1.876
 7648SOL    HW223844   3.107   1.618   1.870
 7649SOL     OW23845   4.932   1.178   5.678
 7649SOL    HW123846   4.989   1.219   5.607
 7649SOL    HW223847   4.952   1.221   5.766
 7650SOL     OW23848   4.120   1.740   0.849
 7650SOL    HW123849   4.090   1.655   0.805
 7650SOL    HW223850   4.165   1.798   0.781
 7651SOL     OW23851   2.704   4.716   5.726
 7651SOL    HW123852   2.787   4.766   5.701
 7651SOL    HW223853   2.630   4.781   5.742
 7652SOL     OW23854   0.307   1.215   3.921
 7652SOL    HW123855   0.245   1.150   3.876
 7652SOL    HW223856   0.349   1.171   4.000
 7653SOL     OW23857   0.833   1.401   6.642
 7653SOL    HW123858   0.927   1.370   6.652
 7653SOL    HW223859   0.827   1.498   6.663
 7654SOL     OW23860   5.453   2.167   6.510
 7654SOL    HW123861   5.494   2.108   6.579
 7654SOL    HW223862   5.516   2.177   6.433
 7655SOL     OW23863   2.699   1.428   3.112
 7655SOL    HW123864   2.660   1.468   3.194
 7655SOL    HW223865   2.790   1.390   3.133
 7656SOL     OW23866   6.903   3.324   6.544
 7656SOL    HW123867   6.891   3.228   6.518
 7656SOL    HW223868   6.893   3.333   6.643
 7657SOL     OW23869   1.072   3.944   4.427
 7657SOL    HW123870   1.131   3.864   4.413
 7657SOL    HW223871   1.076   3.972   4.523
 7658SOL     OW23872   2.140   1.540   0.841
 7658SOL    HW123873   2.077   1.537   0.919
 7658SOL    HW223874   2.234   1.542   0.874
 7659SOL     OW23875   4.600   3.786   5.611
 7659SOL    HW123876   4.508   3.806   5.580
 7659SOL    HW223877   4.609   3.811   5.708
 7660SOL     OW23878   0.534   5.448   4.720
 7660SOL    HW123879   0.532   5.351   4.746
 7660SOL    HW223880   0.526   5.505   4.801
 7661SOL     OW23881   4.799   2.124   5.446
 7661SOL    HW123882   4.825   2.029   5.429
 7661SOL    HW223883   4.705   2.139   5.415
 7662SOL     OW23884   0.258   0.895   1.083
 7662SOL    HW123885   0.248   0.911   1.181
 7662SOL    HW223886   0.189   0.947   1.033
 7663SOL     OW23887   6.853   5.521   5.567
 7663SOL    HW123888   6.873   5.601   5.510
 7663SOL    HW223889   6.774   5.472   5.530
 7664SOL     OW23890   4.123   2.098   2.443
 7664SOL    HW123891   4.136   2.164   2.369
 7664SOL    HW223892   4.212   2.061   2.471
 7665SOL     OW23893   4.307   0.790   5.356
 7665SOL    HW123894   4.267   0.857   5.293
 7665SOL    HW223895   4.378   0.834   5.411
 7666SOL     OW23896   5.252   4.684   4.291
 7666SOL    HW123897   5.225   4.588   4.287
 7666SOL    HW223898   5.177   4.741   4.256
 7667SOL     OW23899   4.337   5.667   1.163
 7667SOL    HW123900   4.333   5.761   1.130
 7667SOL    HW223901   4.380   5.665   1.254
 7668SOL     OW23902   2.009   5.741   0.582
 7668SOL    HW123903   2.059   5.800   0.645
 7668SOL    HW223904   1.933   5.791   0.542
 7669SOL     OW23905   2.801   0.081   5.644
 7669SOL    HW123906   2.860   0.078   5.563
 7669SOL    HW223907   2.841   0.143   5.711
 7670SOL     OW23908   0.754   6.523   0.131
 7670SOL    HW123909   0.734   6.504   0.035
 7670SOL    HW223910   0.775   6.620   0.143
 7671SOL     OW23911   4.084   6.579   1.080
 7671SOL    HW123912   4.145   6.500   1.086
 7671SOL    HW223913   4.131   6.655   1.037
 7672SOL     OW23914   4.749   4.948   2.966
 7672SOL    HW123915   4.671   5.011   2.957
 7672SOL    HW223916   4.716   4.854   2.965
 7673SOL     OW23917   1.431   5.827   4.758
 7673SOL    HW123918   1.463   5.734   4.741
 7673SOL    HW223919   1.407   5.837   4.854
 7674SOL     OW23920   4.000   5.768   4.050
 7674SOL    HW123921   3.968   5.862   4.055
 7674SOL    HW223922   4.084   5.758   4.104
 7675SOL     OW23923   4.952   6.589   3.428
 7675SOL    HW123924   4.910   6.563   3.515
 7675SOL    HW223925   5.021   6.522   3.402
 7676SOL     OW23926   3.336   2.611   5.340
 7676SOL    HW123927   3.277   2.540   5.303
 7676SOL    HW223928   3.325   2.695   5.286
 7677SOL     OW23929   5.615   4.683   0.892
 7677SOL    HW123930   5.574   4.606   0.941
 7677SOL    HW223931   5.593   4.768   0.939
 7678SOL     OW23932   1.689   0.577   5.325
 7678SOL    HW123933   1.646   0.517   5.258
 7678SOL    HW223934   1.618   0.627   5.376
 7679SOL     OW23935   2.517   5.785   5.366
 7679SOL    HW123936   2.610   5.752   5.349
 7679SOL    HW223937   2.514   5.884   5.351
 7680SOL     OW23938   2.113   0.009   5.485
 7680SOL    HW123939   2.060   0.078   5.436
 7680SOL    HW223940   2.081   0.004   5.579
 7681SOL     OW23941   3.081   3.664   6.455
 7681SOL    HW123942   3.024   3.732   6.409
 7681SOL    HW223943   3.035   3.575   6.456
 7682SOL     OW23944   2.992   1.293   2.498
 7682SOL    HW123945   2.914   1.279   2.559
 7682SOL    HW223946   3.017   1.389   2.496
 7683SOL     OW23947   0.914   0.277   4.549
 7683SOL    HW123948   0.959   0.203   4.599
 7683SOL    HW223949   0.862   0.238   4.473
 7684SOL     OW23950   4.242   2.428   1.510
 7684SOL    HW123951   4.318   2.382   1.555
 7684SOL    HW223952   4.203   2.497   1.572
 7685SOL     OW23953   2.572   0.534   0.453
 7685SOL    HW123954   2.499   0.483   0.497
 7685SOL    HW223955   2.624   0.473   0.392
 7686SOL     OW23956   6.125   0.250   4.491
 7686SOL    HW123957   6.110   0.320   4.421
 7686SOL    HW223958   6.064   0.266   4.568
 7687SOL     OW23959   5.840   4.766   5.053
 7687SOL    HW123960   5.760   4.810   5.013
 7687SOL    HW223961   5.878   4.700   4.989
 7688SOL     OW23962   0.245   4.679   6.630
 7688SOL    HW123963   0.181   4.614   6.590
 7688SOL    HW223964   0.325   4.688   6.571
 7689SOL     OW23965   4.603   0.307   1.594
 7689SOL    HW123966   4.550   0.388   1.568
 7689SOL    HW223967   4.543   0.239   1.636
 7690SOL     OW23968   6.050   5.679   1.259
 7690SOL    HW123969   6.084   5.755   1.203
 7690SOL    HW223970   6.111   5.664   1.336
 7691SOL     OW23971   4.405   4.595   3.109
 7691SOL    HW123972   4.353   4.672   3.073
 7691SOL    HW223973   4.393   4.589   3.208
 7692SOL     OW23974   2.407   7.003   2.186
 7692SOL    HW123975   2.378   0.005   2.095
 7692SOL    HW223976   2.401   0.051   2.250
 7693SOL     OW23977   1.592   1.844   0.963
 7693SOL    HW123978   1.582   1.767   1.027
 7693SOL    HW223979   1.619   1.925   1.014
 7694SOL     OW23980   5.529   1.719   5.429
 7694SOL    HW123981   5.628   1.710   5.429
 7694SOL    HW223982   5.501   1.784   5.499
 7695SOL     OW23983   4.587   0.231   3.575
 7695SOL    HW123984   4.668   0.198   3.624
 7695SOL    HW223985   4.609   0.316   3.527
 7696SOL     OW23986   1.259   2.840   6.312
 7696SOL    HW123987   1.219   2.800   6.229
 7696SOL    HW223988   1.324   2.776   6.352
 7697SOL     OW23989   4.413   7.015   2.596
 7697SOL    HW123990   4.399   0.086   2.595
 7697SOL    HW223991   4.325   6.969   2.607
 7698SOL     OW23992   6.560   2.526   0.640
 7698SOL    HW123993   6.594   2.614   0.672
 7698SOL    HW223994   6.633   2.478   0.591
 7699SOL     OW23995   4.420   5.787   5.917
 7699SOL    HW123996   4.469   5.789   6.004
 7699SOL    HW223997   4.327   5.753   5.932
 7700SOL     OW23998   5.451   5.880   2.656
 7700SOL    HW123999   5.403   5.839   2.734
 7700SOL    HW224000   5.550   5.874   2.670
 7701SOL     OW24001   0.695   2.344   6.071
 7701SOL    HW124002   0.618   2.336   6.008
 7701SOL    HW224003   0.662   2.341   6.165
 7702SOL     OW24004   4.382   0.196   4.479
 7702SOL    HW124005   4.452   0.128   4.502
 7702SOL    HW224006   4.293   0.166   4.512
 7703SOL     OW24007   6.156   6.538   5.047
 7703SOL    HW124008   6.183   6.562   5.140
 7703SOL    HW224009   6.161   6.439   5.034
 7704SOL     OW24010   0.008   1.431   4.469
 7704SOL    HW124011   0.067   1.390   4.539
 7704SOL    HW224012   0.054   1.509   4.428
 7705SOL     OW24013   1.011   4.879   6.967
 7705SOL    HW124014   0.957   4.905   0.020
 7705SOL    HW224015   1.036   4.783   6.974
 7706SOL     OW24016   3.768   2.973   2.590
 7706SOL    HW124017   3.669   2.982   2.580
 7706SOL    HW224018   3.809   2.952   2.502
 7707SOL     OW24019   6.438   4.298   6.271
 7707SOL    HW124020   6.381   4.219   6.249
 7707SOL    HW224021   6.414   4.374   6.210
 7708SOL     OW24022   2.559   0.008   4.615
 7708SOL    HW124023   2.650   7.017   4.578
 7708SOL    HW224024   2.529   0.098   4.584
 7709SOL     OW24025   6.877   5.132   1.470
 7709SOL    HW124026   6.877   5.044   1.516
 7709SOL    HW224027   6.941   5.130   1.393
 7710SOL     OW24028   0.275   3.325   1.265
 7710SOL    HW124029   0.356   3.331   1.324
 7710SOL    HW224030   0.297   3.362   1.175
 7711SOL     OW24031   0.072   4.774   5.173
 7711SOL    HW124032   0.113   4.711   5.108
 7711SOL    HW224033   7.028   4.727   5.224
 7712SOL     OW24034   0.172   4.777   5.778
 7712SOL    HW124035   0.222   4.862   5.798
 7712SOL    HW224036   0.104   4.762   5.850
 7713SOL     OW24037   1.932   4.534   0.128
 7713SOL    HW124038   1.909   4.539   0.031
 7713SOL    HW224039   1.871   4.469   0.173
 7714SOL     OW24040   6.248   0.992   5.443
 7714SOL    HW124041   6.269   1.060   5.373
 7714SOL    HW224042   6.196   1.034   5.517
 7715SOL     OW24043   3.192   3.101   6.214
 7715SOL    HW124044   3.186   3.080   6.311
 7715SOL    HW224045   3.288   3.105   6.186
 7716SOL     OW24046   1.278   5.950   5.615
 7716SOL    HW124047   1.337   5.875   5.584
 7716SOL    HW224048   1.188   5.940   5.574
 7717SOL     OW24049   0.782   1.800   6.717
 7717SOL    HW124050   0.871   1.839   6.697
 7717SOL    HW224051   0.794   1.717   6.772
 7718SOL     OW24052   1.316   3.766   3.110
 7718SOL    HW124053   1.231   3.816   3.093
 7718SOL    HW224054   1.337   3.710   3.030
 7719SOL     OW24055   2.136   4.339   4.759
 7719SOL    HW124056   2.151   4.278   4.681
 7719SOL    HW224057   2.212   4.331   4.823
 7720SOL     OW24058   5.330   1.067   0.154
 7720SOL    HW124059   5.337   1.091   0.251
 7720SOL    HW224060   5.380   1.134   0.099
 7721SOL     OW24061   0.726   0.934   2.582
 7721SOL    HW124062   0.713   1.018   2.635
 7721SOL    HW224063   0.824   0.913   2.575
 7722SOL     OW24064   1.695   6.379   3.404
 7722SOL    HW124065   1.783   6.369   3.452
 7722SOL    HW224066   1.640   6.297   3.419
 7723SOL     OW24067   4.903   4.019   0.327
 7723SOL    HW124068   4.969   4.009   0.402
 7723SOL    HW224069   4.891   3.931   0.281
 7724SOL     OW24070   1.945   3.854   1.345
 7724SOL    HW124071   1.920   3.942   1.385
 7724SOL    HW224072   1.867   3.792   1.351
 7725SOL     OW24073   5.236   3.190   3.229
 7725SOL    HW124074   5.273   3.132   3.301
 7725SOL    HW224075   5.148   3.228   3.259
 7726SOL     OW24076   0.866   3.121   6.221
 7726SOL    HW124077   0.925   3.144   6.299
 7726SOL    HW224078   0.772   3.107   6.254
 7727SOL     OW24079   4.539   0.977   2.564
 7727SOL    HW124080   4.522   0.917   2.486
 7727SOL    HW224081   4.481   1.058   2.557
 7728SOL     OW24082   2.081   3.410   4.626
 7728SOL    HW124083   2.130   3.497   4.614
 7728SOL    HW224084   2.131   3.352   4.689
 7729SOL     OW24085   6.920   2.081   4.023
 7729SOL    HW124086   6.998   2.128   3.981
 7729SOL    HW224087   6.841   2.085   3.961
 7730SOL     OW24088   6.095   4.036   5.332
 7730SOL    HW124089   6.151   4.117   5.315
 7730SOL    HW224090   6.142   3.955   5.296
 7731SOL     OW24091   6.725   6.786   6.650
 7731SOL    HW124092   6.636   6.800   6.695
 7731SOL    HW224093   6.712   6.731   6.568
 7732SOL     OW24094   4.297   0.462   6.660
 7732SOL    HW124095   4.216   0.520   6.670
 7732SOL    HW224096   4.372   0.500   6.713
 7733SOL     OW24097   6.277   5.977   2.176
 7733SOL    HW124098   6.340   5.932   2.240
 7733SOL    HW224099   6.330   6.027   2.107
 7734SOL     OW24100   3.110   3.835   4.666
 7734SOL    HW124101   3.187   3.898   4.669
 7734SOL    HW224102   3.139   3.746   4.702
 7735SOL     OW24103   6.813   6.041   0.453
 7735SOL    HW124104   6.717   6.038   0.482
 7735SOL    HW224105   6.869   5.995   0.520
 7736SOL     OW24106   2.286   2.649   0.553
 7736SOL    HW124107   2.362   2.712   0.536
 7736SOL    HW224108   2.236   2.679   0.634
 7737SOL     OW24109   3.996   4.946   0.925
 7737SOL    HW124110   3.951   5.003   0.856
 7737SOL    HW224111   3.955   4.854   0.924
 7738SOL     OW24112   2.019   0.151   6.111
 7738SOL    HW124113   2.013   0.137   6.210
 7738SOL    HW224114   2.082   0.227   6.092
 7739SOL     OW24115   1.355   2.070   0.339
 7739SOL    HW124116   1.447   2.039   0.364
 7739SOL    HW224117   1.320   2.130   0.411
 7740SOL     OW24118   1.689   0.862   5.085
 7740SOL    HW124119   1.667   0.880   5.181
 7740SOL    HW224120   1.786   0.841   5.076
 7741SOL     OW24121   1.540   4.558   6.150
 7741SOL    HW124122   1.513   4.513   6.065
 7741SOL    HW224123   1.489   4.518   6.226
 7742SOL     OW24124   3.888   1.696   4.124
 7742SOL    HW124125   3.868   1.695   4.026
 7742SOL    HW224126   3.982   1.729   4.139
 7743SOL     OW24127   5.388   2.067   5.421
 7743SOL    HW124128   5.458   2.060   5.349
 7743SOL    HW224129   5.433   2.073   5.510
 7744SOL     OW24130   0.496   6.159   5.074
 7744SOL    HW124131   0.489   6.245   5.125
 7744SOL    HW224132   0.467   6.174   4.979
 7745SOL     OW24133   2.190   6.877   0.963
 7745SOL    HW124134   2.184   6.894   1.061
 7745SOL    HW224135   2.135   6.946   0.914
 7746SOL     OW24136   1.132   6.044   1.044
 7746SOL    HW124137   1.097   6.124   0.995
 7746SOL    HW224138   1.225   6.024   1.014
 7747SOL     OW24139   1.217   6.116   0.119
 7747SOL    HW124140   1.249   6.210   0.103
 7747SOL    HW224141   1.124   6.118   0.155
 7748SOL     OW24142   4.717   1.859   5.658
 7748SOL    HW124143   4.814   1.840   5.644
 7748SOL    HW224144   4.707   1.947   5.705
 7749SOL     OW24145   3.939   3.849   4.087
 7749SOL    HW124146   3.905   3.808   4.171
 7749SOL    HW224147   4.006   3.788   4.044
 7750SOL     OW24148   5.876   4.209   5.717
 7750SOL    HW124149   5.883   4.211   5.617
 7750SOL    HW224150   5.814   4.136   5.745
 7751SOL     OW24151   0.032   1.152   5.273
 7751SOL    HW124152   0.057   1.085   5.202
 7751SOL    HW224153   0.034   1.107   5.362
 7752SOL     OW24154   6.604   5.719   5.751
 7752SOL    HW124155   6.590   5.640   5.692
 7752SOL    HW224156   6.516   5.750   5.787
 7753SOL     OW24157   2.417   1.382   4.673
 7753SOL    HW124158   2.443   1.476   4.652
 7753SOL    HW224159   2.327   1.363   4.634
 7754SOL     OW24160   5.751   0.544   1.650
 7754SOL    HW124161   5.684   0.608   1.612
 7754SOL    HW224162   5.720   0.515   1.741
 7755SOL     OW24163   0.857   5.917   5.762
 7755SOL    HW124164   0.815   5.896   5.674
 7755SOL    HW224165   0.816   6.000   5.800
 7756SOL     OW24166   3.863   5.245   2.061
 7756SOL    HW124167   3.832   5.308   1.990
 7756SOL    HW224168   3.806   5.163   2.061
 7757SOL     OW24169   4.660   6.508   5.816
 7757SOL    HW124170   4.710   6.475   5.897
 7757SOL    HW224171   4.676   6.606   5.804
 7758SOL     OW24172   2.303   1.984   5.276
 7758SOL    HW124173   2.291   2.011   5.180
 7758SOL    HW224174   2.254   2.048   5.335
 7759SOL     OW24175   2.044   0.814   4.547
 7759SOL    HW124176   1.970   0.785   4.486
 7759SOL    HW224177   2.116   0.858   4.493
 7760SOL     OW24178   4.899   3.003   2.189
 7760SOL    HW124179   4.821   3.019   2.129
 7760SOL    HW224180   4.879   3.042   2.279
 7761SOL     OW24181   3.378   6.923   6.580
 7761SOL    HW124182   3.384   7.023   6.582
 7761SOL    HW224183   3.299   6.896   6.524
 7762SOL     OW24184   3.734   1.778   0.404
 7762SOL    HW124185   3.724   1.679   0.402
 7762SOL    HW224186   3.754   1.808   0.498
 7763SOL     OW24187   1.572   1.936   0.452
 7763SOL    HW124188   1.649   1.971   0.399
 7763SOL    HW224189   1.604   1.906   0.542
 7764SOL     OW24190   3.510   3.049   2.546
 7764SOL    HW124191   3.431   3.080   2.598
 7764SOL    HW224192   3.518   3.103   2.462
 7765SOL     OW24193   6.723   1.986   2.722
 7765SOL    HW124194   6.710   2.074   2.767
 7765SOL    HW224195   6.819   1.961   2.726
 7766SOL     OW24196   0.220   2.826   6.776
 7766SOL    HW124197   0.274   2.901   6.813
 7766SOL    HW224198   0.249   2.740   6.817
 7767SOL     OW24199   4.788   5.580   4.604
 7767SOL    HW124200   4.758   5.597   4.510
 7767SOL    HW224201   4.888   5.590   4.609
 7768SOL     OW24202   3.926   4.870   2.424
 7768SOL    HW124203   3.985   4.866   2.344
 7768SOL    HW224204   3.831   4.885   2.394
 7769SOL     OW24205   5.413   1.800   1.555
 7769SOL    HW124206   5.424   1.874   1.489
 7769SOL    HW224207   5.360   1.833   1.633
 7770SOL     OW24208   3.400   5.130   1.133
 7770SOL    HW124209   3.372   5.034   1.132
 7770SOL    HW224210   3.415   5.160   1.227
 7771SOL     OW24211   2.239   1.817   5.523
 7771SOL    HW124212   2.274   1.880   5.592
 7771SOL    HW224213   2.270   1.847   5.432
 7772SOL     OW24214   5.003   1.195   4.291
 7772SOL    HW124215   4.938   1.176   4.218
 7772SOL    HW224216   4.975   1.146   4.374
 7773SOL     OW24217   3.970   4.346   6.031
 7773SOL    HW124218   3.913   4.352   5.949
 7773SOL    HW224219   3.992   4.250   6.050
 7774SOL     OW24220   5.094   1.544   6.450
 7774SOL    HW124221   5.043   1.576   6.370
 7774SOL    HW224222   5.103   1.619   6.516
 7775SOL     OW24223   3.112   6.251   2.317
 7775SOL    HW124224   3.183   6.198   2.364
 7775SOL    HW224225   3.080   6.199   2.237
 7776SOL     OW24226   3.689   3.784   6.811
 7776SOL    HW124227   3.672   3.807   6.906
 7776SOL    HW224228   3.609   3.739   6.772
 7777SOL     OW24229   2.113   1.406   6.782
 7777SOL    HW124230   2.030   1.457   6.760
 7777SOL    HW224231   2.114   1.320   6.732
 7778SOL     OW24232   5.552   0.792   6.948
 7778SOL    HW124233   5.499   0.806   0.003
 7778SOL    HW224234   5.563   0.694   6.931
 7779SOL     OW24235   3.994   3.054   0.396
 7779SOL    HW124236   3.991   3.126   0.465
 7779SOL    HW224237   3.913   2.996   0.406
 7780SOL     OW24238   1.885   6.398   4.551
 7780SOL    HW124239   1.956   6.337   4.586
 7780SOL    HW224240   1.841   6.446   4.627
 7781SOL     OW24241   1.315   4.461   4.600
 7781SOL    HW124242   1.404   4.498   4.628
 7781SOL    HW224243   1.327   4.403   4.520
 7782SOL     OW24244   3.060   4.591   6.703
 7782SOL    HW124245   3.038   4.575   6.607
 7782SOL    HW224246   2.976   4.603   6.756
 7783SOL     OW24247   2.754   5.329   6.580
 7783SOL    HW124248   2.844   5.323   6.624
 7783SOL    HW224249   2.692   5.262   6.620
 7784SOL     OW24250   0.455   2.895   0.099
 7784SOL    HW124251   0.360   2.891   0.128
 7784SOL    HW224252   0.511   2.843   0.164
 7785SOL     OW24253   2.291   5.966   4.086
 7785SOL    HW124254   2.363   5.961   4.016
 7785SOL    HW224255   2.283   6.061   4.119
 7786SOL     OW24256   3.036   4.286   5.289
 7786SOL    HW124257   3.052   4.229   5.208
 7786SOL    HW224258   2.999   4.374   5.260
 7787SOL     OW24259   2.466   2.752   5.201
 7787SOL    HW124260   2.450   2.850   5.194
 7787SOL    HW224261   2.523   2.733   5.281
 7788SOL     OW24262   1.476   1.739   0.270
 7788SOL    HW124263   1.543   1.727   0.197
 7788SOL    HW224264   1.520   1.785   0.347
 7789SOL     OW24265   1.899   0.661   1.259
 7789SOL    HW124266   1.897   0.693   1.354
 7789SOL    HW224267   1.904   0.739   1.197
 7790SOL     OW24268   5.389   3.093   2.550
 7790SOL    HW124269   5.398   3.088   2.450
 7790SOL    HW224270   5.462   3.040   2.593
 7791SOL     OW24271   1.690   4.915   4.965
 7791SOL    HW124272   1.698   4.858   4.883
 7791SOL    HW224273   1.744   4.875   5.039
 7792SOL     OW24274   2.370   5.535   6.211
 7792SOL    HW124275   2.357   5.444   6.250
 7792SOL    HW224276   2.451   5.536   6.153
 7793SOL     OW24277   1.368   1.147   6.118
 7793SOL    HW124278   1.435   1.085   6.158
 7793SOL    HW224279   1.338   1.214   6.186
 7794SOL     OW24280   5.270   5.763   4.188
 7794SOL    HW124281   5.198   5.827   4.216
 7794SOL    HW224282   5.302   5.787   4.096
 7795SOL     OW24283   2.494   4.363   5.187
 7795SOL    HW124284   2.508   4.458   5.158
 7795SOL    HW224285   2.526   4.352   5.281
 7796SOL     OW24286   3.916   3.970   3.559
 7796SOL    HW124287   3.850   4.043   3.541
 7796SOL    HW224288   3.898   3.930   3.649
 7797SOL     OW24289   0.218   0.112   3.101
 7797SOL    HW124290   0.316   0.131   3.107
 7797SOL    HW224291   0.176   0.175   3.036
 7798SOL     OW24292   3.415   5.386   0.437
 7798SOL    HW124293   3.469   5.324   0.380
 7798SOL    HW224294   3.430   5.364   0.533
 7799SOL     OW24295   0.035   5.067   1.739
 7799SOL    HW124296   0.078   5.031   1.822
 7799SOL    HW224297   6.971   5.028   1.730
 7800SOL     OW24298   0.705   5.697   1.929
 7800SOL    HW124299   0.699   5.622   1.995
 7800SOL    HW224300   0.787   5.751   1.948
 7801SOL     OW24301   3.512   2.293   6.844
 7801SOL    HW124302   3.555   2.261   6.760
 7801SOL    HW224303   3.422   2.331   6.822
 7802SOL     OW24304   5.676   1.991   1.853
 7802SOL    HW124305   5.672   1.974   1.755
 7802SOL    HW224306   5.603   1.941   1.899
 7803SOL     OW24307   4.248   4.207   5.288
 7803SOL    HW124308   4.154   4.176   5.276
 7803SOL    HW224309   4.260   4.296   5.245
 7804SOL     OW24310   5.264   1.981   5.769
 7804SOL    HW124311   5.323   1.926   5.710
 7804SOL    HW224312   5.251   2.072   5.728
 7805SOL     OW24313   5.043   3.513   1.865
 7805SOL    HW124314   4.996   3.601   1.860
 7805SOL    HW224315   4.977   3.439   1.870
 7806SOL     OW24316   5.534   2.756   5.983
 7806SOL    HW124317   5.438   2.780   5.990
 7806SOL    HW224318   5.543   2.663   5.949
 7807SOL     OW24319   0.429   4.540   6.415
 7807SOL    HW124320   0.390   4.448   6.409
 7807SOL    HW224321   0.527   4.533   6.437
 7808SOL     OW24322   0.691   1.455   4.620
 7808SOL    HW124323   0.750   1.535   4.631
 7808SOL    HW224324   0.732   1.378   4.669
 7809SOL     OW24325   2.425   5.449   4.877
 7809SOL    HW124326   2.382   5.451   4.786
 7809SOL    HW224327   2.474   5.363   4.888
 7810SOL     OW24328   2.756   1.015   6.647
 7810SOL    HW124329   2.741   1.097   6.702
 7810SOL    HW224330   2.668   0.971   6.628
 7811SOL     OW24331   6.128   4.402   3.941
 7811SOL    HW124332   6.214   4.400   3.891
 7811SOL    HW224333   6.078   4.486   3.919
 7812SOL     OW24334   1.528   1.585   3.378
 7812SOL    HW124335   1.578   1.577   3.292
 7812SOL    HW224336   1.494   1.495   3.405
 7813SOL     OW24337   6.939   2.989   0.320
 7813SOL    HW124338   6.985   2.955   0.238
 7813SOL    HW224339   6.968   3.082   0.339
 7814SOL     OW24340   0.380   3.203   2.757
 7814SOL    HW124341   0.430   3.283   2.724
 7814SOL    HW224342   0.414   3.178   2.848
 7815SOL     OW24343   6.775   2.017   6.047
 7815SOL    HW124344   6.715   1.939   6.067
 7815SOL    HW224345   6.759   2.048   5.954
 7816SOL     OW24346   1.192   3.747   4.755
 7816SOL    HW124347   1.124   3.686   4.713
 7816SOL    HW224348   1.194   3.733   4.854
 7817SOL     OW24349   5.685   4.144   4.726
 7817SOL    HW124350   5.659   4.232   4.687
 7817SOL    HW224351   5.688   4.151   4.826
 7818SOL     OW24352   5.370   6.013   1.733
 7818SOL    HW124353   5.343   5.997   1.828
 7818SOL    HW224354   5.469   6.025   1.727
 7819SOL     OW24355   6.661   1.871   1.440
 7819SOL    HW124356   6.665   1.966   1.406
 7819SOL    HW224357   6.573   1.831   1.415
 7820SOL     OW24358   1.479   0.805   0.024
 7820SOL    HW124359   1.427   0.785   6.968
 7820SOL    HW224360   1.570   0.766   0.017
 7821SOL     OW24361   3.074   5.176   2.147
 7821SOL    HW124362   3.059   5.111   2.072
 7821SOL    HW224363   3.029   5.141   2.230
 7822SOL     OW24364   1.601   5.975   5.569
 7822SOL    HW124365   1.670   6.014   5.508
 7822SOL    HW224366   1.646   5.919   5.638
 7823SOL     OW24367   1.502   4.566   4.789
 7823SOL    HW124368   1.556   4.594   4.868
 7823SOL    HW224369   1.495   4.643   4.725
 7824SOL     OW24370   0.349   2.829   5.859
 7824SOL    HW124371   0.444   2.806   5.837
 7824SOL    HW224372   0.295   2.835   5.775
 7825SOL     OW24373   3.147   1.431   6.336
 7825SOL    HW124374   3.049   1.431   6.352
 7825SOL    HW224375   3.187   1.346   6.369
 7826SOL     OW24376   0.377   3.032   6.881
 7826SOL    HW124377   0.415   2.997   6.966
 7826SOL    HW224378   0.398   3.130   6.873
 7827SOL     OW24379   0.062   6.551   4.476
 7827SOL    HW124380   0.018   6.622   4.530
 7827SOL    HW224381   0.019   6.463   4.495
 7828SOL     OW24382   0.677   4.474   6.533
 7828SOL    HW124383   0.698   4.395   6.475
 7828SOL    HW224384   0.636   4.443   6.619
 7829SOL     OW24385   4.197   2.892   0.682
 7829SOL    HW124386   4.141   2.974   0.678
 7829SOL    HW224387   4.294   2.917   0.677
 7830SOL     OW24388   2.771   4.730   4.622
 7830SOL    HW124389   2.678   4.714   4.656
 7830SOL    HW224390   2.774   4.711   4.524
 7831SOL     OW24391   1.708   1.540   0.647
 7831SOL    HW124392   1.779   1.583   0.591
 7831SOL    HW224393   1.727   1.442   0.654
 7832SOL     OW24394   6.452   0.815   4.488
 7832SOL    HW124395   6.375   0.879   4.493
 7832SOL    HW224396   6.463   0.769   4.576
 7833SOL     OW24397   1.895   0.748   4.031
 7833SOL    HW124398   1.962   0.821   4.019
 7833SOL    HW224399   1.803   0.787   4.036
 7834SOL     OW24400   6.089   2.948   4.572
 7834SOL    HW124401   6.132   2.967   4.660
 7834SOL    HW224402   6.056   2.853   4.571
 7835SOL     OW24403   4.203   2.305   5.304
 7835SOL    HW124404   4.202   2.393   5.256
 7835SOL    HW224405   4.263   2.242   5.255
 7836SOL     OW24406   3.776   3.653   4.922
 7836SOL    HW124407   3.800   3.585   4.991
 7836SOL    HW224408   3.830   3.736   4.937
 7837SOL     OW24409   6.513   5.748   6.689
 7837SOL    HW124410   6.596   5.710   6.730
 7837SOL    HW224411   6.502   5.712   6.597
 7838SOL     OW24412   5.046   5.382   1.215
 7838SOL    HW124413   5.070   5.289   1.242
 7838SOL    HW224414   5.052   5.442   1.295
 7839SOL     OW24415   5.656   3.464   4.398
 7839SOL    HW124416   5.719   3.403   4.445
 7839SOL    HW224417   5.563   3.447   4.431
 7840SOL     OW24418   1.970   3.257   4.030
 7840SOL    HW124419   1.956   3.231   3.934
 7840SOL    HW224420   1.886   3.298   4.066
 7841SOL     OW24421   5.189   2.393   6.118
 7841SOL    HW124422   5.130   2.321   6.081
 7841SOL    HW224423   5.281   2.383   6.081
 7842SOL     OW24424   1.794   0.964   2.081
 7842SOL    HW124425   1.866   0.896   2.095
 7842SOL    HW224426   1.734   0.965   2.161
 7843SOL     OW24427   0.191   6.756   3.328
 7843SOL    HW124428   0.128   6.682   3.348
 7843SOL    HW224429   0.174   6.791   3.236
 7844SOL     OW24430   3.262   1.672   2.888
 7844SOL    HW124431   3.162   1.668   2.880
 7844SOL    HW224432   3.304   1.628   2.809
 7845SOL     OW24433   6.228   3.196   1.396
 7845SOL    HW124434   6.272   3.187   1.486
 7845SOL    HW224435   6.285   3.150   1.327
 7846SOL     OW24436   0.704   2.203   0.057
 7846SOL    HW124437   0.666   2.171   6.997
 7846SOL    HW224438   0.725   2.125   0.115
 7847SOL     OW24439   5.800   3.195   4.790
 7847SOL    HW124440   5.786   3.124   4.859
 7847SOL    HW224441   5.713   3.240   4.769
 7848SOL     OW24442   3.258   4.630   0.894
 7848SOL    HW124443   3.244   4.555   0.958
 7848SOL    HW224444   3.171   4.654   0.851
 7849SOL     OW24445   4.750   4.531   6.743
 7849SOL    HW124446   4.667   4.495   6.700
 7849SOL    HW224447   4.726   4.579   6.828
 7850SOL     OW24448   0.127   1.028   3.772
 7850SOL    HW124449   0.070   0.965   3.823
 7850SOL    HW224450   0.086   1.046   3.682
 7851SOL     OW24451   0.409   4.053   2.010
 7851SOL    HW124452   0.440   4.117   2.080
 7851SOL    HW224453   0.489   4.012   1.965
 7852SOL     OW24454   1.090   2.282   6.435
 7852SOL    HW124455   1.139   2.248   6.515
 7852SOL    HW224456   1.150   2.277   6.355
 7853SOL     OW24457   4.105   2.860   1.727
 7853SOL    HW124458   4.026   2.890   1.781
 7853SOL    HW224459   4.179   2.926   1.737
 7854SOL     OW24460   4.938   2.797   6.588
 7854SOL    HW124461   4.872   2.722   6.582
 7854SOL    HW224462   4.950   2.824   6.683
 7855SOL     OW24463   4.715   0.090   4.437
 7855SOL    HW124464   4.800   0.077   4.489
 7855SOL    HW224465   4.640   0.041   4.482
 7856SOL     OW24466   2.205   6.643   4.943
 7856SOL    HW124467   2.125   6.593   4.910
 7856SOL    HW224468   2.176   6.726   4.990
 7857SOL     OW24469   6.151   4.446   1.303
 7857SOL    HW124470   6.123   4.389   1.380
 7857SOL    HW224471   6.199   4.389   1.236
 7858SOL     OW24472   0.580   4.541   5.873
 7858SOL    HW124473   0.542   4.479   5.804
 7858SOL    HW224474   0.505   4.594   5.914
 7859SOL     OW24475   4.976   2.575   0.090
 7859SOL    HW124476   4.953   2.518   0.012
 7859SOL    HW224477   5.048   2.640   0.065
 7860SOL     OW24478   2.448   0.966   4.612
 7860SOL    HW124479   2.493   1.012   4.689
 7860SOL    HW224480   2.512   0.960   4.535
 7861SOL     OW24481   2.614   6.246   0.991
 7861SOL    HW124482   2.576   6.337   1.007
 7861SOL    HW224483   2.564   6.179   1.045
 7862SOL     OW24484   2.643   5.749   0.819
 7862SOL    HW124485   2.650   5.739   0.918
 7862SOL    HW224486   2.571   5.815   0.797
 7863SOL     OW24487   6.714   4.261   3.519
 7863SOL    HW124488   6.708   4.216   3.430
 7863SOL    HW224489   6.726   4.192   3.590
 7864SOL     OW24490   1.942   6.728   5.425
 7864SOL    HW124491   2.016   6.703   5.363
 7864SOL    HW224492   1.957   6.686   5.514
 7865SOL     OW24493   6.071   5.326   3.371
 7865SOL    HW124494   6.100   5.421   3.387
 7865SOL    HW224495   5.972   5.322   3.370
 7866SOL     OW24496   0.879   6.890   5.984
 7866SOL    HW124497   0.954   6.948   6.016
 7866SOL    HW224498   0.915   6.814   5.931
 7867SOL     OW24499   5.889   6.320   3.766
 7867SOL    HW124500   5.917   6.405   3.721
 7867SOL    HW224501   5.894   6.244   3.701
 7868SOL     OW24502   3.114   6.114   1.394
 7868SOL    HW124503   3.171   6.166   1.457
 7868SOL    HW224504   3.034   6.168   1.370
 7869SOL     OW24505   5.404   5.005   5.882
 7869SOL    HW124506   5.479   4.984   5.820
 7869SOL    HW224507   5.430   4.981   5.975
 7870SOL     OW24508   5.579   6.052   4.889
 7870SOL    HW124509   5.662   6.075   4.838
 7870SOL    HW224510   5.544   6.134   4.935
 7871SOL     OW24511   5.162   1.425   1.800
 7871SOL    HW124512   5.086   1.426   1.735
 7871SOL    HW224513   5.232   1.360   1.768
 7872SOL     OW24514   1.972   5.899   2.676
 7872SOL    HW124515   2.053   5.885   2.732
 7872SOL    HW224516   1.971   5.993   2.641
 7873SOL     OW24517   6.188   1.428   6.745
 7873SOL    HW124518   6.103   1.430   6.693
 7873SOL    HW224519   6.256   1.485   6.701
 7874SOL     OW24520   5.511   2.280   0.675
 7874SOL    HW124521   5.579   2.338   0.629
 7874SOL    HW224522   5.474   2.329   0.754
 7875SOL     OW24523   5.128   4.186   6.698
 7875SOL    HW124524   5.057   4.239   6.653
 7875SOL    HW224525   5.086   4.111   6.750
 7876SOL     OW24526   0.711   0.043   2.657
 7876SOL    HW124527   0.656   0.090   2.726
 7876SOL    HW224528   0.683   6.975   2.652
 7877SOL     OW24529   6.875   2.053   3.102
 7877SOL    HW124530   6.962   2.101   3.089
 7877SOL    HW224531   6.803   2.099   3.051
 7878SOL     OW24532   3.996   4.809   3.084
 7878SOL    HW124533   3.916   4.837   3.138
 7878SOL    HW224534   3.972   4.809   2.987
 7879SOL     OW24535   2.612   4.589   2.955
 7879SOL    HW124536   2.690   4.640   2.990
 7879SOL    HW224537   2.622   4.577   2.856
 7880SOL     OW24538   1.550   4.014   1.921
 7880SOL    HW124539   1.622   4.017   1.991
 7880SOL    HW224540   1.591   4.005   1.831
 7881SOL     OW24541   5.198   4.431   4.101
 7881SOL    HW124542   5.136   4.374   4.047
 7881SOL    HW224543   5.246   4.494   4.040
 7882SOL     OW24544   1.453   3.718   0.833
 7882SOL    HW124545   1.495   3.628   0.824
 7882SOL    HW224546   1.523   3.789   0.825
 7883SOL     OW24547   1.038   1.053   5.371
 7883SOL    HW124548   1.012   0.957   5.361
 7883SOL    HW224549   1.129   1.068   5.331
 7884SOL     OW24550   0.734   2.745   4.428
 7884SOL    HW124551   0.681   2.767   4.346
 7884SOL    HW224552   0.762   2.649   4.425
 7885SOL     OW24553   6.221   5.559   7.020
 7885SOL    HW124554   6.176   5.548   6.931
 7885SOL    HW224555   6.225   5.470   0.039
 7886SOL     OW24556   4.907   5.206   6.801
 7886SOL    HW124557   4.991   5.225   6.750
 7886SOL    HW224558   4.839   5.165   6.740
 7887SOL     OW24559   4.740   1.962   6.771
 7887SOL    HW124560   4.681   2.033   6.809
 7887SOL    HW224561   4.773   1.903   6.845
 7888SOL     OW24562   4.940   1.043   4.497
 7888SOL    HW124563   4.890   0.985   4.562
 7888SOL    HW224564   5.011   1.094   4.546
 7889SOL     OW24565   1.251   6.335   2.228
 7889SOL    HW124566   1.224   6.287   2.145
 7889SOL    HW224567   1.225   6.432   2.220
 7890SOL     OW24568   1.923   3.165   2.863
 7890SOL    HW124569   1.860   3.096   2.899
 7890SOL    HW224570   1.870   3.241   2.824
 7891SOL     OW24571   1.682   4.440   2.661
 7891SOL    HW124572   1.781   4.424   2.649
 7891SOL    HW224573   1.657   4.423   2.756
 7892SOL     OW24574   1.937   2.148   5.586
 7892SOL    HW124575   1.880   2.071   5.614
 7892SOL    HW224576   1.992   2.179   5.664
 7893SOL     OW24577   6.096   6.397   1.548
 7893SOL    HW124578   6.149   6.441   1.475
 7893SOL    HW224579   6.119   6.440   1.635
 7894SOL     OW24580   2.919   7.010   1.671
 7894SOL    HW124581   3.011   6.971   1.676
 7894SOL    HW224582   2.851   6.941   1.698
 7895SOL     OW24583   0.340   1.598   3.649
 7895SOL    HW124584   0.276   1.624   3.577
 7895SOL    HW224585   0.308   1.632   3.737
 7896SOL     OW24586   4.539   2.254   5.339
 7896SOL    HW124587   4.450   2.238   5.295
 7896SOL    HW224588   4.524   2.293   5.430
 7897SOL     OW24589   3.185   3.456   6.194
 7897SOL    HW124590   3.133   3.532   6.153
 7897SOL    HW224591   3.225   3.401   6.122
 7898SOL     OW24592   4.156   2.268   3.201
 7898SOL    HW124593   4.247   2.244   3.236
 7898SOL    HW224594   4.139   2.365   3.218
 7899SOL     OW24595   5.146   1.317   2.687
 7899SOL    HW124596   5.177   1.234   2.733
 7899SOL    HW224597   5.059   1.347   2.726
 7900SOL     OW24598   1.660   5.617   0.789
 7900SOL    HW124599   1.624   5.533   0.749
 7900SOL    HW224600   1.620   5.696   0.743
 7901SOL     OW24601   6.289   6.166   0.145
 7901SOL    HW124602   6.381   6.138   0.117
 7901SOL    HW224603   6.222   6.122   0.086
 7902SOL     OW24604   4.690   3.788   6.878
 7902SOL    HW124605   4.649   3.782   6.787
 7902SOL    HW224606   4.701   3.884   6.904
 7903SOL     OW24607   0.220   2.118   6.650
 7903SOL    HW124608   0.149   2.059   6.612
 7903SOL    HW224609   0.199   2.214   6.629
 7904SOL     OW24610   6.295   0.909   2.715
 7904SOL    HW124611   6.288   0.912   2.815
 7904SOL    HW224612   6.385   0.873   2.689
 7905SOL     OW24613   3.610   1.301   0.630
 7905SOL    HW124614   3.572   1.220   0.586
 7905SOL    HW224615   3.642   1.276   0.722
 7906SOL     OW24616   6.511   6.018   0.064
 7906SOL    HW124617   6.469   5.980   7.009
 7906SOL    HW224618   6.606   5.988   0.070
 7907SOL     OW24619   6.821   2.885   2.039
 7907SOL    HW124620   6.770   2.965   2.008
 7907SOL    HW224621   6.765   2.803   2.028
 7908SOL     OW24622   6.209   2.063   3.941
 7908SOL    HW124623   6.150   2.036   4.017
 7908SOL    HW224624   6.257   2.148   3.964
 7909SOL     OW24625   4.720   4.604   5.041
 7909SOL    HW124626   4.814   4.596   5.075
 7909SOL    HW224627   4.686   4.696   5.060
 7910SOL     OW24628   5.823   3.293   5.707
 7910SOL    HW124629   5.830   3.389   5.735
 7910SOL    HW224630   5.745   3.281   5.646
 7911SOL     OW24631   5.581   4.893   0.126
 7911SOL    HW124632   5.528   4.812   0.104
 7911SOL    HW224633   5.615   4.935   0.042
 7912SOL     OW24634   6.548   5.083   5.858
 7912SOL    HW124635   6.486   5.005   5.852
 7912SOL    HW224636   6.592   5.084   5.948
 7913SOL     OW24637   0.403   5.882   6.500
 7913SOL    HW124638   0.359   5.929   6.423
 7913SOL    HW224639   0.428   5.789   6.472
 7914SOL     OW24640   6.795   3.671   2.345
 7914SOL    HW124641   6.703   3.710   2.336
 7914SOL    HW224642   6.853   3.735   2.395
 7915SOL     OW24643   4.143   1.893   2.719
 7915SOL    HW124644   4.156   1.855   2.811
 7915SOL    HW224645   4.221   1.951   2.696
 7916SOL     OW24646   5.274   3.583   5.491
 7916SOL    HW124647   5.273   3.538   5.580
 7916SOL    HW224648   5.233   3.523   5.422
 7917SOL     OW24649   3.068   3.838   4.405
 7917SOL    HW124650   3.164   3.846   4.379
 7917SOL    HW224651   3.059   3.854   4.504
 7918SOL     OW24652   6.362   1.852   2.529
 7918SOL    HW124653   6.332   1.799   2.449
 7918SOL    HW224654   6.451   1.820   2.559
 7919SOL     OW24655   5.806   5.229   2.049
 7919SOL    HW124656   5.767   5.137   2.047
 7919SOL    HW224657   5.801   5.265   2.142
 7920SOL     OW24658   0.696   5.811   1.678
 7920SOL    HW124659   0.671   5.908   1.674
 7920SOL    HW224660   0.679   5.776   1.770
 7921SOL     OW24661   3.383   6.801   1.660
 7921SOL    HW124662   3.469   6.748   1.663
 7921SOL    HW224663   3.369   6.836   1.567
 7922SOL     OW24664   0.657   5.173   6.849
 7922SOL    HW124665   0.632   5.080   6.822
 7922SOL    HW224666   0.683   5.225   6.767
 7923SOL     OW24667   1.589   1.839   2.414
 7923SOL    HW124668   1.677   1.841   2.367
 7923SOL    HW224669   1.602   1.806   2.508
 7924SOL     OW24670   2.190   0.170   4.086
 7924SOL    HW124671   2.138   0.250   4.115
 7924SOL    HW224672   2.267   0.199   4.029
 7925SOL     OW24673   0.090   0.880   6.726
 7925SOL    HW124674   0.146   0.873   6.808
 7925SOL    HW224675   0.124   0.815   6.657
 7926SOL     OW24676   3.404   0.458   1.548
 7926SOL    HW124677   3.358   0.424   1.630
 7926SOL    HW224678   3.391   0.392   1.473
 7927SOL     OW24679   4.671   4.751   4.548
 7927SOL    HW124680   4.703   4.738   4.642
 7927SOL    HW224681   4.750   4.757   4.486
 7928SOL     OW24682   1.245   5.243   1.503
 7928SOL    HW124683   1.291   5.155   1.500
 7928SOL    HW224684   1.310   5.316   1.479
 7929SOL     OW24685   3.786   4.137   4.184
 7929SOL    HW124686   3.845   4.057   4.196
 7929SOL    HW224687   3.747   4.136   4.092
 7930SOL     OW24688   5.064   5.932   4.229
 7930SOL    HW124689   4.980   5.918   4.178
 7930SOL    HW224690   5.043   5.962   4.322
 7931SOL     OW24691   1.689   2.805   0.523
 7931SOL    HW124692   1.680   2.810   0.623
 7931SOL    HW224693   1.613   2.753   0.485
 7932SOL     OW24694   2.921   7.004   1.256
 7932SOL    HW124695   2.907   6.916   1.211
 7932SOL    HW224696   2.833   0.013   1.287
 7933SOL     OW24697   1.310   0.478   0.159
 7933SOL    HW124698   1.224   0.445   0.197
 7933SOL    HW224699   1.293   0.562   0.106
 7934SOL     OW24700   2.959   3.840   6.273
 7934SOL    HW124701   2.982   3.935   6.291
 7934SOL    HW224702   2.863   3.833   6.245
 7935SOL     OW24703   4.224   6.349   1.090
 7935SOL    HW124704   4.303   6.353   1.150
 7935SOL    HW224705   4.147   6.306   1.137
 7936SOL     OW24706   4.756   6.001   2.958
 7936SOL    HW124707   4.737   6.048   3.044
 7936SOL    HW224708   4.705   6.044   2.884
 7937SOL     OW24709   5.962   6.218   5.650
 7937SOL    HW124710   5.906   6.148   5.695
 7937SOL    HW224711   5.926   6.308   5.672
 7938SOL     OW24712   5.969   4.663   4.797
 7938SOL    HW124713   5.958   4.681   4.700
 7938SOL    HW224714   6.063   4.685   4.824
 7939SOL     OW24715   0.915   0.736   4.874
 7939SOL    HW124716   0.908   0.740   4.775
 7939SOL    HW224717   0.962   0.818   4.908
 7940SOL     OW24718   1.702   5.711   1.052
 7940SOL    HW124719   1.666   5.665   0.972
 7940SOL    HW224720   1.752   5.793   1.023
 7941SOL     OW24721   0.214   0.296   0.341
 7941SOL    HW124722   0.243   0.325   0.250
 7941SOL    HW224723   0.272   0.220   0.371
 7942SOL     OW24724   1.057   0.862   1.574
 7942SOL    HW124725   1.106   0.797   1.631
 7942SOL    HW224726   1.080   0.955   1.603
 7943SOL     OW24727   5.324   2.023   0.968
 7943SOL    HW124728   5.342   2.085   1.045
 7943SOL    HW224729   5.388   1.946   0.971
 7944SOL     OW24730   0.887   4.237   2.013
 7944SOL    HW124731   0.797   4.279   1.998
 7944SOL    HW224732   0.931   4.278   2.093
 7945SOL     OW24733   5.332   6.620   1.802
 7945SOL    HW124734   5.239   6.595   1.775
 7945SOL    HW224735   5.354   6.576   1.889
 7946SOL     OW24736   1.813   1.903   5.664
 7946SOL    HW124737   1.759   1.878   5.745
 7946SOL    HW224738   1.796   1.836   5.592
 7947SOL     OW24739   3.816   3.778   6.484
 7947SOL    HW124740   3.721   3.751   6.468
 7947SOL    HW224741   3.831   3.871   6.450
 7948SOL     OW24742   0.583   6.367   0.282
 7948SOL    HW124743   0.578   6.275   0.243
 7948SOL    HW224744   0.648   6.422   0.229
 7949SOL     OW24745   5.745   4.508   4.500
 7949SOL    HW124746   5.782   4.472   4.414
 7949SOL    HW224747   5.793   4.592   4.524
 7950SOL     OW24748   3.463   5.125   4.445
 7950SOL    HW124749   3.430   5.208   4.489
 7950SOL    HW224750   3.385   5.068   4.419
 7951SOL     OW24751   2.920   3.030   1.140
 7951SOL    HW124752   2.917   3.086   1.223
 7951SOL    HW224753   2.833   2.981   1.130
 7952SOL     OW24754   5.654   3.655   0.544
 7952SOL    HW124755   5.614   3.639   0.634
 7952SOL    HW224756   5.584   3.643   0.474
 7953SOL     OW24757   2.043   3.105   2.540
 7953SOL    HW124758   2.004   3.072   2.626
 7953SOL    HW224759   1.986   3.074   2.464
 7954SOL     OW24760   4.763   5.710   5.307
 7954SOL    HW124761   4.851   5.695   5.260
 7954SOL    HW224762   4.696   5.746   5.242
 7955SOL     OW24763   1.074   6.509   5.610
 7955SOL    HW124764   0.998   6.572   5.624
 7955SOL    HW224765   1.094   6.462   5.696
 7956SOL     OW24766   5.745   0.080   3.581
 7956SOL    HW124767   5.747   7.009   3.600
 7956SOL    HW224768   5.653   0.115   3.598
 7957SOL     OW24769   1.287   2.770   0.960
 7957SOL    HW124770   1.291   2.809   1.052
 7957SOL    HW224771   1.192   2.760   0.931
 7958SOL     OW24772   2.517   5.725   2.584
 7958SOL    HW124773   2.490   5.650   2.524
 7958SOL    HW224774   2.463   5.807   2.561
 7959SOL     OW24775   5.518   4.889   1.050
 7959SOL    HW124776   5.451   4.861   1.119
 7959SOL    HW224777   5.538   4.986   1.061
 7960SOL     OW24778   2.328   2.117   0.985
 7960SOL    HW124779   2.356   2.061   0.907
 7960SOL    HW224780   2.376   2.204   0.984
 7961SOL     OW24781   1.783   5.196   6.679
 7961SOL    HW124782   1.791   5.161   6.585
 7961SOL    HW224783   1.725   5.135   6.732
 7962SOL     OW24784   1.132   0.479   2.327
 7962SOL    HW124785   1.047   0.428   2.311
 7962SOL    HW224786   1.130   0.565   2.277
 7963SOL     OW24787   0.477   0.719   5.097
 7963SOL    HW124788   0.481   0.622   5.071
 7963SOL    HW224789   0.446   0.726   5.192
 7964SOL     OW24790   6.231   5.900   3.403
 7964SOL    HW124791   6.207   5.954   3.322
 7964SOL    HW224792   6.180   5.934   3.482
 7965SOL     OW24793   5.617   2.111   0.215
 7965SOL    HW124794   5.518   2.101   0.213
 7965SOL    HW224795   5.652   2.084   0.305
 7966SOL     OW24796   6.965   4.822   4.103
 7966SOL    HW124797   6.905   4.900   4.121
 7966SOL    HW224798   0.007   4.847   4.037
 7967SOL     OW24799   2.782   5.981   2.715
 7967SOL    HW124800   2.788   5.883   2.730
 7967SOL    HW224801   2.853   6.027   2.769
 7968SOL     OW24802   1.899   1.418   1.889
 7968SOL    HW124803   1.937   1.467   1.968
 7968SOL    HW224804   1.867   1.484   1.822
 7969SOL     OW24805   2.948   2.254   3.091
 7969SOL    HW124806   2.937   2.274   3.189
 7969SOL    HW224807   3.043   2.229   3.073
 7970SOL     OW24808   0.342   4.493   3.290
 7970SOL    HW124809   0.311   4.447   3.207
 7970SOL    HW224810   0.314   4.589   3.288
 7971SOL     OW24811   2.380   1.647   1.688
 7971SOL    HW124812   2.452   1.578   1.676
 7971SOL    HW224813   2.374   1.703   1.605
 7972SOL     OW24814   0.534   4.202   2.224
 7972SOL    HW124815   0.568   4.116   2.264
 7972SOL    HW224816   0.510   4.265   2.298
 7973SOL     OW24817   4.662   2.672   2.776
 7973SOL    HW124818   4.646   2.722   2.690
 7973SOL    HW224819   4.600   2.593   2.780
 7974SOL     OW24820   5.309   0.348   4.377
 7974SOL    HW124821   5.240   0.350   4.304
 7974SOL    HW224822   5.391   0.302   4.344
 7975SOL     OW24823   2.742   1.252   4.103
 7975SOL    HW124824   2.781   1.261   4.011
 7975SOL    HW224825   2.679   1.174   4.104
 7976SOL     OW24826   0.742   5.288   6.582
 7976SOL    HW124827   0.739   5.332   6.493
 7976SOL    HW224828   0.829   5.308   6.626
 7977SOL     OW24829   5.150   6.212   1.330
 7977SOL    HW124830   5.110   6.243   1.244
 7977SOL    HW224831   5.244   6.244   1.337
 7978SOL     OW24832   4.500   2.690   5.701
 7978SOL    HW124833   4.558   2.677   5.621
 7978SOL    HW224834   4.414   2.733   5.674
 7979SOL     OW24835   3.701   6.555   4.208
 7979SOL    HW124836   3.708   6.551   4.308
 7979SOL    HW224837   3.753   6.634   4.174
 7980SOL     OW24838   3.166   6.273   1.700
 7980SOL    HW124839   3.118   6.187   1.714
 7980SOL    HW224840   3.259   6.255   1.667
 7981SOL     OW24841   1.035   5.259   3.066
 7981SOL    HW124842   1.074   5.203   3.139
 7981SOL    HW224843   0.971   5.204   3.012
 7982SOL     OW24844   6.550   3.209   0.605
 7982SOL    HW124845   6.579   3.273   0.676
 7982SOL    HW224846   6.496   3.258   0.537
 7983SOL     OW24847   5.003   2.421   2.426
 7983SOL    HW124848   5.036   2.483   2.354
 7983SOL    HW224849   4.955   2.474   2.496
 7984SOL     OW24850   0.608   0.830   1.299
 7984SOL    HW124851   0.626   0.740   1.259
 7984SOL    HW224852   0.516   0.831   1.338
 7985SOL     OW24853   0.300   1.648   2.011
 7985SOL    HW124854   0.384   1.619   1.966
 7985SOL    HW224855   0.271   1.737   1.975
 7986SOL     OW24856   3.978   1.610   0.620
 7986SOL    HW124857   3.977   1.510   0.619
 7986SOL    HW224858   3.889   1.645   0.651
 7987SOL     OW24859   0.435   3.220   4.801
 7987SOL    HW124860   0.342   3.231   4.766
 7987SOL    HW224861   0.461   3.123   4.797
 7988SOL     OW24862   2.836   1.285   5.600
 7988SOL    HW124863   2.933   1.306   5.609
 7988SOL    HW224864   2.787   1.366   5.568
 7989SOL     OW24865   2.793   2.587   5.371
 7989SOL    HW124866   2.759   2.575   5.464
 7989SOL    HW224867   2.794   2.684   5.348
 7990SOL     OW24868   1.620   2.439   4.728
 7990SOL    HW124869   1.591   2.485   4.644
 7990SOL    HW224870   1.719   2.425   4.726
 7991SOL     OW24871   0.890   3.042   5.796
 7991SOL    HW124872   0.963   3.110   5.791
 7991SOL    HW224873   0.805   3.087   5.822
 7992SOL     OW24874   2.305   1.147   1.033
 7992SOL    HW124875   2.292   1.187   0.942
 7992SOL    HW224876   2.320   1.219   1.100
 7993SOL     OW24877   2.082   6.789   6.617
 7993SOL    HW124878   2.154   6.768   6.551
 7993SOL    HW224879   1.993   6.768   6.577
 7994SOL     OW24880   5.547   0.933   3.165
 7994SOL    HW124881   5.557   0.981   3.253
 7994SOL    HW224882   5.570   0.836   3.178
 7995SOL     OW24883   3.297   5.236   3.474
 7995SOL    HW124884   3.387   5.253   3.434
 7995SOL    HW224885   3.291   5.141   3.504
 7996SOL     OW24886   3.653   0.067   5.056
 7996SOL    HW124887   3.734   0.125   5.060
 7996SOL    HW224888   3.662   7.019   5.120
 7997SOL     OW24889   5.482   2.602   1.601
 7997SOL    HW124890   5.499   2.643   1.691
 7997SOL    HW224891   5.405   2.649   1.557
 7998SOL     OW24892   6.031   4.820   6.712
 7998SOL    HW124893   5.955   4.756   6.721
 7998SOL    HW224894   6.117   4.769   6.713
 7999SOL     OW24895   1.933   0.576   5.535
 7999SOL    HW124896   1.903   0.608   5.445
 7999SOL    HW224897   1.945   0.654   5.597
 8000SOL     OW24898   6.142   6.576   5.615
 8000SOL    HW124899   6.140   6.498   5.552
 8000SOL    HW224900   6.206   6.557   5.690
 8001SOL     OW24901   2.290   6.928   1.269
 8001SOL    HW124902   2.385   6.898   1.273
 8001SOL    HW224903   2.283   7.010   1.212
 8002SOL     OW24904   5.824   2.897   5.448
 8002SOL    HW124905   5.724   2.900   5.444
 8002SOL    HW224906   5.861   2.916   5.358
 8003SOL     OW24907   3.415   5.203   3.086
 8003SOL    HW124908   3.362   5.209   3.002
 8003SOL    HW224909   3.427   5.107   3.111
 8004SOL     OW24910   1.927   4.075   2.757
 8004SOL    HW124911   1.903   4.168   2.782
 8004SOL    HW224912   1.873   4.046   2.678
 8005SOL     OW24913   2.945   1.351   1.492
 8005SOL    HW124914   2.876   1.422   1.505
 8005SOL    HW224915   2.974   1.317   1.582
 8006SOL     OW24916   3.466   5.945   0.553
 8006SOL    HW124917   3.373   5.981   0.547
 8006SOL    HW224918   3.464   5.856   0.597
 8007SOL     OW24919   0.531   0.723   4.250
 8007SOL    HW124920   0.601   0.757   4.313
 8007SOL    HW224921   0.454   0.787   4.247
 8008SOL     OW24922   6.259   6.501   0.443
 8008SOL    HW124923   6.239   6.597   0.462
 8008SOL    HW224924   6.213   6.474   0.358
 8009SOL     OW24925   6.600   6.791   3.668
 8009SOL    HW124926   6.696   6.781   3.697
 8009SOL    HW224927   6.597   6.840   3.581
 8010SOL     OW24928   2.558   3.262   6.775
 8010SOL    HW124929   2.619   3.187   6.801
 8010SOL    HW224930   2.559   3.273   6.676
 8011SOL     OW24931   2.796   2.144   0.468
 8011SOL    HW124932   2.854   2.065   0.489
 8011SOL    HW224933   2.712   2.112   0.424
 8012SOL     OW24934   3.100   6.084   2.109
 8012SOL    HW124935   3.018   6.046   2.068
 8012SOL    HW224936   3.164   6.010   2.131
 8013SOL     OW24937   6.088   4.538   5.315
 8013SOL    HW124938   6.102   4.579   5.405
 8013SOL    HW224939   6.095   4.609   5.245
 8014SOL     OW24940   2.083   6.542   0.333
 8014SOL    HW124941   2.012   6.609   0.310
 8014SOL    HW224942   2.086   6.471   0.262
 8015SOL     OW24943   2.079   2.723   7.017
 8015SOL    HW124944   2.044   2.671   0.067
 8015SOL    HW224945   2.090   2.663   6.938
 8016SOL     OW24946   3.283   6.456   1.460
 8016SOL    HW124947   3.291   6.493   1.367
 8016SOL    HW224948   3.238   6.524   1.518
 8017SOL     OW24949   6.016   4.392   4.378
 8017SOL    HW124950   5.932   4.365   4.332
 8017SOL    HW224951   6.034   4.489   4.362
 8018SOL     OW24952   5.279   2.338   5.055
 8018SOL    HW124953   5.349   2.402   5.085
 8018SOL    HW224954   5.205   2.335   5.122
 8019SOL     OW24955   2.900   5.525   0.937
 8019SOL    HW124956   2.956   5.593   0.985
 8019SOL    HW224957   2.811   5.566   0.914
 8020SOL     OW24958   5.439   5.568   6.735
 8020SOL    HW124959   5.394   5.481   6.755
 8020SOL    HW224960   5.370   5.637   6.714
 8021SOL     OW24961   0.856   0.534   1.340
 8021SOL    HW124962   0.838   0.626   1.376
 8021SOL    HW224963   0.945   0.503   1.372
 8022SOL     OW24964   4.619   6.168   2.787
 8022SOL    HW124965   4.696   6.232   2.788
 8022SOL    HW224966   4.584   6.158   2.694
 8023SOL     OW24967   6.513   6.846   3.117
 8023SOL    HW124968   6.504   6.928   3.174
 8023SOL    HW224969   6.479   6.767   3.167
 8024SOL     OW24970   4.556   5.078   5.235
 8024SOL    HW124971   4.503   5.129   5.168
 8024SOL    HW224972   4.622   5.019   5.188
 8025SOL     OW24973   3.671   5.502   6.907
 8025SOL    HW124974   3.648   5.535   6.999
 8025SOL    HW224975   3.768   5.480   6.903
 8026SOL     OW24976   0.932   2.878   0.347
 8026SOL    HW124977   0.890   2.964   0.379
 8026SOL    HW224978   0.876   2.801   0.376
 8027SOL     OW24979   5.177   2.848   5.495
 8027SOL    HW124980   5.225   2.803   5.569
 8027SOL    HW224981   5.079   2.827   5.501
 8028SOL     OW24982   5.619   4.461   6.908
 8028SOL    HW124983   5.677   4.502   6.838
 8028SOL    HW224984   5.623   4.362   6.902
 8029SOL     OW24985   3.362   4.233   0.844
 8029SOL    HW124986   3.385   4.288   0.763
 8029SOL    HW224987   3.264   4.214   0.846
 8030SOL     OW24988   5.737   4.035   6.621
 8030SOL    HW124989   5.696   3.995   6.539
 8030SOL    HW224990   5.836   4.037   6.611
 8031SOL     OW24991   3.540   5.869   1.509
 8031SOL    HW124992   3.582   5.804   1.446
 8031SOL    HW224993   3.601   5.948   1.521
 8032SOL     OW24994   5.153   3.766   5.885
 8032SOL    HW124995   5.135   3.765   5.787
 8032SOL    HW224996   5.240   3.812   5.903
 8033SOL     OW24997   5.742   2.769   0.080
 8033SOL    HW124998   5.698   2.858   0.082
 8033SOL    HW224999   5.737   2.726   0.170
 8034SOL     OW25000   5.804   0.739   5.563
 8034SOL    HW125001   5.832   0.835   5.575
 8034SOL    HW225002   5.784   0.723   5.467
 8035SOL     OW25003   5.604   6.468   6.640
 8035SOL    HW125004   5.592   6.389   6.701
 8035SOL    HW225005   5.593   6.438   6.545
 8036SOL     OW25006   2.130   4.542   1.694
 8036SOL    HW125007   2.074   4.556   1.613
 8036SOL    HW225008   2.125   4.446   1.722
 8037SOL     OW25009   1.418   3.075   1.286
 8037SOL    HW125010   1.378   3.119   1.206
 8037SOL    HW225011   1.345   3.044   1.347
 8038SOL     OW25012   0.111   2.403   4.224
 8038SOL    HW125013   0.143   2.495   4.244
 8038SOL    HW225014   0.023   2.388   4.269
 8039SOL     OW25015   2.842   6.850   3.627
 8039SOL    HW125016   2.928   6.835   3.676
 8039SOL    HW225017   2.847   6.936   3.576
 8040SOL     OW25018   6.867   5.709   1.005
 8040SOL    HW125019   6.783   5.739   0.959
 8040SOL    HW225020   6.898   5.780   1.067
 8041SOL     OW25021   4.570   1.685   0.862
 8041SOL    HW125022   4.628   1.767   0.868
 8041SOL    HW225023   4.495   1.702   0.798
 8042SOL     OW25024   3.307   3.357   1.423
 8042SOL    HW125025   3.297   3.259   1.438
 8042SOL    HW225026   3.396   3.376   1.383
 8043SOL     OW25027   2.996   6.650   2.194
 8043SOL    HW125028   3.068   6.583   2.205
 8043SOL    HW225029   2.911   6.615   2.233
 8044SOL     OW25030   3.014   3.789   2.188
 8044SOL    HW125031   3.110   3.795   2.215
 8044SOL    HW225032   2.997   3.698   2.150
 8045SOL     OW25033   5.862   2.572   3.370
 8045SOL    HW125034   5.782   2.621   3.336
 8045SOL    HW225035   5.843   2.534   3.460
 8046SOL     OW25036   6.629   4.990   6.109
 8046SOL    HW125037   6.720   5.032   6.115
 8046SOL    HW225038   6.639   4.893   6.088
 8047SOL     OW25039   3.558   6.069   3.971
 8047SOL    HW125040   3.588   6.117   3.888
 8047SOL    HW225041   3.544   5.972   3.951
 8048SOL     OW25042   6.874   6.832   5.808
 8048SOL    HW125043   6.775   6.825   5.799
 8048SOL    HW225044   6.915   6.847   5.718
 8049SOL     OW25045   1.045   5.435   0.634
 8049SOL    HW125046   1.094   5.412   0.718
 8049SOL    HW225047   1.026   5.351   0.583
 8050SOL     OW25048   1.651   2.827   1.132
 8050SOL    HW125049   1.613   2.868   1.214
 8050SOL    HW225050   1.604   2.863   1.051
 8051SOL     OW25051   4.611   1.073   3.910
 8051SOL    HW125052   4.702   1.111   3.922
 8051SOL    HW225053   4.573   1.103   3.822
 8052SOL     OW25054   2.481   1.375   2.976
 8052SOL    HW125055   2.426   1.457   2.987
 8052SOL    HW225056   2.565   1.383   3.029
 8053SOL     OW25057   3.985   3.591   2.141
 8053SOL    HW125058   3.923   3.600   2.219
 8053SOL    HW225059   3.935   3.557   2.062
 8054SOL     OW25060   4.126   6.040   4.966
 8054SOL    HW125061   4.046   6.070   5.018
 8054SOL    HW225062   4.157   6.116   4.908
 8055SOL     OW25063   1.628   7.009   5.575
 8055SOL    HW125064   1.645   0.042   5.498
 8055SOL    HW225065   1.685   0.011   5.653
 8056SOL     OW25066   4.264   1.923   2.982
 8056SOL    HW125067   4.347   1.890   2.938
 8056SOL    HW225068   4.251   1.875   3.069
 8057SOL     OW25069   3.630   6.570   3.204
 8057SOL    HW125070   3.672   6.576   3.295
 8057SOL    HW225071   3.620   6.662   3.166
 8058SOL     OW25072   2.375   1.127   3.121
 8058SOL    HW125073   2.276   1.123   3.138
 8058SOL    HW225074   2.391   1.124   3.022
 8059SOL     OW25075   3.028   1.707   3.663
 8059SOL    HW125076   3.022   1.758   3.748
 8059SOL    HW225077   3.069   1.617   3.681
 8060SOL     OW25078   0.438   1.554   4.670
 8060SOL    HW125079   0.533   1.524   4.668
 8060SOL    HW225080   0.430   1.645   4.629
 8061SOL     OW25081   0.452   5.390   2.194
 8061SOL    HW125082   0.520   5.462   2.180
 8061SOL    HW225083   0.367   5.430   2.227
 8062SOL     OW25084   1.821   3.679   3.354
 8062SOL    HW125085   1.733   3.725   3.365
 8062SOL    HW225086   1.818   3.589   3.399
 8063SOL     OW25087   3.305   2.940   0.318
 8063SOL    HW125088   3.389   2.992   0.327
 8063SOL    HW225089   3.230   3.001   0.292
 8064SOL     OW25090   6.800   3.958   6.740
 8064SOL    HW125091   6.898   3.977   6.729
 8064SOL    HW225092   6.767   3.905   6.662
 8065SOL     OW25093   4.757   0.393   5.583
 8065SOL    HW125094   4.836   0.389   5.522
 8065SOL    HW225095   4.705   0.308   5.575
 8066SOL     OW25096   1.699   0.419   1.658
 8066SOL    HW125097   1.717   0.426   1.757
 8066SOL    HW225098   1.633   0.490   1.632
 8067SOL     OW25099   5.097   2.556   1.982
 8067SOL    HW125100   5.056   2.592   1.898
 8067SOL    HW225101   5.188   2.595   1.995
 8068SOL     OW25102   0.637   4.153   4.562
 8068SOL    HW125103   0.572   4.080   4.582
 8068SOL    HW225104   0.600   4.240   4.596
 8069SOL     OW25105   1.645   6.587   1.566
 8069SOL    HW125106   1.650   6.599   1.665
 8069SOL    HW225107   1.585   6.510   1.545
 8070SOL     OW25108   3.895   0.397   1.385
 8070SOL    HW125109   3.809   0.370   1.342
 8070SOL    HW225110   3.878   0.472   1.448
 8071SOL     OW25111   3.910   6.376   6.786
 8071SOL    HW125112   3.891   6.288   6.743
 8071SOL    HW225113   3.980   6.365   6.857
 8072SOL     OW25114   5.415   0.922   1.396
 8072SOL    HW125115   5.376   0.913   1.304
 8072SOL    HW225116   5.341   0.917   1.463
 8073SOL     OW25117   4.125   6.534   5.714
 8073SOL    HW125118   4.223   6.549   5.702
 8073SOL    HW225119   4.075   6.616   5.687
 8074SOL     OW25120   3.252   3.921   0.183
 8074SOL    HW125121   3.305   3.989   0.234
 8074SOL    HW225122   3.198   3.967   0.112
 8075SOL     OW25123   7.000   1.845   2.784
 8075SOL    HW125124   0.021   1.918   2.737
 8075SOL    HW225125   0.031   1.805   2.854
 8076SOL     OW25126   6.123   3.048   5.889
 8076SOL    HW125127   6.159   3.140   5.906
 8076SOL    HW225128   6.070   3.048   5.804
 8077SOL     OW25129   1.399   0.326   0.809
 8077SOL    HW125130   1.339   0.369   0.876
 8077SOL    HW225131   1.373   0.355   0.717
 8078SOL     OW25132   6.347   3.586   0.843
 8078SOL    HW125133   6.267   3.528   0.857
 8078SOL    HW225134   6.426   3.545   0.887
 8079SOL     OW25135   6.871   1.919   2.136
 8079SOL    HW125136   6.837   1.943   2.227
 8079SOL    HW225137   6.836   1.984   2.069
 8080SOL     OW25138   3.614   4.857   0.052
 8080SOL    HW125139   3.588   4.858   0.148
 8080SOL    HW225140   3.550   4.799   0.000
 8081SOL     OW25141   6.191   0.946   5.718
 8081SOL    HW125142   6.269   0.892   5.750
 8081SOL    HW225143   6.196   1.038   5.757
 8082SOL     OW25144   6.941   3.058   3.698
 8082SOL    HW125145   6.846   3.030   3.715
 8082SOL    HW225146   6.994   2.979   3.668
 8083SOL     OW25147   4.376   2.389   3.571
 8083SOL    HW125148   4.426   2.464   3.527
 8083SOL    HW225149   4.387   2.396   3.670
 8084SOL     OW25150   6.827   0.007   0.831
 8084SOL    HW125151   6.881   6.964   0.876
 8084SOL    HW225152   6.878   0.093   0.832
 8085SOL     OW25153   5.538   1.441   1.461
 8085SOL    HW125154   5.576   1.522   1.507
 8085SOL    HW225155   5.514   1.465   1.367
 8086SOL     OW25156   3.441   0.259   5.566
 8086SOL    HW125157   3.480   0.326   5.503
 8086SOL    HW225158   3.494   0.174   5.562
 8087SOL     OW25159   3.032   2.822   1.376
 8087SOL    HW125160   3.040   2.741   1.433
 8087SOL    HW225161   2.980   2.892   1.425
 8088SOL     OW25162   3.943   0.999   3.336
 8088SOL    HW125163   3.894   1.000   3.423
 8088SOL    HW225164   3.905   1.069   3.275
 8089SOL     OW25165   5.757   3.039   0.354
 8089SOL    HW125166   5.678   3.058   0.296
 8089SOL    HW225167   5.728   2.984   0.432
 8090SOL     OW25168   4.985   1.848   5.126
 8090SOL    HW125169   5.076   1.890   5.119
 8090SOL    HW225170   4.948   1.862   5.218
 8091SOL     OW25171   3.239   5.073   5.939
 8091SOL    HW125172   3.210   5.029   6.024
 8091SOL    HW225173   3.266   5.167   5.959
 8092SOL     OW25174   1.292   1.807   3.972
 8092SOL    HW125175   1.370   1.777   3.917
 8092SOL    HW225176   1.208   1.796   3.920
 8093SOL     OW25177   5.659   6.070   1.120
 8093SOL    HW125178   5.730   6.105   1.181
 8093SOL    HW225179   5.701   6.027   1.041
 8094SOL     OW25180   0.622   3.192   5.813
 8094SOL    HW125181   0.602   3.239   5.899
 8094SOL    HW225182   0.676   3.251   5.754
 8095SOL     OW25183   5.458   3.808   4.325
 8095SOL    HW125184   5.532   3.788   4.389
 8095SOL    HW225185   5.374   3.764   4.357
 8096SOL     OW25186   3.747   5.770   1.351
 8096SOL    HW125187   3.765   5.672   1.360
 8096SOL    HW225188   3.832   5.819   1.337
 8097SOL     OW25189   4.942   1.119   3.928
 8097SOL    HW125190   5.014   1.083   3.986
 8097SOL    HW225191   4.903   1.045   3.873
 8098SOL     OW25192   2.956   6.637   3.828
 8098SOL    HW125193   3.039   6.687   3.804
 8098SOL    HW225194   2.980   6.543   3.851
 8099SOL     OW25195   4.972   6.486   5.015
 8099SOL    HW125196   5.038   6.503   5.089
 8099SOL    HW225197   4.927   6.572   4.990
 8100SOL     OW25198   0.458   6.568   0.815
 8100SOL    HW125199   0.466   6.469   0.818
 8100SOL    HW225200   0.361   6.594   0.823
 8101SOL     OW25201   1.364   6.224   3.624
 8101SOL    HW125202   1.352   6.324   3.629
 8101SOL    HW225203   1.443   6.203   3.568
 8102SOL     OW25204   0.298   5.566   6.019
 8102SOL    HW125205   0.255   5.496   6.076
 8102SOL    HW225206   0.251   5.654   6.032
 8103SOL     OW25207   2.750   1.271   2.630
 8103SOL    HW125208   2.783   1.177   2.631
 8103SOL    HW225209   2.657   1.273   2.593
 8104SOL     OW25210   2.501   6.796   6.370
 8104SOL    HW125211   2.578   6.736   6.347
 8104SOL    HW225212   2.529   6.859   6.442
 8105SOL     OW25213   1.940   2.158   2.826
 8105SOL    HW125214   1.939   2.087   2.897
 8105SOL    HW225215   1.998   2.234   2.855
 8106SOL     OW25216   0.799   3.668   4.387
 8106SOL    HW125217   0.745   3.720   4.320
 8106SOL    HW225218   0.737   3.615   4.445
 8107SOL     OW25219   2.010   6.206   6.219
 8107SOL    HW125220   1.999   6.215   6.120
 8107SOL    HW225221   1.967   6.121   6.250
 8108SOL     OW25222   1.249   2.998   4.119
 8108SOL    HW125223   1.188   3.065   4.078
 8108SOL    HW225224   1.252   3.012   4.218
 8109SOL     OW25225   1.794   5.220   5.167
 8109SOL    HW125226   1.776   5.302   5.113
 8109SOL    HW225227   1.859   5.161   5.119
 8110SOL     OW25228   2.236   4.456   1.333
 8110SOL    HW125229   2.207   4.524   1.267
 8110SOL    HW225230   2.325   4.481   1.371
 8111SOL     OW25231   2.295   5.514   4.347
 8111SOL    HW125232   2.202   5.484   4.368
 8111SOL    HW225233   2.299   5.614   4.349
 8112SOL     OW25234   3.174   0.839   4.810
 8112SOL    HW125235   3.159   0.759   4.753
 8112SOL    HW225236   3.175   0.921   4.753
 8113SOL     OW25237   3.952   2.707   6.041
 8113SOL    HW125238   3.907   2.721   5.953
 8113SOL    HW225239   4.027   2.641   6.030
 8114SOL     OW25240   2.760   3.560   1.178
 8114SOL    HW125241   2.704   3.478   1.189
 8114SOL    HW225242   2.720   3.619   1.109
 8115SOL     OW25243   3.823   1.597   1.075
 8115SOL    HW125244   3.734   1.555   1.056
 8115SOL    HW225245   3.820   1.694   1.051
 8116SOL     OW25246   6.217   0.537   5.414
 8116SOL    HW125247   6.170   0.450   5.428
 8116SOL    HW225248   6.267   0.561   5.497
 8117SOL     OW25249   2.251   1.798   5.829
 8117SOL    HW125250   2.311   1.876   5.809
 8117SOL    HW225251   2.165   1.831   5.868
 8118SOL     OW25252   0.753   3.225   4.798
 8118SOL    HW125253   0.789   3.138   4.833
 8118SOL    HW225254   0.655   3.229   4.815
 8119SOL     OW25255   1.137   6.148   2.643
 8119SOL    HW125256   1.107   6.056   2.668
 8119SOL    HW225257   1.190   6.188   2.718
 8120SOL     OW25258   4.497   3.744   1.676
 8120SOL    HW125259   4.572   3.791   1.629
 8120SOL    HW225260   4.441   3.810   1.725
 8121SOL     OW25261   6.438   0.754   2.942
 8121SOL    HW125262   6.425   0.697   2.861
 8121SOL    HW225263   6.536   0.762   2.961
 8122SOL     OW25264   6.911   6.803   2.108
 8122SOL    HW125265   6.881   6.795   2.204
 8122SOL    HW225266   7.010   6.813   2.105
 8123SOL     OW25267   0.757   6.094   0.615
 8123SOL    HW125268   0.839   6.038   0.625
 8123SOL    HW225269   0.743   6.148   0.699
 8124SOL     OW25270   1.040   5.904   2.742
 8124SOL    HW125271   1.131   5.863   2.745
 8124SOL    HW225272   0.988   5.878   2.823
 8125SOL     OW25273   5.245   5.391   2.923
 8125SOL    HW125274   5.214   5.300   2.950
 8125SOL    HW225275   5.330   5.413   2.972
 8126SOL     OW25276   5.653   4.984   2.043
 8126SOL    HW125277   5.556   4.964   2.033
 8126SOL    HW225278   5.692   4.926   2.114
 8127SOL     OW25279   2.993   4.445   0.319
 8127SOL    HW125280   2.915   4.419   0.263
 8127SOL    HW225281   2.979   4.537   0.355
 8128SOL     OW25282   3.924   2.452   5.357
 8128SOL    HW125283   4.008   2.457   5.304
 8128SOL    HW225284   3.902   2.543   5.393
 8129SOL     OW25285   4.895   6.731   6.920
 8129SOL    HW125286   4.927   6.642   6.953
 8129SOL    HW225287   4.797   6.741   6.938
 8130SOL     OW25288   1.822   6.665   0.541
 8130SOL    HW125289   1.827   6.713   0.454
 8130SOL    HW225290   1.732   6.679   0.582
 8131SOL     OW25291   1.613   1.790   0.697
 8131SOL    HW125292   1.614   1.691   0.682
 8131SOL    HW225293   1.586   1.809   0.791
 8132SOL     OW25294   6.832   4.918   3.695
 8132SOL    HW125295   6.912   4.937   3.639
 8132SOL    HW225296   6.817   4.820   3.701
 8133SOL     OW25297   1.144   5.438   2.038
 8133SOL    HW125298   1.131   5.342   2.012
 8133SOL    HW225299   1.083   5.496   1.983
 8134SOL     OW25300   2.163   2.348   2.202
 8134SOL    HW125301   2.084   2.404   2.227
 8134SOL    HW225302   2.176   2.276   2.269
 8135SOL     OW25303   4.486   5.947   1.500
 8135SOL    HW125304   4.391   5.920   1.483
 8135SOL    HW225305   4.515   5.911   1.589
 8136SOL     OW25306   4.020   5.987   1.192
 8136SOL    HW125307   3.991   6.081   1.176
 8136SOL    HW225308   4.013   5.935   1.107
 8137SOL     OW25309   2.555   3.833   5.901
 8137SOL    HW125310   2.503   3.750   5.884
 8137SOL    HW225311   2.651   3.811   5.914
 8138SOL     OW25312   4.915   1.078   3.527
 8138SOL    HW125313   4.963   1.078   3.439
 8138SOL    HW225314   4.911   1.170   3.564
 8139SOL     OW25315   1.877   2.686   3.989
 8139SOL    HW125316   1.845   2.751   3.921
 8139SOL    HW225317   1.963   2.719   4.028
 8140SOL     OW25318   4.146   0.297   0.624
 8140SOL    HW125319   4.115   0.250   0.541
 8140SOL    HW225320   4.197   0.233   0.681
 8141SOL     OW25321   4.935   0.793   5.133
 8141SOL    HW125322   4.856   0.742   5.100
 8141SOL    HW225323   4.934   0.885   5.096
 8142SOL     OW25324   2.167   6.082   1.004
 8142SOL    HW125325   2.174   6.015   1.078
 8142SOL    HW225326   2.101   6.153   1.030
 8143SOL     OW25327   6.254   5.025   0.312
 8143SOL    HW125328   6.317   5.090   0.355
 8143SOL    HW225329   6.160   5.056   0.325
 8144SOL     OW25330   0.165   4.952   0.024
 8144SOL    HW125331   0.154   4.874   6.991
 8144SOL    HW225332   0.199   4.922   0.112
 8145SOL     OW25333   5.544   5.238   0.039
 8145SOL    HW125334   5.576   5.150   0.006
 8145SOL    HW225335   5.487   5.282   6.997
 8146SOL     OW25336   6.020   0.374   4.164
 8146SOL    HW125337   6.047   0.470   4.165
 8146SOL    HW225338   6.048   0.332   4.078
 8147SOL     OW25339   1.768   0.946   6.649
 8147SOL    HW125340   1.827   1.022   6.620
 8147SOL    HW225341   1.741   0.959   6.744
 8148SOL     OW25342   4.850   4.954   0.323
 8148SOL    HW125343   4.929   5.013   0.308
 8148SOL    HW225344   4.794   4.990   0.397
 8149SOL     OW25345   0.453   5.899   5.186
 8149SOL    HW125346   0.489   5.991   5.167
 8149SOL    HW225347   0.490   5.835   5.119
 8150SOL     OW25348   0.324   3.822   1.110
 8150SOL    HW125349   0.309   3.899   1.172
 8150SOL    HW225350   0.290   3.738   1.152
 8151SOL     OW25351   6.636   5.792   2.970
 8151SOL    HW125352   6.575   5.846   2.912
 8151SOL    HW225353   6.723   5.779   2.923
 8152SOL     OW25354   4.953   1.437   3.262
 8152SOL    HW125355   4.954   1.529   3.222
 8152SOL    HW225356   4.859   1.411   3.282
 8153SOL     OW25357   0.347   1.626   2.343
 8153SOL    HW125358   0.310   1.547   2.392
 8153SOL    HW225359   0.286   1.705   2.356
 8154SOL     OW25360   1.674   0.300   2.675
 8154SOL    HW125361   1.772   0.283   2.663
 8154SOL    HW225362   1.635   0.228   2.732
 8155SOL     OW25363   1.945   5.520   3.463
 8155SOL    HW125364   1.935   5.448   3.395
 8155SOL    HW225365   1.984   5.481   3.547
 8156SOL     OW25366   0.077   5.313   1.901
 8156SOL    HW125367   0.057   5.247   1.829
 8156SOL    HW225368   0.173   5.304   1.929
 8157SOL     OW25369   0.244   3.738   4.994
 8157SOL    HW125370   0.164   3.727   5.052
 8157SOL    HW225371   0.230   3.686   4.909
 8158SOL     OW25372   5.834   5.056   6.752
 8158SOL    HW125373   5.781   5.025   6.673
 8158SOL    HW225374   5.931   5.038   6.737
 8159SOL     OW25375   3.202   6.663   5.513
 8159SOL    HW125376   3.192   6.683   5.416
 8159SOL    HW225377   3.187   6.565   5.529
 8160SOL     OW25378   5.323   1.284   3.047
 8160SOL    HW125379   5.320   1.187   3.068
 8160SOL    HW225380   5.260   1.304   2.971
 8161SOL     OW25381   5.892   3.121   1.433
 8161SOL    HW125382   5.937   3.121   1.343
 8161SOL    HW225383   5.946   3.066   1.497
 8162SOL     OW25384   0.558   5.473   5.986
 8162SOL    HW125385   0.468   5.515   5.995
 8162SOL    HW225386   0.566   5.396   6.050
 8163SOL     OW25387   4.598   4.315   5.275
 8163SOL    HW125388   4.681   4.264   5.253
 8163SOL    HW225389   4.532   4.254   5.320
 8164SOL     OW25390   4.987   1.563   1.064
 8164SOL    HW125391   4.991   1.487   1.000
 8164SOL    HW225392   4.976   1.649   1.014
 8165SOL     OW25393   0.246   1.158   0.587
 8165SOL    HW125394   0.251   1.064   0.554
 8165SOL    HW225395   0.336   1.186   0.621
 8166SOL     OW25396   1.642   1.470   5.645
 8166SOL    HW125397   1.688   1.461   5.733
 8166SOL    HW225398   1.699   1.429   5.574
 8167SOL     OW25399   1.211   2.780   4.462
 8167SOL    HW125400   1.216   2.879   4.447
 8167SOL    HW225401   1.301   2.747   4.489
 8168SOL     OW25402   2.419   0.698   2.023
 8168SOL    HW125403   2.420   0.640   2.104
 8168SOL    HW225404   2.486   0.771   2.033
 8169SOL     OW25405   5.119   2.232   0.304
 8169SOL    HW125406   5.079   2.321   0.327
 8169SOL    HW225407   5.054   2.179   0.249
 8170SOL     OW25408   6.555   5.277   2.403
 8170SOL    HW125409   6.505   5.233   2.478
 8170SOL    HW225410   6.570   5.212   2.329
 8171SOL     OW25411   1.906   0.882   1.066
 8171SOL    HW125412   1.880   0.838   0.981
 8171SOL    HW225413   1.840   0.953   1.089
 8172SOL     OW25414   0.628   2.678   0.754
 8172SOL    HW125415   0.686   2.644   0.828
 8172SOL    HW225416   0.592   2.601   0.701
 8173SOL     OW25417   6.173   1.143   1.754
 8173SOL    HW125418   6.154   1.093   1.838
 8173SOL    HW225419   6.265   1.181   1.757
 8174SOL     OW25420   2.610   4.772   3.321
 8174SOL    HW125421   2.681   4.800   3.386
 8174SOL    HW225422   2.567   4.688   3.354
 8175SOL     OW25423   0.413   1.512   5.210
 8175SOL    HW125424   0.380   1.543   5.120
 8175SOL    HW225425   0.355   1.552   5.282
 8176SOL     OW25426   2.171   4.279   0.576
 8176SOL    HW125427   2.141   4.247   0.486
 8176SOL    HW225428   2.228   4.208   0.618
 8177SOL     OW25429   3.585   1.037   3.432
 8177SOL    HW125430   3.670   1.072   3.470
 8177SOL    HW225431   3.533   0.991   3.503
 8178SOL     OW25432   2.448   6.637   1.667
 8178SOL    HW125433   2.523   6.590   1.622
 8178SOL    HW225434   2.371   6.646   1.604
 8179SOL     OW25435   5.936   0.925   3.422
 8179SOL    HW125436   5.881   0.967   3.494
 8179SOL    HW225437   5.995   0.995   3.381
 8180SOL     OW25438   5.139   6.445   0.211
 8180SOL    HW125439   5.227   6.445   0.162
 8180SOL    HW225440   5.126   6.357   0.257
 8181SOL     OW25441   0.547   0.493   0.594
 8181SOL    HW125442   0.559   0.561   0.667
 8181SOL    HW225443   0.454   0.456   0.599
 8182SOL     OW25444   2.869   3.535   4.805
 8182SOL    HW125445   2.936   3.520   4.733
 8182SOL    HW225446   2.829   3.448   4.834
 8183SOL     OW25447   0.356   0.253   4.921
 8183SOL    HW125448   0.326   0.271   4.827
 8183SOL    HW225449   0.395   0.161   4.928
 8184SOL     OW25450   0.368   6.373   6.731
 8184SOL    HW125451   0.432   6.304   6.697
 8184SOL    HW225452   0.281   6.330   6.754
 8185SOL     OW25453   0.564   5.990   6.690
 8185SOL    HW125454   0.591   5.930   6.766
 8185SOL    HW225455   0.522   5.934   6.619
 8186SOL     OW25456   1.676   5.640   6.816
 8186SOL    HW125457   1.676   5.707   6.890
 8186SOL    HW225458   1.729   5.675   6.739
 8187SOL     OW25459   0.639   0.861   5.634
 8187SOL    HW125460   0.603   0.954   5.643
 8187SOL    HW225461   0.632   0.831   5.539
 8188SOL     OW25462   2.158   2.911   3.318
 8188SOL    HW125463   2.206   2.929   3.404
 8188SOL    HW225464   2.189   2.824   3.280
 8189SOL     OW25465   5.715   5.569   3.866
 8189SOL    HW125466   5.740   5.533   3.776
 8189SOL    HW225467   5.628   5.528   3.895
 8190SOL     OW25468   6.789   3.756   3.203
 8190SOL    HW125469   6.816   3.661   3.222
 8190SOL    HW225470   6.690   3.762   3.197
 8191SOL     OW25471   3.285   5.454   0.824
 8191SOL    HW125472   3.212   5.462   0.756
 8191SOL    HW225473   3.250   5.408   0.905
 8192SOL     OW25474   0.635   4.664   3.501
 8192SOL    HW125475   0.621   4.647   3.404
 8192SOL    HW225476   0.722   4.623   3.531
 8193SOL     OW25477   0.268   4.299   4.579
 8193SOL    HW125478   0.260   4.306   4.678
 8193SOL    HW225479   0.361   4.326   4.552
 8194SOL     OW25480   4.652   6.462   1.608
 8194SOL    HW125481   4.595   6.538   1.578
 8194SOL    HW225482   4.608   6.375   1.585
 8195SOL     OW25483   5.811   6.436   2.983
 8195SOL    HW125484   5.855   6.525   2.967
 8195SOL    HW225485   5.879   6.364   2.978
 8196SOL     OW25486   5.022   0.644   0.704
 8196SOL    HW125487   4.944   0.702   0.680
 8196SOL    HW225488   5.011   0.554   0.662
 8197SOL     OW25489   3.753   1.435   2.610
 8197SOL    HW125490   3.831   1.463   2.554
 8197SOL    HW225491   3.672   1.488   2.585
 8198SOL     OW25492   1.198   0.205   2.489
 8198SOL    HW125493   1.289   0.164   2.487
 8198SOL    HW225494   1.176   0.241   2.398
 8199SOL     OW25495   5.622   3.103   6.347
 8199SOL    HW125496   5.524   3.104   6.366
 8199SOL    HW225497   5.646   3.178   6.286
 8200SOL     OW25498   4.652   3.144   0.855
 8200SOL    HW125499   4.674   3.151   0.757
 8200SOL    HW225500   4.586   3.215   0.879
 8201SOL     OW25501   6.813   6.694   5.558
 8201SOL    HW125502   6.792   6.677   5.462
 8201SOL    HW225503   6.876   6.623   5.592
 8202SOL     OW25504   0.813   6.730   1.918
 8202SOL    HW125505   0.785   6.724   2.014
 8202SOL    HW225506   0.762   6.664   1.864
 8203SOL     OW25507   1.137   3.388   1.408
 8203SOL    HW125508   1.200   3.429   1.473
 8203SOL    HW225509   1.138   3.440   1.323
 8204SOL     OW25510   3.032   3.159   0.953
 8204SOL    HW125511   2.984   3.121   1.032
 8204SOL    HW225512   3.097   3.228   0.983
 8205SOL     OW25513   1.092   3.614   0.424
 8205SOL    HW125514   1.100   3.653   0.516
 8205SOL    HW225515   1.084   3.687   0.357
 8206SOL     OW25516   3.894   0.480   0.198
 8206SOL    HW125517   3.958   0.530   0.140
 8206SOL    HW225518   3.922   0.489   0.294
 8207SOL     OW25519   3.900   3.019   4.748
 8207SOL    HW125520   3.981   2.963   4.731
 8207SOL    HW225521   3.894   3.091   4.679
 8208SOL     OW25522   2.522   0.862   0.647
 8208SOL    HW125523   2.583   0.787   0.673
 8208SOL    HW225524   2.492   0.911   0.729
 8209SOL     OW25525   6.328   1.172   5.269
 8209SOL    HW125526   6.287   1.264   5.267
 8209SOL    HW225527   6.395   1.164   5.195
 8210SOL     OW25528   1.426   2.786   6.975
 8210SOL    HW125529   1.393   2.741   0.031
 8210SOL    HW225530   1.486   2.862   7.000
 8211SOL     OW25531   3.077   4.718   1.518
 8211SOL    HW125532   3.004   4.779   1.486
 8211SOL    HW225533   3.149   4.772   1.561
 8212SOL     OW25534   1.722   2.471   3.934
 8212SOL    HW125535   1.754   2.556   3.976
 8212SOL    HW225536   1.793   2.436   3.872
 8213SOL     OW25537   6.858   5.374   1.341
 8213SOL    HW125538   6.851   5.295   1.401
 8213SOL    HW225539   6.780   5.376   1.279
 8214SOL     OW25540   5.501   4.380   3.398
 8214SOL    HW125541   5.468   4.440   3.325
 8214SOL    HW225542   5.428   4.317   3.425
 8215SOL     OW25543   3.493   5.645   4.440
 8215SOL    HW125544   3.452   5.597   4.363
 8215SOL    HW225545   3.471   5.742   4.435
 8216SOL     OW25546   4.982   4.252   3.604
 8216SOL    HW125547   4.945   4.328   3.656
 8216SOL    HW225548   5.079   4.240   3.625
 8217SOL     OW25549   2.272   5.926   0.138
 8217SOL    HW125550   2.238   5.929   0.232
 8217SOL    HW225551   2.265   5.832   0.103
 8218SOL     OW25552   0.362   1.581   0.261
 8218SOL    HW125553   0.431   1.522   0.302
 8218SOL    HW225554   0.397   1.617   0.174
 8219SOL     OW25555   6.462   2.336   6.755
 8219SOL    HW125556   6.529   2.365   6.686
 8219SOL    HW225557   6.487   2.377   6.844
 8220SOL     OW25558   3.519   3.512   2.588
 8220SOL    HW125559   3.589   3.443   2.568
 8220SOL    HW225560   3.525   3.538   2.684
 8221SOL     OW25561   5.193   5.644   3.847
 8221SOL    HW125562   5.225   5.705   3.920
 8221SOL    HW225563   5.271   5.614   3.792
 8222SOL     OW25564   5.403   1.424   2.073
 8222SOL    HW125565   5.350   1.424   1.988
 8222SOL    HW225566   5.471   1.497   2.071
 8223SOL     OW25567   0.556   4.652   6.212
 8223SOL    HW125568   0.579   4.743   6.245
 8223SOL    HW225569   0.505   4.603   6.283
 8224SOL     OW25570   1.228   2.747   4.003
 8224SOL    HW125571   1.222   2.825   4.064
 8224SOL    HW225572   1.292   2.680   4.041
 8225SOL     OW25573   5.030   1.295   0.020
 8225SOL    HW125574   5.059   1.229   0.089
 8225SOL    HW225575   4.931   1.304   0.022
 8226SOL     OW25576   5.301   0.279   0.859
 8226SOL    HW125577   5.368   0.334   0.809
 8226SOL    HW225578   5.237   0.238   0.793
 8227SOL     OW25579   6.456   3.314   3.662
 8227SOL    HW125580   6.491   3.249   3.729
 8227SOL    HW225581   6.426   3.265   3.580
 8228SOL     OW25582   6.333   2.695   5.378
 8228SOL    HW125583   6.273   2.770   5.405
 8228SOL    HW225584   6.367   2.649   5.460
 8229SOL     OW25585   3.877   4.836   0.074
 8229SOL    HW125586   3.910   4.923   0.111
 8229SOL    HW225587   3.784   4.848   0.038
 8230SOL     OW25588   5.448   0.612   4.277
 8230SOL    HW125589   5.411   0.524   4.248
 8230SOL    HW225590   5.529   0.596   4.334
 8231SOL     OW25591   5.007   6.330   0.611
 8231SOL    HW125592   4.996   6.233   0.629
 8231SOL    HW225593   5.069   6.370   0.677
 8232SOL     OW25594   3.545   2.193   6.573
 8232SOL    HW125595   3.638   2.156   6.570
 8232SOL    HW225596   3.480   2.118   6.578
 8233SOL     OW25597   0.608   5.472   6.884
 8233SOL    HW125598   0.690   5.420   6.907
 8233SOL    HW225599   0.540   5.462   6.957
 8234SOL     OW25600   2.921   2.825   6.444
 8234SOL    HW125601   2.897   2.803   6.349
 8234SOL    HW225602   3.019   2.811   6.457
 8235SOL     OW25603   4.179   3.755   1.226
 8235SOL    HW125604   4.274   3.743   1.256
 8235SOL    HW225605   4.159   3.691   1.152
 8236SOL     OW25606   6.029   3.152   0.393
 8236SOL    HW125607   5.953   3.088   0.381
 8236SOL    HW225608   6.113   3.100   0.412
 8237SOL     OW25609   4.039   6.263   5.332
 8237SOL    HW125610   4.129   6.237   5.366
 8237SOL    HW225611   4.018   6.357   5.359
 8238SOL     OW25612   1.896   2.012   6.388
 8238SOL    HW125613   1.990   2.024   6.357
 8238SOL    HW225614   1.833   2.054   6.322
 8239SOL     OW25615   0.374   1.705   6.009
 8239SOL    HW125616   0.392   1.658   5.922
 8239SOL    HW225617   0.458   1.747   6.042
 8240SOL     OW25618   3.432   4.066   3.267
 8240SOL    HW125619   3.524   4.090   3.296
 8240SOL    HW225620   3.414   4.103   3.175
 8241SOL     OW25621   3.812   6.908   0.066
 8241SOL    HW125622   3.905   6.899   0.031
 8241SOL    HW225623   3.747   6.872   7.027
 8242SOL     OW25624   0.825   4.674   5.554
 8242SOL    HW125625   0.762   4.616   5.503
 8242SOL    HW225626   0.829   4.644   5.649
 8243SOL     OW25627   0.788   3.401   5.379
 8243SOL    HW125628   0.830   3.490   5.363
 8243SOL    HW225629   0.768   3.357   5.291
 8244SOL     OW25630   0.571   6.527   4.234
 8244SOL    HW125631   0.564   6.439   4.188
 8244SOL    HW225632   0.548   6.600   4.170
 8245SOL     OW25633   3.609   2.438   0.920
 8245SOL    HW125634   3.678   2.480   0.861
 8245SOL    HW225635   3.557   2.509   0.966
 8246SOL     OW25636   5.491   3.619   6.225
 8246SOL    HW125637   5.395   3.591   6.215
 8246SOL    HW225638   5.530   3.577   6.306
 8247SOL     OW25639   0.929   0.196   1.677
 8247SOL    HW125640   1.025   0.169   1.684
 8247SOL    HW225641   0.913   0.241   1.589
 8248SOL     OW25642   5.590   4.625   3.516
 8248SOL    HW125643   5.576   4.534   3.478
 8248SOL    HW225644   5.518   4.644   3.583
 8249SOL     OW25645   2.059   4.880   3.675
 8249SOL    HW125646   2.003   4.945   3.726
 8249SOL    HW225647   2.066   4.794   3.726
 8250SOL     OW25648   4.064   3.760   2.843
 8250SOL    HW125649   4.157   3.796   2.849
 8250SOL    HW225650   4.065   3.672   2.794
 8251SOL     OW25651   5.662   1.917   4.529
 8251SOL    HW125652   5.667   1.843   4.462
 8251SOL    HW225653   5.567   1.941   4.545
 8252SOL     OW25654   2.057   2.512   5.578
 8252SOL    HW125655   2.145   2.511   5.626
 8252SOL    HW225656   2.043   2.602   5.537
 8253SOL     OW25657   3.335   2.847   5.181
 8253SOL    HW125658   3.280   2.931   5.190
 8253SOL    HW225659   3.358   2.833   5.085
 8254SOL     OW25660   3.680   5.008   3.563
 8254SOL    HW125661   3.744   4.954   3.508
 8254SOL    HW225662   3.730   5.080   3.611
 8255SOL     OW25663   4.317   5.524   4.057
 8255SOL    HW125664   4.277   5.438   4.089
 8255SOL    HW225665   4.298   5.596   4.124
 8256SOL     OW25666   6.773   1.512   4.477
 8256SOL    HW125667   6.860   1.463   4.473
 8256SOL    HW225668   6.787   1.601   4.521
 8257SOL     OW25669   6.196   5.087   3.349
 8257SOL    HW125670   6.157   5.177   3.329
 8257SOL    HW225671   6.294   5.097   3.369
 8258SOL     OW25672   3.983   1.536   6.934
 8258SOL    HW125673   4.067   1.589   6.944
 8258SOL    HW225674   3.948   1.511   7.024
 8259SOL     OW25675   3.393   2.017   2.911
 8259SOL    HW125676   3.467   2.039   2.848
 8259SOL    HW225677   3.422   1.943   2.972
 8260SOL     OW25678   3.140   6.532   0.421
 8260SOL    HW125679   3.183   6.452   0.380
 8260SOL    HW225680   3.098   6.507   0.508
 8261SOL     OW25681   5.348   1.230   1.739
 8261SOL    HW125682   5.342   1.212   1.641
 8261SOL    HW225683   5.392   1.153   1.785
 8262SOL     OW25684   1.169   3.099   1.705
 8262SOL    HW125685   1.247   3.115   1.765
 8262SOL    HW225686   1.100   3.045   1.754
 8263SOL     OW25687   6.500   1.608   1.223
 8263SOL    HW125688   6.477   1.705   1.235
 8263SOL    HW225689   6.492   1.561   1.311
 8264SOL     OW25690   1.790   5.245   2.867
 8264SOL    HW125691   1.796   5.345   2.870
 8264SOL    HW225692   1.739   5.212   2.947
 8265SOL     OW25693   1.946   0.714   1.899
 8265SOL    HW125694   1.949   0.711   1.999
 8265SOL    HW225695   2.000   0.791   1.867
 8266SOL     OW25696   3.720   6.475   2.568
 8266SOL    HW125697   3.636   6.518   2.535
 8266SOL    HW225698   3.745   6.513   2.657
 8267SOL     OW25699   1.317   3.267   1.031
 8267SOL    HW125700   1.302   3.355   1.075
 8267SOL    HW225701   1.236   3.209   1.041
 8268SOL     OW25702   2.503   6.488   5.729
 8268SOL    HW125703   2.427   6.548   5.704
 8268SOL    HW225704   2.588   6.521   5.687
 8269SOL     OW25705   5.724   1.945   1.248
 8269SOL    HW125706   5.774   2.025   1.216
 8269SOL    HW225707   5.787   1.869   1.262
 8270SOL     OW25708   3.444   6.244   3.542
 8270SOL    HW125709   3.464   6.307   3.467
 8270SOL    HW225710   3.385   6.170   3.510
 8271SOL     OW25711   6.856   1.444   3.235
 8271SOL    HW125712   6.939   1.396   3.206
 8271SOL    HW225713   6.825   1.504   3.161
 8272SOL     OW25714   3.632   1.054   2.657
 8272SOL    HW125715   3.621   1.153   2.653
 8272SOL    HW225716   3.671   1.028   2.745
 8273SOL     OW25717   2.566   0.021   0.984
 8273SOL    HW125718   2.592   7.024   1.078
 8273SOL    HW225719   2.482   7.001   0.959
 8274SOL     OW25720   4.995   5.434   3.293
 8274SOL    HW125721   4.941   5.511   3.327
 8274SOL    HW225722   4.948   5.393   3.215
 8275SOL     OW25723   5.201   1.851   5.989
 8275SOL    HW125724   5.246   1.886   6.071
 8275SOL    HW225725   5.242   1.892   5.907
 8276SOL     OW25726   1.156   1.879   3.549
 8276SOL    HW125727   1.132   1.817   3.623
 8276SOL    HW225728   1.107   1.853   3.466
 8277SOL     OW25729   0.158   0.124   0.055
 8277SOL    HW125730   0.133   0.093   0.147
 8277SOL    HW225731   0.131   0.219   0.043
 8278SOL     OW25732   2.135   2.632   0.319
 8278SOL    HW125733   2.056   2.684   0.351
 8278SOL    HW225734   2.208   2.637   0.387
 8279SOL     OW25735   0.725   6.513   4.474
 8279SOL    HW125736   0.798   6.453   4.441
 8279SOL    HW225737   0.665   6.538   4.398
 8280SOL     OW25738   3.358   2.560   5.658
 8280SOL    HW125739   3.379   2.606   5.572
 8280SOL    HW225740   3.301   2.480   5.640
 8281SOL     OW25741   6.597   6.437   1.584
 8281SOL    HW125742   6.692   6.426   1.555
 8281SOL    HW225743   6.590   6.419   1.682
 8282SOL     OW25744   5.330   2.463   5.618
 8282SOL    HW125745   5.279   2.377   5.619
 8282SOL    HW225746   5.348   2.490   5.524
 8283SOL     OW25747   1.861   3.787   5.780
 8283SOL    HW125748   1.833   3.801   5.685
 8283SOL    HW225749   1.958   3.807   5.789
 8284SOL     OW25750   6.879   4.534   2.246
 8284SOL    HW125751   6.800   4.477   2.265
 8284SOL    HW225752   6.962   4.488   2.279
 8285SOL     OW25753   3.459   3.123   5.025
 8285SOL    HW125754   3.360   3.136   5.030
 8285SOL    HW225755   3.499   3.138   5.116
 8286SOL     OW25756   6.414   2.053   6.055
 8286SOL    HW125757   6.345   2.124   6.045
 8286SOL    HW225758   6.487   2.067   5.987
 8287SOL     OW25759   1.483   5.451   4.835
 8287SOL    HW125760   1.481   5.366   4.783
 8287SOL    HW225761   1.395   5.498   4.825
 8288SOL     OW25762   2.405   2.596   2.930
 8288SOL    HW125763   2.439   2.656   2.857
 8288SOL    HW225764   2.443   2.504   2.918
 8289SOL     OW25765   0.777   6.794   0.171
 8289SOL    HW125766   0.816   6.806   0.263
 8289SOL    HW225767   0.707   6.865   0.155
 8290SOL     OW25768   5.868   1.746   0.699
 8290SOL    HW125769   5.949   1.745   0.640
 8290SOL    HW225770   5.799   1.806   0.661
 8291SOL     OW25771   4.227   6.990   6.219
 8291SOL    HW125772   4.158   7.027   6.280
 8291SOL    HW225773   4.184   6.959   6.134
 8292SOL     OW25774   3.041   6.670   6.779
 8292SOL    HW125775   3.100   6.750   6.774
 8292SOL    HW225776   3.097   6.587   6.783
 8293SOL     OW25777   4.776   6.195   6.005
 8293SOL    HW125778   4.761   6.161   5.912
 8293SOL    HW225779   4.839   6.272   6.004
 8294SOL     OW25780   5.432   2.529   6.610
 8294SOL    HW125781   5.387   2.613   6.640
 8294SOL    HW225782   5.409   2.511   6.515
 8295SOL     OW25783   5.359   4.377   1.398
 8295SOL    HW125784   5.353   4.360   1.300
 8295SOL    HW225785   5.449   4.350   1.431
 8296SOL     OW25786   1.641   5.328   6.982
 8296SOL    HW125787   1.685   5.407   7.023
 8296SOL    HW225788   1.709   5.271   6.936
 8297SOL     OW25789   6.327   2.249   3.540
 8297SOL    HW125790   6.241   2.246   3.590
 8297SOL    HW225791   6.347   2.343   3.514
 8298SOL     OW25792   5.182   0.871   1.572
 8298SOL    HW125793   5.111   0.941   1.564
 8298SOL    HW225794   5.223   0.876   1.663
 8299SOL     OW25795   6.519   2.229   2.048
 8299SOL    HW125796   6.582   2.152   2.057
 8299SOL    HW225797   6.518   2.281   2.133
 8300SOL     OW25798   0.507   4.395   4.555
 8300SOL    HW125799   0.464   4.484   4.570
 8300SOL    HW225800   0.603   4.407   4.532
 8301SOL     OW25801   4.230   3.193   0.753
 8301SOL    HW125802   4.248   3.203   0.851
 8301SOL    HW225803   4.140   3.229   0.732
 8302SOL     OW25804   5.983   6.000   6.709
 8302SOL    HW125805   5.916   6.040   6.646
 8302SOL    HW225806   6.031   6.073   6.758
 8303SOL     OW25807   0.251   0.306   4.677
 8303SOL    HW125808   0.278   0.318   4.581
 8303SOL    HW225809   0.153   0.322   4.686
 8304SOL     OW25810   0.595   3.698   6.512
 8304SOL    HW125811   0.591   3.610   6.559
 8304SOL    HW225812   0.685   3.739   6.525
 8305SOL     OW25813   3.554   5.211   3.839
 8305SOL    HW125814   3.525   5.289   3.784
 8305SOL    HW225815   3.600   5.145   3.780
 8306SOL     OW25816   0.187   2.854   4.563
 8306SOL    HW125817   0.240   2.776   4.597
 8306SOL    HW225818   0.127   2.887   4.635
 8307SOL     OW25819   3.799   5.760   0.772
 8307SOL    HW125820   3.746   5.839   0.804
 8307SOL    HW225821   3.771   5.678   0.823
 8308SOL     OW25822   3.814   6.388   2.285
 8308SOL    HW125823   3.863   6.475   2.280
 8308SOL    HW225824   3.807   6.359   2.381
 8309SOL     OW25825   5.840   5.922   2.215
 8309SOL    HW125826   5.765   5.856   2.223
 8309SOL    HW225827   5.857   5.963   2.305
 8310SOL     OW25828   6.922   5.073   0.749
 8310SOL    HW125829   6.979   5.052   0.669
 8310SOL    HW225830   6.953   5.020   0.828
 8311SOL     OW25831   6.897   0.992   6.895
 8311SOL    HW125832   6.995   0.980   6.908
 8311SOL    HW225833   6.847   0.926   6.951
 8312SOL     OW25834   5.102   6.858   1.809
 8312SOL    HW125835   5.086   6.763   1.832
 8312SOL    HW225836   5.199   6.872   1.790
 8313SOL     OW25837   3.517   1.751   2.782
 8313SOL    HW125838   3.423   1.739   2.814
 8313SOL    HW225839   3.580   1.717   2.852
 8314SOL     OW25840   6.325   0.160   1.719
 8314SOL    HW125841   6.333   0.258   1.699
 8314SOL    HW225842   6.292   0.112   1.637
 8315SOL     OW25843   4.764   3.122   0.590
 8315SOL    HW125844   4.741   3.146   0.496
 8315SOL    HW225845   4.783   3.024   0.596
 8316SOL     OW25846   1.108   4.167   0.757
 8316SOL    HW125847   1.097   4.194   0.853
 8316SOL    HW225848   1.180   4.222   0.715
 8317SOL     OW25849   2.228   4.388   2.175
 8317SOL    HW125850   2.294   4.341   2.116
 8317SOL    HW225851   2.252   4.485   2.181
 8318SOL     OW25852   4.108   1.336   4.612
 8318SOL    HW125853   4.145   1.310   4.523
 8318SOL    HW225854   4.040   1.408   4.599
 8319SOL     OW25855   3.201   0.984   5.189
 8319SOL    HW125856   3.289   0.946   5.160
 8319SOL    HW225857   3.191   0.973   5.287
 8320SOL     OW25858   2.900   4.890   1.444
 8320SOL    HW125859   2.872   4.937   1.361
 8320SOL    HW225860   2.819   4.856   1.492
 8321SOL     OW25861   0.995   0.289   0.745
 8321SOL    HW125862   0.897   0.301   0.728
 8321SOL    HW225863   1.047   0.314   0.663
 8322SOL     OW25864   0.366   0.552   6.914
 8322SOL    HW125865   0.461   0.522   6.915
 8322SOL    HW225866   0.339   0.574   6.820
 8323SOL     OW25867   0.865   1.494   2.495
 8323SOL    HW125868   0.868   1.486   2.595
 8323SOL    HW225869   0.959   1.494   2.460
 8324SOL     OW25870   5.984   0.272   2.286
 8324SOL    HW125871   6.039   0.336   2.340
 8324SOL    HW225872   6.005   0.178   2.314
 8325SOL     OW25873   3.198   3.026   4.331
 8325SOL    HW125874   3.242   2.943   4.298
 8325SOL    HW225875   3.192   3.093   4.257
 8326SOL     OW25876   4.283   2.844   5.603
 8326SOL    HW125877   4.210   2.783   5.634
 8326SOL    HW225878   4.293   2.836   5.504
 8327SOL     OW25879   5.689   2.179   6.324
 8327SOL    HW125880   5.671   2.270   6.360
 8327SOL    HW225881   5.788   2.164   6.320
 8328SOL     OW25882   2.389   2.442   5.945
 8328SOL    HW125883   2.400   2.531   5.988
 8328SOL    HW225884   2.415   2.370   6.010
 8329SOL     OW25885   6.825   2.839   5.352
 8329SOL    HW125886   6.782   2.867   5.438
 8329SOL    HW225887   6.877   2.755   5.366
 8330SOL     OW25888   1.979   6.385   0.522
 8330SOL    HW125889   2.021   6.413   0.435
 8330SOL    HW225890   2.017   6.297   0.550
 8331SOL     OW25891   2.713   0.378   1.373
 8331SOL    HW125892   2.724   0.294   1.426
 8331SOL    HW225893   2.764   0.370   1.288
 8332SOL     OW25894   4.689   5.363   2.373
 8332SOL    HW125895   4.632   5.434   2.331
 8332SOL    HW225896   4.640   5.276   2.374
 8333SOL     OW25897   0.400   6.126   0.344
 8333SOL    HW125898   0.303   6.103   0.338
 8333SOL    HW225899   0.412   6.208   0.399
 8334SOL     OW25900   6.351   1.855   4.127
 8334SOL    HW125901   6.279   1.923   4.117
 8334SOL    HW225902   6.429   1.880   4.069
 8335SOL     OW25903   6.188   6.188   5.843
 8335SOL    HW125904   6.126   6.217   5.770
 8335SOL    HW225905   6.142   6.122   5.903
 8336SOL     OW25906   0.710   1.524   1.602
 8336SOL    HW125907   0.728   1.592   1.673
 8336SOL    HW225908   0.773   1.537   1.526
 8337SOL     OW25909   0.697   6.423   2.661
 8337SOL    HW125910   0.770   6.470   2.710
 8337SOL    HW225911   0.643   6.368   2.725
 8338SOL     OW25912   1.516   4.742   1.429
 8338SOL    HW125913   1.614   4.762   1.426
 8338SOL    HW225914   1.487   4.734   1.525
 8339SOL     OW25915   5.571   1.911   2.439
 8339SOL    HW125916   5.582   1.877   2.532
 8339SOL    HW225917   5.641   1.871   2.380
 8340SOL     OW25918   4.966   3.871   0.798
 8340SOL    HW125919   4.975   3.894   0.701
 8340SOL    HW225920   4.917   3.784   0.808
 8341SOL     OW25921   2.356   6.247   1.435
 8341SOL    HW125922   2.349   6.292   1.346
 8341SOL    HW225923   2.268   6.204   1.457
 8342SOL     OW25924   4.222   0.831   0.406
 8342SOL    HW125925   4.296   0.795   0.462
 8342SOL    HW225926   4.239   0.927   0.386
 8343SOL     OW25927   1.561   5.514   6.077
 8343SOL    HW125928   1.544   5.519   6.176
 8343SOL    HW225929   1.620   5.590   6.050
 8344SOL     OW25930   4.402   6.493   6.052
 8344SOL    HW125931   4.452   6.407   6.049
 8344SOL    HW225932   4.413   6.541   5.964
 8345SOL     OW25933   6.156   1.490   2.975
 8345SOL    HW125934   6.090   1.473   3.048
 8345SOL    HW225935   6.145   1.421   2.903
 8346SOL     OW25936   2.654   5.265   1.460
 8346SOL    HW125937   2.680   5.265   1.557
 8346SOL    HW225938   2.619   5.175   1.435
 8347SOL     OW25939   3.275   6.871   5.274
 8347SOL    HW125940   3.203   6.808   5.243
 8347SOL    HW225941   3.235   6.961   5.292
 8348SOL     OW25942   0.815   0.975   1.122
 8348SOL    HW125943   0.812   0.972   1.022
 8348SOL    HW225944   0.728   0.944   1.160
 8349SOL     OW25945   5.829   3.689   1.109
 8349SOL    HW125946   5.916   3.652   1.077
 8349SOL    HW225947   5.842   3.784   1.138
 8350SOL     OW25948   6.577   1.410   5.256
 8350SOL    HW125949   6.573   1.360   5.169
 8350SOL    HW225950   6.603   1.347   5.329
 8351SOL     OW25951   3.098   6.053   3.860
 8351SOL    HW125952   3.016   6.016   3.815
 8351SOL    HW225953   3.090   6.152   3.866
 8352SOL     OW25954   6.675   6.224   2.501
 8352SOL    HW125955   6.625   6.242   2.416
 8352SOL    HW225956   6.611   6.210   2.576
 8353SOL     OW25957   6.685   3.481   2.718
 8353SOL    HW125958   6.766   3.428   2.744
 8353SOL    HW225959   6.669   3.470   2.620
 8354SOL     OW25960   2.725   1.419   6.517
 8354SOL    HW125961   2.765   1.434   6.427
 8354SOL    HW225962   2.787   1.363   6.573
 8355SOL     OW25963   3.647   0.147   6.650
 8355SOL    HW125964   3.632   0.178   6.743
 8355SOL    HW225965   3.570   0.174   6.592
 8356SOL     OW25966   1.693   5.744   0.301
 8356SOL    HW125967   1.664   5.698   0.218
 8356SOL    HW225968   1.761   5.689   0.349
 8357SOL     OW25969   4.023   5.598   5.028
 8357SOL    HW125970   4.085   5.520   5.019
 8357SOL    HW225971   3.929   5.565   5.034
 8358SOL     OW25972   2.170   2.925   5.672
 8358SOL    HW125973   2.163   2.944   5.574
 8358SOL    HW225974   2.088   2.960   5.718
 8359SOL     OW25975   4.323   5.404   4.415
 8359SOL    HW125976   4.338   5.315   4.458
 8359SOL    HW225977   4.302   5.390   4.318
 8360SOL     OW25978   5.124   6.624   3.115
 8360SOL    HW125979   5.191   6.582   3.055
 8360SOL    HW225980   5.047   6.561   3.129
 8361SOL     OW25981   1.618   0.988   2.662
 8361SOL    HW125982   1.684   0.921   2.629
 8361SOL    HW225983   1.527   0.946   2.667
 8362SOL     OW25984   2.691   2.406   7.015
 8362SOL    HW125985   2.656   2.315   0.007
 8362SOL    HW225986   2.636   2.475   0.033
 8363SOL     OW25987   0.249   2.914   0.287
 8363SOL    HW125988   0.170   2.871   0.243
 8363SOL    HW225989   0.243   2.902   0.386
 8364SOL     OW25990   6.518   3.512   3.119
 8364SOL    HW125991   6.518   3.609   3.143
 8364SOL    HW225992   6.472   3.499   3.031
 8365SOL     OW25993   1.616   2.886   6.661
 8365SOL    HW125994   1.639   2.813   6.725
 8365SOL    HW225995   1.687   2.892   6.591
 8366SOL     OW25996   3.832   6.130   2.189
 8366SOL    HW125997   3.798   6.113   2.096
 8366SOL    HW225998   3.825   6.228   2.210
 8367SOL     OW25999   5.174   6.085   4.014
 8367SOL    HW126000   5.131   6.045   4.096
 8367SOL    HW226001   5.233   6.161   4.041
 8368SOL     OW26002   2.426   5.168   5.786
 8368SOL    HW126003   2.437   5.187   5.884
 8368SOL    HW226004   2.358   5.229   5.748
 8369SOL     OW26005   2.347   1.450   0.368
 8369SOL    HW126006   2.273   1.384   0.358
 8369SOL    HW226007   2.309   1.542   0.377
 8370SOL     OW26008   1.375   1.519   6.533
 8370SOL    HW126009   1.440   1.594   6.521
 8370SOL    HW226010   1.283   1.550   6.505
 8371SOL     OW26011   1.504   3.151   0.764
 8371SOL    HW126012   1.513   3.221   0.693
 8371SOL    HW226013   1.407   3.135   0.782
 8372SOL     OW26014   6.935   0.831   2.955
 8372SOL    HW126015   6.964   0.794   2.867
 8372SOL    HW226016   6.964   0.926   2.963
 8373SOL     OW26017   1.246   5.603   5.125
 8373SOL    HW126018   1.212   5.543   5.053
 8373SOL    HW226019   1.169   5.654   5.164
 8374SOL     OW26020   6.683   0.354   6.976
 8374SOL    HW126021   6.755   0.383   6.913
 8374SOL    HW226022   6.642   0.269   6.944
 8375SOL     OW26023   3.519   0.389   6.286
 8375SOL    HW126024   3.598   0.332   6.266
 8375SOL    HW226025   3.466   0.403   6.202
 8376SOL     OW26026   2.557   0.810   3.979
 8376SOL    HW126027   2.629   0.810   3.910
 8376SOL    HW226028   2.473   0.772   3.940
 8377SOL     OW26029   5.930   4.677   1.530
 8377SOL    HW126030   5.902   4.769   1.557
 8377SOL    HW226031   5.850   4.627   1.497
 8378SOL     OW26032   4.871   3.288   2.868
 8378SOL    HW126033   4.938   3.338   2.923
 8378SOL    HW226034   4.899   3.192   2.860
 8379SOL     OW26035   6.270   3.164   2.467
 8379SOL    HW126036   6.295   3.178   2.562
 8379SOL    HW226037   6.186   3.108   2.463
 8380SOL     OW26038   4.746   1.534   3.010
 8380SOL    HW126039   4.791   1.600   3.070
 8380SOL    HW226040   4.707   1.460   3.066
 8381SOL     OW26041   1.524   5.186   5.234
 8381SOL    HW126042   1.618   5.200   5.203
 8381SOL    HW226043   1.517   5.213   5.331
 8382SOL     OW26044   1.169   2.864   2.302
 8382SOL    HW126045   1.154   2.892   2.397
 8382SOL    HW226046   1.081   2.836   2.262
 8383SOL     OW26047   3.030   2.549   6.129
 8383SOL    HW126048   3.049   2.647   6.129
 8383SOL    HW226049   3.085   2.504   6.199
 8384SOL     OW26050   6.818   0.065   2.422
 8384SOL    HW126051   6.822   6.994   2.440
 8384SOL    HW226052   6.724   0.097   2.430
 8385SOL     OW26053   5.011   2.279   2.037
 8385SOL    HW126054   5.011   2.379   2.038
 8385SOL    HW226055   4.918   2.245   2.052
 8386SOL     OW26056   0.787   4.059   2.752
 8386SOL    HW126057   0.767   4.065   2.850
 8386SOL    HW226058   0.708   4.020   2.704
 8387SOL     OW26059   0.705   2.397   1.260
 8387SOL    HW126060   0.767   2.366   1.187
 8387SOL    HW226061   0.664   2.318   1.305
 8388SOL     OW26062   2.489   0.356   2.105
 8388SOL    HW126063   2.585   0.368   2.129
 8388SOL    HW226064   2.476   0.379   2.009
 8389SOL     OW26065   5.141   2.889   2.262
 8389SOL    HW126066   5.224   2.937   2.231
 8389SOL    HW226067   5.065   2.913   2.201
 8390SOL     OW26068   5.554   1.934   5.177
 8390SOL    HW126069   5.602   2.016   5.210
 8390SOL    HW226070   5.618   1.858   5.173
 8391SOL     OW26071   6.247   1.139   1.164
 8391SOL    HW126072   6.248   1.230   1.122
 8391SOL    HW226073   6.223   1.148   1.261
 8392SOL     OW26074   5.848   3.306   4.555
 8392SOL    HW126075   5.840   3.244   4.632
 8392SOL    HW226076   5.920   3.274   4.493
 8393SOL     OW26077   5.183   0.376   1.396
 8393SOL    HW126078   5.148   0.469   1.389
 8393SOL    HW226079   5.258   0.363   1.331
 8394SOL     OW26080   5.879   4.053   1.923
 8394SOL    HW126081   5.780   4.053   1.907
 8394SOL    HW226082   5.912   4.147   1.928
 8395SOL     OW26083   2.473   0.929   5.138
 8395SOL    HW126084   2.468   0.974   5.048
 8395SOL    HW226085   2.460   0.997   5.210
 8396SOL     OW26086   4.228   5.424   4.980
 8396SOL    HW126087   4.266   5.489   4.915
 8396SOL    HW226088   4.200   5.341   4.932
 8397SOL     OW26089   6.191   1.244   3.497
 8397SOL    HW126090   6.135   1.327   3.500
 8397SOL    HW226091   6.287   1.270   3.489
 8398SOL     OW26092   5.707   2.131   5.729
 8398SOL    HW126093   5.637   2.076   5.774
 8398SOL    HW226094   5.663   2.194   5.665
 8399SOL     OW26095   0.052   5.528   0.605
 8399SOL    HW126096   6.992   5.496   0.568
 8399SOL    HW226097   0.044   5.540   0.704
 8400SOL     OW26098   1.555   2.526   4.477
 8400SOL    HW126099   1.476   2.464   4.478
 8400SOL    HW226100   1.526   2.616   4.443
 8401SOL     OW26101   3.315   0.410   5.740
 8401SOL    HW126102   3.376   0.487   5.757
 8401SOL    HW226103   3.352   0.354   5.666
 8402SOL     OW26104   3.897   1.126   6.049
 8402SOL    HW126105   3.869   1.184   5.973
 8402SOL    HW226106   3.951   1.049   6.014
 8403SOL     OW26107   6.019   5.329   4.775
 8403SOL    HW126108   5.957   5.253   4.793
 8403SOL    HW226109   6.113   5.295   4.772
 8404SOL     OW26110   1.990   1.716   6.719
 8404SOL    HW126111   2.052   1.695   6.643
 8404SOL    HW226112   1.898   1.734   6.684
 8405SOL     OW26113   4.276   1.383   5.425
 8405SOL    HW126114   4.262   1.449   5.498
 8405SOL    HW226115   4.281   1.430   5.337
 8406SOL     OW26116   4.569   1.061   6.261
 8406SOL    HW126117   4.492   1.111   6.221
 8406SOL    HW226118   4.602   0.993   6.197
 8407SOL     OW26119   3.585   6.430   3.945
 8407SOL    HW126120   3.599   6.528   3.933
 8407SOL    HW226121   3.628   6.401   4.031
 8408SOL     OW26122   4.709   0.793   1.277
 8408SOL    HW126123   4.610   0.806   1.286
 8408SOL    HW226124   4.752   0.806   1.367
 8409SOL     OW26125   4.753   2.173   2.077
 8409SOL    HW126126   4.766   2.086   2.125
 8409SOL    HW226127   4.687   2.229   2.127
 8410SOL     OW26128   6.719   1.632   1.538
 8410SOL    HW126129   6.723   1.626   1.638
 8410SOL    HW226130   6.719   1.728   1.511
 8411SOL     OW26131   1.490   5.533   0.417
 8411SOL    HW126132   1.558   5.476   0.464
 8411SOL    HW226133   1.537   5.602   0.362
 8412SOL     OW26134   2.889   2.483   6.615
 8412SOL    HW126135   2.825   2.554   6.643
 8412SOL    HW226136   2.915   2.428   6.694
 8413SOL     OW26137   4.470   5.500   5.580
 8413SOL    HW126138   4.564   5.486   5.549
 8413SOL    HW226139   4.407   5.455   5.518
 8414SOL     OW26140   1.272   1.229   2.496
 8414SOL    HW126141   1.299   1.314   2.450
 8414SOL    HW226142   1.272   1.243   2.595
 8415SOL     OW26143   2.656   0.514   5.270
 8415SOL    HW126144   2.613   0.441   5.218
 8415SOL    HW226145   2.731   0.476   5.325
 8416SOL     OW26146   6.312   1.642   5.464
 8416SOL    HW126147   6.381   1.610   5.529
 8416SOL    HW226148   6.351   1.641   5.371
 8417SOL     OW26149   1.340   4.147   5.331
 8417SOL    HW126150   1.352   4.246   5.330
 8417SOL    HW226151   1.394   4.108   5.406
 8418SOL     OW26152   1.072   6.431   2.576
 8418SOL    HW126153   1.049   6.334   2.588
 8418SOL    HW226154   1.110   6.467   2.661
 8419SOL     OW26155   5.307   0.890   3.930
 8419SOL    HW126156   5.263   0.874   4.019
 8419SOL    HW226157   5.370   0.967   3.937
 8420SOL     OW26158   3.034   7.000   1.986
 8420SOL    HW126159   2.939   6.981   1.962
 8420SOL    HW226160   3.095   6.960   1.917
 8421SOL     OW26161   4.131   6.112   5.985
 8421SOL    HW126162   4.148   6.135   6.081
 8421SOL    HW226163   4.207   6.144   5.929
 8422SOL     OW26164   5.087   2.554   3.083
 8422SOL    HW126165   5.008   2.569   3.024
 8422SOL    HW226166   5.083   2.462   3.122
 8423SOL     OW26167   5.776   4.568   6.677
 8423SOL    HW126168   5.858   4.580   6.620
 8423SOL    HW226169   5.698   4.610   6.632
 8424SOL     OW26170   1.984   0.068   3.934
 8424SOL    HW126171   1.912   0.065   4.003
 8424SOL    HW226172   2.073   0.077   3.978
 8425SOL     OW26173   3.730   2.906   3.032
 8425SOL    HW126174   3.811   2.910   2.973
 8425SOL    HW226175   3.745   2.963   3.113
 8426SOL     OW26176   3.437   2.853   2.325
 8426SOL    HW126177   3.450   2.894   2.415
 8426SOL    HW226178   3.355   2.891   2.282
 8427SOL     OW26179   3.338   3.849   3.582
 8427SOL    HW126180   3.314   3.762   3.625
 8427SOL    HW226181   3.255   3.894   3.548
 8428SOL     OW26182   0.061   0.374   0.967
 8428SOL    HW126183   0.072   0.474   0.972
 8428SOL    HW226184   0.035   0.339   1.057
 8429SOL     OW26185   1.669   5.459   6.563
 8429SOL    HW126186   1.674   5.556   6.542
 8429SOL    HW226187   1.717   5.407   6.493
 8430SOL     OW26188   4.064   6.406   4.706
 8430SOL    HW126189   4.141   6.348   4.732
 8430SOL    HW226190   4.050   6.477   4.775
 8431SOL     OW26191   3.162   4.049   5.484
 8431SOL    HW126192   3.168   3.950   5.498
 8431SOL    HW226193   3.102   4.068   5.407
 8432SOL     OW26194   6.378   5.707   6.444
 8432SOL    HW126195   6.332   5.630   6.399
 8432SOL    HW226196   6.310   5.774   6.474
 8433SOL     OW26197   5.221   2.486   1.063
 8433SOL    HW126198   5.153   2.494   0.990
 8433SOL    HW226199   5.177   2.503   1.151
 8434SOL     OW26200   2.124   5.348   5.496
 8434SOL    HW126201   2.042   5.290   5.501
 8434SOL    HW226202   2.182   5.317   5.421
 8435SOL     OW26203   4.606   1.192   2.872
 8435SOL    HW126204   4.619   1.269   2.809
 8435SOL    HW226205   4.560   1.117   2.825
 8436SOL     OW26206   2.399   6.655   2.456
 8436SOL    HW126207   2.462   6.698   2.521
 8436SOL    HW226208   2.334   6.597   2.506
 8437SOL     OW26209   2.045   3.847   2.491
 8437SOL    HW126210   2.004   3.784   2.557
 8437SOL    HW226211   2.083   3.795   2.415
 8438SOL     OW26212   1.752   4.042   2.557
 8438SOL    HW126213   1.752   4.098   2.474
 8438SOL    HW226214   1.664   4.052   2.604
 8439SOL     OW26215   5.997   5.901   3.870
 8439SOL    HW126216   6.063   5.828   3.854
 8439SOL    HW226217   5.915   5.885   3.815
 8440SOL     OW26218   1.824   0.986   2.866
 8440SOL    HW126219   1.839   0.937   2.951
 8440SOL    HW226220   1.748   0.944   2.816
 8441SOL     OW26221   6.121   1.233   5.037
 8441SOL    HW126222   6.081   1.230   4.946
 8441SOL    HW226223   6.110   1.144   5.082
 8442SOL     OW26224   3.566   1.456   5.157
 8442SOL    HW126225   3.562   1.546   5.202
 8442SOL    HW226226   3.531   1.465   5.063
 8443SOL     OW26227   1.532   4.090   2.702
 8443SOL    HW126228   1.560   4.095   2.797
 8443SOL    HW226229   1.449   4.143   2.688
 8444SOL     OW26230   5.194   5.358   4.253
 8444SOL    HW126231   5.110   5.398   4.215
 8444SOL    HW226232   5.178   5.331   4.348
 8445SOL     OW26233   4.566   6.404   6.545
 8445SOL    HW126234   4.547   6.491   6.499
 8445SOL    HW226235   4.565   6.419   6.644
 8446SOL     OW26236   0.290   6.081   4.691
 8446SOL    HW126237   0.335   5.995   4.717
 8446SOL    HW226238   0.337   6.157   4.736
 8447SOL     OW26239   3.731   1.963   3.413
 8447SOL    HW126240   3.823   1.990   3.385
 8447SOL    HW226241   3.665   2.031   3.380
 8448SOL     OW26242   4.757   6.767   3.086
 8448SOL    HW126243   4.833   6.720   3.132
 8448SOL    HW226244   4.693   6.802   3.154
 8449SOL     OW26245   1.602   2.510   2.988
 8449SOL    HW126246   1.657   2.514   2.904
 8449SOL    HW226247   1.569   2.416   3.002
 8450SOL     OW26248   6.922   0.775   0.218
 8450SOL    HW126249   6.886   0.844   0.156
 8450SOL    HW226250   6.846   0.727   0.263
 8451SOL     OW26251   4.574   1.982   1.226
 8451SOL    HW126252   4.581   2.074   1.187
 8451SOL    HW226253   4.603   1.984   1.321
 8452SOL     OW26254   5.174   1.637   5.046
 8452SOL    HW126255   5.219   1.650   5.134
 8452SOL    HW226256   5.079   1.666   5.052
 8453SOL     OW26257   0.511   6.322   0.585
 8453SOL    HW126258   0.588   6.360   0.534
 8453SOL    HW226259   0.545   6.275   0.667
 8454SOL     OW26260   0.223   4.146   0.216
 8454SOL    HW126261   0.172   4.183   0.138
 8454SOL    HW226262   0.279   4.069   0.185
 8455SOL     OW26263   0.377   0.779   2.759
 8455SOL    HW126264   0.409   0.737   2.674
 8455SOL    HW226265   0.438   0.751   2.834
 8456SOL     OW26266   6.015   1.259   3.813
 8456SOL    HW126267   6.111   1.230   3.809
 8456SOL    HW226268   5.962   1.190   3.861
 8457SOL     OW26269   6.498   5.991   4.945
 8457SOL    HW126270   6.476   5.962   5.038
 8457SOL    HW226271   6.577   6.053   4.947
 8458SOL     OW26272   0.377   0.155   6.506
 8458SOL    HW126273   0.278   0.167   6.517
 8458SOL    HW226274   0.416   0.120   6.591
 8459SOL     OW26275   1.513   5.537   3.498
 8459SOL    HW126276   1.526   5.630   3.534
 8459SOL    HW226277   1.549   5.471   3.563
 8460SOL     OW26278   3.356   4.025   5.066
 8460SOL    HW126279   3.436   4.010   5.007
 8460SOL    HW226280   3.370   3.978   5.153
 8461SOL     OW26281   6.366   4.176   3.499
 8461SOL    HW126282   6.339   4.119   3.577
 8461SOL    HW226283   6.413   4.257   3.531
 8462SOL     OW26284   2.028   2.998   1.566
 8462SOL    HW126285   1.972   3.080   1.576
 8462SOL    HW226286   2.108   3.005   1.625
 8463SOL     OW26287   5.821   0.906   2.549
 8463SOL    HW126288   5.762   0.932   2.473
 8463SOL    HW226289   5.791   0.817   2.585
 8464SOL     OW26290   6.039   2.631   4.853
 8464SOL    HW126291   6.034   2.531   4.857
 8464SOL    HW226292   6.126   2.662   4.892
 8465SOL     OW26293   1.512   3.136   0.302
 8465SOL    HW126294   1.445   3.077   0.349
 8465SOL    HW226295   1.604   3.104   0.324
 8466SOL     OW26296   1.024   6.255   3.350
 8466SOL    HW126297   0.969   6.330   3.387
 8466SOL    HW226298   1.031   6.265   3.250
 8467SOL     OW26299   2.503   5.489   0.636
 8467SOL    HW126300   2.580   5.492   0.573
 8467SOL    HW226301   2.536   5.476   0.730
 8468SOL     OW26302   4.440   1.907   0.048
 8468SOL    HW126303   4.432   1.906   6.977
 8468SOL    HW226304   4.353   1.935   0.089
 8469SOL     OW26305   3.499   2.687   6.892
 8469SOL    HW126306   3.430   2.640   6.837
 8469SOL    HW226307   3.455   2.731   6.971
 8470SOL     OW26308   2.414   2.693   5.986
 8470SOL    HW126309   2.353   2.736   6.051
 8470SOL    HW226310   2.412   2.743   5.899
 8471SOL     OW26311   3.333   0.691   4.147
 8471SOL    HW126312   3.317   0.773   4.092
 8471SOL    HW226313   3.250   0.635   4.149
 8472SOL     OW26314   1.583   6.191   4.366
 8472SOL    HW126315   1.582   6.291   4.374
 8472SOL    HW226316   1.599   6.151   4.457
 8473SOL     OW26317   6.347   4.867   0.108
 8473SOL    HW126318   6.331   4.914   0.195
 8473SOL    HW226319   6.260   4.858   0.059
 8474SOL     OW26320   3.637   4.045   1.582
 8474SOL    HW126321   3.662   3.979   1.652
 8474SOL    HW226322   3.625   3.998   1.494
 8475SOL     OW26323   5.637   1.440   2.826
 8475SOL    HW126324   5.646   1.377   2.904
 8475SOL    HW226325   5.686   1.402   2.747
 8476SOL     OW26326   4.473   0.760   2.048
 8476SOL    HW126327   4.568   0.774   2.018
 8476SOL    HW226328   4.461   0.664   2.076
 8477SOL     OW26329   3.239   1.264   1.386
 8477SOL    HW126330   3.256   1.204   1.464
 8477SOL    HW226331   3.220   1.357   1.418
 8478SOL     OW26332   1.186   0.152   5.678
 8478SOL    HW126333   1.089   0.148   5.651
 8478SOL    HW226334   1.195   0.205   5.762
 8479SOL     OW26335   5.732   0.905   1.280
 8479SOL    HW126336   5.779   0.992   1.292
 8479SOL    HW226337   5.673   0.887   1.359
 8480SOL     OW26338   2.224   1.673   1.169
 8480SOL    HW126339   2.315   1.692   1.133
 8480SOL    HW226340   2.184   1.758   1.206
 8481SOL     OW26341   3.490   0.502   4.278
 8481SOL    HW126342   3.438   0.559   4.215
 8481SOL    HW226343   3.523   0.558   4.355
 8482SOL     OW26344   1.330   6.978   2.384
 8482SOL    HW126345   1.266   6.992   2.309
 8482SOL    HW226346   1.414   6.936   2.348
 8483SOL     OW26347   4.060   5.620   1.136
 8483SOL    HW126348   4.154   5.651   1.147
 8483SOL    HW226349   4.018   5.670   1.060
 8484SOL     OW26350   0.946   4.763   4.536
 8484SOL    HW126351   0.933   4.721   4.446
 8484SOL    HW226352   0.861   4.806   4.565
 8485SOL     OW26353   2.672   3.508   6.615
 8485SOL    HW126354   2.587   3.530   6.664
 8485SOL    HW226355   2.737   3.467   6.679
 8486SOL     OW26356   4.605   0.676   2.667
 8486SOL    HW126357   4.526   0.632   2.625
 8486SOL    HW226358   4.577   0.763   2.708
 8487SOL     OW26359   4.236   6.750   0.734
 8487SOL    HW126360   4.138   6.756   0.753
 8487SOL    HW226361   4.265   6.829   0.680
 8488SOL     OW26362   4.662   2.697   4.132
 8488SOL    HW126363   4.660   2.621   4.196
 8488SOL    HW226364   4.757   2.727   4.119
 8489SOL     OW26365   4.144   4.759   2.015
 8489SOL    HW126366   4.137   4.748   1.916
 8489SOL    HW226367   4.053   4.770   2.054
 8490SOL     OW26368   4.078   5.278   2.592
 8490SOL    HW126369   4.061   5.220   2.672
 8490SOL    HW226370   3.992   5.318   2.562
 8491SOL     OW26371   2.438   0.571   2.293
 8491SOL    HW126372   2.455   0.497   2.228
 8491SOL    HW226373   2.462   0.541   2.385
 8492SOL     OW26374   6.042   3.380   5.168
 8492SOL    HW126375   6.020   3.369   5.071
 8492SOL    HW226376   5.961   3.413   5.217
 8493SOL     OW26377   4.099   2.060   0.334
 8493SOL    HW126378   4.074   2.126   0.264
 8493SOL    HW226379   4.139   1.979   0.291
 8494SOL     OW26380   4.056   5.629   6.702
 8494SOL    HW126381   4.036   5.670   6.613
 8494SOL    HW226382   4.155   5.619   6.712
 8495SOL     OW26383   0.102   2.910   1.164
 8495SOL    HW126384   0.020   2.897   1.108
 8495SOL    HW226385   0.104   3.003   1.200
 8496SOL     OW26386   0.165   2.610   3.561
 8496SOL    HW126387   0.192   2.583   3.469
 8496SOL    HW226388   0.236   2.581   3.626
 8497SOL     OW26389   5.888   5.946   3.153
 8497SOL    HW126390   5.981   5.930   3.120
 8497SOL    HW226391   5.865   5.877   3.223
 8498SOL     OW26392   0.237   0.742   0.718
 8498SOL    HW126393   0.156   0.772   0.767
 8498SOL    HW226394   0.318   0.782   0.760
 8499SOL     OW26395   3.477   4.219   6.534
 8499SOL    HW126396   3.469   4.317   6.553
 8499SOL    HW226397   3.472   4.204   6.435
 8500SOL     OW26398   3.071   0.488   6.082
 8500SOL    HW126399   3.061   0.388   6.080
 8500SOL    HW226400   3.057   0.521   6.175
 8501SOL     OW26401   1.669   3.746   6.600
 8501SOL    HW126402   1.612   3.818   6.562
 8501SOL    HW226403   1.752   3.786   6.639
 8502SOL     OW26404   6.394   0.557   2.209
 8502SOL    HW126405   6.333   0.637   2.207
 8502SOL    HW226406   6.366   0.492   2.138
 8503SOL     OW26407   2.820   5.354   3.535
 8503SOL    HW126408   2.856   5.325   3.624
 8503SOL    HW226409   2.892   5.349   3.466
 8504SOL     OW26410   1.361   5.301   3.468
 8504SOL    HW126411   1.418   5.249   3.404
 8504SOL    HW226412   1.396   5.394   3.476
 8505SOL     OW26413   4.964   3.323   3.316
 8505SOL    HW126414   4.954   3.403   3.376
 8505SOL    HW226415   4.939   3.348   3.223
 8506SOL     OW26416   1.181   6.356   0.497
 8506SOL    HW126417   1.187   6.426   0.569
 8506SOL    HW226418   1.085   6.335   0.479
 8507SOL     OW26419   1.262   1.130   5.248
 8507SOL    HW126420   1.341   1.097   5.301
 8507SOL    HW226421   1.294   1.194   5.179
 8508SOL     OW26422   0.578   1.870   6.138
 8508SOL    HW126423   0.547   1.886   6.232
 8508SOL    HW226424   0.670   1.830   6.140
 8509SOL     OW26425   6.622   1.648   4.896
 8509SOL    HW126426   6.656   1.564   4.939
 8509SOL    HW226427   6.658   1.728   4.944
 8510SOL     OW26428   5.976   6.521   2.634
 8510SOL    HW126429   5.935   6.480   2.715
 8510SOL    HW226430   5.968   6.456   2.557
 8511SOL     OW26431   6.687   4.568   1.924
 8511SOL    HW126432   6.718   4.643   1.982
 8511SOL    HW226433   6.727   4.578   1.833
 8512SOL     OW26434   4.776   2.787   0.044
 8512SOL    HW126435   4.857   2.728   0.047
 8512SOL    HW226436   4.739   2.787   6.979
 8513SOL     OW26437   0.047   4.404   1.396
 8513SOL    HW126438   7.015   4.387   1.474
 8513SOL    HW226439   7.020   4.418   1.314
 8514SOL     OW26440   2.656   1.977   5.550
 8514SOL    HW126441   2.712   2.030   5.488
 8514SOL    HW226442   2.713   1.936   5.621
 8515SOL     OW26443   1.132   0.486   1.464
 8515SOL    HW126444   1.118   0.485   1.563
 8515SOL    HW226445   1.141   0.392   1.431
 8516SOL     OW26446   6.082   2.321   2.710
 8516SOL    HW126447   6.019   2.251   2.744
 8516SOL    HW226448   6.031   2.406   2.691
 8517SOL     OW26449   1.927   2.667   4.724
 8517SOL    HW126450   1.979   2.655   4.809
 8517SOL    HW226451   1.956   2.751   4.678
 8518SOL     OW26452   5.087   4.588   6.992
 8518SOL    HW126453   5.133   4.675   7.008
 8518SOL    HW226454   5.151   4.524   6.948
 8519SOL     OW26455   1.568   3.766   0.540
 8519SOL    HW126456   1.612   3.689   0.587
 8519SOL    HW226457   1.584   3.850   0.592
 8520SOL     OW26458   4.121   3.501   5.163
 8520SOL    HW126459   4.084   3.419   5.119
 8520SOL    HW226460   4.183   3.475   5.236
 8521SOL     OW26461   1.929   6.078   5.788
 8521SOL    HW126462   1.935   6.052   5.692
 8521SOL    HW226463   1.891   6.002   5.841
 8522SOL     OW26464   1.303   5.893   0.544
 8522SOL    HW126465   1.218   5.904   0.595
 8522SOL    HW226466   1.325   5.978   0.497
 8523SOL     OW26467   2.720   0.658   0.106
 8523SOL    HW126468   2.706   0.736   0.167
 8523SOL    HW226469   2.643   0.595   0.114
 8524SOL     OW26470   1.684   5.769   5.001
 8524SOL    HW126471   1.769   5.769   5.054
 8524SOL    HW226472   1.623   5.698   5.036
 8525SOL     OW26473   7.009   5.047   1.237
 8525SOL    HW126474   0.060   5.109   1.228
 8525SOL    HW226475   0.014   4.956   1.263
 8526SOL     OW26476   2.580   6.261   0.555
 8526SOL    HW126477   2.614   6.339   0.501
 8526SOL    HW226478   2.647   6.239   0.626
 8527SOL     OW26479   3.388   0.472   6.054
 8527SOL    HW126480   3.311   0.537   6.055
 8527SOL    HW226481   3.381   0.414   5.973
 8528SOL     OW26482   4.899   2.449   6.899
 8528SOL    HW126483   4.827   2.466   6.831
 8528SOL    HW226484   4.988   2.457   6.855
 8529SOL     OW26485   1.676   6.311   6.315
 8529SOL    HW126486   1.751   6.310   6.248
 8529SOL    HW226487   1.603   6.372   6.282
 8530SOL     OW26488   3.388   3.942   4.627
 8530SOL    HW126489   3.482   3.929   4.595
 8530SOL    HW226490   3.380   4.031   4.671
 8531SOL     OW26491   6.822   5.603   3.698
 8531SOL    HW126492   6.827   5.589   3.797
 8531SOL    HW226493   6.882   5.678   3.672
 8532SOL     OW26494   2.568   5.689   4.876
 8532SOL    HW126495   2.526   5.599   4.888
 8532SOL    HW226496   2.497   5.760   4.882
 8533SOL     OW26497   1.569   6.305   5.469
 8533SOL    HW126498   1.599   6.357   5.548
 8533SOL    HW226499   1.482   6.260   5.490
 8534SOL     OW26500   3.871   2.178   3.794
 8534SOL    HW126501   3.914   2.212   3.710
 8534SOL    HW226502   3.937   2.183   3.869
 8535SOL     OW26503   6.019   1.053   3.006
 8535SOL    HW126504   6.109   1.015   2.989
 8535SOL    HW226505   6.015   1.091   3.098
 8536SOL     OW26506   0.512   0.836   4.563
 8536SOL    HW126507   0.509   0.748   4.610
 8536SOL    HW226508   0.506   0.909   4.630
 8537SOL     OW26509   0.021   1.080   2.944
 8537SOL    HW126510   0.075   1.042   2.869
 8537SOL    HW226511   7.014   1.170   2.917
 8538SOL     OW26512   1.038   2.601   6.870
 8538SOL    HW126513   1.064   2.530   6.936
 8538SOL    HW226514   1.050   2.691   6.912
 8539SOL     OW26515   6.652   2.217   2.902
 8539SOL    HW126516   6.675   2.314   2.916
 8539SOL    HW226517   6.552   2.207   2.901
 8540SOL     OW26518   4.416   6.783   0.366
 8540SOL    HW126519   4.376   6.694   0.343
 8540SOL    HW226520   4.356   6.831   0.429
 8541SOL     OW26521   2.123   2.400   3.468
 8541SOL    HW126522   2.077   2.327   3.418
 8541SOL    HW226523   2.222   2.392   3.456
 8542SOL     OW26524   4.357   3.945   6.501
 8542SOL    HW126525   4.282   4.005   6.473
 8542SOL    HW226526   4.429   3.999   6.546
 8543SOL     OW26527   2.096   2.777   6.345
 8543SOL    HW126528   2.137   2.711   6.408
 8543SOL    HW226529   2.007   2.806   6.381
 8544SOL     OW26530   5.883   2.858   4.345
 8544SOL    HW126531   5.871   2.763   4.317
 8544SOL    HW226532   5.961   2.865   4.407
 8545SOL     OW26533   5.493   6.610   4.540
 8545SOL    HW126534   5.484   6.553   4.621
 8545SOL    HW226535   5.407   6.612   4.491
 8546SOL     OW26536   4.716   1.742   4.681
 8546SOL    HW126537   4.790   1.760   4.745
 8546SOL    HW226538   4.749   1.684   4.606
 8547SOL     OW26539   1.000   4.030   3.356
 8547SOL    HW126540   1.081   4.004   3.408
 8547SOL    HW226541   0.953   4.106   3.402
 8548SOL     OW26542   5.931   1.448   5.621
 8548SOL    HW126543   6.014   1.411   5.579
 8548SOL    HW226544   5.851   1.415   5.571
 8549SOL     OW26545   6.283   3.170   4.570
 8549SOL    HW126546   6.336   3.096   4.526
 8549SOL    HW226547   6.257   3.142   4.662
 8550SOL     OW26548   1.058   4.586   6.690
 8550SOL    HW126549   1.043   4.499   6.736
 8550SOL    HW226550   1.137   4.632   6.730
 8551SOL     OW26551   3.307   4.318   0.220
 8551SOL    HW126552   3.261   4.279   0.140
 8551SOL    HW226553   3.239   4.362   0.279
 8552SOL     OW26554   2.385   6.565   4.168
 8552SOL    HW126555   2.373   6.663   4.149
 8552SOL    HW226556   2.423   6.520   4.087
 8553SOL     OW26557   5.850   6.899   0.406
 8553SOL    HW126558   5.831   6.807   0.370
 8553SOL    HW226559   5.777   6.961   0.377
 8554SOL     OW26560   6.297   3.891   6.659
 8554SOL    HW126561   6.207   3.923   6.627
 8554SOL    HW226562   6.325   3.946   6.738
 8555SOL     OW26563   1.363   6.740   3.692
 8555SOL    HW126564   1.390   6.834   3.672
 8555SOL    HW226565   1.327   6.697   3.609
 8556SOL     OW26566   6.145   0.646   3.320
 8556SOL    HW126567   6.136   0.656   3.419
 8556SOL    HW226568   6.230   0.690   3.289
 8557SOL     OW26569   0.328   0.272   1.579
 8557SOL    HW126570   0.345   0.311   1.488
 8557SOL    HW226571   0.319   0.172   1.571
 8558SOL     OW26572   1.320   5.008   2.011
 8558SOL    HW126573   1.336   4.913   2.038
 8558SOL    HW226574   1.365   5.026   1.924
 8559SOL     OW26575   1.341   0.333   0.554
 8559SOL    HW126576   1.284   0.257   0.519
 8559SOL    HW226577   1.427   0.336   0.503
 8560SOL     OW26578   6.272   1.799   0.027
 8560SOL    HW126579   6.329   1.808   6.973
 8560SOL    HW226580   6.200   1.868   0.024
 8561SOL     OW26581   4.556   6.488   3.468
 8561SOL    HW126582   4.651   6.467   3.491
 8561SOL    HW226583   4.504   6.403   3.455
 8562SOL     OW26584   3.213   6.491   4.104
 8562SOL    HW126585   3.288   6.428   4.123
 8562SOL    HW226586   3.245   6.585   4.117
 8563SOL     OW26587   2.696   3.042   6.326
 8563SOL    HW126588   2.759   2.985   6.379
 8563SOL    HW226589   2.627   2.984   6.282
 8564SOL     OW26590   1.358   0.171   3.477
 8564SOL    HW126591   1.355   0.155   3.575
 8564SOL    HW226592   1.272   0.212   3.446
 8565SOL     OW26593   3.645   6.732   2.042
 8565SOL    HW126594   3.561   6.755   2.092
 8565SOL    HW226595   3.719   6.718   2.107
 8566SOL     OW26596   1.909   2.565   3.401
 8566SOL    HW126597   1.987   2.519   3.442
 8566SOL    HW226598   1.843   2.498   3.369
 8567SOL     OW26599   5.110   0.639   1.467
 8567SOL    HW126600   5.040   0.629   1.397
 8567SOL    HW226601   5.140   0.734   1.471
 8568SOL     OW26602   5.318   1.156   0.403
 8568SOL    HW126603   5.369   1.235   0.436
 8568SOL    HW226604   5.302   1.092   0.479
 8569SOL     OW26605   3.965   1.564   4.529
 8569SOL    HW126606   4.000   1.657   4.528
 8569SOL    HW226607   3.927   1.542   4.439
 8570SOL     OW26608   6.820   4.098   0.003
 8570SOL    HW126609   6.798   4.145   6.946
 8570SOL    HW226610   6.909   4.128   0.036
 8571SOL     OW26611   6.822   4.083   5.409
 8571SOL    HW126612   6.845   4.111   5.502
 8571SOL    HW226613   6.819   4.163   5.349
 8572SOL     OW26614   2.686   4.996   5.104
 8572SOL    HW126615   2.708   4.955   5.016
 8572SOL    HW226616   2.730   4.943   5.177
 8573SOL     OW26617   3.278   6.168   5.386
 8573SOL    HW126618   3.378   6.169   5.393
 8573SOL    HW226619   3.239   6.139   5.473
 8574SOL     OW26620   0.465   4.105   5.185
 8574SOL    HW126621   0.461   4.018   5.235
 8574SOL    HW226622   0.560   4.132   5.172
 8575SOL     OW26623   3.672   3.084   0.152
 8575SOL    HW126624   3.593   3.098   0.212
 8575SOL    HW226625   3.723   3.003   0.182
 8576SOL     OW26626   1.592   6.778   1.321
 8576SOL    HW126627   1.542   6.853   1.277
 8576SOL    HW226628   1.684   6.771   1.281
 8577SOL     OW26629   6.625   6.028   3.299
 8577SOL    HW126630   6.558   6.084   3.348
 8577SOL    HW226631   6.717   6.054   3.327
 8578SOL     OW26632   4.228   6.871   3.546
 8578SOL    HW126633   4.262   6.964   3.530
 8578SOL    HW226634   4.302   6.805   3.537
 8579SOL     OW26635   1.011   4.875   3.123
 8579SOL    HW126636   0.934   4.922   3.166
 8579SOL    HW226637   0.993   4.777   3.121
 8580SOL     OW26638   2.389   4.905   6.894
 8580SOL    HW126639   2.336   4.983   6.860
 8580SOL    HW226640   2.414   4.846   6.817
 8581SOL     OW26641   3.325   1.900   1.553
 8581SOL    HW126642   3.366   1.991   1.564
 8581SOL    HW226643   3.380   1.832   1.601
 8582SOL     OW26644   4.226   3.862   1.548
 8582SOL    HW126645   4.260   3.935   1.607
 8582SOL    HW226646   4.173   3.902   1.473
 8583SOL     OW26647   6.235   0.070   6.204
 8583SOL    HW126648   6.322   0.089   6.249
 8583SOL    HW226649   6.177   0.017   6.266
 8584SOL     OW26650   6.697   5.748   0.612
 8584SOL    HW126651   6.776   5.805   0.633
 8584SOL    HW226652   6.726   5.668   0.560
 8585SOL     OW26653   0.471   1.317   0.361
 8585SOL    HW126654   0.497   1.222   0.344
 8585SOL    HW226655   0.497   1.342   0.454
 8586SOL     OW26656   3.686   5.389   3.527
 8586SOL    HW126657   3.643   5.379   3.437
 8586SOL    HW226658   3.615   5.408   3.595
 8587SOL     OW26659   0.465   1.744   1.343
 8587SOL    HW126660   0.452   1.670   1.409
 8587SOL    HW226661   0.439   1.713   1.252
 8588SOL     OW26662   4.729   2.736   6.817
 8588SOL    HW126663   4.646   2.682   6.835
 8588SOL    HW226664   4.779   2.696   6.740
 8589SOL     OW26665   3.320   2.110   4.650
 8589SOL    HW126666   3.319   2.078   4.745
 8589SOL    HW226667   3.227   2.120   4.616
 8590SOL     OW26668   6.055   4.808   5.517
 8590SOL    HW126669   6.006   4.828   5.432
 8590SOL    HW226670   6.052   4.888   5.577
 8591SOL     OW26671   0.740   3.464   6.652
 8591SOL    HW126672   0.783   3.437   6.566
 8591SOL    HW226673   0.801   3.440   6.728
 8592SOL     OW26674   5.856   4.898   0.114
 8592SOL    HW126675   5.762   4.868   0.129
 8592SOL    HW226676   5.860   4.998   0.111
 8593SOL     OW26677   1.038   0.499   2.907
 8593SOL    HW126678   1.029   0.444   2.990
 8593SOL    HW226679   1.015   0.443   2.827
 8594SOL     OW26680   3.857   3.676   4.293
 8594SOL    HW126681   3.852   3.690   4.392
 8594SOL    HW226682   3.869   3.579   4.274
 8595SOL     OW26683   1.773   1.844   2.222
 8595SOL    HW126684   1.745   1.748   2.218
 8595SOL    HW226685   1.735   1.892   2.142
 8596SOL     OW26686   6.225   5.528   1.992
 8596SOL    HW126687   6.224   5.428   1.986
 8596SOL    HW226688   6.289   5.566   1.926
 8597SOL     OW26689   1.999   1.542   1.216
 8597SOL    HW126690   2.082   1.595   1.200
 8597SOL    HW226691   1.926   1.602   1.249
 8598SOL     OW26692   5.433   5.082   0.840
 8598SOL    HW126693   5.371   5.131   0.901
 8598SOL    HW226694   5.434   4.985   0.866
 8599SOL     OW26695   1.916   2.963   2.331
 8599SOL    HW126696   1.854   2.890   2.358
 8599SOL    HW226697   2.000   2.924   2.293
 8600SOL     OW26698   6.558   4.096   6.672
 8600SOL    HW126699   6.479   4.088   6.732
 8600SOL    HW226700   6.635   4.045   6.712
 8601SOL     OW26701   0.511   0.017   4.313
 8601SOL    HW126702   0.489   0.115   4.320
 8601SOL    HW226703   0.529   7.022   4.218
 8602SOL     OW26704   3.093   5.718   2.087
 8602SOL    HW126705   3.181   5.743   2.127
 8602SOL    HW226706   3.080   5.619   2.094
 8603SOL     OW26707   3.947   3.401   0.844
 8603SOL    HW126708   3.918   3.472   0.907
 8603SOL    HW226709   3.968   3.317   0.895
 8604SOL     OW26710   5.138   2.947   2.931
 8604SOL    HW126711   5.236   2.927   2.928
 8604SOL    HW226712   5.087   2.871   2.890
 8605SOL     OW26713   2.190   6.265   1.975
 8605SOL    HW126714   2.213   6.322   1.895
 8605SOL    HW226715   2.235   6.302   2.056
 8606SOL     OW26716   3.825   4.605   5.573
 8606SOL    HW126717   3.766   4.567   5.644
 8606SOL    HW226718   3.779   4.598   5.484
 8607SOL     OW26719   4.504   5.677   1.382
 8607SOL    HW126720   4.576   5.649   1.319
 8607SOL    HW226721   4.515   5.774   1.404
 8608SOL     OW26722   4.872   5.973   2.006
 8608SOL    HW126723   4.947   5.907   2.009
 8608SOL    HW226724   4.883   6.033   1.927
 8609SOL     OW26725   3.418   0.796   5.134
 8609SOL    HW126726   3.369   0.729   5.077
 8609SOL    HW226727   3.425   0.761   5.228
 8610SOL     OW26728   0.475   6.340   4.076
 8610SOL    HW126729   0.410   6.405   4.037
 8610SOL    HW226730   0.427   6.257   4.102
 8611SOL     OW26731   1.816   1.704   3.579
 8611SOL    HW126732   1.728   1.750   3.569
 8611SOL    HW226733   1.822   1.629   3.513
 8612SOL     OW26734   4.357   2.895   5.339
 8612SOL    HW126735   4.444   2.926   5.300
 8612SOL    HW226736   4.288   2.968   5.329
 8613SOL     OW26737   1.376   1.304   1.184
 8613SOL    HW126738   1.474   1.322   1.172
 8613SOL    HW226739   1.363   1.226   1.245
 8614SOL     OW26740   0.798   1.918   3.069
 8614SOL    HW126741   0.782   1.979   3.147
 8614SOL    HW226742   0.787   1.970   2.984
 8615SOL     OW26743   4.473   2.497   5.037
 8615SOL    HW126744   4.450   2.535   5.126
 8615SOL    HW226745   4.393   2.449   5.000
 8616SOL     OW26746   1.140   4.355   0.280
 8616SOL    HW126747   1.230   4.342   0.324
 8616SOL    HW226748   1.085   4.416   0.336
 8617SOL     OW26749   6.002   2.809   1.167
 8617SOL    HW126750   5.904   2.805   1.187
 8617SOL    HW226751   6.019   2.785   1.072
 8618SOL     OW26752   4.825   0.517   3.562
 8618SOL    HW126753   4.821   0.438   3.501
 8618SOL    HW226754   4.863   0.489   3.650
 8619SOL     OW26755   4.789   5.301   0.157
 8619SOL    HW126756   4.885   5.288   0.179
 8619SOL    HW226757   4.780   5.335   0.063
 8620SOL     OW26758   6.630   6.429   3.180
 8620SOL    HW126759   6.548   6.483   3.200
 8620SOL    HW226760   6.664   6.452   3.088
 8621SOL     OW26761   5.623   0.696   3.259
 8621SOL    HW126762   5.599   0.610   3.305
 8621SOL    HW226763   5.712   0.686   3.214
 8622SOL     OW26764   5.117   5.017   0.316
 8622SOL    HW126765   5.180   5.031   0.392
 8622SOL    HW226766   5.096   4.919   0.308
 8623SOL     OW26767   6.322   3.508   2.535
 8623SOL    HW126768   6.283   3.441   2.598
 8623SOL    HW226769   6.413   3.477   2.506
 8624SOL     OW26770   0.440   4.232   2.952
 8624SOL    HW126771   0.462   4.134   2.947
 8624SOL    HW226772   0.488   4.280   2.878
 8625SOL     OW26773   3.672   0.207   4.606
 8625SOL    HW126774   3.644   0.235   4.514
 8625SOL    HW226775   3.638   0.273   4.673
 8626SOL     OW26776   2.903   3.753   3.343
 8626SOL    HW126777   2.956   3.811   3.281
 8626SOL    HW226778   2.823   3.803   3.376
 8627SOL     OW26779   2.108   0.042   0.124
 8627SOL    HW126780   2.157   6.984   0.135
 8627SOL    HW226781   2.036   0.031   0.056
 8628SOL     OW26782   5.394   0.904   6.743
 8628SOL    HW126783   5.397   1.004   6.745
 8628SOL    HW226784   5.458   0.868   6.811
 8629SOL     OW26785   1.569   4.108   4.004
 8629SOL    HW126786   1.482   4.117   4.053
 8629SOL    HW226787   1.643   4.146   4.059
 8630SOL     OW26788   5.672   4.624   3.925
 8630SOL    HW126789   5.634   4.662   4.010
 8630SOL    HW226790   5.690   4.698   3.861
 8631SOL     OW26791   3.511   5.644   5.109
 8631SOL    HW126792   3.502   5.635   5.208
 8631SOL    HW226793   3.422   5.666   5.070
 8632SOL     OW26794   4.343   0.351   3.332
 8632SOL    HW126795   4.277   0.404   3.279
 8632SOL    HW226796   4.420   0.409   3.358
 8633SOL     OW26797   6.430   0.995   3.801
 8633SOL    HW126798   6.343   1.043   3.792
 8633SOL    HW226799   6.417   0.897   3.789
 8634SOL     OW26800   6.568   5.390   1.955
 8634SOL    HW126801   6.600   5.450   2.028
 8634SOL    HW226802   6.468   5.389   1.953
 8635SOL     OW26803   5.958   3.689   5.305
 8635SOL    HW126804   5.977   3.669   5.210
 8635SOL    HW226805   5.900   3.770   5.311
 8636SOL     OW26806   6.396   5.616   0.912
 8636SOL    HW126807   6.367   5.705   0.876
 8636SOL    HW226808   6.377   5.545   0.844
 8637SOL     OW26809   2.348   0.766   1.270
 8637SOL    HW126810   2.274   0.799   1.212
 8637SOL    HW226811   2.423   0.832   1.269
 8638SOL     OW26812   3.666   4.626   0.374
 8638SOL    HW126813   3.577   4.616   0.419
 8638SOL    HW226814   3.668   4.567   0.293
 8639SOL     OW26815   6.855   2.900   2.545
 8639SOL    HW126816   6.885   2.961   2.471
 8639SOL    HW226817   6.755   2.907   2.555
 8640SOL     OW26818   5.160   5.796   0.662
 8640SOL    HW126819   5.145   5.877   0.607
 8640SOL    HW226820   5.249   5.756   0.639
 8641SOL     OW26821   6.156   4.563   3.620
 8641SOL    HW126822   6.064   4.596   3.638
 8641SOL    HW226823   6.154   4.463   3.608
 8642SOL     OW26824   4.194   1.345   1.194
 8642SOL    HW126825   4.102   1.318   1.167
 8642SOL    HW226826   4.203   1.445   1.187
 8643SOL     OW26827   4.979   0.588   6.072
 8643SOL    HW126828   4.963   0.577   5.974
 8643SOL    HW226829   4.891   0.585   6.120
 8644SOL     OW26830   6.253   3.332   4.912
 8644SOL    HW126831   6.314   3.410   4.903
 8644SOL    HW226832   6.158   3.363   4.902
 8645SOL     OW26833   6.341   4.788   1.640
 8645SOL    HW126834   6.292   4.856   1.586
 8645SOL    HW226835   6.304   4.697   1.619
 8646SOL     OW26836   5.242   0.703   0.457
 8646SOL    HW126837   5.314   0.771   0.467
 8646SOL    HW226838   5.281   0.611   0.464
 8647SOL     OW26839   4.768   5.225   0.529
 8647SOL    HW126840   4.709   5.233   0.448
 8647SOL    HW226841   4.840   5.294   0.524
 8648SOL     OW26842   5.429   1.546   4.107
 8648SOL    HW126843   5.360   1.584   4.045
 8648SOL    HW226844   5.520   1.559   4.067
 8649SOL     OW26845   6.619   4.344   5.619
 8649SOL    HW126846   6.691   4.290   5.663
 8649SOL    HW226847   6.552   4.283   5.577
 8650SOL     OW26848   2.104   5.101   3.137
 8650SOL    HW126849   2.134   5.088   3.231
 8650SOL    HW226850   2.047   5.024   3.109
 8651SOL     OW26851   3.583   1.587   0.607
 8651SOL    HW126852   3.676   1.620   0.620
 8651SOL    HW226853   3.581   1.488   0.617
 8652SOL     OW26854   1.491   3.460   3.859
 8652SOL    HW126855   1.573   3.518   3.854
 8652SOL    HW226856   1.439   3.484   3.941
 8653SOL     OW26857   6.859   3.387   6.835
 8653SOL    HW126858   6.804   3.383   6.918
 8653SOL    HW226859   6.898   3.478   6.825
 8654SOL     OW26860   0.722   0.251   3.496
 8654SOL    HW126861   0.725   0.178   3.427
 8654SOL    HW226862   0.669   0.328   3.461
 8655SOL     OW26863   6.494   5.963   4.526
 8655SOL    HW126864   6.412   6.018   4.541
 8655SOL    HW226865   6.485   5.876   4.574
 8656SOL     OW26866   5.970   1.825   0.951
 8656SOL    HW126867   5.922   1.781   0.875
 8656SOL    HW226868   6.067   1.802   0.946
 8657SOL     OW26869   3.797   4.029   6.367
 8657SOL    HW126870   3.738   4.055   6.290
 8657SOL    HW226871   3.801   4.105   6.433
 8658SOL     OW26872   6.536   5.056   7.028
 8658SOL    HW126873   6.489   4.986   0.053
 8658SOL    HW226874   6.626   5.022   6.999
 8659SOL     OW26875   5.309   0.692   4.542
 8659SOL    HW126876   5.235   0.627   4.563
 8659SOL    HW226877   5.354   0.666   4.457
 8660SOL     OW26878   5.662   4.056   1.305
 8660SOL    HW126879   5.749   4.025   1.266
 8660SOL    HW226880   5.608   4.100   1.234
 8661SOL     OW26881   6.949   3.976   1.821
 8661SOL    HW126882   6.876   4.035   1.855
 8661SOL    HW226883   6.934   3.957   1.724
 8662SOL     OW26884   0.159   0.022   0.616
 8662SOL    HW126885   0.174   0.053   0.709
 8662SOL    HW226886   0.241   0.038   0.561
 8663SOL     OW26887   2.227   5.644   0.318
 8663SOL    HW126888   2.258   5.680   0.406
 8663SOL    HW226889   2.188   5.718   0.263
 8664SOL     OW26890   4.428   5.924   7.019
 8664SOL    HW126891   4.400   6.014   0.025
 8664SOL    HW226892   4.527   5.921   7.008
 8665SOL     OW26893   5.333   5.122   5.438
 8665SOL    HW126894   5.364   5.217   5.448
 8665SOL    HW226895   5.285   5.093   5.520
 8666SOL     OW26896   5.062   2.651   4.290
 8666SOL    HW126897   5.009   2.728   4.326
 8666SOL    HW226898   5.019   2.565   4.318
 8667SOL     OW26899   4.774   1.300   4.169
 8667SOL    HW126900   4.825   1.370   4.119
 8667SOL    HW226901   4.684   1.336   4.193
 8668SOL     OW26902   3.777   1.739   3.869
 8668SOL    HW126903   3.695   1.780   3.910
 8668SOL    HW226904   3.808   1.795   3.792
 8669SOL     OW26905   4.147   0.602   5.444
 8669SOL    HW126906   4.051   0.613   5.416
 8669SOL    HW226907   4.202   0.673   5.400
 8670SOL     OW26908   3.880   5.339   4.191
 8670SOL    HW126909   3.819   5.402   4.143
 8670SOL    HW226910   3.902   5.375   4.281
 8671SOL     OW26911   5.952   6.906   3.525
 8671SOL    HW126912   5.936   6.868   3.616
 8671SOL    HW226913   5.993   6.837   3.466
 8672SOL     OW26914   3.841   4.939   4.771
 8672SOL    HW126915   3.909   4.865   4.769
 8672SOL    HW226916   3.794   4.944   4.683
 8673SOL     OW26917   5.673   1.922   0.426
 8673SOL    HW126918   5.681   1.960   0.518
 8673SOL    HW226919   5.650   1.825   0.431
 8674SOL     OW26920   0.047   6.908   3.128
 8674SOL    HW126921   6.984   6.935   3.160
 8674SOL    HW226922   0.105   6.989   3.120
 8675SOL     OW26923   2.181   0.923   2.438
 8675SOL    HW126924   2.128   0.979   2.500
 8675SOL    HW226925   2.184   0.966   2.347
 8676SOL     OW26926   4.552   0.059   2.948
 8676SOL    HW126927   4.488   7.015   2.921
 8676SOL    HW226928   4.514   0.110   3.026
 8677SOL     OW26929   2.614   4.379   5.460
 8677SOL    HW126930   2.584   4.286   5.438
 8677SOL    HW226931   2.678   4.376   5.537
 8678SOL     OW26932   0.930   6.612   6.139
 8678SOL    HW126933   0.884   6.697   6.115
 8678SOL    HW226934   0.892   6.537   6.085
 8679SOL     OW26935   6.771   2.585   5.042
 8679SOL    HW126936   6.858   2.604   5.089
 8679SOL    HW226937   6.708   2.662   5.057
 8680SOL     OW26938   1.660   3.257   6.801
 8680SOL    HW126939   1.689   3.340   6.754
 8680SOL    HW226940   1.582   3.216   6.754
 8681SOL     OW26941   3.670   4.301   0.454
 8681SOL    HW126942   3.718   4.320   0.540
 8681SOL    HW226943   3.719   4.345   0.378
 8682SOL     OW26944   2.318   6.345   2.953
 8682SOL    HW126945   2.269   6.265   2.990
 8682SOL    HW226946   2.252   6.418   2.933
 8683SOL     OW26947   7.016   3.262   0.414
 8683SOL    HW126948   0.049   3.341   0.403
 8683SOL    HW226949   7.018   3.233   0.510
 8684SOL     OW26950   6.099   3.465   4.355
 8684SOL    HW126951   6.142   3.474   4.446
 8684SOL    HW226952   6.015   3.518   4.353
 8685SOL     OW26953   0.912   2.218   5.936
 8685SOL    HW126954   0.856   2.294   5.969
 8685SOL    HW226955   1.007   2.248   5.926
 8686SOL     OW26956   6.756   2.142   3.404
 8686SOL    HW126957   6.667   2.183   3.385
 8686SOL    HW226958   6.766   2.058   3.350
 8687SOL     OW26959   3.389   0.068   3.141
 8687SOL    HW126960   3.374   0.166   3.125
 8687SOL    HW226961   3.324   0.015   3.087
 8688SOL     OW26962   2.438   0.369   1.832
 8688SOL    HW126963   2.432   0.286   1.777
 8688SOL    HW226964   2.375   0.438   1.796
 8689SOL     OW26965   4.500   5.595   0.210
 8689SOL    HW126966   4.472   5.672   0.268
 8689SOL    HW226967   4.596   5.573   0.228
 8690SOL     OW26968   0.347   1.153   2.904
 8690SOL    HW126969   0.415   1.208   2.856
 8690SOL    HW226970   0.262   1.150   2.850
 8691SOL     OW26971   5.333   2.070   0.221
 8691SOL    HW126972   5.276   2.147   0.249
 8691SOL    HW226973   5.301   1.987   0.264
 8692SOL     OW26974   2.215   1.654   4.178
 8692SOL    HW126975   2.309   1.682   4.163
 8692SOL    HW226976   2.171   1.635   4.090
 8693SOL     OW26977   5.342   2.076   0.705
 8693SOL    HW126978   5.316   2.072   0.802
 8693SOL    HW226979   5.405   2.153   0.691
 8694SOL     OW26980   4.930   6.989   6.074
 8694SOL    HW126981   4.899   0.052   6.103
 8694SOL    HW226982   4.937   6.929   6.155
 8695SOL     OW26983   4.735   4.784   5.522
 8695SOL    HW126984   4.782   4.710   5.474
 8695SOL    HW226985   4.753   4.778   5.620
 8696SOL     OW26986   2.394   5.764   1.594
 8696SOL    HW126987   2.483   5.803   1.570
 8696SOL    HW226988   2.335   5.836   1.632
 8697SOL     OW26989   6.192   4.350   0.645
 8697SOL    HW126990   6.249   4.268   0.650
 8697SOL    HW226991   6.242   4.422   0.597
 8698SOL     OW26992   5.309   6.039   4.682
 8698SOL    HW126993   5.332   5.947   4.652
 8698SOL    HW226994   5.372   6.104   4.640
 8699SOL     OW26995   1.209   1.940   5.486
 8699SOL    HW126996   1.199   1.935   5.386
 8699SOL    HW226997   1.298   1.978   5.508
 8700SOL     OW26998   3.272   1.333   5.539
 8700SOL    HW126999   3.211   1.405   5.571
 8700SOL    HW227000   3.219   1.260   5.495
 8701SOL     OW27001   0.383   1.617   4.943
 8701SOL    HW127002   0.432   1.702   4.958
 8701SOL    HW227003   0.395   1.587   4.848
 8702SOL     OW27004   5.130   5.696   0.267
 8702SOL    HW127005   5.190   5.652   0.334
 8702SOL    HW227006   5.127   5.795   0.286
 8703SOL     OW27007   2.650   5.723   1.099
 8703SOL    HW127008   2.565   5.688   1.138
 8703SOL    HW227009   2.685   5.798   1.154
 8704SOL     OW27010   0.285   4.774   2.102
 8704SOL    HW127011   0.218   4.821   2.160
 8704SOL    HW227012   0.295   4.679   2.132
 8705SOL     OW27013   4.917   0.246   6.124
 8705SOL    HW127014   4.870   0.329   6.155
 8705SOL    HW227015   5.016   0.260   6.129
 8706SOL     OW27016   5.340   1.774   0.328
 8706SOL    HW127017   5.253   1.804   0.287
 8706SOL    HW227018   5.341   1.674   0.333
 8707SOL     OW27019   5.276   2.827   5.957
 8707SOL    HW127020   5.186   2.786   5.942
 8707SOL    HW227021   5.271   2.925   5.940
 8708SOL     OW27022   3.992   1.201   1.049
 8708SOL    HW127023   4.021   1.109   1.023
 8708SOL    HW227024   3.896   1.198   1.077
 8709SOL     OW27025   6.662   4.004   1.337
 8709SOL    HW127026   6.743   3.944   1.334
 8709SOL    HW227027   6.583   3.955   1.299
 8710SOL     OW27028   1.912   3.095   3.530
 8710SOL    HW127029   1.898   3.000   3.504
 8710SOL    HW227030   1.888   3.154   3.452
 8711SOL     OW27031   6.955   0.982   3.317
 8711SOL    HW127032   6.979   1.050   3.386
 8711SOL    HW227033   6.860   0.953   3.330
 8712SOL     OW27034   2.975   1.673   4.786
 8712SOL    HW127035   2.977   1.580   4.822
 8712SOL    HW227036   3.050   1.726   4.825
 8713SOL     OW27037   6.953   4.255   4.039
 8713SOL    HW127038   6.896   4.324   4.083
 8713SOL    HW227039   7.021   4.222   4.104
 8714SOL     OW27040   1.583   1.052   5.717
 8714SOL    HW127041   1.501   1.067   5.771
 8714SOL    HW227042   1.566   1.076   5.621
 8715SOL     OW27043   6.301   2.045   1.599
 8715SOL    HW127044   6.378   1.987   1.625
 8715SOL    HW227045   6.250   2.001   1.525
 8716SOL     OW27046   1.006   1.505   1.084
 8716SOL    HW127047   1.036   1.600   1.094
 8716SOL    HW227048   1.085   1.448   1.061
 8717SOL     OW27049   3.951   3.652   1.409
 8717SOL    HW127050   3.993   3.721   1.350
 8717SOL    HW227051   4.014   3.628   1.483
 8718SOL     OW27052   6.165   3.107   5.520
 8718SOL    HW127053   6.217   3.135   5.439
 8718SOL    HW227054   6.104   3.032   5.495
 8719SOL     OW27055   0.617   0.138   5.503
 8719SOL    HW127056   0.614   0.082   5.420
 8719SOL    HW227057   0.667   0.090   5.574
 8720SOL     OW27058   5.502   4.219   5.468
 8720SOL    HW127059   5.539   4.135   5.429
 8720SOL    HW227060   5.418   4.198   5.518
 8721SOL     OW27061   0.019   2.576   4.580
 8721SOL    HW127062   6.999   2.582   4.493
 8721SOL    HW227063   6.982   2.585   4.655
 8722SOL     OW27064   3.812   2.634   0.421
 8722SOL    HW127065   3.731   2.584   0.391
 8722SOL    HW227066   3.800   2.665   0.515
 8723SOL     OW27067   6.524   5.398   1.517
 8723SOL    HW127068   6.515   5.476   1.456
 8723SOL    HW227069   6.516   5.313   1.465
 8724SOL     OW27070   5.538   0.456   5.630
 8724SOL    HW127071   5.586   0.523   5.574
 8724SOL    HW227072   5.469   0.502   5.686
 8725SOL     OW27073   2.457   6.099   0.179
 8725SOL    HW127074   2.395   6.026   0.147
 8725SOL    HW227075   2.478   6.084   0.276
 8726SOL     OW27076   6.273   0.437   1.668
 8726SOL    HW127077   6.175   0.418   1.670
 8726SOL    HW227078   6.295   0.491   1.587
 8727SOL     OW27079   6.221   6.288   1.253
 8727SOL    HW127080   6.316   6.267   1.275
 8727SOL    HW227081   6.205   6.386   1.264
 8728SOL     OW27082   2.788   6.662   5.012
 8728SOL    HW127083   2.847   6.653   4.932
 8728SOL    HW227084   2.814   6.744   5.063
 8729SOL     OW27085   4.594   5.958   3.582
 8729SOL    HW127086   4.681   5.955   3.632
 8729SOL    HW227087   4.608   5.920   3.490
 8730SOL     OW27088   0.345   5.850   2.388
 8730SOL    HW127089   0.401   5.803   2.320
 8730SOL    HW227090   0.260   5.879   2.345
 8731SOL     OW27091   1.350   1.478   2.325
 8731SOL    HW127092   1.261   1.473   2.371
 8731SOL    HW227093   1.339   1.526   2.238
 8732SOL     OW27094   5.959   3.822   1.835
 8732SOL    HW127095   5.878   3.795   1.782
 8732SOL    HW227096   5.957   3.921   1.850
 8733SOL     OW27097   1.235   6.308   1.430
 8733SOL    HW127098   1.221   6.335   1.335
 8733SOL    HW227099   1.264   6.387   1.484
 8734SOL     OW27100   6.918   5.883   1.199
 8734SOL    HW127101   6.935   5.828   1.281
 8734SOL    HW227102   6.838   5.941   1.215
 8735SOL     OW27103   0.051   1.934   6.570
 8735SOL    HW127104   6.986   1.919   6.538
 8735SOL    HW227105   0.074   1.869   6.642
 8736SOL     OW27106   0.512   4.837   6.623
 8736SOL    HW127107   0.595   4.785   6.604
 8736SOL    HW227108   0.510   4.920   6.568
 8737SOL     OW27109   3.981   5.516   6.304
 8737SOL    HW127110   3.910   5.477   6.362
 8737SOL    HW227111   3.940   5.576   6.235
 8738SOL     OW27112   1.101   3.576   3.990
 8738SOL    HW127113   1.185   3.522   3.994
 8738SOL    HW227114   1.087   3.622   4.078
 8739SOL     OW27115   0.419   3.327   5.675
 8739SOL    HW127116   0.449   3.273   5.753
 8739SOL    HW227117   0.320   3.319   5.665
 8740SOL     OW27118   2.394   6.541   0.718
 8740SOL    HW127119   2.352   6.451   0.729
 8740SOL    HW227120   2.409   6.559   0.620
 8741SOL     OW27121   1.562   3.339   2.642
 8741SOL    HW127122   1.492   3.410   2.639
 8741SOL    HW227123   1.653   3.381   2.638
 8742SOL     OW27124   4.446   0.086   1.676
 8742SOL    HW127125   4.352   0.119   1.684
 8742SOL    HW227126   4.457   0.002   1.729
 8743SOL     OW27127   2.577   5.037   2.991
 8743SOL    HW127128   2.509   5.098   2.950
 8743SOL    HW227129   2.542   4.944   2.993
 8744SOL     OW27130   4.379   2.225   6.071
 8744SOL    HW127131   4.433   2.309   6.076
 8744SOL    HW227132   4.422   2.155   6.127
 8745SOL     OW27133   6.301   2.325   6.063
 8745SOL    HW127134   6.384   2.359   6.108
 8745SOL    HW227135   6.248   2.402   6.029
 8746SOL     OW27136   5.665   4.969   5.712
 8746SOL    HW127137   5.594   4.922   5.661
 8746SOL    HW227138   5.718   4.903   5.765
 8747SOL     OW27139   1.697   2.085   3.877
 8747SOL    HW127140   1.609   2.070   3.832
 8747SOL    HW227141   1.741   1.998   3.898
 8748SOL     OW27142   1.535   6.869   6.857
 8748SOL    HW127143   1.442   6.842   6.878
 8748SOL    HW227144   1.538   6.968   6.840
 8749SOL     OW27145   3.909   0.479   3.734
 8749SOL    HW127146   3.895   0.481   3.635
 8749SOL    HW227147   3.836   0.530   3.779
 8750SOL     OW27148   1.804   1.347   5.482
 8750SOL    HW127149   1.880   1.391   5.434
 8750SOL    HW227150   1.731   1.326   5.417
 8751SOL     OW27151   1.015   6.981   2.522
 8751SOL    HW127152   1.103   0.001   2.531
 8751SOL    HW227153   0.993   6.935   2.608
 8752SOL     OW27154   1.663   2.120   6.293
 8752SOL    HW127155   1.634   2.042   6.239
 8752SOL    HW227156   1.595   2.138   6.365
 8753SOL     OW27157   5.066   1.451   4.412
 8753SOL    HW127158   5.162   1.444   4.441
 8753SOL    HW227159   5.042   1.371   4.357
 8754SOL     OW27160   1.684   1.847   5.895
 8754SOL    HW127161   1.633   1.920   5.939
 8754SOL    HW227162   1.622   1.772   5.873
 8755SOL     OW27163   1.873   1.887   0.756
 8755SOL    HW127164   1.778   1.857   0.743
 8755SOL    HW227165   1.892   1.894   0.854
 8756SOL     OW27166   2.165   3.186   4.199
 8756SOL    HW127167   2.186   3.092   4.170
 8756SOL    HW227168   2.090   3.222   4.143
 8757SOL     OW27169   4.546   6.496   4.886
 8757SOL    HW127170   4.507   6.416   4.931
 8757SOL    HW227171   4.637   6.473   4.851
 8758SOL     OW27172   6.272   6.886   1.107
 8758SOL    HW127173   6.209   6.897   1.184
 8758SOL    HW227174   6.258   6.796   1.066
 8759SOL     OW27175   4.954   0.753   5.565
 8759SOL    HW127176   4.994   0.713   5.482
 8759SOL    HW227177   4.954   0.853   5.557
 8760SOL     OW27178   1.517   1.755   3.585
 8760SOL    HW127179   1.519   1.690   3.509
 8760SOL    HW227180   1.496   1.846   3.551
 8761SOL     OW27181   4.423   6.928   0.115
 8761SOL    HW127182   4.341   6.980   0.142
 8761SOL    HW227183   4.446   6.864   0.189
 8762SOL     OW27184   1.070   4.583   0.973
 8762SOL    HW127185   1.047   4.551   0.881
 8762SOL    HW227186   1.120   4.511   1.021
 8763SOL     OW27187   0.552   6.699   6.324
 8763SOL    HW127188   0.530   6.689   6.421
 8763SOL    HW227189   0.574   6.794   6.304
 8764SOL     OW27190   4.269   1.842   4.758
 8764SOL    HW127191   4.249   1.932   4.719
 8764SOL    HW227192   4.184   1.790   4.766
 8765SOL     OW27193   5.858   0.237   4.375
 8765SOL    HW127194   5.844   0.304   4.447
 8765SOL    HW227195   5.914   0.277   4.302
 8766SOL     OW27196   2.106   4.639   2.523
 8766SOL    HW127197   2.100   4.649   2.623
 8766SOL    HW227198   2.093   4.543   2.499
 8767SOL     OW27199   4.202   1.035   3.886
 8767SOL    HW127200   4.218   1.055   3.982
 8767SOL    HW227201   4.226   1.115   3.831
 8768SOL     OW27202   1.836   3.130   6.591
 8768SOL    HW127203   1.935   3.135   6.609
 8768SOL    HW227204   1.790   3.092   6.671
 8769SOL     OW27205   1.828   0.070   5.776
 8769SOL    HW127206   1.818   0.158   5.731
 8769SOL    HW227207   1.924   0.055   5.799
 8770SOL     OW27208   5.322   3.019   1.685
 8770SOL    HW127209   5.383   3.097   1.670
 8770SOL    HW227210   5.228   3.052   1.696
 8771SOL     OW27211   0.718   1.620   6.430
 8771SOL    HW127212   0.626   1.589   6.409
 8771SOL    HW227213   0.779   1.540   6.437
 8772SOL     OW27214   5.696   1.266   6.678
 8772SOL    HW127215   5.711   1.169   6.660
 8772SOL    HW227216   5.775   1.319   6.648
 8773SOL     OW27217   2.395   2.680   2.659
 8773SOL    HW127218   2.429   2.586   2.654
 8773SOL    HW227219   2.341   2.700   2.577
 8774SOL     OW27220   1.282   0.844   1.136
 8774SOL    HW127221   1.198   0.839   1.190
 8774SOL    HW227222   1.343   0.912   1.175
 8775SOL     OW27223   6.295   0.015   3.606
 8775SOL    HW127224   6.217   0.056   3.558
 8775SOL    HW227225   6.289   6.943   3.600
 8776SOL     OW27226   3.480   2.867   4.942
 8776SOL    HW127227   3.507   2.851   4.846
 8776SOL    HW227228   3.490   2.964   4.963
 8777SOL     OW27229   6.442   6.136   1.956
 8777SOL    HW127230   6.423   6.099   1.865
 8777SOL    HW227231   6.540   6.127   1.975
 8778SOL     OW27232   0.448   2.077   3.550
 8778SOL    HW127233   0.501   2.001   3.587
 8778SOL    HW227234   0.407   2.129   3.626
 8779SOL     OW27235   0.901   5.160   0.649
 8779SOL    HW127236   0.986   5.112   0.627
 8779SOL    HW227237   0.888   5.161   0.749
 8780SOL     OW27238   1.347   5.575   4.457
 8780SOL    HW127239   1.380   5.668   4.469
 8780SOL    HW227240   1.417   5.519   4.413
 8781SOL     OW27241   0.622   1.797   2.403
 8781SOL    HW127242   0.716   1.770   2.424
 8781SOL    HW227243   0.600   1.769   2.309
 8782SOL     OW27244   4.441   1.282   3.067
 8782SOL    HW127245   4.491   1.358   3.109
 8782SOL    HW227246   4.499   1.237   2.999
 8783SOL     OW27247   5.695   3.542   4.744
 8783SOL    HW127248   5.759   3.477   4.704
 8783SOL    HW227249   5.608   3.497   4.763
 8784SOL     OW27250   5.296   4.862   5.392
 8784SOL    HW127251   5.200   4.883   5.373
 8784SOL    HW227252   5.352   4.943   5.375
 8785SOL     OW27253   6.491   4.617   6.202
 8785SOL    HW127254   6.550   4.678   6.149
 8785SOL    HW227255   6.443   4.555   6.140
 8786SOL     OW27256   1.856   6.667   0.241
 8786SOL    HW127257   1.790   6.595   0.219
 8786SOL    HW227258   1.814   6.757   0.227
 8787SOL     OW27259   1.577   4.006   1.090
 8787SOL    HW127260   1.646   4.039   1.025
 8787SOL    HW227261   1.575   4.066   1.170
 8788SOL     OW27262   1.065   1.535   5.438
 8788SOL    HW127263   1.165   1.541   5.449
 8788SOL    HW227264   1.040   1.568   5.348
 8789SOL     OW27265   6.923   0.268   6.534
 8789SOL    HW127266   6.959   0.240   6.445
 8789SOL    HW227267   6.853   0.203   6.564
 8790SOL     OW27268   5.690   1.527   7.025
 8790SOL    HW127269   5.779   1.549   6.984
 8790SOL    HW227270   5.655   1.607   0.046
 8791SOL     OW27271   4.941   6.692   5.532
 8791SOL    HW127272   4.860   6.658   5.484
 8791SOL    HW227273   4.937   6.792   5.536
 8792SOL     OW27274   5.176   0.168   2.924
 8792SOL    HW127275   5.113   0.244   2.907
 8792SOL    HW227276   5.150   0.090   2.868
 8793SOL     OW27277   1.190   5.883   4.284
 8793SOL    HW127278   1.143   5.949   4.342
 8793SOL    HW227279   1.266   5.842   4.334
 8794SOL     OW27280   1.912   6.600   2.670
 8794SOL    HW127281   2.006   6.580   2.641
 8794SOL    HW227282   1.854   6.521   2.651
 8795SOL     OW27283   2.173   6.226   5.822
 8795SOL    HW127284   2.086   6.178   5.806
 8795SOL    HW227285   2.186   6.294   5.750
 8796SOL     OW27286   5.150   2.394   5.326
 8796SOL    HW127287   5.064   2.440   5.305
 8796SOL    HW227288   5.138   2.333   5.404
 8797SOL     OW27289   0.449   0.031   6.794
 8797SOL    HW127290   0.499   6.979   6.828
 8797SOL    HW227291   0.419   0.088   6.870
 8798SOL     OW27292   4.776   3.586   5.574
 8798SOL    HW127293   4.710   3.654   5.543
 8798SOL    HW227294   4.798   3.524   5.498
 8799SOL     OW27295   3.004   5.272   3.123
 8799SOL    HW127296   2.919   5.223   3.107
 8799SOL    HW227297   3.014   5.345   3.055
 8800SOL     OW27298   4.634   4.744   6.889
 8800SOL    HW127299   4.564   4.689   6.934
 8800SOL    HW227300   4.593   4.827   6.852
 8801SOL     OW27301   2.600   1.078   4.837
 8801SOL    HW127302   2.668   1.023   4.885
 8801SOL    HW227303   2.604   1.173   4.868
 8802SOL     OW27304   3.152   6.428   2.774
 8802SOL    HW127305   3.228   6.382   2.821
 8802SOL    HW227306   3.066   6.405   2.821
 8803SOL     OW27307   3.867   5.836   0.520
 8803SOL    HW127308   3.808   5.796   0.450
 8803SOL    HW227309   3.858   5.783   0.604
 8804SOL     OW27310   4.857   0.455   0.953
 8804SOL    HW127311   4.926   0.518   0.917
 8804SOL    HW227312   4.800   0.421   0.878
 8805SOL     OW27313   0.401   0.464   2.927
 8805SOL    HW127314   0.451   0.409   2.994
 8805SOL    HW227315   0.395   0.558   2.958
 8806SOL     OW27316   1.905   4.695   6.917
 8806SOL    HW127317   1.905   4.723   6.821
 8806SOL    HW227318   1.894   4.776   6.975
 8807SOL     OW27319   1.318   6.013   6.181
 8807SOL    HW127320   1.331   6.059   6.093
 8807SOL    HW227321   1.252   5.939   6.170
 8808SOL     OW27322   5.447   1.442   1.176
 8808SOL    HW127323   5.393   1.429   1.093
 8808SOL    HW227324   5.530   1.386   1.170
 8809SOL     OW27325   6.047   4.278   1.491
 8809SOL    HW127326   6.009   4.189   1.513
 8809SOL    HW227327   6.087   4.319   1.573
 8810SOL     OW27328   3.852   1.504   4.292
 8810SOL    HW127329   3.784   1.438   4.260
 8810SOL    HW227330   3.854   1.583   4.231
 8811SOL     OW27331   1.261   1.327   2.768
 8811SOL    HW127332   1.343   1.315   2.825
 8811SOL    HW227333   1.181   1.332   2.827
 8812SOL     OW27334   2.185   0.922   1.115
 8812SOL    HW127335   2.222   1.007   1.076
 8812SOL    HW227336   2.086   0.920   1.103
 8813SOL     OW27337   2.062   6.164   1.379
 8813SOL    HW127338   1.981   6.172   1.322
 8813SOL    HW227339   2.053   6.225   1.458
 8814SOL     OW27340   6.319   1.083   6.101
 8814SOL    HW127341   6.227   1.049   6.119
 8814SOL    HW227342   6.346   1.145   6.175
 8815SOL     OW27343   0.336   6.274   2.635
 8815SOL    HW127344   0.407   6.264   2.705
 8815SOL    HW227345   0.371   6.244   2.547
 8816SOL     OW27346   1.193   5.778   1.514
 8816SOL    HW127347   1.097   5.805   1.511
 8816SOL    HW227348   1.249   5.858   1.536
 8817SOL     OW27349   1.339   4.910   5.459
 8817SOL    HW127350   1.405   4.888   5.387
 8817SOL    HW227351   1.381   4.971   5.526
 8818SOL     OW27352   0.422   5.497   3.950
 8818SOL    HW127353   0.344   5.436   3.963
 8818SOL    HW227354   0.463   5.481   3.860
 8819SOL     OW27355   4.736   6.498   4.364
 8819SOL    HW127356   4.656   6.448   4.396
 8819SOL    HW227357   4.708   6.586   4.326
 8820SOL     OW27358   1.360   2.270   3.665
 8820SOL    HW127359   1.386   2.352   3.717
 8820SOL    HW227360   1.355   2.192   3.727
 8821SOL     OW27361   2.195   0.844   6.394
 8821SOL    HW127362   2.272   0.878   6.447
 8821SOL    HW227363   2.222   0.831   6.299
 8822SOL     OW27364   0.513   2.118   3.260
 8822SOL    HW127365   0.457   2.092   3.339
 8822SOL    HW227366   0.475   2.076   3.177
 8823SOL     OW27367   1.818   5.865   1.664
 8823SOL    HW127368   1.820   5.964   1.669
 8823SOL    HW227369   1.812   5.826   1.756
 8824SOL     OW27370   3.739   4.157   0.731
 8824SOL    HW127371   3.658   4.107   0.700
 8824SOL    HW227372   3.821   4.105   0.709
 8825SOL     OW27373   0.865   1.601   2.103
 8825SOL    HW127374   0.886   1.532   2.033
 8825SOL    HW227375   0.785   1.573   2.155
 8826SOL     OW27376   5.130   1.759   6.604
 8826SOL    HW127377   5.182   1.830   6.557
 8826SOL    HW227378   5.166   1.748   6.697
 8827SOL     OW27379   1.351   1.899   3.029
 8827SOL    HW127380   1.332   1.803   3.011
 8827SOL    HW227381   1.378   1.945   2.944
 8828SOL     OW27382   2.622   6.800   2.570
 8828SOL    HW127383   2.639   6.859   2.491
 8828SOL    HW227384   2.707   6.754   2.596
 8829SOL     OW27385   0.122   2.089   0.641
 8829SOL    HW127386   0.109   2.030   0.561
 8829SOL    HW227387   0.040   2.086   0.698
 8830SOL     OW27388   0.638   2.098   0.847
 8830SOL    HW127389   0.546   2.084   0.811
 8830SOL    HW227390   0.702   2.109   0.770
 8831SOL     OW27391   6.683   0.845   3.009
 8831SOL    HW127392   6.781   0.845   2.989
 8831SOL    HW227393   6.664   0.909   3.083
 8832SOL     OW27394   6.175   0.920   2.430
 8832SOL    HW127395   6.271   0.916   2.405
 8832SOL    HW227396   6.166   0.918   2.530
 8833SOL     OW27397   2.081   4.597   3.707
 8833SOL    HW127398   2.000   4.571   3.759
 8833SOL    HW227399   2.095   4.531   3.633
 8834SOL     OW27400   5.794   3.954   5.197
 8834SOL    HW127401   5.754   3.940   5.106
 8834SOL    HW227402   5.884   3.997   5.188
 8835SOL     OW27403   0.214   6.975   6.368
 8835SOL    HW127404   0.287   6.957   6.434
 8835SOL    HW227405   0.139   7.024   6.414
 8836SOL     OW27406   4.506   1.290   0.338
 8836SOL    HW127407   4.554   1.272   0.252
 8836SOL    HW227408   4.572   1.318   0.408
 8837SOL     OW27409   0.085   1.095   2.208
 8837SOL    HW127410   0.069   0.997   2.197
 8837SOL    HW227411   0.115   1.134   2.121
 8838SOL     OW27412   2.120   5.550   4.041
 8838SOL    HW127413   2.107   5.473   3.978
 8838SOL    HW227414   2.055   5.543   4.117
 8839SOL     OW27415   6.469   6.947   3.907
 8839SOL    HW127416   6.464   6.892   3.823
 8839SOL    HW227417   6.426   6.896   3.982
 8840SOL     OW27418   5.365   2.506   2.398
 8840SOL    HW127419   5.285   2.533   2.343
 8840SOL    HW227420   5.350   2.414   2.436
 8841SOL     OW27421   1.682   1.690   5.110
 8841SOL    HW127422   1.739   1.772   5.121
 8841SOL    HW227423   1.589   1.718   5.089
 8842SOL     OW27424   2.278   2.955   1.688
 8842SOL    HW127425   2.272   3.052   1.667
 8842SOL    HW227426   2.353   2.914   1.637
 8843SOL     OW27427   0.652   3.050   5.216
 8843SOL    HW127428   0.699   3.061   5.303
 8843SOL    HW227429   0.675   2.961   5.176
 8844SOL     OW27430   6.694   1.399   6.648
 8844SOL    HW127431   6.689   1.310   6.692
 8844SOL    HW227432   6.788   1.433   6.653
 8845SOL     OW27433   5.475   4.618   0.053
 8845SOL    HW127434   5.515   4.566   7.006
 8845SOL    HW227435   5.486   4.568   0.139
 8846SOL     OW27436   1.709   4.776   3.832
 8846SOL    HW127437   1.691   4.705   3.901
 8846SOL    HW227438   1.778   4.839   3.867
 8847SOL     OW27439   3.148   0.556   2.702
 8847SOL    HW127440   3.184   0.592   2.788
 8847SOL    HW227441   3.123   0.632   2.642
 8848SOL     OW27442   1.491   0.472   3.121
 8848SOL    HW127443   1.505   0.461   3.022
 8848SOL    HW227444   1.446   0.560   3.137
 8849SOL     OW27445   3.122   0.140   1.127
 8849SOL    HW127446   3.137   0.238   1.136
 8849SOL    HW227447   3.037   0.114   1.172
 8850SOL     OW27448   3.622   2.751   6.666
 8850SOL    HW127449   3.592   2.732   6.760
 8850SOL    HW227450   3.604   2.847   6.645
 8851SOL     OW27451   1.218   3.203   3.230
 8851SOL    HW127452   1.181   3.160   3.313
 8851SOL    HW227453   1.259   3.291   3.254
 8852SOL     OW27454   0.819   1.780   6.084
 8852SOL    HW127455   0.809   1.762   5.986
 8852SOL    HW227456   0.834   1.695   6.133
 8853SOL     OW27457   4.594   0.644   0.764
 8853SOL    HW127458   4.669   0.672   0.703
 8853SOL    HW227459   4.617   0.668   0.858
 8854SOL     OW27460   1.064   3.049   5.049
 8854SOL    HW127461   1.101   2.976   4.992
 8854SOL    HW227462   1.093   3.035   5.144
 8855SOL     OW27463   5.725   5.484   1.006
 8855SOL    HW127464   5.737   5.396   0.961
 8855SOL    HW227465   5.770   5.483   1.095
 8856SOL     OW27466   0.243   6.145   5.263
 8856SOL    HW127467   0.262   6.236   5.226
 8856SOL    HW227468   0.163   6.107   5.218
 8857SOL     OW27469   6.530   1.729   5.792
 8857SOL    HW127470   6.483   1.727   5.880
 8857SOL    HW227471   6.530   1.637   5.752
 8858SOL     OW27472   6.915   5.519   4.235
 8858SOL    HW127473   6.931   5.513   4.333
 8858SOL    HW227474   7.002   5.536   4.188
 8859SOL     OW27475   1.148   0.055   3.853
 8859SOL    HW127476   1.058   0.042   3.813
 8859SOL    HW227477   1.139   0.064   3.952
 8860SOL     OW27478   0.698   3.507   2.248
 8860SOL    HW127479   0.603   3.527   2.271
 8860SOL    HW227480   0.710   3.507   2.149
 8861SOL     OW27481   4.691   2.640   1.222
 8861SOL    HW127482   4.705   2.723   1.276
 8861SOL    HW227483   4.645   2.571   1.278
 8862SOL     OW27484   4.831   4.632   4.764
 8862SOL    HW127485   4.890   4.701   4.807
 8862SOL    HW227486   4.772   4.591   4.834
 8863SOL     OW27487   2.187   4.049   3.357
 8863SOL    HW127488   2.256   4.079   3.292
 8863SOL    HW227489   2.175   3.950   3.349
 8864SOL     OW27490   6.120   1.731   5.054
 8864SOL    HW127491   6.190   1.665   5.025
 8864SOL    HW227492   6.158   1.823   5.050
 8865SOL     OW27493   2.417   1.397   6.759
 8865SOL    HW127494   2.317   1.396   6.758
 8865SOL    HW227495   2.448   1.460   6.830
 8866SOL     OW27496   5.815   6.389   1.964
 8866SOL    HW127497   5.740   6.380   2.029
 8866SOL    HW227498   5.783   6.367   1.872
 8867SOL     OW27499   6.141   4.313   2.843
 8867SOL    HW127500   6.215   4.381   2.844
 8867SOL    HW227501   6.143   4.264   2.757
 8868SOL     OW27502   0.130   3.242   3.692
 8868SOL    HW127503   0.182   3.252   3.607
 8868SOL    HW227504   0.058   3.174   3.679
 8869SOL     OW27505   3.793   6.829   2.976
 8869SOL    HW127506   3.854   6.814   3.054
 8869SOL    HW227507   3.698   6.823   3.006
 8870SOL     OW27508   1.262   1.018   3.460
 8870SOL    HW127509   1.205   1.050   3.386
 8870SOL    HW227510   1.264   1.086   3.533
 8871SOL     OW27511   0.148   0.928   2.764
 8871SOL    HW127512   0.131   0.920   2.666
 8871SOL    HW227513   0.233   0.882   2.788
 8872SOL     OW27514   6.918   4.949   4.490
 8872SOL    HW127515   6.843   4.940   4.556
 8872SOL    HW227516   6.937   4.859   4.450
 8873SOL     OW27517   2.024   1.123   2.569
 8873SOL    HW127518   1.970   1.178   2.632
 8873SOL    HW227519   2.042   1.175   2.485
 8874SOL     OW27520   3.458   6.335   0.505
 8874SOL    HW127521   3.399   6.345   0.425
 8874SOL    HW227522   3.524   6.411   0.507
 8875SOL     OW27523   6.884   3.182   3.954
 8875SOL    HW127524   6.896   3.170   3.855
 8875SOL    HW227525   6.901   3.278   3.978
 8876SOL     OW27526   3.778   0.610   6.331
 8876SOL    HW127527   3.833   0.669   6.391
 8876SOL    HW227528   3.698   0.661   6.298
 8877SOL     OW27529   1.410   4.381   1.333
 8877SOL    HW127530   1.321   4.411   1.298
 8877SOL    HW227531   1.479   4.450   1.311
 8878SOL     OW27532   5.164   3.870   1.007
 8878SOL    HW127533   5.090   3.892   0.943
 8878SOL    HW227534   5.245   3.841   0.955
 8879SOL     OW27535   5.901   4.921   2.903
 8879SOL    HW127536   5.856   4.953   2.819
 8879SOL    HW227537   5.996   4.951   2.904
 8880SOL     OW27538   4.106   1.060   4.388
 8880SOL    HW127539   4.016   1.020   4.371
 8880SOL    HW227540   4.118   1.142   4.333
 8881SOL     OW27541   4.297   5.110   4.577
 8881SOL    HW127542   4.214   5.160   4.555
 8881SOL    HW227543   4.286   5.014   4.552
 8882SOL     OW27544   4.459   0.151   0.512
 8882SOL    HW127545   4.418   0.176   0.600
 8882SOL    HW227546   4.558   0.141   0.523
 8883SOL     OW27547   6.738   6.144   4.822
 8883SOL    HW127548   6.804   6.078   4.786
 8883SOL    HW227549   6.691   6.189   4.746
 8884SOL     OW27550   5.172   3.457   5.285
 8884SOL    HW127551   5.124   3.505   5.211
 8884SOL    HW227552   5.209   3.371   5.250
 8885SOL     OW27553   6.270   5.880   0.510
 8885SOL    HW127554   6.285   5.973   0.475
 8885SOL    HW227555   6.282   5.880   0.609
 8886SOL     OW27556   4.223   6.189   6.240
 8886SOL    HW127557   4.291   6.182   6.313
 8886SOL    HW227558   4.224   6.282   6.203
 8887SOL     OW27559   4.759   0.841   1.535
 8887SOL    HW127560   4.666   0.802   1.539
 8887SOL    HW227561   4.813   0.805   1.611
 8888SOL     OW27562   2.362   1.843   2.941
 8888SOL    HW127563   2.427   1.857   3.016
 8888SOL    HW227564   2.376   1.753   2.901
 8889SOL     OW27565   1.183   5.925   6.440
 8889SOL    HW127566   1.189   6.024   6.434
 8889SOL    HW227567   1.127   5.890   6.364
 8890SOL     OW27568   0.425   6.563   0.377
 8890SOL    HW127569   0.478   6.482   0.354
 8890SOL    HW227570   0.470   6.612   0.452
 8891SOL     OW27571   6.302   3.743   6.911
 8891SOL    HW127572   6.304   3.743   6.811
 8891SOL    HW227573   6.274   3.833   6.944
 8892SOL     OW27574   3.401   5.085   4.056
 8892SOL    HW127575   3.443   5.109   3.969
 8892SOL    HW227576   3.411   5.161   4.120
 8893SOL     OW27577   1.260   4.949   4.343
 8893SOL    HW127578   1.270   5.040   4.383
 8893SOL    HW227579   1.350   4.909   4.328
 8894SOL     OW27580   4.966   1.743   0.563
 8894SOL    HW127581   5.052   1.698   0.589
 8894SOL    HW227582   4.935   1.800   0.639
 8895SOL     OW27583   0.065   3.620   0.597
 8895SOL    HW127584   0.077   3.674   0.680
 8895SOL    HW227585   0.128   3.653   0.526
 8896SOL     OW27586   0.265   2.642   4.745
 8896SOL    HW127587   0.191   2.615   4.684
 8896SOL    HW227588   0.319   2.562   4.770
 8897SOL     OW27589   2.108   3.927   3.842
 8897SOL    HW127590   2.093   4.002   3.778
 8897SOL    HW227591   2.064   3.844   3.808
 8898SOL     OW27592   4.408   4.588   2.824
 8898SOL    HW127593   4.397   4.497   2.784
 8898SOL    HW227594   4.419   4.580   2.923
 8899SOL     OW27595   1.008   3.584   4.616
 8899SOL    HW127596   0.992   3.498   4.665
 8899SOL    HW227597   1.008   3.567   4.518
 8900SOL     OW27598   4.739   2.630   3.709
 8900SOL    HW127599   4.814   2.663   3.651
 8900SOL    HW227600   4.666   2.592   3.651
 8901SOL     OW27601   1.601   3.538   4.711
 8901SOL    HW127602   1.517   3.489   4.687
 8901SOL    HW227603   1.583   3.597   4.790
 8902SOL     OW27604   0.525   4.797   0.414
 8902SOL    HW127605   0.505   4.888   0.449
 8902SOL    HW227606   0.615   4.768   0.448
 8903SOL     OW27607   1.374   6.646   5.414
 8903SOL    HW127608   1.278   6.671   5.404
 8903SOL    HW227609   1.384   6.547   5.414
 8904SOL     OW27610   0.349   0.721   3.044
 8904SOL    HW127611   0.289   0.722   3.125
 8904SOL    HW227612   0.401   0.806   3.041
 8905SOL     OW27613   1.484   3.858   2.381
 8905SOL    HW127614   1.549   3.788   2.350
 8905SOL    HW227615   1.459   3.840   2.476
 8906SOL     OW27616   6.214   0.447   0.533
 8906SOL    HW127617   6.137   0.387   0.509
 8906SOL    HW227618   6.296   0.415   0.485
 8907SOL     OW27619   2.921   3.257   5.179
 8907SOL    HW127620   2.970   3.344   5.182
 8907SOL    HW227621   2.846   3.258   5.245
 8908SOL     OW27622   1.343   5.178   0.039
 8908SOL    HW127623   1.401   5.219   6.996
 8908SOL    HW227624   1.273   5.243   0.067
 8909SOL     OW27625   2.510   6.564   0.465
 8909SOL    HW127626   2.463   6.495   0.410
 8909SOL    HW227627   2.530   6.644   0.408
 8910SOL     OW27628   2.366   0.700   3.680
 8910SOL    HW127629   2.297   0.645   3.633
 8910SOL    HW227630   2.407   0.765   3.617
 8911SOL     OW27631   4.469   2.337   3.836
 8911SOL    HW127632   4.512   2.416   3.879
 8911SOL    HW227633   4.540   2.269   3.814
 8912SOL     OW27634   3.830   3.676   4.587
 8912SOL    HW127635   3.767   3.599   4.582
 8912SOL    HW227636   3.874   3.678   4.676
 8913SOL     OW27637   5.382   6.656   6.546
 8913SOL    HW127638   5.360   6.580   6.607
 8913SOL    HW227639   5.331   6.737   6.574
 8914SOL     OW27640   4.227   5.312   6.515
 8914SOL    HW127641   4.241   5.404   6.478
 8914SOL    HW227642   4.171   5.259   6.452
 8915SOL     OW27643   1.245   1.501   3.586
 8915SOL    HW127644   1.341   1.489   3.612
 8915SOL    HW227645   1.237   1.578   3.522
 8916SOL     OW27646   4.292   1.494   0.368
 8916SOL    HW127647   4.348   1.412   0.361
 8916SOL    HW227648   4.195   1.470   0.362
 8917SOL     OW27649   5.678   1.665   0.497
 8917SOL    HW127650   5.774   1.674   0.469
 8917SOL    HW227651   5.670   1.593   0.566
 8918SOL     OW27652   1.155   3.618   2.861
 8918SOL    HW127653   1.113   3.700   2.901
 8918SOL    HW227654   1.097   3.538   2.880
 8919SOL     OW27655   6.322   3.716   1.389
 8919SOL    HW127656   6.303   3.628   1.431
 8919SOL    HW227657   6.383   3.769   1.448
 8920SOL     OW27658   6.403   1.830   6.830
 8920SOL    HW127659   6.437   1.755   6.772
 8920SOL    HW227660   6.437   1.917   6.795
 8921SOL     OW27661   2.174   2.842   2.178
 8921SOL    HW127662   2.223   2.920   2.217
 8921SOL    HW227663   2.204   2.826   2.085
 8922SOL     OW27664   3.636   6.505   3.636
 8922SOL    HW127665   3.619   6.577   3.703
 8922SOL    HW227666   3.660   6.547   3.548
 8923SOL     OW27667   1.857   2.468   4.564
 8923SOL    HW127668   1.776   2.510   4.524
 8923SOL    HW227669   1.902   2.533   4.625
 8924SOL     OW27670   5.372   5.306   5.003
 8924SOL    HW127671   5.327   5.267   5.083
 8924SOL    HW227672   5.304   5.355   4.947
 8925SOL     OW27673   1.300   6.616   3.095
 8925SOL    HW127674   1.331   6.521   3.098
 8925SOL    HW227675   1.224   6.628   3.159
 8926SOL     OW27676   5.676   2.455   6.448
 8926SOL    HW127677   5.747   2.503   6.396
 8926SOL    HW227678   5.622   2.521   6.500
 8927SOL     OW27679   1.160   1.283   5.788
 8927SOL    HW127680   1.094   1.250   5.720
 8927SOL    HW227681   1.114   1.347   5.850
 8928SOL     OW27682   1.492   6.769   5.194
 8928SOL    HW127683   1.589   6.761   5.219
 8928SOL    HW227684   1.436   6.721   5.262
 8929SOL     OW27685   6.893   3.070   4.606
 8929SOL    HW127686   6.921   3.068   4.510
 8929SOL    HW227687   6.796   3.047   4.612
 8930SOL     OW27688   2.169   4.452   3.482
 8930SOL    HW127689   2.183   4.359   3.514
 8930SOL    HW227690   2.074   4.464   3.455
 8931SOL     OW27691   4.007   2.272   1.429
 8931SOL    HW127692   4.086   2.331   1.439
 8931SOL    HW227693   4.033   2.177   1.447
 8932SOL     OW27694   0.140   2.882   3.335
 8932SOL    HW127695   0.187   2.890   3.247
 8932SOL    HW227696   0.206   2.897   3.409
 8933SOL     OW27697   3.654   1.768   5.535
 8933SOL    HW127698   3.605   1.767   5.622
 8933SOL    HW227699   3.750   1.791   5.551
 8934SOL     OW27700   3.511   5.736   3.120
 8934SOL    HW127701   3.480   5.726   3.025
 8934SOL    HW227702   3.477   5.822   3.157
 8935SOL     OW27703   0.447   4.575   1.216
 8935SOL    HW127704   0.498   4.496   1.251
 8935SOL    HW227705   0.442   4.646   1.287
 8936SOL     OW27706   2.079   2.390   0.523
 8936SOL    HW127707   2.084   2.398   0.622
 8936SOL    HW227708   2.149   2.447   0.481
 8937SOL     OW27709   0.912   5.926   5.357
 8937SOL    HW127710   0.869   5.994   5.298
 8937SOL    HW227711   0.850   5.903   5.433
 8938SOL     OW27712   5.844   5.496   1.261
 8938SOL    HW127713   5.931   5.545   1.255
 8938SOL    HW227714   5.843   5.440   1.343
 8939SOL     OW27715   5.122   2.085   4.469
 8939SOL    HW127716   5.128   2.069   4.370
 8939SOL    HW227717   5.042   2.140   4.489
 8940SOL     OW27718   5.477   0.493   2.939
 8940SOL    HW127719   5.407   0.528   2.877
 8940SOL    HW227720   5.464   0.395   2.952
 8941SOL     OW27721   5.453   2.332   6.016
 8941SOL    HW127722   5.516   2.375   5.951
 8941SOL    HW227723   5.494   2.246   6.049
 8942SOL     OW27724   0.593   2.325   5.665
 8942SOL    HW127725   0.558   2.328   5.572
 8942SOL    HW227726   0.690   2.299   5.663
 8943SOL     OW27727   5.281   4.140   1.107
 8943SOL    HW127728   5.256   4.078   1.032
 8943SOL    HW227729   5.229   4.116   1.189
 8944SOL     OW27730   4.508   5.418   0.649
 8944SOL    HW127731   4.450   5.491   0.685
 8944SOL    HW227732   4.463   5.376   0.570
 8945SOL     OW27733   2.232   1.354   4.439
 8945SOL    HW127734   2.307   1.345   4.373
 8945SOL    HW227735   2.184   1.441   4.423
 8946SOL     OW27736   3.451   1.789   4.327
 8946SOL    HW127737   3.482   1.734   4.250
 8946SOL    HW227738   3.363   1.754   4.360
 8947SOL     OW27739   4.454   4.121   5.420
 8947SOL    HW127740   4.428   4.114   5.516
 8947SOL    HW227741   4.375   4.150   5.366
 8948SOL     OW27742   6.417   5.416   3.140
 8948SOL    HW127743   6.512   5.421   3.171
 8948SOL    HW227744   6.357   5.455   3.210
 8949SOL     OW27745   1.985   6.020   0.075
 8949SOL    HW127746   1.936   5.938   0.046
 8949SOL    HW227747   2.084   6.005   0.063
 8950SOL     OW27748   4.805   2.580   4.381
 8950SOL    HW127749   4.817   2.481   4.386
 8950SOL    HW227750   4.709   2.603   4.399
 8951SOL     OW27751   1.828   2.367   5.449
 8951SOL    HW127752   1.905   2.426   5.474
 8951SOL    HW227753   1.844   2.275   5.486
 8952SOL     OW27754   6.892   0.898   2.336
 8952SOL    HW127755   6.930   0.959   2.406
 8952SOL    HW227756   6.794   0.888   2.351
 8953SOL     OW27757   1.259   3.451   0.053
 8953SOL    HW127758   1.346   3.494   0.026
 8953SOL    HW227759   1.272   3.400   0.138
 8954SOL     OW27760   1.884   5.985   6.311
 8954SOL    HW127761   1.812   6.014   6.374
 8954SOL    HW227762   1.927   5.902   6.346
 8955SOL     OW27763   6.610   3.915   3.469
 8955SOL    HW127764   6.579   3.916   3.564
 8955SOL    HW227765   6.561   3.985   3.418
 8956SOL     OW27766   1.260   0.743   6.072
 8956SOL    HW127767   1.333   0.680   6.045
 8956SOL    HW227768   1.248   0.812   6.001
 8957SOL     OW27769   3.132   4.874   2.473
 8957SOL    HW127770   3.057   4.927   2.433
 8957SOL    HW227771   3.096   4.813   2.544
 8958SOL     OW27772   2.011   6.605   4.293
 8958SOL    HW127773   2.019   6.558   4.381
 8958SOL    HW227774   2.057   6.551   4.222
 8959SOL     OW27775   1.829   4.673   0.412
 8959SOL    HW127776   1.793   4.690   0.504
 8959SOL    HW227777   1.890   4.594   0.414
 8960SOL     OW27778   3.589   5.643   1.046
 8960SOL    HW127779   3.537   5.652   0.961
 8960SOL    HW227780   3.684   5.619   1.024
 8961SOL     OW27781   0.948   1.729   3.401
 8961SOL    HW127782   0.855   1.735   3.365
 8961SOL    HW227783   0.960   1.642   3.448
 8962SOL     OW27784   5.797   0.312   3.462
 8962SOL    HW127785   5.774   0.247   3.534
 8962SOL    HW227786   5.838   0.394   3.503
 8963SOL     OW27787   6.329   0.962   4.126
 8963SOL    HW127788   6.322   0.867   4.094
 8963SOL    HW227789   6.424   0.991   4.122
 8964SOL     OW27790   5.553   5.068   2.760
 8964SOL    HW127791   5.485   5.101   2.694
 8964SOL    HW227792   5.641   5.056   2.714
 8965SOL     OW27793   1.447   5.053   1.787
 8965SOL    HW127794   1.431   5.150   1.768
 8965SOL    HW227795   1.422   4.999   1.707
 8966SOL     OW27796   2.401   2.845   5.764
 8966SOL    HW127797   2.310   2.876   5.737
 8966SOL    HW227798   2.448   2.919   5.812
 8967SOL     OW27799   4.372   0.275   0.065
 8967SOL    HW127800   4.426   0.212   0.121
 8967SOL    HW227801   4.310   0.223   0.006
 8968SOL     OW27802   4.795   5.547   1.490
 8968SOL    HW127803   4.792   5.600   1.575
 8968SOL    HW227804   4.752   5.458   1.503
 8969SOL     OW27805   6.587   0.750   4.276
 8969SOL    HW127806   6.580   0.818   4.202
 8969SOL    HW227807   6.542   0.786   4.358
 8970SOL     OW27808   3.525   1.829   1.918
 8970SOL    HW127809   3.608   1.881   1.899
 8970SOL    HW227810   3.446   1.880   1.884
 8971SOL     OW27811   4.188   5.499   2.136
 8971SOL    HW127812   4.165   5.461   2.046
 8971SOL    HW227813   4.121   5.468   2.204
 8972SOL     OW27814   5.579   0.528   5.066
 8972SOL    HW127815   5.509   0.464   5.096
 8972SOL    HW227816   5.547   0.622   5.080
 8973SOL     OW27817   1.610   5.032   0.146
 8973SOL    HW127818   1.626   4.939   0.114
 8973SOL    HW227819   1.596   5.093   0.068
 8974SOL     OW27820   0.550   3.415   4.952
 8974SOL    HW127821   0.533   3.485   4.882
 8974SOL    HW227822   0.517   3.327   4.920
 8975SOL     OW27823   2.774   6.943   0.640
 8975SOL    HW127824   2.755   0.012   0.657
 8975SOL    HW227825   2.781   6.927   0.542
 8976SOL     OW27826   1.365   5.548   4.070
 8976SOL    HW127827   1.297   5.494   4.020
 8976SOL    HW227828   1.411   5.610   4.007
 8977SOL     OW27829   6.334   1.493   6.039
 8977SOL    HW127830   6.335   1.593   6.049
 8977SOL    HW227831   6.241   1.459   6.053
 8978SOL     OW27832   6.238   6.716   0.654
 8978SOL    HW127833   6.299   6.651   0.700
 8978SOL    HW227834   6.145   6.702   0.686
 8979SOL     OW27835   1.956   4.000   4.962
 8979SOL    HW127836   2.004   4.040   5.040
 8979SOL    HW227837   1.877   4.057   4.940
 8980SOL     OW27838   3.656   2.952   4.398
 8980SOL    HW127839   3.667   2.940   4.496
 8980SOL    HW227840   3.746   2.950   4.354
 8981SOL     OW27841   3.799   1.806   5.106
 8981SOL    HW127842   3.803   1.712   5.140
 8981SOL    HW227843   3.856   1.864   5.163
 8982SOL     OW27844   2.770   4.399   0.633
 8982SOL    HW127845   2.811   4.427   0.719
 8982SOL    HW227846   2.670   4.405   0.640
 8983SOL     OW27847   4.580   5.193   0.326
 8983SOL    HW127848   4.522   5.133   0.271
 8983SOL    HW227849   4.647   5.237   0.266
 8984SOL     OW27850   1.598   5.721   2.802
 8984SOL    HW127851   1.668   5.776   2.848
 8984SOL    HW227852   1.509   5.767   2.809
 8985SOL     OW27853   4.058   3.106   6.490
 8985SOL    HW127854   4.088   3.180   6.551
 8985SOL    HW227855   4.058   3.139   6.395
 8986SOL     OW27856   3.737   5.193   2.747
 8986SOL    HW127857   3.753   5.224   2.653
 8986SOL    HW227858   3.641   5.207   2.772
 8987SOL     OW27859   5.556   6.351   2.099
 8987SOL    HW127860   5.581   6.254   2.097
 8987SOL    HW227861   5.457   6.359   2.110
 8988SOL     OW27862   0.804   5.298   4.568
 8988SOL    HW127863   0.860   5.259   4.641
 8988SOL    HW227864   0.838   5.390   4.546
 8989SOL     OW27865   3.828   2.929   6.473
 8989SOL    HW127866   3.897   3.000   6.486
 8989SOL    HW227867   3.859   2.844   6.514
 8990SOL     OW27868   6.787   5.291   3.545
 8990SOL    HW127869   6.752   5.212   3.593
 8990SOL    HW227870   6.714   5.360   3.536
 8991SOL     OW27871   1.389   2.467   5.410
 8991SOL    HW127872   1.379   2.405   5.333
 8991SOL    HW227873   1.299   2.491   5.446
 8992SOL     OW27874   6.037   2.052   6.797
 8992SOL    HW127875   5.967   2.044   6.726
 8992SOL    HW227876   6.094   2.131   6.778
 8993SOL     OW27877   5.024   2.469   6.511
 8993SOL    HW127878   5.029   2.370   6.496
 8993SOL    HW227879   5.114   2.503   6.536
 8994SOL     OW27880   1.758   5.130   4.219
 8994SOL    HW127881   1.663   5.128   4.190
 8994SOL    HW227882   1.786   5.038   4.247
 8995SOL     OW27883   6.974   1.585   1.129
 8995SOL    HW127884   7.016   1.585   1.220
 8995SOL    HW227885   6.881   1.621   1.136
 8996SOL     OW27886   4.843   4.737   6.100
 8996SOL    HW127887   4.791   4.808   6.053
 8996SOL    HW227888   4.878   4.671   6.033
 8997SOL     OW27889   4.884   1.304   4.746
 8997SOL    HW127890   4.966   1.248   4.736
 8997SOL    HW227891   4.843   1.320   4.657
 8998SOL     OW27892   6.281   3.883   4.464
 8998SOL    HW127893   6.365   3.927   4.434
 8998SOL    HW227894   6.205   3.949   4.460
 8999SOL     OW27895   4.675   6.778   5.773
 8999SOL    HW127896   4.623   6.783   5.858
 8999SOL    HW227897   4.726   6.863   5.759
 9000SOL     OW27898   1.941   4.007   1.706
 9000SOL    HW127899   1.950   4.060   1.791
 9000SOL    HW227900   1.882   4.058   1.643
 9001SOL     OW27901   0.773   4.762   2.074
 9001SOL    HW127902   0.693   4.710   2.105
 9001SOL    HW227903   0.807   4.723   1.989
 9002SOL     OW27904   1.177   4.629   6.234
 9002SOL    HW127905   1.120   4.578   6.298
 9002SOL    HW227906   1.145   4.613   6.141
 9003SOL     OW27907   5.813   1.353   1.444
 9003SOL    HW127908   5.816   1.307   1.533
 9003SOL    HW227909   5.719   1.376   1.420
 9004SOL     OW27910   4.263   4.632   0.624
 9004SOL    HW127911   4.337   4.657   0.562
 9004SOL    HW227912   4.191   4.701   0.619
 9005SOL     OW27913   5.838   1.000   5.560
 9005SOL    HW127914   5.873   1.065   5.493
 9005SOL    HW227915   5.836   1.042   5.650
 9006SOL     OW27916   3.516   6.600   0.802
 9006SOL    HW127917   3.564   6.587   0.715
 9006SOL    HW227918   3.432   6.652   0.787
 9007SOL     OW27919   2.494   1.122   2.864
 9007SOL    HW127920   2.554   1.105   2.786
 9007SOL    HW227921   2.517   1.211   2.905
 9008SOL     OW27922   0.581   5.759   2.888
 9008SOL    HW127923   0.491   5.739   2.849
 9008SOL    HW227924   0.650   5.758   2.815
 9009SOL     OW27925   4.158   5.473   0.312
 9009SOL    HW127926   4.178   5.553   0.368
 9009SOL    HW227927   4.194   5.486   0.220
 9010SOL     OW27928   1.823   6.664   4.043
 9010SOL    HW127929   1.767   6.584   4.065
 9010SOL    HW227930   1.889   6.679   4.116
 9011SOL     OW27931   4.037   0.941   2.867
 9011SOL    HW127932   3.989   1.028   2.862
 9011SOL    HW227933   4.029   0.904   2.960
 9012SOL     OW27934   1.634   5.904   6.986
 9012SOL    HW127935   1.587   5.990   6.968
 9012SOL    HW227936   1.570   5.838   7.025
 9013SOL     OW27937   1.714   6.436   4.080
 9013SOL    HW127938   1.734   6.339   4.062
 9013SOL    HW227939   1.615   6.450   4.078
 9014SOL     OW27940   5.988   2.205   2.469
 9014SOL    HW127941   6.055   2.246   2.531
 9014SOL    HW227942   6.033   2.135   2.412
 9015SOL     OW27943   5.257   1.815   0.604
 9015SOL    HW127944   5.284   1.901   0.645
 9015SOL    HW227945   5.286   1.813   0.508
 9016SOL     OW27946   5.430   5.337   6.097
 9016SOL    HW127947   5.415   5.295   6.186
 9016SOL    HW227948   5.349   5.324   6.039
 9017SOL     OW27949   3.312   0.396   4.926
 9017SOL    HW127950   3.359   0.342   4.995
 9017SOL    HW227951   3.380   0.438   4.864
 9018SOL     OW27952   4.062   3.286   6.288
 9018SOL    HW127953   4.148   3.245   6.260
 9018SOL    HW227954   4.081   3.368   6.342
 9019SOL     OW27955   0.480   2.753   3.343
 9019SOL    HW127956   0.432   2.669   3.367
 9019SOL    HW227957   0.456   2.825   3.408
 9020SOL     OW27958   6.098   6.278   1.978
 9020SOL    HW127959   6.009   6.322   1.968
 9020SOL    HW227960   6.087   6.178   1.975
 9021SOL     OW27961   7.011   0.838   3.905
 9021SOL    HW127962   0.007   0.742   3.921
 9021SOL    HW227963   7.013   0.888   3.992
 9022SOL     OW27964   4.286   2.615   6.443
 9022SOL    HW127965   4.200   2.572   6.417
 9022SOL    HW227966   4.271   2.672   6.525
 9023SOL     OW27967   4.887   3.430   0.926
 9023SOL    HW127968   4.897   3.343   0.878
 9023SOL    HW227969   4.868   3.503   0.859
 9024SOL     OW27970   1.750   5.126   6.391
 9024SOL    HW127971   1.686   5.074   6.335
 9024SOL    HW227972   1.798   5.192   6.333
 9025SOL     OW27973   0.405   5.668   0.977
 9025SOL    HW127974   0.379   5.572   0.993
 9025SOL    HW227975   0.328   5.717   0.936
 9026SOL     OW27976   4.029   1.661   0.338
 9026SOL    HW127977   4.025   1.674   0.437
 9026SOL    HW227978   4.070   1.572   0.318
 9027SOL     OW27979   0.127   3.807   3.824
 9027SOL    HW127980   0.042   3.858   3.835
 9027SOL    HW227981   0.124   3.756   3.737
 9028SOL     OW27982   3.413   4.079   5.400
 9028SOL    HW127983   3.318   4.059   5.422
 9028SOL    HW227984   3.422   4.176   5.378
 9029SOL     OW27985   4.019   6.634   4.867
 9029SOL    HW127986   3.958   6.707   4.838
 9029SOL    HW227987   4.045   6.649   4.963
 9030SOL     OW27988   2.437   1.833   3.652
 9030SOL    HW127989   2.353   1.875   3.686
 9030SOL    HW227990   2.511   1.900   3.657
 9031SOL     OW27991   4.486   0.442   4.560
 9031SOL    HW127992   4.475   0.510   4.487
 9031SOL    HW227993   4.431   0.361   4.539
 9032SOL     OW27994   4.535   3.478   1.684
 9032SOL    HW127995   4.523   3.577   1.686
 9032SOL    HW227996   4.630   3.456   1.705
 9033SOL     OW27997   1.310   5.765   3.267
 9033SOL    HW127998   1.221   5.784   3.227
 9033SOL    HW227999   1.298   5.725   3.358
 9034SOL     OW28000   3.316   6.112   4.676
 9034SOL    HW128001   3.377   6.085   4.602
 9034SOL    HW228002   3.222   6.112   4.644
 9035SOL     OW28003   1.361   5.060   0.531
 9035SOL    HW128004   1.387   5.126   0.602
 9035SOL    HW228005   1.290   5.100   0.473
 9036SOL     OW28006   1.323   3.545   5.847
 9036SOL    HW128007   1.411   3.562   5.802
 9036SOL    HW228008   1.316   3.448   5.870
 9037SOL     OW28009   0.542   2.259   2.798
 9037SOL    HW128010   0.639   2.259   2.773
 9037SOL    HW228011   0.520   2.343   2.848
 9038SOL     OW28012   4.384   2.759   6.183
 9038SOL    HW128013   4.448   2.834   6.199
 9038SOL    HW228014   4.359   2.717   6.270
 9039SOL     OW28015   3.420   5.443   0.074
 9039SOL    HW128016   3.448   5.417   7.010
 9039SOL    HW228017   3.449   5.374   0.139
 9040SOL     OW28018   1.665   2.083   1.069
 9040SOL    HW128019   1.758   2.115   1.089
 9040SOL    HW228020   1.611   2.159   1.034
 9041SOL     OW28021   0.039   2.370   0.865
 9041SOL    HW128022   0.014   2.291   0.921
 9041SOL    HW228023   7.012   2.449   0.891
 9042SOL     OW28024   4.158   5.708   5.999
 9042SOL    HW128025   4.066   5.674   5.981
 9042SOL    HW228026   4.160   5.754   6.088
 9043SOL     OW28027   2.843   1.773   0.237
 9043SOL    HW128028   2.920   1.736   0.289
 9043SOL    HW228029   2.875   1.844   0.175
 9044SOL     OW28030   0.766   0.592   6.543
 9044SOL    HW128031   0.677   0.547   6.543
 9044SOL    HW228032   0.777   0.643   6.458
 9045SOL     OW28033   4.577   0.435   2.989
 9045SOL    HW128034   4.615   0.499   3.057
 9045SOL    HW228035   4.494   0.474   2.949
 9046SOL     OW28036   3.040   3.923   2.841
 9046SOL    HW128037   2.997   3.852   2.784
 9046SOL    HW228038   3.061   4.003   2.784
 9047SOL     OW28039   1.159   4.374   6.068
 9047SOL    HW128040   1.168   4.311   5.992
 9047SOL    HW228041   1.174   4.326   6.154
 9048SOL     OW28042   6.415   1.756   6.043
 9048SOL    HW128043   6.438   1.722   6.134
 9048SOL    HW228044   6.427   1.855   6.040
 9049SOL     OW28045   3.078   6.570   6.293
 9049SOL    HW128046   3.163   6.556   6.243
 9049SOL    HW228047   3.044   6.662   6.277
 9050SOL     OW28048   0.623   4.919   1.545
 9050SOL    HW128049   0.689   4.968   1.602
 9050SOL    HW228050   0.667   4.886   1.462
 9051SOL     OW28051   2.355   1.923   0.798
 9051SOL    HW128052   2.368   1.988   0.722
 9051SOL    HW228053   2.402   1.837   0.776
 9052SOL     OW28054   1.578   3.335   5.054
 9052SOL    HW128055   1.495   3.384   5.028
 9052SOL    HW228056   1.611   3.371   5.142
 9053SOL     OW28057   1.419   1.643   1.071
 9053SOL    HW128058   1.479   1.565   1.053
 9053SOL    HW228059   1.383   1.678   0.985
 9054SOL     OW28060   2.372   6.014   3.532
 9054SOL    HW128061   2.359   6.008   3.433
 9054SOL    HW228062   2.295   5.970   3.579
 9055SOL     OW28063   0.196   3.956   4.688
 9055SOL    HW128064   0.285   3.934   4.647
 9055SOL    HW228065   0.209   3.985   4.783
 9056SOL     OW28066   6.637   1.748   2.600
 9056SOL    HW128067   6.655   1.657   2.639
 9056SOL    HW228068   6.679   1.818   2.657
 9057SOL     OW28069   4.516   1.740   4.163
 9057SOL    HW128070   4.614   1.754   4.178
 9057SOL    HW228071   4.492   1.647   4.190
 9058SOL     OW28072   2.030   0.642   6.495
 9058SOL    HW128073   1.934   0.669   6.506
 9058SOL    HW228074   2.082   0.718   6.456
 9059SOL     OW28075   1.440   1.845   2.171
 9059SOL    HW128076   1.478   1.837   2.263
 9059SOL    HW228077   1.464   1.933   2.132
 9060SOL     OW28078   5.768   2.722   4.933
 9060SOL    HW128079   5.703   2.650   4.910
 9060SOL    HW228080   5.856   2.703   4.889
 9061SOL     OW28081   5.103   5.837   2.393
 9061SOL    HW128082   5.106   5.852   2.492
 9061SOL    HW228083   5.030   5.892   2.353
 9062SOL     OW28084   1.421   5.337   1.106
 9062SOL    HW128085   1.456   5.409   1.165
 9062SOL    HW228086   1.322   5.349   1.093
 9063SOL     OW28087   3.382   1.999   2.409
 9063SOL    HW128088   3.435   2.024   2.328
 9063SOL    HW228089   3.360   1.901   2.406
 9064SOL     OW28090   6.240   3.141   7.016
 9064SOL    HW128091   6.165   3.135   6.950
 9064SOL    HW228092   6.324   3.166   6.968
 9065SOL     OW28093   2.274   1.096   0.689
 9065SOL    HW128094   2.214   1.164   0.647
 9065SOL    HW228095   2.224   1.010   0.702
 9066SOL     OW28096   4.590   6.778   6.973
 9066SOL    HW128097   4.600   6.717   0.023
 9066SOL    HW228098   4.516   6.843   6.990
 9067SOL     OW28099   1.653   0.006   3.694
 9067SOL    HW128100   1.564   7.008   3.658
 9067SOL    HW228101   1.641   0.056   3.780
 9068SOL     OW28102   1.864   5.771   7.021
 9068SOL    HW128103   1.924   5.771   6.942
 9068SOL    HW228104   1.781   5.824   7.000
 9069SOL     OW28105   1.763   2.330   6.569
 9069SOL    HW128106   1.799   2.412   6.614
 9069SOL    HW228107   1.697   2.357   6.499
 9070SOL     OW28108   1.205   4.311   3.699
 9070SOL    HW128109   1.298   4.274   3.703
 9070SOL    HW228110   1.205   4.399   3.652
 9071SOL     OW28111   5.930   6.825   6.709
 9071SOL    HW128112   5.917   6.798   6.804
 9071SOL    HW228113   5.891   6.755   6.649
 9072SOL     OW28114   5.878   4.385   6.480
 9072SOL    HW128115   5.832   4.373   6.568
 9072SOL    HW228116   5.837   4.324   6.412
 9073SOL     OW28117   2.078   0.523   1.752
 9073SOL    HW128118   2.043   0.472   1.674
 9073SOL    HW228119   2.008   0.586   1.785
 9074SOL     OW28120   1.230   6.916   3.065
 9074SOL    HW128121   1.271   6.827   3.083
 9074SOL    HW228122   1.299   6.987   3.075
 9075SOL     OW28123   6.911   1.168   2.596
 9075SOL    HW128124   6.847   1.122   2.657
 9075SOL    HW228125   6.985   1.209   2.649
 9076SOL     OW28126   6.513   1.476   5.634
 9076SOL    HW128127   6.481   1.381   5.632
 9076SOL    HW228128   6.602   1.482   5.590
 9077SOL     OW28129   5.994   6.655   2.261
 9077SOL    HW128130   5.942   6.630   2.180
 9077SOL    HW228131   6.088   6.621   2.252
 9078SOL     OW28132   3.872   2.972   5.054
 9078SOL    HW128133   3.860   2.988   4.956
 9078SOL    HW228134   3.953   2.916   5.070
 9079SOL     OW28135   3.935   0.848   5.886
 9079SOL    HW128136   3.958   0.763   5.838
 9079SOL    HW228137   3.837   0.866   5.877
 9080SOL     OW28138   4.884   1.985   0.686
 9080SOL    HW128139   4.967   2.023   0.644
 9080SOL    HW228140   4.807   1.996   0.623
 9081SOL     OW28141   5.337   6.761   2.064
 9081SOL    HW128142   5.427   6.754   2.021
 9081SOL    HW228143   5.341   6.723   2.156
 9082SOL     OW28144   3.514   1.580   3.323
 9082SOL    HW128145   3.502   1.603   3.420
 9082SOL    HW228146   3.425   1.574   3.279
 9083SOL     OW28147   4.395   4.858   4.534
 9083SOL    HW128148   4.491   4.857   4.507
 9083SOL    HW228149   4.383   4.803   4.617
 9084SOL     OW28150   2.890   3.435   3.141
 9084SOL    HW128151   2.793   3.411   3.147
 9084SOL    HW228152   2.902   3.531   3.165
 9085SOL     OW28153   0.817   2.193   0.641
 9085SOL    HW128154   0.741   2.197   0.576
 9085SOL    HW228155   0.876   2.116   0.619
 9086SOL     OW28156   0.175   4.100   0.675
 9086SOL    HW128157   0.210   4.009   0.697
 9086SOL    HW228158   0.152   4.149   0.759
 9087SOL     OW28159   4.877   3.598   1.526
 9087SOL    HW128160   4.970   3.563   1.538
 9087SOL    HW228161   4.811   3.531   1.560
 9088SOL     OW28162   5.121   6.756   0.287
 9088SOL    HW128163   5.217   6.786   0.287
 9088SOL    HW228164   5.118   6.658   0.272
 9089SOL     OW28165   4.795   0.264   5.826
 9089SOL    HW128166   4.793   0.342   5.764
 9089SOL    HW228167   4.757   0.290   5.915
 9090SOL     OW28168   6.429   1.499   4.414
 9090SOL    HW128169   6.513   1.463   4.454
 9090SOL    HW228170   6.360   1.426   4.412
 9091SOL     OW28171   3.100   3.421   6.794
 9091SOL    HW128172   3.101   3.396   6.891
 9091SOL    HW228173   3.191   3.407   6.755
 9092SOL     OW28174   0.135   2.615   0.030
 9092SOL    HW128175   0.090   2.553   6.993
 9092SOL    HW228176   0.234   2.606   0.022
 9093SOL     OW28177   1.466   5.986   5.797
 9093SOL    HW128178   1.370   5.958   5.793
 9093SOL    HW228179   1.501   5.999   5.704
 9094SOL     OW28180   0.932   3.383   1.848
 9094SOL    HW128181   1.029   3.404   1.857
 9094SOL    HW228182   0.916   3.287   1.867
 9095SOL     OW28183   6.573   6.281   5.170
 9095SOL    HW128184   6.665   6.319   5.180
 9095SOL    HW228185   6.565   6.238   5.081
 9096SOL     OW28186   6.490   5.778   3.204
 9096SOL    HW128187   6.546   5.754   3.125
 9096SOL    HW228188   6.511   5.870   3.234
 9097SOL     OW28189   1.586   2.284   5.856
 9097SOL    HW128190   1.685   2.270   5.854
 9097SOL    HW228191   1.555   2.315   5.766
 9098SOL     OW28192   1.919   3.800   4.333
 9098SOL    HW128193   1.870   3.729   4.383
 9098SOL    HW228194   1.858   3.840   4.264
 9099SOL     OW28195   2.807   2.751   6.683
 9099SOL    HW128196   2.824   2.807   6.602
 9099SOL    HW228197   2.885   2.758   6.745
 9100SOL     OW28198   0.696   4.668   3.178
 9100SOL    HW128199   0.751   4.696   3.099
 9100SOL    HW228200   0.736   4.586   3.220
 9101SOL     OW28201   1.022   2.528   1.536
 9101SOL    HW128202   0.937   2.579   1.546
 9101SOL    HW228203   1.010   2.437   1.576
 9102SOL     OW28204   4.368   6.508   3.101
 9102SOL    HW128205   4.324   6.447   3.035
 9102SOL    HW228206   4.299   6.558   3.152
 9103SOL     OW28207   6.562   1.475   0.334
 9103SOL    HW128208   6.628   1.448   0.263
 9103SOL    HW228209   6.483   1.518   0.291
 9104SOL     OW28210   5.937   1.611   6.885
 9104SOL    HW128211   6.002   1.541   6.915
 9104SOL    HW228212   5.944   1.624   6.786
 9105SOL     OW28213   2.213   0.593   6.187
 9105SOL    HW128214   2.132   0.556   6.232
 9105SOL    HW228215   2.293   0.580   6.245
 9106SOL     OW28216   1.555   4.434   1.052
 9106SOL    HW128217   1.602   4.434   1.141
 9106SOL    HW228218   1.470   4.487   1.060
 9107SOL     OW28219   2.553   1.572   6.965
 9107SOL    HW128220   2.503   1.651   7.001
 9107SOL    HW228221   2.550   1.497   0.003
 9108SOL     OW28222   5.596   5.408   6.414
 9108SOL    HW128223   5.660   5.448   6.349
 9108SOL    HW228224   5.504   5.445   6.397
 9109SOL     OW28225   5.087   3.590   2.541
 9109SOL    HW128226   5.096   3.535   2.458
 9109SOL    HW228227   5.012   3.655   2.530
 9110SOL     OW28228   1.241   6.371   4.683
 9110SOL    HW128229   1.297   6.304   4.732
 9110SOL    HW228230   1.216   6.333   4.594
 9111SOL     OW28231   4.605   2.413   6.119
 9111SOL    HW128232   4.582   2.427   6.215
 9111SOL    HW228233   4.581   2.495   6.067
 9112SOL     OW28234   0.919   5.372   1.881
 9112SOL    HW128235   0.950   5.292   1.932
 9112SOL    HW228236   0.819   5.377   1.884
 9113SOL     OW28237   5.644   1.355   3.970
 9113SOL    HW128238   5.669   1.419   4.043
 9113SOL    HW228239   5.711   1.281   3.966
 9114SOL     OW28240   1.323   6.220   5.614
 9114SOL    HW128241   1.315   6.126   5.580
 9114SOL    HW228242   1.309   6.284   5.538
 9115SOL     OW28243   5.289   4.098   3.688
 9115SOL    HW128244   5.358   4.130   3.753
 9115SOL    HW228245   5.322   4.114   3.594
 9116SOL     OW28246   1.443   6.945   3.515
 9116SOL    HW128247   1.475   6.884   3.443
 9116SOL    HW228248   1.400   7.025   3.474
 9117SOL     OW28249   3.116   6.686   0.204
 9117SOL    HW128250   3.115   6.782   0.233
 9117SOL    HW228251   3.125   6.627   0.284
 9118SOL     OW28252   6.166   4.389   1.707
 9118SOL    HW128253   6.254   4.367   1.748
 9118SOL    HW228254   6.174   4.473   1.654
 9119SOL     OW28255   3.398   0.247   0.434
 9119SOL    HW128256   3.430   0.188   0.360
 9119SOL    HW228257   3.465   0.248   0.508
 9120SOL     OW28258   6.028   4.006   4.932
 9120SOL    HW128259   6.052   4.103   4.935
 9120SOL    HW228260   5.975   3.988   4.849
 9121SOL     OW28261   3.062   0.654   5.210
 9121SOL    HW128262   3.046   0.570   5.159
 9121SOL    HW228263   3.034   0.733   5.155
 9122SOL     OW28264   1.485   3.654   1.941
 9122SOL    HW128265   1.419   3.729   1.946
 9122SOL    HW228266   1.574   3.686   1.973
 9123SOL     OW28267   0.144   0.311   4.392
 9123SOL    HW128268   0.119   0.407   4.402
 9123SOL    HW228269   0.061   0.255   4.385
 9124SOL     OW28270   2.542   5.459   0.917
 9124SOL    HW128271   2.510   5.364   0.909
 9124SOL    HW228272   2.529   5.491   1.010
 9125SOL     OW28273   4.964   6.060   1.046
 9125SOL    HW128274   4.871   6.044   1.080
 9125SOL    HW228275   4.987   6.157   1.058
 9126SOL     OW28276   3.903   4.625   0.529
 9126SOL    HW128277   3.889   4.568   0.610
 9126SOL    HW228278   3.816   4.638   0.482
 9127SOL     OW28279   6.933   4.693   4.413
 9127SOL    HW128280   6.943   4.634   4.493
 9127SOL    HW228281   6.978   4.650   4.335
 9128SOL     OW28282   5.717   4.261   5.972
 9128SOL    HW128283   5.813   4.286   5.972
 9128SOL    HW228284   5.705   4.170   5.934
 9129SOL     OW28285   0.675   3.083   0.922
 9129SOL    HW128286   0.718   3.005   0.967
 9129SOL    HW228287   0.578   3.087   0.948
 9130SOL     OW28288   2.938   3.933   4.886
 9130SOL    HW128289   2.842   3.950   4.867
 9130SOL    HW228290   2.984   3.903   4.803
 9131SOL     OW28291   4.722   2.705   0.346
 9131SOL    HW128292   4.683   2.617   0.372
 9131SOL    HW228293   4.821   2.695   0.333
 9132SOL     OW28294   0.132   3.931   3.513
 9132SOL    HW128295   0.036   3.907   3.495
 9132SOL    HW228296   0.189   3.893   3.441
 9133SOL     OW28297   4.987   0.961   1.025
 9133SOL    HW128298   5.014   1.044   1.074
 9133SOL    HW228299   4.889   0.965   1.004
 9134SOL     OW28300   4.814   4.896   0.833
 9134SOL    HW128301   4.804   4.841   0.917
 9134SOL    HW228302   4.843   4.988   0.858
 9135SOL     OW28303   6.339   6.470   2.556
 9135SOL    HW128304   6.420   6.527   2.572
 9135SOL    HW228305   6.340   6.437   2.462
 9136SOL     OW28306   6.484   4.602   0.001
 9136SOL    HW128307   6.418   4.675   7.009
 9136SOL    HW228308   6.448   4.542   0.072
 9137SOL     OW28309   5.364   6.226   5.792
 9137SOL    HW128310   5.337   6.165   5.718
 9137SOL    HW228311   5.301   6.305   5.796
 9138SOL     OW28312   2.717   3.326   0.263
 9138SOL    HW128313   2.621   3.296   0.263
 9138SOL    HW228314   2.731   3.389   0.339
 9139SOL     OW28315   6.566   6.962   0.799
 9139SOL    HW128316   6.575   6.869   0.763
 9139SOL    HW228317   6.656   7.005   0.805
 9140SOL     OW28318   1.435   3.752   3.654
 9140SOL    HW128319   1.364   3.690   3.621
 9140SOL    HW228320   1.433   3.756   3.754
 9141SOL     OW28321   6.890   5.432   4.841
 9141SOL    HW128322   6.957   5.481   4.896
 9141SOL    HW228323   6.820   5.496   4.808
 9142SOL     OW28324   1.349   4.185   4.653
 9142SOL    HW128325   1.337   4.191   4.554
 9142SOL    HW228326   1.431   4.235   4.680
 9143SOL     OW28327   0.015   4.190   2.429
 9143SOL    HW128328   6.988   4.224   2.506
 9143SOL    HW228329   0.074   4.115   2.460
 9144SOL     OW28330   2.850   4.854   5.282
 9144SOL    HW128331   2.852   4.895   5.373
 9144SOL    HW228332   2.808   4.763   5.287
 9145SOL     OW28333   1.639   5.855   5.962
 9145SOL    HW128334   1.566   5.899   5.910
 9145SOL    HW228335   1.614   5.852   6.059
 9146SOL     OW28336   5.371   2.815   3.217
 9146SOL    HW128337   5.359   2.855   3.126
 9146SOL    HW228338   5.371   2.887   3.286
 9147SOL     OW28339   3.975   6.982   5.189
 9147SOL    HW128340   3.981   0.051   5.213
 9147SOL    HW228341   3.879   6.954   5.188
 9148SOL     OW28342   5.693   5.814   1.558
 9148SOL    HW128343   5.751   5.738   1.586
 9148SOL    HW228344   5.730   5.899   1.596
 9149SOL     OW28345   0.301   4.306   1.269
 9149SOL    HW128346   0.358   4.385   1.290
 9149SOL    HW228347   0.208   4.321   1.303
 9150SOL     OW28348   2.441   3.279   0.235
 9150SOL    HW128349   2.420   3.361   0.181
 9150SOL    HW228350   2.459   3.202   0.174
 9151SOL     OW28351   1.235   3.332   3.742
 9151SOL    HW128352   1.251   3.240   3.706
 9151SOL    HW228353   1.310   3.359   3.801
 9152SOL     OW28354   1.774   4.225   2.346
 9152SOL    HW128355   1.848   4.186   2.292
 9152SOL    HW228356   1.715   4.280   2.287
 9153SOL     OW28357   0.387   3.017   6.090
 9153SOL    HW128358   0.302   3.038   6.137
 9153SOL    HW228359   0.376   3.033   5.992
 9154SOL     OW28360   5.908   5.278   3.126
 9154SOL    HW128361   5.836   5.263   3.057
 9154SOL    HW228362   5.926   5.192   3.173
 9155SOL     OW28363   1.324   6.439   2.744
 9155SOL    HW128364   1.377   6.499   2.684
 9155SOL    HW228365   1.381   6.362   2.773
 9156SOL     OW28366   6.797   3.974   6.272
 9156SOL    HW128367   6.730   4.024   6.329
 9156SOL    HW228368   6.889   3.999   6.301
 9157SOL     OW28369   1.580   4.636   6.553
 9157SOL    HW128370   1.525   4.574   6.497
 9157SOL    HW228371   1.552   4.730   6.535
 9158SOL     OW28372   6.517   3.899   4.646
 9158SOL    HW128373   6.443   3.831   4.649
 9158SOL    HW228374   6.601   3.854   4.617
 9159SOL     OW28375   2.710   1.533   4.152
 9159SOL    HW128376   2.708   1.440   4.117
 9159SOL    HW228377   2.772   1.539   4.230
 9160SOL     OW28378   1.096   4.159   1.239
 9160SOL    HW128379   1.053   4.131   1.154
 9160SOL    HW228380   1.107   4.079   1.299
 9161SOL     OW28381   6.661   4.000   2.205
 9161SOL    HW128382   6.731   3.941   2.166
 9161SOL    HW228383   6.618   4.054   2.132
 9162SOL     OW28384   4.213   2.293   1.913
 9162SOL    HW128385   4.118   2.276   1.888
 9162SOL    HW228386   4.273   2.237   1.856
 9163SOL     OW28387   2.113   2.169   3.320
 9163SOL    HW128388   2.022   2.141   3.292
 9163SOL    HW228389   2.180   2.139   3.251
 9164SOL     OW28390   2.869   6.172   6.637
 9164SOL    HW128391   2.821   6.095   6.596
 9164SOL    HW228392   2.836   6.186   6.730
 9165SOL     OW28393   5.869   1.903   5.722
 9165SOL    HW128394   5.882   1.847   5.641
 9165SOL    HW228395   5.793   1.966   5.708
 9166SOL     OW28396   4.915   6.394   1.660
 9166SOL    HW128397   4.929   6.318   1.597
 9166SOL    HW228398   4.823   6.433   1.646
 9167SOL     OW28399   1.860   1.438   5.160
 9167SOL    HW128400   1.823   1.531   5.157
 9167SOL    HW228401   1.841   1.392   5.073
 9168SOL     OW28402   6.241   6.052   4.846
 9168SOL    HW128403   6.340   6.061   4.862
 9168SOL    HW228404   6.225   5.988   4.771
 9169SOL     OW28405   6.885   6.407   1.761
 9169SOL    HW128406   6.964   6.351   1.787
 9169SOL    HW228407   6.873   6.481   1.826
 9170SOL     OW28408   1.622   0.653   6.327
 9170SOL    HW128409   1.633   0.566   6.279
 9170SOL    HW228410   1.644   0.729   6.265
 9171SOL     OW28411   3.787   5.353   6.469
 9171SOL    HW128412   3.746   5.417   6.534
 9171SOL    HW228413   3.836   5.282   6.519
 9172SOL     OW28414   4.497   1.903   4.865
 9172SOL    HW128415   4.411   1.875   4.821
 9172SOL    HW228416   4.566   1.832   4.851
 9173SOL     OW28417   5.498   3.863   5.004
 9173SOL    HW128418   5.512   3.893   4.909
 9173SOL    HW228419   5.412   3.813   5.010
 9174SOL     OW28420   6.681   4.895   1.353
 9174SOL    HW128421   6.617   4.970   1.369
 9174SOL    HW228422   6.758   4.903   1.416
 9175SOL     OW28423   2.209   6.817   0.218
 9175SOL    HW128424   2.204   6.836   0.317
 9175SOL    HW228425   2.250   6.727   0.203
 9176SOL     OW28426   1.675   2.029   1.915
 9176SOL    HW128427   1.708   2.119   1.885
 9176SOL    HW228428   1.593   2.041   1.970
 9177SOL     OW28429   0.366   5.366   3.561
 9177SOL    HW128430   0.370   5.301   3.485
 9177SOL    HW228431   0.273   5.403   3.568
 9178SOL     OW28432   1.375   4.679   1.664
 9178SOL    HW128433   1.355   4.581   1.666
 9178SOL    HW228434   1.440   4.701   1.736
 9179SOL     OW28435   3.171   5.300   4.242
 9179SOL    HW128436   3.130   5.290   4.333
 9179SOL    HW228437   3.168   5.213   4.194
 9180SOL     OW28438   0.274   1.616   5.414
 9180SOL    HW128439   0.315   1.707   5.429
 9180SOL    HW228440   0.250   1.576   5.503
 9181SOL     OW28441   2.331   2.250   3.574
 9181SOL    HW128442   2.263   2.179   3.593
 9181SOL    HW228443   2.378   2.229   3.488
 9182SOL     OW28444   0.901   1.784   2.467
 9182SOL    HW128445   0.988   1.823   2.496
 9182SOL    HW228446   0.896   1.688   2.494
 9183SOL     OW28447   2.027   1.760   6.218
 9183SOL    HW128448   2.040   1.742   6.316
 9183SOL    HW228449   1.935   1.731   6.191
 9184SOL     OW28450   4.052   3.825   0.656
 9184SOL    HW128451   3.966   3.855   0.616
 9184SOL    HW228452   4.127   3.879   0.617
 9185SOL     OW28453   1.802   0.512   6.163
 9185SOL    HW128454   1.837   0.559   6.082
 9185SOL    HW228455   1.878   0.467   6.210
 9186SOL     OW28456   4.826   1.120   6.292
 9186SOL    HW128457   4.727   1.104   6.288
 9186SOL    HW228458   4.847   1.177   6.372
 9187SOL     OW28459   5.454   2.438   0.891
 9187SOL    HW128460   5.440   2.420   0.989
 9187SOL    HW228461   5.404   2.520   0.865
 9188SOL     OW28462   1.603   0.232   1.880
 9188SOL    HW128463   1.681   0.187   1.838
 9188SOL    HW228464   1.634   0.311   1.933
 9189SOL     OW28465   4.392   1.064   5.856
 9189SOL    HW128466   4.316   0.999   5.862
 9189SOL    HW228467   4.459   1.030   5.790
 9190SOL     OW28468   5.277   1.763   5.296
 9190SOL    HW128469   5.374   1.769   5.318
 9190SOL    HW228470   5.252   1.835   5.231
 9191SOL     OW28471   5.776   0.300   0.907
 9191SOL    HW128472   5.751   0.309   0.811
 9191SOL    HW228473   5.852   0.361   0.928
 9192SOL     OW28474   4.795   3.950   4.096
 9192SOL    HW128475   4.804   4.045   4.127
 9192SOL    HW228476   4.799   3.947   3.996
 9193SOL     OW28477   3.649   2.888   3.442
 9193SOL    HW128478   3.699   2.951   3.383
 9193SOL    HW228479   3.712   2.822   3.483
 9194SOL     OW28480   4.265   5.711   2.560
 9194SOL    HW128481   4.182   5.712   2.615
 9194SOL    HW228482   4.280   5.618   2.525
 9195SOL     OW28483   0.069   2.609   2.799
 9195SOL    HW128484   0.061   2.572   2.706
 9195SOL    HW228485   0.029   2.700   2.802
 9196SOL     OW28486   5.043   6.745   3.852
 9196SOL    HW128487   5.126   6.800   3.854
 9196SOL    HW228488   5.010   6.731   3.946
 9197SOL     OW28489   4.271   2.429   5.751
 9197SOL    HW128490   4.229   2.481   5.676
 9197SOL    HW228491   4.205   2.420   5.826
 9198SOL     OW28492   5.970   2.164   5.447
 9198SOL    HW128493   5.958   2.230   5.522
 9198SOL    HW228494   6.034   2.093   5.475
 9199SOL     OW28495   2.214   2.818   6.098
 9199SOL    HW128496   2.169   2.793   6.183
 9199SOL    HW228497   2.147   2.858   6.035
 9200SOL     OW28498   5.418   6.288   0.897
 9200SOL    HW128499   5.433   6.252   0.989
 9200SOL    HW228500   5.504   6.285   0.846
 9201SOL     OW28501   1.161   3.903   2.779
 9201SOL    HW128502   1.102   3.940   2.707
 9201SOL    HW228503   1.125   3.930   2.868
 9202SOL     OW28504   3.071   5.679   3.807
 9202SOL    HW128505   3.137   5.742   3.848
 9202SOL    HW228506   3.120   5.606   3.759
 9203SOL     OW28507   4.299   0.709   6.364
 9203SOL    HW128508   4.347   0.773   6.423
 9203SOL    HW228509   4.364   0.643   6.326
 9204SOL     OW28510   5.251   4.657   2.400
 9204SOL    HW128511   5.179   4.641   2.332
 9204SOL    HW228512   5.230   4.606   2.483
 9205SOL     OW28513   4.877   3.275   1.918
 9205SOL    HW128514   4.894   3.333   1.998
 9205SOL    HW228515   4.843   3.186   1.947
 9206SOL     OW28516   0.702   5.907   3.594
 9206SOL    HW128517   0.800   5.912   3.614
 9206SOL    HW228518   0.657   5.990   3.627
 9207SOL     OW28519   4.249   6.210   6.713
 9207SOL    HW128520   4.297   6.272   6.774
 9207SOL    HW228521   4.195   6.263   6.647
 9208SOL     OW28522   4.664   4.067   1.780
 9208SOL    HW128523   4.673   3.981   1.829
 9208SOL    HW228524   4.576   4.109   1.803
 9209SOL     OW28525   4.037   0.102   2.807
 9209SOL    HW128526   4.086   0.078   2.891
 9209SOL    HW228527   4.060   0.037   2.735
 9210SOL     OW28528   1.108   6.809   0.565
 9210SOL    HW128529   1.130   6.720   0.604
 9210SOL    HW228530   1.191   6.850   0.528
 9211SOL     OW28531   4.887   1.317   6.114
 9211SOL    HW128532   4.918   1.397   6.165
 9211SOL    HW228533   4.872   1.241   6.178
 9212SOL     OW28534   5.409   3.686   5.284
 9212SOL    HW128535   5.367   3.774   5.260
 9212SOL    HW228536   5.356   3.643   5.357
 9213SOL     OW28537   6.615   6.887   2.633
 9213SOL    HW128538   6.666   6.915   2.715
 9213SOL    HW228539   6.535   6.946   2.623
 9214SOL     OW28540   2.213   2.199   5.448
 9214SOL    HW128541   2.125   2.177   5.490
 9214SOL    HW228542   2.274   2.236   5.518
 9215SOL     OW28543   0.244   2.657   2.992
 9215SOL    HW128544   0.195   2.641   2.906
 9215SOL    HW228545   0.199   2.607   3.066
 9216SOL     OW28546   2.714   5.866   3.889
 9216SOL    HW128547   2.683   5.879   3.795
 9216SOL    HW228548   2.752   5.774   3.899
 9217SOL     OW28549   3.498   1.412   6.672
 9217SOL    HW128550   3.440   1.482   6.714
 9217SOL    HW228551   3.585   1.453   6.645
 9218SOL     OW28552   5.290   5.455   6.338
 9218SOL    HW128553   5.200   5.469   6.297
 9218SOL    HW228554   5.357   5.516   6.295
 9219SOL     OW28555   3.179   2.165   5.490
 9219SOL    HW128556   3.260   2.179   5.433
 9219SOL    HW228557   3.148   2.253   5.526
 9220SOL     OW28558   0.512   6.550   3.542
 9220SOL    HW128559   0.473   6.642   3.548
 9220SOL    HW228560   0.572   6.535   3.621
 9221SOL     OW28561   2.214   1.680   0.437
 9221SOL    HW128562   2.156   1.666   0.516
 9221SOL    HW228563   2.158   1.684   0.354
 9222SOL     OW28564   1.572   3.318   4.431
 9222SOL    HW128565   1.672   3.318   4.432
 9222SOL    HW228566   1.540   3.288   4.342
 9223SOL     OW28567   0.286   3.159   5.123
 9223SOL    HW128568   0.249   3.201   5.206
 9223SOL    HW228569   0.357   3.094   5.146
 9224SOL     OW28570   2.333   4.770   3.210
 9224SOL    HW128571   2.295   4.679   3.226
 9224SOL    HW228572   2.428   4.773   3.242
 9225SOL     OW28573   5.721   5.536   6.212
 9225SOL    HW128574   5.820   5.550   6.213
 9225SOL    HW228575   5.700   5.459   6.152
 9226SOL     OW28576   1.102   0.731   0.323
 9226SOL    HW128577   1.079   0.634   0.313
 9226SOL    HW228578   1.021   0.786   0.304
 9227SOL     OW28579   3.090   3.851   0.501
 9227SOL    HW128580   3.031   3.899   0.437
 9227SOL    HW228581   3.121   3.765   0.459
 9228SOL     OW28582   3.494   3.563   5.334
 9228SOL    HW128583   3.420   3.628   5.317
 9228SOL    HW228584   3.553   3.558   5.253
 9229SOL     OW28585   6.873   5.145   0.255
 9229SOL    HW128586   6.868   5.047   0.234
 9229SOL    HW228587   6.868   5.159   0.353
 9230SOL     OW28588   4.086   1.339   5.073
 9230SOL    HW128589   4.152   1.339   4.997
 9230SOL    HW228590   3.993   1.336   5.035
 9231SOL     OW28591   0.099   6.317   2.538
 9231SOL    HW128592   0.032   6.268   2.594
 9231SOL    HW228593   0.188   6.314   2.583
 9232SOL     OW28594   1.012   4.925   2.588
 9232SOL    HW128595   1.074   4.935   2.510
 9232SOL    HW228596   0.981   5.015   2.617
 9233SOL     OW28597   1.145   6.441   5.877
 9233SOL    HW128598   1.163   6.466   5.972
 9233SOL    HW228599   1.226   6.399   5.837
 9234SOL     OW28600   2.431   3.641   6.674
 9234SOL    HW128601   2.485   3.675   6.751
 9234SOL    HW228602   2.339   3.618   6.705
 9235SOL     OW28603   1.843   2.040   3.289
 9235SOL    HW128604   1.775   1.968   3.273
 9235SOL    HW228605   1.841   2.066   3.386
 9236SOL     OW28606   1.565   3.009   6.170
 9236SOL    HW128607   1.594   3.075   6.238
 9236SOL    HW228608   1.625   2.928   6.174
 9237SOL     OW28609   6.080   5.465   3.027
 9237SOL    HW128610   6.038   5.387   3.073
 9237SOL    HW228611   6.077   5.451   2.928
 9238SOL     OW28612   1.701   3.170   4.690
 9238SOL    HW128613   1.624   3.195   4.632
 9238SOL    HW228614   1.712   3.070   4.690
 9239SOL     OW28615   1.269   4.791   6.796
 9239SOL    HW128616   1.221   4.879   6.806
 9239SOL    HW228617   1.362   4.800   6.834
 9240SOL     OW28618   4.536   1.664   3.448
 9240SOL    HW128619   4.555   1.756   3.482
 9240SOL    HW228620   4.535   1.600   3.524
 9241SOL     OW28621   5.671   0.041   0.909
 9241SOL    HW128622   5.663   0.006   1.003
 9241SOL    HW228623   5.737   0.116   0.907
 9242SOL     OW28624   1.792   2.499   0.422
 9242SOL    HW128625   1.806   2.431   0.494
 9242SOL    HW228626   1.842   2.583   0.445
 9243SOL     OW28627   1.541   0.121   0.096
 9243SOL    HW128628   1.614   0.054   0.111
 9243SOL    HW228629   1.523   0.128   7.025
 9244SOL     OW28630   3.737   6.713   6.135
 9244SOL    HW128631   3.813   6.657   6.170
 9244SOL    HW228632   3.689   6.755   6.212
 9245SOL     OW28633   1.293   4.647   2.929
 9245SOL    HW128634   1.224   4.690   2.871
 9245SOL    HW228635   1.256   4.634   3.021
 9246SOL     OW28636   4.922   0.108   6.847
 9246SOL    HW128637   4.860   0.055   6.904
 9246SOL    HW228638   4.872   0.147   6.770
 9247SOL     OW28639   4.164   5.445   2.908
 9247SOL    HW128640   4.230   5.434   2.835
 9247SOL    HW228641   4.171   5.367   2.971
 9248SOL     OW28642   2.341   0.654   6.840
 9248SOL    HW128643   2.378   0.721   6.905
 9248SOL    HW228644   2.404   0.578   6.831
 9249SOL     OW28645   2.399   6.355   0.287
 9249SOL    HW128646   2.342   6.336   0.366
 9249SOL    HW228647   2.418   6.270   0.237
 9250SOL     OW28648   0.237   2.762   4.061
 9250SOL    HW128649   0.248   2.701   4.140
 9250SOL    HW228650   0.146   2.751   4.023
 9251SOL     OW28651   2.873   1.958   0.781
 9251SOL    HW128652   2.787   2.007   0.793
 9251SOL    HW228653   2.902   1.964   0.686
 9252SOL     OW28654   5.958   1.151   5.348
 9252SOL    HW128655   5.869   1.188   5.322
 9252SOL    HW228656   6.026   1.224   5.347
 9253SOL     OW28657   1.358   5.868   5.015
 9253SOL    HW128658   1.337   5.784   5.064
 9253SOL    HW228659   1.433   5.915   5.061
 9254SOL     OW28660   0.522   4.924   2.428
 9254SOL    HW128661   0.429   4.899   2.400
 9254SOL    HW228662   0.524   5.021   2.454
 9255SOL     OW28663   0.014   4.502   0.741
 9255SOL    HW128664   6.984   4.583   0.728
 9255SOL    HW228665   0.103   4.517   0.698
 9256SOL     OW28666   3.012   6.560   1.073
 9256SOL    HW128667   3.106   6.533   1.096
 9256SOL    HW228668   2.953   6.480   1.071
 9257SOL     OW28669   5.954   5.944   4.565
 9257SOL    HW128670   5.901   5.862   4.542
 9257SOL    HW228671   6.045   5.917   4.597
 9258SOL     OW28672   3.579   5.356   0.976
 9258SOL    HW128673   3.499   5.416   0.967
 9258SOL    HW228674   3.562   5.288   1.048
 9259SOL     OW28675   1.025   2.085   7.014
 9259SOL    HW128676   1.090   2.022   6.973
 9259SOL    HW228677   0.946   2.097   6.953
 9260SOL     OW28678   5.333   4.138   4.829
 9260SOL    HW128679   5.256   4.121   4.768
 9260SOL    HW228680   5.417   4.105   4.785
 9261SOL     OW28681   2.860   2.165   1.467
 9261SOL    HW128682   2.935   2.113   1.507
 9261SOL    HW228683   2.858   2.257   1.508
 9262SOL     OW28684   6.852   6.283   5.969
 9262SOL    HW128685   6.804   6.368   5.989
 9262SOL    HW228686   6.903   6.254   6.050
 9263SOL     OW28687   1.855   4.604   3.145
 9263SOL    HW128688   1.790   4.606   3.069
 9263SOL    HW228689   1.904   4.692   3.149
 9264SOL     OW28690   5.472   4.150   6.365
 9264SOL    HW128691   5.404   4.147   6.437
 9264SOL    HW228692   5.443   4.214   6.293
 9265SOL     OW28693   5.999   1.488   1.772
 9265SOL    HW128694   5.964   1.405   1.729
 9265SOL    HW228695   5.963   1.495   1.865
 9266SOL     OW28696   1.159   4.423   1.189
 9266SOL    HW128697   1.165   4.324   1.205
 9266SOL    HW228698   1.088   4.462   1.248
 9267SOL     OW28699   6.965   0.443   4.240
 9267SOL    HW128700   6.889   0.492   4.196
 9267SOL    HW228701   7.026   0.408   4.169
 9268SOL     OW28702   0.394   6.928   1.315
 9268SOL    HW128703   0.383   6.834   1.346
 9268SOL    HW228704   0.305   6.970   1.302
 9269SOL     OW28705   3.467   0.984   0.252
 9269SOL    HW128706   3.440   0.906   0.308
 9269SOL    HW228707   3.519   0.952   0.173
 9270SOL     OW28708   2.607   0.461   6.844
 9270SOL    HW128709   2.605   0.422   6.752
 9270SOL    HW228710   2.693   0.509   6.858
 9271SOL     OW28711   1.515   5.594   5.125
 9271SOL    HW128712   1.415   5.593   5.122
 9271SOL    HW228713   1.550   5.502   5.111
 9272SOL     OW28714   0.130   6.628   6.014
 9272SOL    HW128715   0.204   6.667   6.068
 9272SOL    HW228716   0.150   6.639   5.917
 9273SOL     OW28717   5.422   4.095   3.413
 9273SOL    HW128718   5.404   4.003   3.379
 9273SOL    HW228719   5.503   4.093   3.472
 9274SOL     OW28720   0.723   3.248   0.413
 9274SOL    HW128721   0.676   3.273   0.497
 9274SOL    HW228722   0.790   3.318   0.390
 9275SOL     OW28723   5.691   0.816   0.441
 9275SOL    HW128724   5.647   0.846   0.526
 9275SOL    HW228725   5.782   0.779   0.462
 9276SOL     OW28726   2.688   5.392   0.253
 9276SOL    HW128727   2.777   5.373   0.212
 9276SOL    HW228728   2.622   5.323   0.222
 9277SOL     OW28729   4.941   5.098   2.261
 9277SOL    HW128730   4.911   5.014   2.306
 9277SOL    HW228731   5.020   5.079   2.203
 9278SOL     OW28732   0.892   0.129   5.091
 9278SOL    HW128733   0.877   0.146   5.189
 9278SOL    HW228734   0.806   0.104   5.048
 9279SOL     OW28735   3.396   5.414   1.699
 9279SOL    HW128736   3.325   5.473   1.736
 9279SOL    HW228737   3.385   5.408   1.600
 9280SOL     OW28738   2.137   6.533   2.912
 9280SOL    HW128739   2.155   6.597   2.986
 9280SOL    HW228740   2.039   6.511   2.910
 9281SOL     OW28741   2.182   5.901   0.760
 9281SOL    HW128742   2.227   5.815   0.786
 9281SOL    HW228743   2.178   5.962   0.840
 9282SOL     OW28744   3.220   6.598   4.929
 9282SOL    HW128745   3.319   6.593   4.936
 9282SOL    HW228746   3.186   6.673   4.986
 9283SOL     OW28747   4.439   6.347   1.276
 9283SOL    HW128748   4.499   6.426   1.267
 9283SOL    HW228749   4.450   6.306   1.366
 9284SOL     OW28750   4.476   4.333   5.667
 9284SOL    HW128751   4.386   4.376   5.661
 9284SOL    HW228752   4.485   4.287   5.755
 9285SOL     OW28753   0.469   5.343   2.997
 9285SOL    HW128754   0.486   5.308   2.904
 9285SOL    HW228755   0.557   5.367   3.039
 9286SOL     OW28756   4.172   0.125   1.700
 9286SOL    HW128757   4.074   0.109   1.689
 9286SOL    HW228758   4.204   0.183   1.625
 9287SOL     OW28759   3.987   3.970   5.839
 9287SOL    HW128760   4.067   3.913   5.822
 9287SOL    HW228761   3.919   3.955   5.767
 9288SOL     OW28762   3.210   1.291   2.069
 9288SOL    HW128763   3.269   1.371   2.078
 9288SOL    HW228764   3.222   1.251   1.978
 9289SOL     OW28765   4.912   6.828   0.464
 9289SOL    HW128766   4.907   6.746   0.521
 9289SOL    HW228767   5.005   6.838   0.429
 9290SOL     OW28768   5.401   1.294   4.254
 9290SOL    HW128769   5.390   1.233   4.176
 9290SOL    HW228770   5.375   1.387   4.227
 9291SOL     OW28771   1.017   3.927   6.355
 9291SOL    HW128772   0.967   3.950   6.271
 9291SOL    HW228773   1.067   3.841   6.341
 9292SOL     OW28774   0.946   0.905   6.980
 9292SOL    HW128775   0.880   0.842   6.937
 9292SOL    HW228776   0.940   0.994   6.935
 9293SOL     OW28777   5.086   2.424   4.083
 9293SOL    HW128778   4.994   2.444   4.049
 9293SOL    HW228779   5.079   2.372   4.169
 9294SOL     OW28780   4.487   6.966   6.186
 9294SOL    HW128781   4.546   0.018   6.202
 9294SOL    HW228782   4.393   6.990   6.209
 9295SOL     OW28783   6.956   1.136   4.890
 9295SOL    HW128784   7.025   1.195   4.848
 9295SOL    HW228785   6.949   1.050   4.839
 9296SOL     OW28786   2.414   5.267   6.346
 9296SOL    HW128787   2.462   5.263   6.258
 9296SOL    HW228788   2.397   5.174   6.379
 9297SOL     OW28789   6.154   5.982   2.428
 9297SOL    HW128790   6.180   5.976   2.332
 9297SOL    HW228791   6.191   5.905   2.479
 9298SOL     OW28792   1.163   4.236   6.388
 9298SOL    HW128793   1.138   4.165   6.454
 9298SOL    HW228794   1.101   4.314   6.397
 9299SOL     OW28795   2.395   2.741   4.316
 9299SOL    HW128796   2.396   2.809   4.390
 9299SOL    HW228797   2.360   2.654   4.351
 9300SOL     OW28798   1.891   5.743   5.191
 9300SOL    HW128799   1.823   5.707   5.255
 9300SOL    HW228800   1.971   5.775   5.242
 9301SOL     OW28801   0.379   3.787   4.385
 9301SOL    HW128802   0.382   3.762   4.288
 9301SOL    HW228803   0.353   3.883   4.394
 9302SOL     OW28804   2.104   3.718   4.639
 9302SOL    HW128805   2.156   3.754   4.561
 9302SOL    HW228806   2.111   3.782   4.716
 9303SOL     OW28807   2.640   4.680   0.257
 9303SOL    HW128808   2.590   4.683   0.344
 9303SOL    HW228809   2.598   4.744   0.192
 9304SOL     OW28810   4.997   5.558   6.721
 9304SOL    HW128811   4.942   5.574   6.639
 9304SOL    HW228812   5.036   5.467   6.718
 9305SOL     OW28813   1.494   2.252   0.908
 9305SOL    HW128814   1.436   2.327   0.940
 9305SOL    HW228815   1.456   2.165   0.939
 9306SOL     OW28816   0.128   6.352   4.923
 9306SOL    HW128817   0.036   6.318   4.937
 9306SOL    HW228818   0.185   6.280   4.883
 9307SOL     OW28819   1.910   3.572   1.496
 9307SOL    HW128820   1.877   3.483   1.467
 9307SOL    HW228821   1.992   3.561   1.553
 9308SOL     OW28822   2.276   3.207   1.638
 9308SOL    HW128823   2.360   3.261   1.641
 9308SOL    HW228824   2.222   3.223   1.720
 9309SOL     OW28825   5.118   5.284   6.644
 9309SOL    HW128826   5.214   5.268   6.668
 9309SOL    HW228827   5.111   5.306   6.547
 9310SOL     OW28828   6.137   5.526   6.757
 9310SOL    HW128829   6.171   5.595   6.694
 9310SOL    HW228830   6.043   5.501   6.733
 9311SOL     OW28831   5.091   3.935   0.542
 9311SOL    HW128832   5.058   3.843   0.521
 9311SOL    HW228833   5.178   3.950   0.495
 9312SOL     OW28834   0.331   2.871   3.126
 9312SOL    HW128835   0.301   2.802   3.060
 9312SOL    HW228836   0.385   2.827   3.198
 9313SOL     OW28837   0.329   0.302   2.188
 9313SOL    HW128838   0.377   0.263   2.267
 9313SOL    HW228839   0.239   0.335   2.218
 9314SOL     OW28840   5.156   4.486   1.152
 9314SOL    HW128841   5.166   4.449   1.060
 9314SOL    HW228842   5.239   4.536   1.177
 9315SOL     OW28843   5.100   6.421   6.162
 9315SOL    HW128844   5.125   6.362   6.239
 9315SOL    HW228845   5.081   6.513   6.196
 9316SOL     OW28846   5.279   0.990   6.170
 9316SOL    HW128847   5.203   0.990   6.234
 9316SOL    HW228848   5.283   0.901   6.123
 9317SOL     OW28849   3.425   6.025   2.912
 9317SOL    HW128850   3.507   6.029   2.854
 9317SOL    HW228851   3.363   5.954   2.879
 9318SOL     OW28852   3.780   6.962   1.987
 9318SOL    HW128853   3.729   6.876   1.997
 9318SOL    HW228854   3.717   0.011   1.996
 9319SOL     OW28855   3.876   2.142   6.987
 9319SOL    HW128856   3.907   2.205   6.915
 9319SOL    HW228857   3.835   2.195   0.033
 9320SOL     OW28858   6.464   6.752   6.758
 9320SOL    HW128859   6.445   6.654   6.752
 9320SOL    HW228860   6.411   6.792   6.832
 9321SOL     OW28861   0.261   2.812   4.973
 9321SOL    HW128862   0.260   2.772   4.882
 9321SOL    HW228863   0.198   2.890   4.976
 9322SOL     OW28864   5.790   2.954   6.862
 9322SOL    HW128865   5.783   2.881   6.929
 9322SOL    HW228866   5.700   2.969   6.820
 9323SOL     OW28867   0.792   1.725   5.818
 9323SOL    HW128868   0.711   1.777   5.793
 9323SOL    HW228869   0.869   1.755   5.762
 9324SOL     OW28870   0.901   4.254   1.749
 9324SOL    HW128871   0.889   4.237   1.847
 9324SOL    HW228872   0.819   4.223   1.700
 9325SOL     OW28873   0.732   4.015   3.554
 9325SOL    HW128874   0.782   3.929   3.566
 9325SOL    HW228875   0.745   4.073   3.634
 9326SOL     OW28876   4.550   4.185   1.493
 9326SOL    HW128877   4.602   4.161   1.411
 9326SOL    HW228878   4.580   4.275   1.527
 9327SOL     OW28879   2.907   0.789   3.301
 9327SOL    HW128880   2.991   0.799   3.248
 9327SOL    HW228881   2.837   0.747   3.244
 9328SOL     OW28882   2.266   0.762   3.927
 9328SOL    HW128883   2.236   0.675   3.967
 9328SOL    HW228884   2.281   0.751   3.829
 9329SOL     OW28885   0.110   5.572   7.007
 9329SOL    HW128886   0.204   5.577   6.972
 9329SOL    HW228887   0.062   5.497   6.963
 9330SOL     OW28888   6.619   6.360   6.989
 9330SOL    HW128889   6.701   6.313   7.021
 9330SOL    HW228890   6.578   6.412   0.036
 9331SOL     OW28891   2.109   3.483   3.927
 9331SOL    HW128892   2.061   3.415   3.983
 9331SOL    HW228893   2.109   3.571   3.976
 9332SOL     OW28894   5.813   5.989   0.922
 9332SOL    HW128895   5.839   5.892   0.930
 9332SOL    HW228896   5.891   6.046   0.947
 9333SOL     OW28897   3.634   3.791   1.108
 9333SOL    HW128898   3.548   3.744   1.090
 9333SOL    HW228899   3.655   3.853   1.032
 9334SOL     OW28900   6.052   6.015   6.028
 9334SOL    HW128901   6.046   6.025   6.127
 9334SOL    HW228902   6.070   5.919   6.005
 9335SOL     OW28903   1.035   2.925   1.861
 9335SOL    HW128904   1.079   2.844   1.899
 9335SOL    HW228905   0.982   2.898   1.780
 9336SOL     OW28906   5.328   0.542   5.774
 9336SOL    HW128907   5.331   0.639   5.795
 9336SOL    HW228908   5.234   0.514   5.757
 9337SOL     OW28909   2.220   0.629   5.893
 9337SOL    HW128910   2.248   0.545   5.847
 9337SOL    HW228911   2.126   0.620   5.925
 9338SOL     OW28912   5.570   6.394   0.193
 9338SOL    HW128913   5.488   6.415   0.140
 9338SOL    HW228914   5.647   6.448   0.159
 9339SOL     OW28915   6.949   3.942   5.851
 9339SOL    HW128916   6.867   3.905   5.807
 9339SOL    HW228917   6.926   3.972   5.943
 9340SOL     OW28918   3.126   4.978   1.265
 9340SOL    HW128919   3.186   4.917   1.214
 9340SOL    HW228920   3.149   4.974   1.362
 9341SOL     OW28921   5.145   4.998   6.352
 9341SOL    HW128922   5.149   4.945   6.268
 9341SOL    HW228923   5.223   5.060   6.357
 9342SOL     OW28924   3.146   0.179   4.348
 9342SOL    HW128925   3.126   0.252   4.413
 9342SOL    HW228926   3.229   0.131   4.377
 9343SOL     OW28927   4.633   3.642   0.983
 9343SOL    HW128928   4.710   3.693   1.022
 9343SOL    HW228929   4.611   3.565   1.043
 9344SOL     OW28930   5.882   0.142   5.400
 9344SOL    HW128931   5.787   0.109   5.398
 9344SOL    HW228932   5.889   0.224   5.342
 9345SOL     OW28933   0.244   4.976   0.314
 9345SOL    HW128934   0.338   5.002   0.332
 9345SOL    HW228935   0.191   5.056   0.285
 9346SOL     OW28936   5.845   6.300   1.469
 9346SOL    HW128937   5.855   6.208   1.432
 9346SOL    HW228938   5.927   6.325   1.520
 9347SOL     OW28939   3.795   5.519   0.925
 9347SOL    HW128940   3.720   5.455   0.942
 9347SOL    HW228941   3.882   5.477   0.950
 9348SOL     OW28942   2.451   5.488   2.414
 9348SOL    HW128943   2.490   5.429   2.343
 9348SOL    HW228944   2.351   5.480   2.412
 9349SOL     OW28945   0.068   6.261   2.259
 9349SOL    HW128946   0.081   6.270   2.357
 9349SOL    HW228947   0.052   6.352   2.219
 9350SOL     OW28948   6.762   0.503   6.450
 9350SOL    HW128949   6.830   0.449   6.500
 9350SOL    HW228950   6.689   0.530   6.513
 9351SOL     OW28951   4.123   3.023   5.958
 9351SOL    HW128952   4.205   3.008   5.904
 9351SOL    HW228953   4.131   2.977   6.046
 9352SOL     OW28954   3.571   3.067   6.450
 9352SOL    HW128955   3.548   3.086   6.545
 9352SOL    HW228956   3.661   3.023   6.445
 9353SOL     OW28957   0.331   3.917   0.851
 9353SOL    HW128958   0.323   3.885   0.946
 9353SOL    HW228959   0.407   3.981   0.843
 9354SOL     OW28960   4.651   1.575   2.027
 9354SOL    HW128961   4.700   1.550   2.110
 9354SOL    HW228962   4.678   1.515   1.952
 9355SOL     OW28963   6.514   1.183   3.222
 9355SOL    HW128964   6.460   1.175   3.138
 9355SOL    HW228965   6.475   1.255   3.279
 9356SOL     OW28966   4.206   4.698   2.664
 9356SOL    HW128967   4.275   4.661   2.726
 9356SOL    HW228968   4.245   4.709   2.573
 9357SOL     OW28969   3.456   3.056   0.718
 9357SOL    HW128970   3.436   2.983   0.652
 9357SOL    HW228971   3.492   3.136   0.669
 9358SOL     OW28972   5.322   4.409   2.105
 9358SOL    HW128973   5.417   4.412   2.076
 9358SOL    HW228974   5.271   4.484   2.062
 9359SOL     OW28975   5.335   4.335   6.172
 9359SOL    HW128976   5.246   4.382   6.176
 9359SOL    HW228977   5.326   4.252   6.118
 9360SOL     OW28978   1.994   0.354   5.762
 9360SOL    HW128979   2.031   0.263   5.781
 9360SOL    HW228980   2.022   0.382   5.670
 9361SOL     OW28981   2.921   0.573   2.415
 9361SOL    HW128982   2.926   0.642   2.487
 9361SOL    HW228983   2.826   0.549   2.397
 9362SOL     OW28984   2.225   1.619   3.078
 9362SOL    HW128985   2.208   1.538   3.135
 9362SOL    HW228986   2.304   1.668   3.114
 9363SOL     OW28987   2.312   6.435   1.767
 9363SOL    HW128988   2.372   6.364   1.733
 9363SOL    HW228989   2.352   6.525   1.748
 9364SOL     OW28990   5.665   5.324   0.424
 9364SOL    HW128991   5.698   5.388   0.493
 9364SOL    HW228992   5.743   5.283   0.376
 9365SOL     OW28993   2.272   1.264   5.465
 9365SOL    HW128994   2.273   1.240   5.368
 9365SOL    HW228995   2.359   1.236   5.506
 9366SOL     OW28996   3.069   1.981   0.999
 9366SOL    HW128997   3.003   1.970   0.924
 9366SOL    HW228998   3.066   1.900   1.058
 9367SOL     OW28999   6.947   5.991   3.044
 9367SOL    HW129000   6.847   5.994   3.039
 9367SOL    HW229001   6.980   5.903   3.011
 9368SOL     OW29002   3.682   2.958   1.152
 9368SOL    HW129003   3.678   2.914   1.242
 9368SOL    HW229004   3.611   2.921   1.093
 9369SOL     OW29005   0.288   2.241   5.124
 9369SOL    HW129006   0.197   2.224   5.162
 9369SOL    HW229007   0.296   2.338   5.099
 9370SOL     OW29008   6.031   1.135   3.260
 9370SOL    HW129009   6.108   1.173   3.312
 9370SOL    HW229010   5.957   1.203   3.257
 9371SOL     OW29011   0.869   6.472   0.561
 9371SOL    HW129012   0.866   6.431   0.652
 9371SOL    HW229013   0.777   6.500   0.534
 9372SOL     OW29014   7.009   6.291   6.202
 9372SOL    HW129015   7.008   6.287   6.302
 9372SOL    HW229016   6.965   6.375   6.172
 9373SOL     OW29017   4.474   1.469   3.690
 9373SOL    HW129018   4.394   1.525   3.670
 9373SOL    HW229019   4.526   1.512   3.764
 9374SOL     OW29020   5.423   3.790   0.888
 9374SOL    HW129021   5.496   3.730   0.922
 9374SOL    HW229022   5.372   3.743   0.816
 9375SOL     OW29023   0.853   1.313   4.048
 9375SOL    HW129024   0.943   1.311   4.005
 9375SOL    HW229025   0.853   1.254   4.129
 9376SOL     OW29026   1.938   3.138   2.035
 9376SOL    HW129027   1.917   3.067   1.967
 9376SOL    HW229028   1.878   3.217   2.020
 9377SOL     OW29029   6.021   5.631   4.188
 9377SOL    HW129030   6.018   5.535   4.158
 9377SOL    HW229031   6.108   5.672   4.160
 9378SOL     OW29032   3.059   6.350   0.655
 9378SOL    HW129033   3.042   6.298   0.739
 9378SOL    HW229034   3.015   6.305   0.578
 9379SOL     OW29035   5.503   4.663   4.869
 9379SOL    HW129036   5.579   4.599   4.872
 9379SOL    HW229037   5.440   4.644   4.944
 9380SOL     OW29038   5.855   6.399   6.443
 9380SOL    HW129039   5.853   6.301   6.464
 9380SOL    HW229040   5.932   6.418   6.383
 9381SOL     OW29041   2.412   1.108   6.796
 9381SOL    HW129042   2.491   1.115   6.856
 9381SOL    HW229043   2.392   1.196   6.754
 9382SOL     OW29044   4.768   2.243   2.391
 9382SOL    HW129045   4.843   2.307   2.404
 9382SOL    HW229046   4.787   2.159   2.443
 9383SOL     OW29047   4.809   5.958   5.427
 9383SOL    HW129048   4.803   5.870   5.380
 9383SOL    HW229049   4.877   5.953   5.499
 9384SOL     OW29050   5.368   5.849   1.223
 9384SOL    HW129051   5.401   5.877   1.313
 9384SOL    HW229052   5.434   5.785   1.182
 9385SOL     OW29053   3.687   1.359   3.228
 9385SOL    HW129054   3.626   1.290   3.188
 9385SOL    HW229055   3.633   1.436   3.261
 9386SOL     OW29056   3.344   6.681   4.299
 9386SOL    HW129057   3.388   6.736   4.370
 9386SOL    HW229058   3.378   6.587   4.304
 9387SOL     OW29059   4.186   0.136   6.885
 9387SOL    HW129060   4.192   0.116   6.788
 9387SOL    HW229061   4.097   0.177   6.905
 9388SOL     OW29062   6.822   0.459   2.912
 9388SOL    HW129063   6.894   0.527   2.896
 9388SOL    HW229064   6.767   0.486   2.991
 9389SOL     OW29065   2.683   0.637   6.563
 9389SOL    HW129066   2.679   0.555   6.620
 9389SOL    HW229067   2.592   0.678   6.557
 9390SOL     OW29068   3.339   5.743   2.200
 9390SOL    HW129069   3.380   5.811   2.141
 9390SOL    HW229070   3.401   5.722   2.276
 9391SOL     OW29071   0.375   1.170   5.470
 9391SOL    HW129072   0.470   1.192   5.448
 9391SOL    HW229073   0.335   1.120   5.394
 9392SOL     OW29074   1.406   6.206   4.828
 9392SOL    HW129075   1.465   6.126   4.820
 9392SOL    HW229076   1.445   6.269   4.897
 9393SOL     OW29077   3.865   2.196   5.248
 9393SOL    HW129078   3.920   2.208   5.165
 9393SOL    HW229079   3.769   2.216   5.228
 9394SOL     OW29080   5.683   2.144   2.542
 9394SOL    HW129081   5.767   2.188   2.572
 9394SOL    HW229082   5.691   2.045   2.551
 9395SOL     OW29083   2.051   3.120   6.902
 9395SOL    HW129084   1.968   3.157   6.942
 9395SOL    HW229085   2.061   3.154   6.808
 9396SOL     OW29086   6.525   0.130   6.274
 9396SOL    HW129087   6.499   0.214   6.322
 9396SOL    HW229088   6.599   0.151   6.210
 9397SOL     OW29089   3.048   0.594   0.920
 9397SOL    HW129090   2.980   0.633   0.981
 9397SOL    HW229091   3.009   0.515   0.872
 9398SOL     OW29092   2.637   1.841   6.387
 9398SOL    HW129093   2.596   1.894   6.462
 9398SOL    HW229094   2.566   1.819   6.319
 9399SOL     OW29095   6.814   0.931   5.361
 9399SOL    HW129096   6.809   0.983   5.275
 9399SOL    HW229097   6.827   0.834   5.341
 9400SOL     OW29098   5.203   2.399   2.797
 9400SOL    HW129099   5.125   2.461   2.791
 9400SOL    HW229100   5.252   2.399   2.709
 9401SOL     OW29101   3.082   0.317   3.001
 9401SOL    HW129102   3.085   0.274   3.092
 9401SOL    HW229103   3.037   0.405   3.007
 9402SOL     OW29104   2.419   5.017   6.447
 9402SOL    HW129105   2.325   4.986   6.459
 9402SOL    HW229106   2.466   4.959   6.381
 9403SOL     OW29107   5.342   0.864   4.203
 9403SOL    HW129108   5.374   0.774   4.232
 9403SOL    HW229109   5.311   0.916   4.284
 9404SOL     OW29110   0.866   3.996   6.137
 9404SOL    HW129111   0.890   4.070   6.074
 9404SOL    HW229112   0.871   3.909   6.089
 9405SOL     OW29113   5.799   6.878   1.213
 9405SOL    HW129114   5.851   6.821   1.150
 9405SOL    HW229115   5.736   6.820   1.266
 9406SOL     OW29116   0.035   1.446   5.336
 9406SOL    HW129117   0.101   1.503   5.385
 9406SOL    HW229118   0.075   1.356   5.318
 9407SOL     OW29119   3.353   6.074   2.469
 9407SOL    HW129120   3.370   6.155   2.526
 9407SOL    HW229121   3.440   6.040   2.433
 9408SOL     OW29122   4.219   1.807   6.213
 9408SOL    HW129123   4.155   1.778   6.284
 9408SOL    HW229124   4.208   1.905   6.197
 9409SOL     OW29125   5.693   4.297   3.204
 9409SOL    HW129126   5.624   4.321   3.272
 9409SOL    HW229127   5.784   4.319   3.239
 9410SOL     OW29128   4.538   6.623   2.673
 9410SOL    HW129129   4.584   6.708   2.650
 9410SOL    HW229130   4.553   6.601   2.770
 9411SOL     OW29131   4.959   5.405   0.914
 9411SOL    HW129132   4.876   5.460   0.902
 9411SOL    HW229133   4.995   5.419   1.006
 9412SOL     OW29134   6.271   2.630   1.511
 9412SOL    HW129135   6.203   2.585   1.569
 9412SOL    HW229136   6.265   2.592   1.418
 9413SOL     OW29137   4.018   5.756   5.687
 9413SOL    HW129138   4.081   5.691   5.728
 9413SOL    HW229139   4.068   5.834   5.651
 9414SOL     OW29140   2.719   1.897   1.735
 9414SOL    HW129141   2.653   1.824   1.753
 9414SOL    HW229142   2.719   1.961   1.813
 9415SOL     OW29143   2.757   0.130   1.991
 9415SOL    HW129144   2.696   0.139   1.912
 9415SOL    HW229145   2.744   0.040   2.033
 9416SOL     OW29146   0.892   2.862   1.640
 9416SOL    HW129147   0.829   2.936   1.665
 9416SOL    HW229148   0.851   2.774   1.664
 9417SOL     OW29149   2.356   5.834   4.874
 9417SOL    HW129150   2.284   5.787   4.822
 9417SOL    HW229151   2.338   5.932   4.875
 9418SOL     OW29152   3.613   4.897   0.402
 9418SOL    HW129153   3.691   4.960   0.395
 9418SOL    HW229154   3.647   4.803   0.393
 9419SOL     OW29155   3.519   6.669   5.695
 9419SOL    HW129156   3.576   6.701   5.771
 9419SOL    HW229157   3.446   6.734   5.679
 9420SOL     OW29158   0.360   1.373   4.276
 9420SOL    HW129159   0.322   1.362   4.184
 9420SOL    HW229160   0.459   1.365   4.273
 9421SOL     OW29161   1.492   4.223   5.670
 9421SOL    HW129162   1.480   4.297   5.604
 9421SOL    HW229163   1.497   4.261   5.763
 9422SOL     OW29164   3.878   1.174   2.416
 9422SOL    HW129165   3.864   1.209   2.508
 9422SOL    HW229166   3.879   1.074   2.417
 9423SOL     OW29167   4.599   1.065   4.922
 9423SOL    HW129168   4.555   1.155   4.926
 9423SOL    HW229169   4.561   1.013   4.845
 9424SOL     OW29170   3.022   6.406   4.605
 9424SOL    HW129171   3.056   6.410   4.511
 9424SOL    HW229172   2.948   6.472   4.616
 9425SOL     OW29173   1.347   3.198   4.529
 9425SOL    HW129174   1.435   3.240   4.504
 9425SOL    HW229175   1.316   3.236   4.616
 9426SOL     OW29176   3.539   0.119   0.233
 9426SOL    HW129177   3.499   0.089   0.146
 9426SOL    HW229178   3.613   0.184   0.215
 9427SOL     OW29179   2.831   5.252   4.085
 9427SOL    HW129180   2.900   5.319   4.060
 9427SOL    HW229181   2.759   5.297   4.139
 9428SOL     OW29182   5.229   6.456   2.856
 9428SOL    HW129183   5.247   6.545   2.813
 9428SOL    HW229184   5.290   6.387   2.815
 9429SOL     OW29185   0.219   3.749   2.529
 9429SOL    HW129186   0.211   3.843   2.498
 9429SOL    HW229187   0.207   3.744   2.628
 9430SOL     OW29188   6.237   6.772   1.621
 9430SOL    HW129189   6.212   6.685   1.664
 9430SOL    HW229190   6.232   6.845   1.689
 9431SOL     OW29191   6.676   4.294   2.023
 9431SOL    HW129192   6.691   4.276   2.120
 9431SOL    HW229193   6.649   4.390   2.011
 9432SOL     OW29194   6.658   6.762   4.259
 9432SOL    HW129195   6.696   6.713   4.337
 9432SOL    HW229196   6.600   6.837   4.292
 9433SOL     OW29197   3.112   4.993   4.884
 9433SOL    HW129198   3.075   5.083   4.908
 9433SOL    HW229199   3.087   4.927   4.955
 9434SOL     OW29200   4.697   4.810   2.591
 9434SOL    HW129201   4.730   4.848   2.505
 9434SOL    HW229202   4.612   4.855   2.618
 9435SOL     OW29203   1.449   1.016   4.390
 9435SOL    HW129204   1.400   1.037   4.475
 9435SOL    HW229205   1.543   1.049   4.396
 9436SOL     OW29206   2.410   2.754   6.478
 9436SOL    HW129207   2.334   2.692   6.498
 9436SOL    HW229208   2.481   2.745   6.548
 9437SOL     OW29209   1.483   4.989   4.074
 9437SOL    HW129210   1.523   4.925   4.140
 9437SOL    HW229211   1.409   4.944   4.025
 9438SOL     OW29212   1.207   6.104   2.376
 9438SOL    HW129213   1.177   6.111   2.471
 9438SOL    HW229214   1.184   6.189   2.328
 9439SOL     OW29215   0.420   2.612   1.683
 9439SOL    HW129216   0.459   2.678   1.619
 9439SOL    HW229217   0.494   2.568   1.734
 9440SOL     OW29218   5.058   6.544   5.723
 9440SOL    HW129219   5.145   6.589   5.742
 9440SOL    HW229220   5.008   6.596   5.654
 9441SOL     OW29221   1.549   4.414   5.455
 9441SOL    HW129222   1.567   4.512   5.450
 9441SOL    HW229223   1.636   4.365   5.460
 9442SOL     OW29224   0.304   3.735   1.649
 9442SOL    HW129225   0.274   3.801   1.718
 9442SOL    HW229226   0.225   3.684   1.614
 9443SOL     OW29227   1.812   3.764   1.639
 9443SOL    HW129228   1.877   3.837   1.660
 9443SOL    HW229229   1.861   3.691   1.590
 9444SOL     OW29230   7.010   3.608   6.741
 9444SOL    HW129231   6.940   3.668   6.702
 9444SOL    HW229232   0.059   3.601   6.678
 9445SOL     OW29233   6.026   3.496   1.649
 9445SOL    HW129234   6.005   3.534   1.739
 9445SOL    HW229235   5.990   3.556   1.578
 9446SOL     OW29236   6.429   5.948   1.730
 9446SOL    HW129237   6.518   5.994   1.730
 9446SOL    HW229238   6.438   5.858   1.686
 9447SOL     OW29239   5.596   2.942   2.009
 9447SOL    HW129240   5.691   2.961   1.982
 9447SOL    HW229241   5.542   3.025   2.000
 9448SOL     OW29242   6.145   6.386   0.230
 9448SOL    HW129243   6.079   6.414   0.159
 9448SOL    HW229244   6.189   6.301   0.202
 9449SOL     OW29245   6.812   5.195   4.983
 9449SOL    HW129246   6.780   5.143   4.904
 9449SOL    HW229247   6.840   5.287   4.953
 9450SOL     OW29248   3.171   5.009   4.202
 9450SOL    HW129249   3.202   4.990   4.295
 9450SOL    HW229250   3.250   5.021   4.142
 9451SOL     OW29251   4.424   4.886   6.236
 9451SOL    HW129252   4.422   4.797   6.283
 9451SOL    HW229253   4.453   4.872   6.141
 9452SOL     OW29254   2.203   4.206   1.440
 9452SOL    HW129255   2.258   4.152   1.503
 9452SOL    HW229256   2.236   4.301   1.438
 9453SOL     OW29257   3.228   5.219   2.497
 9453SOL    HW129258   3.199   5.261   2.411
 9453SOL    HW229259   3.312   5.167   2.482
 9454SOL     OW29260   2.160   3.001   5.372
 9454SOL    HW129261   2.069   3.036   5.394
 9454SOL    HW229262   2.196   3.050   5.292
 9455SOL     OW29263   3.573   1.661   2.111
 9455SOL    HW129264   3.547   1.712   2.029
 9455SOL    HW229265   3.570   1.722   2.191
 9456SOL     OW29266   0.883   3.160   1.237
 9456SOL    HW129267   0.877   3.101   1.318
 9456SOL    HW229268   0.917   3.250   1.264
 9457SOL     OW29269   0.510   3.491   0.972
 9457SOL    HW129270   0.531   3.583   1.005
 9457SOL    HW229271   0.594   3.438   0.962
 9458SOL     OW29272   6.883   5.820   4.997
 9458SOL    HW129273   6.811   5.763   5.036
 9458SOL    HW229274   6.969   5.803   5.045
 9459SOL     OW29275   5.997   5.707   1.972
 9459SOL    HW129276   5.915   5.673   1.927
 9459SOL    HW229277   6.070   5.639   1.964
 9460SOL     OW29278   1.161   2.520   5.545
 9460SOL    HW129279   1.217   2.532   5.627
 9460SOL    HW229280   1.093   2.449   5.561
 9461SOL     OW29281   1.119   1.190   3.971
 9461SOL    HW129282   1.081   1.098   3.973
 9461SOL    HW229283   1.157   1.213   4.061
 9462SOL     OW29284   0.728   3.269   2.419
 9462SOL    HW129285   0.827   3.271   2.434
 9462SOL    HW229286   0.704   3.330   2.344
 9463SOL     OW29287   5.497   1.390   0.175
 9463SOL    HW129288   5.428   1.375   0.104
 9463SOL    HW229289   5.554   1.468   0.150
 9464SOL     OW29290   5.812   0.503   6.107
 9464SOL    HW129291   5.912   0.502   6.103
 9464SOL    HW229292   5.780   0.597   6.102
 9465SOL     OW29293   6.231   1.151   3.955
 9465SOL    HW129294   6.273   1.072   4.000
 9465SOL    HW229295   6.220   1.225   4.022
 9466SOL     OW29296   3.114   2.487   6.405
 9466SOL    HW129297   3.027   2.496   6.454
 9466SOL    HW229298   3.173   2.564   6.429
 9467SOL     OW29299   2.162   3.230   1.891
 9467SOL    HW129300   2.175   3.326   1.915
 9467SOL    HW229301   2.105   3.185   1.960
 9468SOL     OW29302   0.024   3.052   6.055
 9468SOL    HW129303   0.009   3.121   6.126
 9468SOL    HW229304   0.013   3.094   5.965
 9469SOL     OW29305   6.350   5.002   1.843
 9469SOL    HW129306   6.322   4.944   1.767
 9469SOL    HW229307   6.436   4.968   1.881
 9470SOL     OW29308   5.183   3.397   0.914
 9470SOL    HW129309   5.084   3.401   0.904
 9470SOL    HW229310   5.217   3.484   0.950
 9471SOL     OW29311   0.338   2.038   5.670
 9471SOL    HW129312   0.360   2.078   5.759
 9471SOL    HW229313   0.278   1.959   5.682
 9472SOL     OW29314   6.232   3.899   3.931
 9472SOL    HW129315   6.247   3.821   3.991
 9472SOL    HW229316   6.214   3.981   3.986
 9473SOL     OW29317   3.011   5.127   5.367
 9473SOL    HW129318   3.050   5.216   5.390
 9473SOL    HW229319   3.084   5.059   5.362
 9474SOL     OW29320   4.489   5.141   2.356
 9474SOL    HW129321   4.526   5.058   2.316
 9474SOL    HW229322   4.464   5.205   2.283
 9475SOL     OW29323   2.361   3.596   1.459
 9475SOL    HW129324   2.415   3.675   1.488
 9475SOL    HW229325   2.320   3.615   1.370
 9476SOL     OW29326   3.526   3.472   5.607
 9476SOL    HW129327   3.504   3.497   5.512
 9476SOL    HW229328   3.625   3.464   5.617
 9477SOL     OW29329   1.434   2.624   1.446
 9477SOL    HW129330   1.361   2.659   1.505
 9477SOL    HW229331   1.508   2.692   1.442
 9478SOL     OW29332   5.677   4.648   5.418
 9478SOL    HW129333   5.738   4.612   5.489
 9478SOL    HW229334   5.635   4.572   5.368
 9479SOL     OW29335   6.074   5.839   6.301
 9479SOL    HW129336   6.056   5.764   6.237
 9479SOL    HW229337   6.154   5.891   6.271
 9480SOL     OW29338   5.635   5.026   6.919
 9480SOL    HW129339   5.563   5.057   6.856
 9480SOL    HW229340   5.725   5.043   6.878
 9481SOL     OW29341   0.181   3.683   2.199
 9481SOL    HW129342   0.146   3.690   2.293
 9481SOL    HW229343   0.141   3.755   2.143
 9482SOL     OW29344   4.274   1.050   1.997
 9482SOL    HW129345   4.306   0.978   2.059
 9482SOL    HW229346   4.194   1.095   2.037
 9483SOL     OW29347   1.599   1.967   7.009
 9483SOL    HW129348   1.658   2.039   0.019
 9483SOL    HW229349   1.571   1.991   6.916
 9484SOL     OW29350   6.920   1.483   3.908
 9484SOL    HW129351   7.010   1.472   3.950
 9484SOL    HW229352   6.868   1.552   3.958
 9485SOL     OW29353   0.870   0.594   2.581
 9485SOL    HW129354   0.917   0.682   2.576
 9485SOL    HW229355   0.933   0.524   2.615
 9486SOL     OW29356   3.053   6.027   1.726
 9486SOL    HW129357   3.113   5.962   1.772
 9486SOL    HW229358   2.960   6.018   1.762
 9487SOL     OW29359   2.895   3.507   4.065
 9487SOL    HW129360   2.937   3.453   4.138
 9487SOL    HW229361   2.796   3.494   4.067
 9488SOL     OW29362   1.472   6.530   1.318
 9488SOL    HW129363   1.499   6.626   1.316
 9488SOL    HW229364   1.378   6.521   1.284
 9489SOL     OW29365   3.833   5.035   0.435
 9489SOL    HW129366   3.914   4.978   0.453
 9489SOL    HW229367   3.861   5.130   0.425
 9490SOL     OW29368   4.599   1.440   1.480
 9490SOL    HW129369   4.628   1.374   1.550
 9490SOL    HW229370   4.598   1.396   1.391
 9491SOL     OW29371   5.600   4.706   6.524
 9491SOL    HW129372   5.520   4.767   6.523
 9491SOL    HW229373   5.627   4.686   6.430
 9492SOL     OW29374   3.074   3.967   1.730
 9492SOL    HW129375   3.171   3.986   1.711
 9492SOL    HW229376   3.063   3.940   1.825
 9493SOL     OW29377   4.894   6.511   3.182
 9493SOL    HW129378   4.799   6.488   3.164
 9493SOL    HW229379   4.903   6.546   3.276
 9494SOL     OW29380   4.189   3.384   5.436
 9494SOL    HW129381   4.238   3.359   5.519
 9494SOL    HW229382   4.107   3.435   5.459
 9495SOL     OW29383   6.307   2.305   5.343
 9495SOL    HW129384   6.315   2.361   5.260
 9495SOL    HW229385   6.229   2.337   5.397
 9496SOL     OW29386   5.721   4.199   0.174
 9496SOL    HW129387   5.810   4.216   0.131
 9496SOL    HW229388   5.680   4.286   0.202
 9497SOL     OW29389   5.609   5.880   6.446
 9497SOL    HW129390   5.614   5.855   6.543
 9497SOL    HW229391   5.526   5.932   6.429
 9498SOL     OW29392   3.581   0.694   6.154
 9498SOL    HW129393   3.515   0.645   6.096
 9498SOL    HW229394   3.584   0.790   6.127
 9499SOL     OW29395   3.818   4.353   5.226
 9499SOL    HW129396   3.907   4.383   5.190
 9499SOL    HW229397   3.803   4.257   5.200
 9500SOL     OW29398   5.118   6.072   1.650
 9500SOL    HW129399   5.202   6.026   1.679
 9500SOL    HW229400   5.139   6.132   1.573
 9501SOL     OW29401   3.060   1.405   4.900
 9501SOL    HW129402   3.111   1.332   4.946
 9501SOL    HW229403   2.984   1.366   4.848
 9502SOL     OW29404   6.203   2.755   5.758
 9502SOL    HW129405   6.254   2.841   5.754
 9502SOL    HW229406   6.107   2.775   5.777
 9503SOL     OW29407   1.192   6.748   1.304
 9503SOL    HW129408   1.250   6.742   1.222
 9503SOL    HW229409   1.115   6.685   1.295
 9504SOL     OW29410   0.502   2.969   6.538
 9504SOL    HW129411   0.538   3.031   6.607
 9504SOL    HW229412   0.402   2.976   6.535
 9505SOL     OW29413   5.814   2.889   3.142
 9505SOL    HW129414   5.878   2.869   3.068
 9505SOL    HW229415   5.771   2.805   3.173
 9506SOL     OW29416   6.425   3.954   0.482
 9506SOL    HW129417   6.407   3.856   0.475
 9506SOL    HW229418   6.523   3.969   0.491
 9507SOL     OW29419   0.979   1.460   3.498
 9507SOL    HW129420   1.073   1.460   3.533
 9507SOL    HW229421   0.918   1.421   3.566
 9508SOL     OW29422   6.001   2.069   0.833
 9508SOL    HW129423   5.927   2.019   0.879
 9508SOL    HW229424   6.040   2.013   0.761
 9509SOL     OW29425   2.397   6.079   5.736
 9509SOL    HW129426   2.313   6.103   5.783
 9509SOL    HW229427   2.443   6.005   5.786
 9510SOL     OW29428   6.501   4.706   3.581
 9510SOL    HW129429   6.411   4.722   3.542
 9510SOL    HW229430   6.510   4.757   3.667
 9511SOL     OW29431   0.645   1.617   1.016
 9511SOL    HW129432   0.655   1.688   0.946
 9511SOL    HW229433   0.703   1.640   1.095
 9512SOL     OW29434   0.990   2.340   3.893
 9512SOL    HW129435   1.050   2.391   3.956
 9512SOL    HW229436   1.037   2.256   3.864
 9513SOL     OW29437   2.192   4.211   4.206
 9513SOL    HW129438   2.268   4.229   4.268
 9513SOL    HW229439   2.209   4.127   4.155
 9514SOL     OW29440   2.363   2.627   6.794
 9514SOL    HW129441   2.277   2.620   6.744
 9514SOL    HW229442   2.349   2.680   6.877
 9515SOL     OW29443   2.085   5.445   6.590
 9515SOL    HW129444   2.022   5.467   6.515
 9515SOL    HW229445   2.179   5.458   6.559
 9516SOL     OW29446   4.891   3.754   4.259
 9516SOL    HW129447   4.864   3.661   4.232
 9516SOL    HW229448   4.861   3.819   4.189
 9517SOL     OW29449   0.724   5.501   2.449
 9517SOL    HW129450   0.661   5.427   2.475
 9517SOL    HW229451   0.715   5.577   2.512
 9518SOL     OW29452   1.133   2.549   6.232
 9518SOL    HW129453   1.075   2.553   6.313
 9518SOL    HW229454   1.157   2.453   6.213
 9519SOL     OW29455   3.508   3.694   3.148
 9519SOL    HW129456   3.446   3.678   3.070
 9519SOL    HW229457   3.485   3.630   3.221
 9520SOL     OW29458   6.475   0.113   5.598
 9520SOL    HW129459   6.381   0.141   5.579
 9520SOL    HW229460   6.512   0.063   5.520
 9521SOL     OW29461   3.462   0.575   1.021
 9521SOL    HW129462   3.452   0.493   0.964
 9521SOL    HW229463   3.371   0.606   1.050
 9522SOL     OW29464   3.470   6.189   2.167
 9522SOL    HW129465   3.502   6.273   2.210
 9522SOL    HW229466   3.461   6.203   2.068
 9523SOL     OW29467   2.583   5.058   3.886
 9523SOL    HW129468   2.586   5.045   3.787
 9523SOL    HW229469   2.511   5.002   3.925
 9524SOL     OW29470   1.621   4.500   1.564
 9524SOL    HW129471   1.609   4.544   1.475
 9524SOL    HW229472   1.568   4.415   1.568
 9525SOL     OW29473   1.973   3.143   5.674
 9525SOL    HW129474   2.060   3.184   5.701
 9525SOL    HW229475   1.961   3.151   5.576
 9526SOL     OW29476   5.214   4.340   6.915
 9526SOL    HW129477   5.314   4.341   6.922
 9526SOL    HW229478   5.187   4.300   6.828
 9527SOL     OW29479   4.026   6.758   3.132
 9527SOL    HW129480   3.973   6.687   3.178
 9527SOL    HW229481   4.064   6.821   3.201
 9528SOL     OW29482   5.508   1.841   1.074
 9528SOL    HW129483   5.537   1.754   1.033
 9528SOL    HW229484   5.584   1.879   1.127
 9529SOL     OW29485   6.444   1.486   1.512
 9529SOL    HW129486   6.520   1.530   1.562
 9529SOL    HW229487   6.357   1.527   1.542
 9530SOL     OW29488   0.775   5.606   3.934
 9530SOL    HW129489   0.761   5.704   3.940
 9530SOL    HW229490   0.695   5.562   3.894
 9531SOL     OW29491   3.813   5.372   2.554
 9531SOL    HW129492   3.766   5.358   2.467
 9531SOL    HW229493   3.808   5.468   2.580
 9532SOL     OW29494   6.119   5.265   2.236
 9532SOL    HW129495   6.174   5.349   2.240
 9532SOL    HW229496   6.022   5.288   2.234
 9533SOL     OW29497   2.064   4.824   3.181
 9533SOL    HW129498   2.049   4.808   3.279
 9533SOL    HW229499   2.163   4.831   3.164
 9534SOL     OW29500   5.748   4.521   4.866
 9534SOL    HW129501   5.794   4.475   4.942
 9534SOL    HW229502   5.814   4.579   4.818
 9535SOL     OW29503   0.924   0.893   5.704
 9535SOL    HW129504   0.952   0.986   5.680
 9535SOL    HW229505   0.825   0.886   5.703
 9536SOL     OW29506   4.112   3.675   4.835
 9536SOL    HW129507   4.200   3.700   4.874
 9536SOL    HW229508   4.097   3.577   4.844
 9537SOL     OW29509   1.452   1.326   3.422
 9537SOL    HW129510   1.438   1.284   3.333
 9537SOL    HW229511   1.391   1.282   3.489
 9538SOL     OW29512   3.712   0.857   4.848
 9538SOL    HW129513   3.772   0.920   4.799
 9538SOL    HW229514   3.661   0.906   4.918
 9539SOL     OW29515   3.915   2.984   2.850
 9539SOL    HW129516   3.973   3.065   2.863
 9539SOL    HW229517   3.873   2.988   2.759
 9540SOL     OW29518   4.697   4.796   4.196
 9540SOL    HW129519   4.776   4.743   4.226
 9540SOL    HW229520   4.698   4.886   4.239
 9541SOL     OW29521   1.763   5.773   5.673
 9541SOL    HW129522   1.816   5.784   5.757
 9541SOL    HW229523   1.815   5.809   5.596
 9542SOL     OW29524   6.165   4.131   4.041
 9542SOL    HW129525   6.234   4.139   4.113
 9542SOL    HW229526   6.151   4.221   3.999
 9543SOL     OW29527   2.382   0.391   6.016
 9543SOL    HW129528   2.478   0.386   6.043
 9543SOL    HW229529   2.340   0.473   6.054
 9544SOL     OW29530   5.575   3.890   4.099
 9544SOL    HW129531   5.524   3.962   4.053
 9544SOL    HW229532   5.529   3.866   4.184
 9545SOL     OW29533   1.663   4.780   2.021
 9545SOL    HW129534   1.720   4.860   2.001
 9545SOL    HW229535   1.710   4.697   1.993
 9546SOL     OW29536   2.844   1.986   6.445
 9546SOL    HW129537   2.889   2.008   6.358
 9546SOL    HW229538   2.761   1.933   6.426
 9547SOL     OW29539   3.659   6.194   3.733
 9547SOL    HW129540   3.581   6.239   3.689
 9547SOL    HW229541   3.741   6.207   3.678
 9548SOL     OW29542   1.099   4.607   0.106
 9548SOL    HW129543   1.180   4.656   0.139
 9548SOL    HW229544   1.071   4.540   0.175
 9549SOL     OW29545   4.137   2.538   1.215
 9549SOL    HW129546   4.116   2.633   1.237
 9549SOL    HW229547   4.141   2.484   1.299
 9550SOL     OW29548   5.273   2.779   1.568
 9550SOL    HW129549   5.294   2.865   1.615
 9550SOL    HW229550   5.194   2.736   1.610
 9551SOL     OW29551   0.067   2.468   6.785
 9551SOL    HW129552   7.004   2.428   6.798
 9551SOL    HW229553   0.089   2.470   6.688
 9552SOL     OW29554   2.989   1.710   6.880
 9552SOL    HW129555   3.080   1.720   6.841
 9552SOL    HW229556   2.921   1.743   6.814
 9553SOL     OW29557   5.594   1.743   6.523
 9553SOL    HW129558   5.602   1.828   6.575
 9553SOL    HW229559   5.582   1.666   6.586
 9554SOL     OW29560   2.374   6.853   4.122
 9554SOL    HW129561   2.344   6.822   4.032
 9554SOL    HW229562   2.443   6.925   4.112
 9555SOL     OW29563   6.526   0.554   3.916
 9555SOL    HW129564   6.496   0.464   3.948
 9555SOL    HW229565   6.613   0.578   3.960
 9556SOL     OW29566   1.920   4.357   0.455
 9556SOL    HW129567   1.949   4.300   0.379
 9556SOL    HW229568   1.996   4.368   0.520
 9557SOL     OW29569   4.853   0.366   1.706
 9557SOL    HW129570   4.758   0.361   1.676
 9557SOL    HW229571   4.858   0.413   1.795
 9558SOL     OW29572   5.092   6.613   6.392
 9558SOL    HW129573   5.070   6.641   6.485
 9558SOL    HW229574   5.150   6.683   6.350
 9559SOL     OW29575   1.786   4.108   0.057
 9559SOL    HW129576   1.711   4.153   0.008
 9559SOL    HW229577   1.753   4.021   0.095
 9560SOL     OW29578   3.239   6.463   2.185
 9560SOL    HW129579   3.238   6.413   2.098
 9560SOL    HW229580   3.204   6.403   2.257
 9561SOL     OW29581   1.121   1.054   0.720
 9561SOL    HW129582   1.101   1.105   0.637
 9561SOL    HW229583   1.072   0.967   0.719
 9562SOL     OW29584   3.100   5.449   4.010
 9562SOL    HW129585   3.147   5.535   4.030
 9562SOL    HW229586   3.118   5.384   4.084
 9563SOL     OW29587   0.876   6.005   1.171
 9563SOL    HW129588   0.964   6.020   1.127
 9563SOL    HW229589   0.868   5.908   1.197
 9564SOL     OW29590   1.588   6.790   0.627
 9564SOL    HW129591   1.511   6.726   0.621
 9564SOL    HW229592   1.587   6.851   0.548
 9565SOL     OW29593   3.372   1.447   4.314
 9565SOL    HW129594   3.283   1.403   4.311
 9565SOL    HW229595   3.407   1.460   4.221
 9566SOL     OW29596   2.436   7.001   0.622
 9566SOL    HW129597   2.531   0.003   0.611
 9566SOL    HW229598   2.432   6.926   0.687
 9567SOL     OW29599   6.752   4.781   1.119
 9567SOL    HW129600   6.843   4.739   1.113
 9567SOL    HW229601   6.724   4.786   1.215
 9568SOL     OW29602   4.026   1.472   6.548
 9568SOL    HW129603   4.058   1.511   6.635
 9568SOL    HW229604   4.102   1.470   6.483
 9569SOL     OW29605   5.390   0.542   1.867
 9569SOL    HW129606   5.303   0.588   1.855
 9569SOL    HW229607   5.407   0.481   1.789
 9570SOL     OW29608   6.929   3.487   1.237
 9570SOL    HW129609   6.941   3.460   1.333
 9570SOL    HW229610   6.951   3.409   1.178
 9571SOL     OW29611   2.860   2.342   6.837
 9571SOL    HW129612   2.851   2.246   6.861
 9571SOL    HW229613   2.789   2.395   6.885
 9572SOL     OW29614   2.172   3.763   3.551
 9572SOL    HW129615   2.133   3.675   3.580
 9572SOL    HW229616   2.257   3.780   3.601
 9573SOL     OW29617   6.796   0.806   4.441
 9573SOL    HW129618   6.758   0.762   4.522
 9573SOL    HW229619   6.762   0.760   4.359
 9574SOL     OW29620   3.696   2.946   1.425
 9574SOL    HW129621   3.711   2.887   1.504
 9574SOL    HW229622   3.672   3.038   1.455
 9575SOL     OW29623   6.167   6.528   1.763
 9575SOL    HW129624   6.099   6.560   1.828
 9575SOL    HW229625   6.227   6.461   1.807
 9576SOL     OW29626   0.788   0.087   7.019
 9576SOL    HW129627   0.782   0.157   6.947
 9576SOL    HW229628   0.721   0.107   0.062
 9577SOL     OW29629   6.524   5.079   1.491
 9577SOL    HW129630   6.426   5.061   1.496
 9577SOL    HW229631   6.557   5.109   1.580
 9578SOL     OW29632   1.347   2.552   2.900
 9578SOL    HW129633   1.433   2.524   2.943
 9578SOL    HW229634   1.296   2.472   2.870
 9579SOL     OW29635   5.683   6.426   2.336
 9579SOL    HW129636   5.657   6.428   2.240
 9579SOL    HW229637   5.773   6.383   2.346
 9580SOL     OW29638   4.782   4.987   1.870
 9580SOL    HW129639   4.802   5.035   1.785
 9580SOL    HW229640   4.808   4.891   1.861
 9581SOL     OW29641   6.098   1.213   0.085
 9581SOL    HW129642   6.137   1.189   7.024
 9581SOL    HW229643   6.130   1.148   0.154
 9582SOL     OW29644   4.226   5.752   4.199
 9582SOL    HW129645   4.260   5.843   4.174
 9582SOL    HW229646   4.267   5.723   4.285
 9583SOL     OW29647   3.479   4.638   1.624
 9583SOL    HW129648   3.547   4.665   1.692
 9583SOL    HW229649   3.445   4.546   1.645
 9584SOL     OW29650   1.889   4.269   4.530
 9584SOL    HW129651   1.951   4.192   4.549
 9584SOL    HW229652   1.922   4.321   4.452
 9585SOL     OW29653   5.123   5.887   1.385
 9585SOL    HW129654   5.166   5.977   1.374
 9585SOL    HW229655   5.176   5.818   1.335
 9586SOL     OW29656   4.576   5.413   1.679
 9586SOL    HW129657   4.510   5.479   1.644
 9586SOL    HW229658   4.570   5.329   1.626
 9587SOL     OW29659   2.647   6.486   1.537
 9587SOL    HW129660   2.711   6.424   1.581
 9587SOL    HW229661   2.697   6.564   1.499
 9588SOL     OW29662   6.619   5.794   0.886
 9588SOL    HW129663   6.554   5.759   0.954
 9588SOL    HW229664   6.617   5.735   0.806
 9589SOL     OW29665   1.531   3.952   6.477
 9589SOL    HW129666   1.454   3.907   6.433
 9589SOL    HW229667   1.497   4.015   6.547
 9590SOL     OW29668   4.990   1.462   2.023
 9590SOL    HW129669   5.036   1.477   2.110
 9590SOL    HW229670   5.056   1.467   1.948
 9591SOL     OW29671   3.139   0.182   6.427
 9591SOL    HW129672   3.134   0.082   6.420
 9591SOL    HW229673   3.054   0.222   6.394
 9592SOL     OW29674   2.479   4.763   6.661
 9592SOL    HW129675   2.570   4.739   6.628
 9592SOL    HW229676   2.413   4.694   6.632
 9593SOL     OW29677   1.377   2.194   5.260
 9593SOL    HW129678   1.454   2.149   5.306
 9593SOL    HW229679   1.386   2.182   5.161
 9594SOL     OW29680   1.088   5.676   4.158
 9594SOL    HW129681   1.123   5.740   4.227
 9594SOL    HW229682   1.153   5.602   4.145
 9595SOL     OW29683   0.368   3.000   4.098
 9595SOL    HW129684   0.299   2.928   4.087
 9595SOL    HW229685   0.358   3.042   4.188
 9596SOL     OW29686   0.238   6.264   1.024
 9596SOL    HW129687   0.336   6.255   1.004
 9596SOL    HW229688   0.224   6.267   1.123
 9597SOL     OW29689   1.063   3.908   3.043
 9597SOL    HW129690   0.982   3.885   3.097
 9597SOL    HW229691   1.093   4.001   3.065
 9598SOL     OW29692   1.492   3.567   2.964
 9598SOL    HW129693   1.425   3.544   2.893
 9598SOL    HW229694   1.552   3.639   2.930
 9599SOL     OW29695   3.331   0.152   3.578
 9599SOL    HW129696   3.371   0.165   3.669
 9599SOL    HW229697   3.353   0.061   3.545
 9600SOL     OW29698   3.235   0.685   1.108
 9600SOL    HW129699   3.166   0.679   1.035
 9600SOL    HW229700   3.217   0.764   1.165
 9601SOL     OW29701   6.793   4.265   1.389
 9601SOL    HW129702   6.737   4.337   1.348
 9601SOL    HW229703   6.760   4.176   1.359
 9602SOL     OW29704   5.052   3.830   5.402
 9602SOL    HW129705   5.048   3.831   5.502
 9602SOL    HW229706   4.959   3.828   5.366
 9603SOL     OW29707   5.573   6.631   5.642
 9603SOL    HW129708   5.561   6.727   5.668
 9603SOL    HW229709   5.668   6.616   5.616
 9604SOL     OW29710   5.417   0.030   0.655
 9604SOL    HW129711   5.335   0.085   0.669
 9604SOL    HW229712   5.468   0.023   0.740
 9605SOL     OW29713   6.585   5.537   3.603
 9605SOL    HW129714   6.546   5.620   3.564
 9605SOL    HW229715   6.680   5.555   3.631
 9606SOL     OW29716   1.318   1.238   6.385
 9606SOL    HW129717   1.382   1.271   6.455
 9606SOL    HW229718   1.266   1.160   6.422
 9607SOL     OW29719   3.562   2.225   6.207
 9607SOL    HW129720   3.467   2.254   6.220
 9607SOL    HW229721   3.622   2.281   6.262
 9608SOL     OW29722   6.505   4.286   2.885
 9608SOL    HW129723   6.451   4.221   2.938
 9608SOL    HW229724   6.485   4.276   2.788
 9609SOL     OW29725   4.054   2.487   6.380
 9609SOL    HW129726   4.084   2.413   6.441
 9609SOL    HW229727   3.954   2.487   6.375
 9610SOL     OW29728   1.704   3.793   2.899
 9610SOL    HW129729   1.674   3.878   2.943
 9610SOL    HW229730   1.770   3.747   2.959
 9611SOL     OW29731   1.898   0.091   1.200
 9611SOL    HW129732   1.935   0.102   1.292
 9611SOL    HW229733   1.807   0.132   1.196
 9612SOL     OW29734   0.719   2.901   2.733
 9612SOL    HW129735   0.672   2.818   2.762
 9612SOL    HW229736   0.673   2.939   2.653
 9613SOL     OW29737   6.360   6.144   3.678
 9613SOL    HW129738   6.410   6.203   3.614
 9613SOL    HW229739   6.402   6.053   3.679
 9614SOL     OW29740   4.774   2.036   2.988
 9614SOL    HW129741   4.791   1.972   2.914
 9614SOL    HW229742   4.779   1.988   3.076
 9615SOL     OW29743   2.353   2.585   1.088
 9615SOL    HW129744   2.368   2.566   1.185
 9615SOL    HW229745   2.347   2.684   1.074
 9616SOL     OW29746   3.732   2.994   0.781
 9616SOL    HW129747   3.636   3.012   0.798
 9616SOL    HW229748   3.742   2.904   0.738
 9617SOL     OW29749   2.231   2.924   3.856
 9617SOL    HW129750   2.287   2.877   3.787
 9617SOL    HW229751   2.214   3.018   3.827
 9618SOL     OW29752   3.054   1.082   0.599
 9618SOL    HW129753   3.113   1.034   0.535
 9618SOL    HW229754   2.963   1.040   0.600
 9619SOL     OW29755   2.081   0.980   5.529
 9619SOL    HW129756   2.025   1.046   5.578
 9619SOL    HW229757   2.164   0.962   5.582
 9620SOL     OW29758   4.868   0.010   4.657
 9620SOL    HW129759   4.808   6.958   4.662
 9620SOL    HW229760   4.816   0.092   4.681
 9621SOL     OW29761   1.743   2.770   2.301
 9621SOL    HW129762   1.653   2.810   2.317
 9621SOL    HW229763   1.764   2.776   2.203
 9622SOL     OW29764   5.944   1.056   1.017
 9622SOL    HW129765   6.022   1.084   0.962
 9622SOL    HW229766   5.959   1.082   1.112
 9623SOL     OW29767   3.455   3.071   6.204
 9623SOL    HW129768   3.481   3.075   6.300
 9623SOL    HW229769   3.504   2.997   6.159
 9624SOL     OW29770   5.739   3.295   3.304
 9624SOL    HW129771   5.694   3.289   3.393
 9624SOL    HW229772   5.673   3.328   3.236
 9625SOL     OW29773   5.927   6.287   0.391
 9625SOL    HW129774   6.014   6.330   0.369
 9625SOL    HW229775   5.894   6.236   0.311
 9626SOL     OW29776   3.830   5.414   0.114
 9626SOL    HW129777   3.876   5.483   0.058
 9626SOL    HW229778   3.812   5.451   0.205
 9627SOL     OW29779   1.347   6.184   6.397
 9627SOL    HW129780   1.325   6.133   6.314
 9627SOL    HW229781   1.429   6.146   6.439
 9628SOL     OW29782   4.694   5.968   1.096
 9628SOL    HW129783   4.655   5.918   1.174
 9628SOL    HW229784   4.646   6.055   1.085
 9629SOL     OW29785   2.860   0.355   1.135
 9629SOL    HW129786   2.850   0.296   1.055
 9629SOL    HW229787   2.951   0.395   1.135
 9630SOL     OW29788   6.595   0.352   5.728
 9630SOL    HW129789   6.559   0.406   5.804
 9630SOL    HW229790   6.613   0.259   5.759
 9631SOL     OW29791   6.379   6.953   6.557
 9631SOL    HW129792   6.386   6.873   6.617
 9631SOL    HW229793   6.471   6.980   6.527
 9632SOL     OW29794   1.633   6.556   1.861
 9632SOL    HW129795   1.561   6.594   1.918
 9632SOL    HW229796   1.634   6.456   1.870
 9633SOL     OW29797   6.329   5.333   6.730
 9633SOL    HW129798   6.263   5.407   6.745
 9633SOL    HW229799   6.314   5.261   6.797
 9634SOL     OW29800   1.324   6.597   4.790
 9634SOL    HW129801   1.295   6.514   4.741
 9634SOL    HW229802   1.277   6.601   4.879
 9635SOL     OW29803   2.475   5.301   4.603
 9635SOL    HW129804   2.437   5.252   4.682
 9635SOL    HW229805   2.518   5.236   4.541
 9636SOL     OW29806   4.533   1.344   5.135
 9636SOL    HW129807   4.484   1.419   5.180
 9636SOL    HW229808   4.573   1.377   5.049
 9637SOL     OW29809   1.709   1.768   6.680
 9637SOL    HW129810   1.614   1.775   6.711
 9637SOL    HW229811   1.753   1.857   6.686
 9638SOL     OW29812   6.647   3.166   5.392
 9638SOL    HW129813   6.625   3.255   5.433
 9638SOL    HW229814   6.618   3.093   5.455
 9639SOL     OW29815   4.216   1.341   2.618
 9639SOL    HW129816   4.197   1.275   2.545
 9639SOL    HW229817   4.133   1.393   2.638
 9640SOL     OW29818   1.938   2.847   2.754
 9640SOL    HW129819   1.912   2.805   2.841
 9640SOL    HW229820   2.038   2.856   2.750
 9641SOL     OW29821   5.879   6.478   0.094
 9641SOL    HW129822   5.859   6.564   0.046
 9641SOL    HW229823   5.866   6.401   0.030
 9642SOL     OW29824   2.815   0.747   4.497
 9642SOL    HW129825   2.817   0.729   4.596
 9642SOL    HW229826   2.722   0.730   4.463
 9643SOL     OW29827   4.893   5.122   3.613
 9643SOL    HW129828   4.878   5.089   3.706
 9643SOL    HW229829   4.969   5.186   3.612
 9644SOL     OW29830   1.740   2.408   6.277
 9644SOL    HW129831   1.835   2.432   6.298
 9644SOL    HW229832   1.727   2.310   6.293
 9645SOL     OW29833   2.836   5.307   4.865
 9645SOL    HW129834   2.905   5.294   4.936
 9645SOL    HW229835   2.815   5.404   4.857
 9646SOL     OW29836   3.957   5.052   2.753
 9646SOL    HW129837   3.942   4.958   2.783
 9646SOL    HW229838   3.870   5.099   2.742
 9647SOL     OW29839   6.642   3.431   0.758
 9647SOL    HW129840   6.722   3.477   0.720
 9647SOL    HW229841   6.629   3.460   0.852
 9648SOL     OW29842   4.869   3.122   1.032
 9648SOL    HW129843   4.791   3.141   0.972
 9648SOL    HW229844   4.847   3.149   1.126
 9649SOL     OW29845   2.155   5.958   0.392
 9649SOL    HW129846   2.058   5.980   0.384
 9649SOL    HW229847   2.174   5.919   0.482
 9650SOL     OW29848   6.919   5.922   2.004
 9650SOL    HW129849   7.008   5.964   1.984
 9650SOL    HW229850   6.917   5.829   1.968
 9651SOL     OW29851   0.969   1.128   6.820
 9651SOL    HW129852   1.035   1.170   6.758
 9651SOL    HW229853   0.912   1.199   6.862
 9652SOL     OW29854   0.226   5.211   3.076
 9652SOL    HW129855   0.311   5.265   3.070
 9652SOL    HW229856   0.229   5.154   3.157
 9653SOL     OW29857   6.109   5.022   4.654
 9653SOL    HW129858   6.161   4.991   4.733
 9653SOL    HW229859   6.012   5.029   4.678
 9654SOL     OW29860   2.516   2.922   1.576
 9654SOL    HW129861   2.571   2.851   1.619
 9654SOL    HW229862   2.518   2.910   1.476
 9655SOL     OW29863   6.915   2.088   0.200
 9655SOL    HW129864   6.855   2.079   0.279
 9655SOL    HW229865   6.899   2.012   0.137
 9656SOL     OW29866   3.381   0.344   3.129
 9656SOL    HW129867   3.456   0.395   3.086
 9656SOL    HW229868   3.304   0.405   3.145
 9657SOL     OW29869   6.465   0.729   4.769
 9657SOL    HW129870   6.426   0.637   4.763
 9657SOL    HW229871   6.426   0.777   4.848
 9658SOL     OW29872   6.452   2.611   1.844
 9658SOL    HW129873   6.471   2.517   1.871
 9658SOL    HW229874   6.362   2.638   1.881
 9659SOL     OW29875   0.555   4.413   6.796
 9659SOL    HW129876   0.467   4.461   6.802
 9659SOL    HW229877   0.565   4.351   6.873
 9660SOL     OW29878   0.569   5.335   0.335
 9660SOL    HW129879   0.592   5.294   0.247
 9660SOL    HW229880   0.604   5.429   0.338
 9661SOL     OW29881   4.188   6.341   0.829
 9661SOL    HW129882   4.127   6.410   0.792
 9661SOL    HW229883   4.188   6.347   0.929
 9662SOL     OW29884   6.446   1.305   4.626
 9662SOL    HW129885   6.371   1.371   4.629
 9662SOL    HW229886   6.533   1.353   4.638
 9663SOL     OW29887   2.514   5.730   3.040
 9663SOL    HW129888   2.484   5.673   2.964
 9663SOL    HW229889   2.513   5.677   3.124
 9664SOL     OW29890   3.707   6.130   1.921
 9664SOL    HW129891   3.706   6.031   1.937
 9664SOL    HW229892   3.613   6.164   1.925
 9665SOL     OW29893   5.462   4.173   4.468
 9665SOL    HW129894   5.495   4.263   4.498
 9665SOL    HW229895   5.369   4.159   4.501
 9666SOL     OW29896   5.848   4.616   3.612
 9666SOL    HW129897   5.867   4.710   3.640
 9666SOL    HW229898   5.757   4.611   3.571
 9667SOL     OW29899   4.068   3.683   3.934
 9667SOL    HW129900   3.971   3.657   3.934
 9667SOL    HW229901   4.108   3.660   3.846
 9668SOL     OW29902   0.352   0.891   5.507
 9668SOL    HW129903   0.284   0.856   5.571
 9668SOL    HW229904   0.392   0.814   5.456
 9669SOL     OW29905   1.478   5.817   0.710
 9669SOL    HW129906   1.424   5.748   0.758
 9669SOL    HW229907   1.422   5.860   0.639
 9670SOL     OW29908   5.047   4.957   6.832
 9670SOL    HW129909   4.960   5.003   6.848
 9670SOL    HW229910   5.049   4.923   6.738
 9671SOL     OW29911   6.842   5.992   5.639
 9671SOL    HW129912   6.793   5.914   5.601
 9671SOL    HW229913   6.896   5.961   5.718
 9672SOL     OW29914   0.848   6.255   4.629
 9672SOL    HW129915   0.882   6.304   4.549
 9672SOL    HW229916   0.784   6.314   4.679
 9673SOL     OW29917   3.183   4.338   6.933
 9673SOL    HW129918   3.176   4.292   6.844
 9673SOL    HW229919   3.258   4.403   6.931
 9674SOL     OW29920   3.075   6.018   2.525
 9674SOL    HW129921   3.062   5.924   2.555
 9674SOL    HW229922   3.173   6.039   2.522
 9675SOL     OW29923   6.457   1.876   1.786
 9675SOL    HW129924   6.455   1.778   1.805
 9675SOL    HW229925   6.426   1.926   1.867
 9676SOL     OW29926   0.165   3.552   4.803
 9676SOL    HW129927   0.260   3.566   4.773
 9676SOL    HW229928   0.158   3.466   4.853
 9677SOL     OW29929   1.945   3.252   6.098
 9677SOL    HW129930   1.881   3.253   6.175
 9677SOL    HW229931   1.913   3.189   6.028
 9678SOL     OW29932   3.169   3.378   3.260
 9678SOL    HW129933   3.166   3.285   3.298
 9678SOL    HW229934   3.120   3.380   3.173
 9679SOL     OW29935   1.393   2.787   1.831
 9679SOL    HW129936   1.470   2.849   1.820
 9679SOL    HW229937   1.346   2.807   1.918
 9680SOL     OW29938   5.784   5.804   3.741
 9680SOL    HW129939   5.724   5.747   3.797
 9680SOL    HW229940   5.781   5.773   3.646
 9681SOL     OW29941   2.437   0.666   2.702
 9681SOL    HW129942   2.467   0.590   2.645
 9681SOL    HW229943   2.481   0.751   2.673
 9682SOL     OW29944   5.936   4.599   3.329
 9682SOL    HW129945   5.908   4.656   3.252
 9682SOL    HW229946   5.884   4.624   3.411
 9683SOL     OW29947   4.705   6.233   6.787
 9683SOL    HW129948   4.746   6.238   6.696
 9683SOL    HW229949   4.644   6.154   6.792
 9684SOL     OW29950   0.936   3.757   5.024
 9684SOL    HW129951   0.957   3.659   5.030
 9684SOL    HW229952   1.021   3.809   5.016
 9685SOL     OW29953   0.962   3.132   0.507
 9685SOL    HW129954   0.867   3.152   0.482
 9685SOL    HW229955   1.023   3.164   0.436
 9686SOL     OW29956   6.464   0.837   1.340
 9686SOL    HW129957   6.404   0.864   1.264
 9686SOL    HW229958   6.465   0.908   1.409
 9687SOL     OW29959   2.923   0.240   4.034
 9687SOL    HW129960   3.003   0.181   4.023
 9687SOL    HW229961   2.891   0.269   3.943
 9688SOL     OW29962   6.897   1.322   2.944
 9688SOL    HW129963   6.860   1.415   2.941
 9688SOL    HW229964   6.853   1.271   3.018
 9689SOL     OW29965   2.332   6.408   6.290
 9689SOL    HW129966   2.332   6.347   6.369
 9689SOL    HW229967   2.332   6.354   6.206
 9690SOL     OW29968   6.487   4.980   1.188
 9690SOL    HW129969   6.486   4.949   1.092
 9690SOL    HW229970   6.491   4.901   1.248
 9691SOL     OW29971   1.904   4.892   2.429
 9691SOL    HW129972   1.915   4.954   2.507
 9691SOL    HW229973   1.991   4.847   2.409
 9692SOL     OW29974   2.701   5.524   1.625
 9692SOL    HW129975   2.691   5.529   1.525
 9692SOL    HW229976   2.750   5.605   1.657
 9693SOL     OW29977   6.345   6.394   1.980
 9693SOL    HW129978   6.254   6.356   1.998
 9693SOL    HW229979   6.412   6.320   1.983
 9694SOL     OW29980   1.423   2.712   6.471
 9694SOL    HW129981   1.349   2.654   6.505
 9694SOL    HW229982   1.428   2.796   6.525
 9695SOL     OW29983   6.844   4.294   1.648
 9695SOL    HW129984   6.798   4.377   1.678
 9695SOL    HW229985   6.824   4.278   1.551
 9696SOL     OW29986   4.017   3.207   1.449
 9696SOL    HW129987   3.983   3.218   1.542
 9696SOL    HW229988   4.113   3.178   1.452
 9697SOL     OW29989   0.901   5.862   0.399
 9697SOL    HW129990   0.971   5.879   0.328
 9697SOL    HW229991   0.828   5.930   0.390
 9698SOL     OW29992   5.736   2.090   4.986
 9698SOL    HW129993   5.637   2.103   4.979
 9698SOL    HW229994   5.766   2.024   4.917
 9699SOL     OW29995   1.834   3.210   0.042
 9699SOL    HW129996   1.808   3.305   0.056
 9699SOL    HW229997   1.882   3.175   0.122
 9700SOL     OW29998   3.372   3.766   4.904
 9700SOL    HW129999   3.367   3.698   4.830
 9700SOL    HW230000   3.286   3.817   4.907
 9701SOL     OW30001   4.583   5.563   4.770
 9701SOL    HW130002   4.593   5.491   4.839
 9701SOL    HW230003   4.670   5.574   4.722
 9702SOL     OW30004   4.704   1.036   0.629
 9702SOL    HW130005   4.608   1.038   0.658
 9702SOL    HW230006   4.731   0.942   0.611
 9703SOL     OW30007   2.876   5.833   4.318
 9703SOL    HW130008   2.859   5.745   4.273
 9703SOL    HW230009   2.819   5.840   4.399
 9704SOL     OW30010   3.640   0.068   3.186
 9704SOL    HW130011   3.542   0.064   3.169
 9704SOL    HW230012   3.666   0.160   3.213
 9705SOL     OW30013   3.444   4.404   0.629
 9705SOL    HW130014   3.521   4.381   0.570
 9705SOL    HW230015   3.369   4.442   0.574
 9706SOL     OW30016   5.400   2.859   2.936
 9706SOL    HW130017   5.474   2.909   2.889
 9706SOL    HW230018   5.434   2.771   2.967
 9707SOL     OW30019   2.855   5.393   2.368
 9707SOL    HW130020   2.846   5.391   2.268
 9707SOL    HW230021   2.793   5.462   2.406
 9708SOL     OW30022   2.275   1.292   3.529
 9708SOL    HW130023   2.350   1.235   3.497
 9708SOL    HW230024   2.209   1.235   3.578
 9709SOL     OW30025   1.758   5.937   3.157
 9709SOL    HW130026   1.761   6.023   3.209
 9709SOL    HW230027   1.797   5.952   3.066
 9710SOL     OW30028   0.638   0.690   3.357
 9710SOL    HW130029   0.562   0.753   3.345
 9710SOL    HW230030   0.679   0.704   3.447
 9711SOL     OW30031   1.225   3.730   5.299
 9711SOL    HW130032   1.290   3.716   5.373
 9711SOL    HW230033   1.143   3.775   5.333
 9712SOL     OW30034   5.042   1.889   3.818
 9712SOL    HW130035   5.132   1.893   3.861
 9712SOL    HW230036   5.027   1.972   3.764
 9713SOL     OW30037   7.001   5.137   2.939
 9713SOL    HW130038   0.023   5.204   2.993
 9713SOL    HW230039   6.903   5.147   2.955
 9714SOL     OW30040   2.044   2.527   1.315
 9714SOL    HW130041   2.078   2.437   1.286
 9714SOL    HW230042   2.074   2.545   1.409
 9715SOL     OW30043   4.853   5.916   4.799
 9715SOL    HW130044   4.875   5.983   4.870
 9715SOL    HW230045   4.784   5.852   4.833
 9716SOL     OW30046   4.481   2.063   6.252
 9716SOL    HW130047   4.498   1.969   6.223
 9716SOL    HW230048   4.429   2.064   6.337
 9717SOL     OW30049   5.935   5.367   4.109
 9717SOL    HW130050   5.923   5.296   4.179
 9717SOL    HW230051   5.847   5.411   4.092
 9718SOL     OW30052   4.307   3.328   1.356
 9718SOL    HW130053   4.399   3.302   1.327
 9718SOL    HW230054   4.302   3.328   1.456
 9719SOL     OW30055   0.370   1.973   0.000
 9719SOL    HW130056   0.331   2.058   0.036
 9719SOL    HW230057   0.430   1.932   0.070
 9720SOL     OW30058   6.764   0.518   1.878
 9720SOL    HW130059   6.759   0.614   1.849
 9720SOL    HW230060   6.755   0.459   1.798
 9721SOL     OW30061   6.546   3.808   2.352
 9721SOL    HW130062   6.448   3.792   2.354
 9721SOL    HW230063   6.566   3.886   2.292
 9722SOL     OW30064   0.758   0.773   3.954
 9722SOL    HW130065   0.740   0.871   3.952
 9722SOL    HW230066   0.672   0.724   3.944
 9723SOL     OW30067   0.502   1.082   3.666
 9723SOL    HW130068   0.449   0.998   3.656
 9723SOL    HW230069   0.439   1.160   3.678
 9724SOL     OW30070   3.714   2.442   1.314
 9724SOL    HW130071   3.750   2.438   1.407
 9724SOL    HW230072   3.714   2.350   1.274
 9725SOL     OW30073   4.297   3.250   5.651
 9725SOL    HW130074   4.334   3.159   5.670
 9725SOL    HW230075   4.220   3.268   5.712
 9726SOL     OW30076   4.798   6.431   4.797
 9726SOL    HW130077   4.772   6.341   4.761
 9726SOL    HW230078   4.868   6.419   4.868
 9727SOL     OW30079   1.567   2.957   5.865
 9727SOL    HW130080   1.495   2.947   5.797
 9727SOL    HW230081   1.527   2.960   5.956
 9728SOL     OW30082   2.579   5.984   6.942
 9728SOL    HW130083   2.553   5.954   0.006
 9728SOL    HW230084   2.509   5.955   6.877
 9729SOL     OW30085   2.807   5.187   2.953
 9729SOL    HW130086   2.732   5.121   2.966
 9729SOL    HW230087   2.886   5.140   2.914
 9730SOL     OW30088   6.526   2.768   2.961
 9730SOL    HW130089   6.516   2.770   3.061
 9730SOL    HW230090   6.488   2.851   2.922
 9731SOL     OW30091   3.567   4.864   0.950
 9731SOL    HW130092   3.587   4.796   0.879
 9731SOL    HW230093   3.582   4.956   0.913
 9732SOL     OW30094   6.571   6.199   2.776
 9732SOL    HW130095   6.534   6.289   2.795
 9732SOL    HW230096   6.632   6.171   2.850
 9733SOL     OW30097   4.850   4.580   5.373
 9733SOL    HW130098   4.791   4.509   5.412
 9733SOL    HW230099   4.903   4.543   5.298
 9734SOL     OW30100   5.265   2.478   4.409
 9734SOL    HW130101   5.348   2.448   4.363
 9734SOL    HW230102   5.248   2.575   4.389
 9735SOL     OW30103   1.854   4.765   1.453
 9735SOL    HW130104   1.861   4.692   1.521
 9735SOL    HW230105   1.862   4.854   1.498
 9736SOL     OW30106   4.239   1.046   0.121
 9736SOL    HW130107   4.189   1.004   0.044
 9736SOL    HW230108   4.245   1.145   0.107
 9737SOL     OW30109   4.071   2.198   4.940
 9737SOL    HW130110   4.108   2.274   4.994
 9737SOL    HW230111   4.088   2.112   4.988
 9738SOL     OW30112   1.380   1.010   2.944
 9738SOL    HW130113   1.290   1.012   2.988
 9738SOL    HW230114   1.414   0.916   2.942
 9739SOL     OW30115   5.725   4.799   1.821
 9739SOL    HW130116   5.771   4.821   1.734
 9739SOL    HW230117   5.729   4.879   1.881
 9740SOL     OW30118   6.633   4.868   3.003
 9740SOL    HW130119   6.632   4.966   3.019
 9740SOL    HW230120   6.548   4.828   3.039
 9741SOL     OW30121   4.185   2.241   2.215
 9741SOL    HW130122   4.255   2.287   2.160
 9741SOL    HW230123   4.096   2.280   2.193
 9742SOL     OW30124   5.241   1.160   3.782
 9742SOL    HW130125   5.216   1.223   3.708
 9742SOL    HW230126   5.161   1.105   3.806
 9743SOL     OW30127   1.801   3.144   5.903
 9743SOL    HW130128   1.738   3.067   5.901
 9743SOL    HW230129   1.827   3.169   5.809
 9744SOL     OW30130   2.223   0.929   2.047
 9744SOL    HW130131   2.204   0.941   1.950
 9744SOL    HW230132   2.241   0.832   2.066
 9745SOL     OW30133   0.010   2.657   5.107
 9745SOL    HW130134   0.104   2.674   5.078
 9745SOL    HW230135   0.002   2.673   5.206
 9746SOL     OW30136   6.181   0.953   4.862
 9746SOL    HW130137   6.090   0.915   4.843
 9746SOL    HW230138   6.233   0.889   4.919
 9747SOL     OW30139   0.564   0.310   6.026
 9747SOL    HW130140   0.663   0.298   6.027
 9747SOL    HW230141   0.525   0.269   6.109
 9748SOL     OW30142   0.850   6.201   4.143
 9748SOL    HW130143   0.771   6.200   4.082
 9748SOL    HW230144   0.925   6.252   4.099
 9749SOL     OW30145   0.519   4.097   4.193
 9749SOL    HW130146   0.448   4.057   4.135
 9749SOL    HW230147   0.484   4.182   4.234
 9750SOL     OW30148   4.105   4.837   3.608
 9750SOL    HW130149   4.024   4.809   3.659
 9750SOL    HW230150   4.115   4.781   3.527
 9751SOL     OW30151   1.533   2.591   0.443
 9751SOL    HW130152   1.627   2.560   0.429
 9751SOL    HW230153   1.483   2.521   0.495
 9752SOL     OW30154   4.376   1.194   6.091
 9752SOL    HW130155   4.342   1.285   6.067
 9752SOL    HW230156   4.397   1.143   6.007
 9753SOL     OW30157   6.884   5.264   5.260
 9753SOL    HW130158   6.864   5.261   5.162
 9753SOL    HW230159   6.807   5.305   5.308
 9754SOL     OW30160   1.096   1.402   6.697
 9754SOL    HW130161   1.187   1.434   6.672
 9754SOL    HW230162   1.082   1.413   6.795
 9755SOL     OW30163   3.737   4.867   5.541
 9755SOL    HW130164   3.682   4.830   5.466
 9755SOL    HW230165   3.795   4.795   5.578
 9756SOL     OW30166   6.205   2.283   6.317
 9756SOL    HW130167   6.129   2.219   6.316
 9756SOL    HW230168   6.236   2.300   6.224
 9757SOL     OW30169   5.988   2.484   3.763
 9757SOL    HW130170   6.066   2.527   3.718
 9757SOL    HW230171   6.008   2.473   3.860
 9758SOL     OW30172   2.982   0.595   0.120
 9758SOL    HW130173   2.887   0.611   0.146
 9758SOL    HW230174   3.043   0.650   0.177
 9759SOL     OW30175   3.011   6.182   0.881
 9759SOL    HW130176   2.958   6.102   0.910
 9759SOL    HW230177   3.105   6.173   0.913
 9760SOL     OW30178   6.129   4.481   5.877
 9760SOL    HW130179   6.137   4.455   5.781
 9760SOL    HW230180   6.121   4.580   5.884
 9761SOL     OW30181   5.515   5.490   1.724
 9761SOL    HW130182   5.520   5.546   1.807
 9761SOL    HW230183   5.600   5.439   1.712
 9762SOL     OW30184   2.490   1.350   4.953
 9762SOL    HW130185   2.434   1.340   4.871
 9762SOL    HW230186   2.450   1.420   5.012
 9763SOL     OW30187   2.466   1.693   0.734
 9763SOL    HW130188   2.491   1.629   0.661
 9763SOL    HW230189   2.409   1.645   0.801
 9764SOL     OW30190   0.994   2.069   1.890
 9764SOL    HW130191   0.990   1.977   1.928
 9764SOL    HW230192   1.089   2.101   1.891
 9765SOL     OW30193   0.716   1.897   5.419
 9765SOL    HW130194   0.765   1.932   5.499
 9765SOL    HW230195   0.653   1.968   5.386
 9766SOL     OW30196   3.025   0.302   2.415
 9766SOL    HW130197   3.034   0.260   2.325
 9766SOL    HW230198   3.005   0.399   2.405
 9767SOL     OW30199   5.083   0.188   4.734
 9767SOL    HW130200   5.089   0.213   4.831
 9767SOL    HW230201   5.012   0.119   4.722
 9768SOL     OW30202   4.535   2.395   2.384
 9768SOL    HW130203   4.463   2.328   2.401
 9768SOL    HW230204   4.624   2.349   2.388
 9769SOL     OW30205   0.883   1.841   1.345
 9769SOL    HW130206   0.797   1.891   1.334
 9769SOL    HW230207   0.864   1.750   1.381
 9770SOL     OW30208   5.766   4.898   6.207
 9770SOL    HW130209   5.864   4.891   6.188
 9770SOL    HW230210   5.725   4.807   6.205
 9771SOL     OW30211   3.930   5.542   6.004
 9771SOL    HW130212   3.834   5.553   5.980
 9771SOL    HW230213   3.959   5.449   5.982
 9772SOL     OW30214   6.384   0.779   1.664
 9772SOL    HW130215   6.385   0.873   1.630
 9772SOL    HW230216   6.425   0.719   1.596
 9773SOL     OW30217   6.251   5.602   3.267
 9773SOL    HW130218   6.205   5.579   3.181
 9773SOL    HW230219   6.259   5.702   3.274
 9774SOL     OW30220   6.980   4.628   3.271
 9774SOL    HW130221   6.923   4.689   3.215
 9774SOL    HW230222   6.923   4.586   3.342
 9775SOL     OW30223   2.390   2.680   4.773
 9775SOL    HW130224   2.352   2.769   4.797
 9775SOL    HW230225   2.355   2.652   4.684
 9776SOL     OW30226   0.653   5.808   4.997
 9776SOL    HW130227   0.742   5.764   5.013
 9776SOL    HW230228   0.668   5.903   4.971
 9777SOL     OW30229   5.591   4.434   6.154
 9777SOL    HW130230   5.629   4.365   6.093
 9777SOL    HW230231   5.493   4.418   6.166
 9778SOL     OW30232   4.650   0.439   2.343
 9778SOL    HW130233   4.656   0.444   2.443
 9778SOL    HW230234   4.682   0.525   2.303
 9779SOL     OW30235   2.617   1.591   5.749
 9779SOL    HW130236   2.545   1.614   5.684
 9779SOL    HW230237   2.611   1.652   5.828
 9780SOL     OW30238   3.605   4.410   0.186
 9780SOL    HW130239   3.570   4.365   0.267
 9780SOL    HW230240   3.624   4.343   0.115
 9781SOL     OW30241   1.618   4.929   4.531
 9781SOL    HW130242   1.561   4.890   4.603
 9781SOL    HW230243   1.678   4.999   4.570
 9782SOL     OW30244   6.745   0.494   1.056
 9782SOL    HW130245   6.760   0.399   1.030
 9782SOL    HW230246   6.832   0.537   1.079
 9783SOL     OW30247   5.191   1.064   2.108
 9783SOL    HW130248   5.130   1.090   2.032
 9783SOL    HW230249   5.225   1.147   2.152
 9784SOL     OW30250   4.873   0.918   3.739
 9784SOL    HW130251   4.807   0.843   3.746
 9784SOL    HW230252   4.860   0.966   3.652
 9785SOL     OW30253   0.584   3.122   1.922
 9785SOL    HW130254   0.564   3.026   1.905
 9785SOL    HW230255   0.543   3.150   2.008
 9786SOL     OW30256   2.678   6.186   4.891
 9786SOL    HW130257   2.711   6.160   4.801
 9786SOL    HW230258   2.754   6.221   4.946
 9787SOL     OW30259   4.953   4.102   2.017
 9787SOL    HW130260   4.873   4.140   2.065
 9787SOL    HW230261   4.955   4.138   1.924
 9788SOL     OW30262   6.824   1.496   5.550
 9788SOL    HW130263   6.882   1.461   5.476
 9788SOL    HW230264   6.848   1.450   5.636
 9789SOL     OW30265   2.189   5.698   4.697
 9789SOL    HW130266   2.132   5.728   4.620
 9789SOL    HW230267   2.201   5.599   4.693
 9790SOL     OW30268   6.389   1.761   4.504
 9790SOL    HW130269   6.417   1.676   4.458
 9790SOL    HW230270   6.309   1.744   4.562
 9791SOL     OW30271   0.636   2.542   1.025
 9791SOL    HW130272   0.724   2.528   0.980
 9791SOL    HW230273   0.629   2.481   1.104
 9792SOL     OW30274   4.358   5.508   1.514
 9792SOL    HW130275   4.404   5.575   1.456
 9792SOL    HW230276   4.260   5.529   1.518
 9793SOL     OW30277   4.784   6.307   2.011
 9793SOL    HW130278   4.782   6.208   2.002
 9793SOL    HW230279   4.786   6.332   2.108
 9794SOL     OW30280   3.909   2.641   6.615
 9794SOL    HW130281   3.952   2.566   6.665
 9794SOL    HW230282   3.821   2.664   6.657
 9795SOL     OW30283   1.677   3.215   4.145
 9795SOL    HW130284   1.673   3.314   4.133
 9795SOL    HW230285   1.613   3.171   4.081
 9796SOL     OW30286   3.254   5.140   6.907
 9796SOL    HW130287   3.171   5.088   6.885
 9796SOL    HW230288   3.299   5.168   6.823
 9797SOL     OW30289   4.608   3.023   5.414
 9797SOL    HW130290   4.654   2.961   5.478
 9797SOL    HW230291   4.619   3.117   5.446
 9798SOL     OW30292   1.735   1.993   1.374
 9798SOL    HW130293   1.778   2.052   1.305
 9798SOL    HW230294   1.780   2.006   1.462
 9799SOL     OW30295   3.085   4.019   2.034
 9799SOL    HW130296   3.007   4.073   2.001
 9799SOL    HW230297   3.051   3.943   2.089
 9800SOL     OW30298   4.161   4.920   6.816
 9800SOL    HW130299   4.168   5.017   6.838
 9800SOL    HW230300   4.127   4.870   6.895
 9801SOL     OW30301   4.465   4.970   6.890
 9801SOL    HW130302   4.393   4.917   6.846
 9801SOL    HW230303   4.440   5.067   6.888
 9802SOL     OW30304   6.820   3.589   0.623
 9802SOL    HW130305   6.781   3.573   0.533
 9802SOL    HW230306   6.919   3.598   0.615
 9803SOL     OW30307   6.156   0.768   6.708
 9803SOL    HW130308   6.120   0.847   6.758
 9803SOL    HW230309   6.135   0.684   6.759
 9804SOL     OW30310   6.043   5.482   4.497
 9804SOL    HW130311   6.055   5.475   4.596
 9804SOL    HW230312   5.946   5.494   4.476
 9805SOL     OW30313   2.486   5.225   6.959
 9805SOL    HW130314   2.498   5.189   0.023
 9805SOL    HW230315   2.428   5.307   6.963
 9806SOL     OW30316   6.793   1.582   2.993
 9806SOL    HW130317   6.836   1.621   2.911
 9806SOL    HW230318   6.747   1.655   3.044
 9807SOL     OW30319   3.889   2.622   0.860
 9807SOL    HW130320   3.986   2.615   0.837
 9807SOL    HW230321   3.880   2.632   0.959
 9808SOL     OW30322   1.256   1.580   4.974
 9808SOL    HW130323   1.254   1.613   4.880
 9808SOL    HW230324   1.163   1.576   5.011
 9809SOL     OW30325   1.154   1.206   4.844
 9809SOL    HW130326   1.107   1.136   4.790
 9809SOL    HW230327   1.094   1.285   4.854
 9810SOL     OW30328   3.616   0.724   3.541
 9810SOL    HW130329   3.658   0.804   3.583
 9810SOL    HW230330   3.592   0.658   3.612
 9811SOL     OW30331   0.675   6.632   2.887
 9811SOL    HW130332   0.576   6.620   2.894
 9811SOL    HW230333   0.695   6.725   2.855
 9812SOL     OW30334   4.882   2.356   5.536
 9812SOL    HW130335   4.861   2.362   5.634
 9812SOL    HW230336   4.846   2.270   5.499
 9813SOL     OW30337   6.803   4.731   0.472
 9813SOL    HW130338   6.824   4.797   0.400
 9813SOL    HW230339   6.706   4.705   0.466
 9814SOL     OW30340   0.124   0.251   5.612
 9814SOL    HW130341   0.152   0.345   5.597
 9814SOL    HW230342   0.144   0.225   5.707
 9815SOL     OW30343   6.453   3.922   2.720
 9815SOL    HW130344   6.391   3.865   2.666
 9815SOL    HW230345   6.534   3.945   2.665
 9816SOL     OW30346   0.268   6.741   6.239
 9816SOL    HW130347   0.245   6.836   6.263
 9816SOL    HW230348   0.367   6.728   6.248
 9817SOL     OW30349   2.746   6.771   6.928
 9817SOL    HW130350   2.716   6.676   6.937
 9817SOL    HW230351   2.845   6.777   6.941
 9818SOL     OW30352   0.641   6.835   3.245
 9818SOL    HW130353   0.570   6.885   3.295
 9818SOL    HW230354   0.726   6.887   3.246
 9819SOL     OW30355   6.898   3.441   4.966
 9819SOL    HW130356   6.933   3.432   5.059
 9819SOL    HW230357   6.926   3.362   4.911
 9820SOL     OW30358   4.228   2.124   5.860
 9820SOL    HW130359   4.261   2.144   5.768
 9820SOL    HW230360   4.290   2.164   5.927
 9821SOL     OW30361   3.963   3.061   1.212
 9821SOL    HW130362   3.867   3.031   1.221
 9821SOL    HW230363   3.987   3.119   1.290
 9822SOL     OW30364   3.596   6.402   5.674
 9822SOL    HW130365   3.583   6.502   5.671
 9822SOL    HW230366   3.604   6.368   5.580
 9823SOL     OW30367   2.288   0.335   2.910
 9823SOL    HW130368   2.196   0.372   2.895
 9823SOL    HW230369   2.353   0.409   2.919
 9824SOL     OW30370   1.016   6.280   5.236
 9824SOL    HW130371   0.937   6.220   5.223
 9824SOL    HW230372   1.036   6.327   5.150
 9825SOL     OW30373   5.935   6.396   4.898
 9825SOL    HW130374   5.932   6.473   4.961
 9825SOL    HW230375   6.025   6.353   4.901
 9826SOL     OW30376   1.954   5.621   4.974
 9826SOL    HW130377   2.052   5.604   4.976
 9826SOL    HW230378   1.927   5.664   5.060
 9827SOL     OW30379   1.135   4.827   1.703
 9827SOL    HW130380   1.226   4.789   1.688
 9827SOL    HW230381   1.138   4.926   1.694
 9828SOL     OW30382   4.515   2.490   4.371
 9828SOL    HW130383   4.447   2.457   4.437
 9828SOL    HW230384   4.477   2.483   4.279
 9829SOL     OW30385   4.456   5.756   5.492
 9829SOL    HW130386   4.358   5.754   5.473
 9829SOL    HW230387   4.483   5.670   5.537
 9830SOL     OW30388   6.158   2.236   3.082
 9830SOL    HW130389   6.108   2.321   3.097
 9830SOL    HW230390   6.093   2.165   3.053
 9831SOL     OW30391   0.482   3.910   2.962
 9831SOL    HW130392   0.471   3.830   3.022
 9831SOL    HW230393   0.555   3.892   2.897
 9832SOL     OW30394   4.601   5.326   4.921
 9832SOL    HW130395   4.582   5.236   4.881
 9832SOL    HW230396   4.533   5.346   4.992
 9833SOL     OW30397   3.779   3.651   3.514
 9833SOL    HW130398   3.840   3.727   3.490
 9833SOL    HW230399   3.685   3.684   3.519
 9834SOL     OW30400   2.758   6.577   5.817
 9834SOL    HW130401   2.714   6.641   5.880
 9834SOL    HW230402   2.818   6.515   5.868
 9835SOL     OW30403   3.842   3.917   3.858
 9835SOL    HW130404   3.793   4.004   3.862
 9835SOL    HW230405   3.900   3.908   3.939
 9836SOL     OW30406   0.332   4.315   6.138
 9836SOL    HW130407   0.336   4.303   6.238
 9836SOL    HW230408   0.395   4.250   6.095
 9837SOL     OW30409   5.538   2.105   3.104
 9837SOL    HW130410   5.608   2.050   3.149
 9837SOL    HW230411   5.449   2.059   3.112
 9838SOL     OW30412   2.046   6.780   1.276
 9838SOL    HW130413   1.972   6.838   1.241
 9838SOL    HW230414   2.130   6.835   1.282
 9839SOL     OW30415   5.197   0.178   3.732
 9839SOL    HW130416   5.139   0.239   3.785
 9839SOL    HW230417   5.172   0.185   3.635
 9840SOL     OW30418   6.147   1.787   6.705
 9840SOL    HW130419   6.103   1.852   6.766
 9840SOL    HW230420   6.231   1.752   6.746
 9841SOL     OW30421   0.444   6.447   3.031
 9841SOL    HW130422   0.383   6.499   2.971
 9841SOL    HW230423   0.389   6.395   3.097
 9842SOL     OW30424   3.232   1.072   6.515
 9842SOL    HW130425   3.316   1.022   6.536
 9842SOL    HW230426   3.190   1.034   6.433
 9843SOL     OW30427   0.536   0.147   1.230
 9843SOL    HW130428   0.475   0.213   1.184
 9843SOL    HW230429   0.484   0.064   1.251
 9844SOL     OW30430   4.388   7.026   3.825
 9844SOL    HW130431   4.321   6.963   3.786
 9844SOL    HW230432   4.366   0.092   3.797
 9845SOL     OW30433   1.975   3.565   2.697
 9845SOL    HW130434   1.899   3.607   2.647
 9845SOL    HW230435   2.017   3.494   2.641
 9846SOL     OW30436   5.627   2.392   1.695
 9846SOL    HW130437   5.592   2.471   1.644
 9846SOL    HW230438   5.601   2.402   1.791
 9847SOL     OW30439   4.249   4.137   6.839
 9847SOL    HW130440   4.182   4.126   6.912
 9847SOL    HW230441   4.203   4.136   6.751
 9848SOL     OW30442   3.247   4.282   5.603
 9848SOL    HW130443   3.285   4.269   5.694
 9848SOL    HW230444   3.247   4.195   5.554
 9849SOL     OW30445   0.363   2.278   4.410
 9849SOL    HW130446   0.338   2.230   4.326
 9849SOL    HW230447   0.280   2.315   4.452
 9850SOL     OW30448   1.179   0.611   4.577
 9850SOL    HW130449   1.200   0.513   4.585
 9850SOL    HW230450   1.242   0.663   4.635
 9851SOL     OW30451   3.708   5.264   4.928
 9851SOL    HW130452   3.716   5.180   4.873
 9851SOL    HW230453   3.696   5.240   5.024
 9852SOL     OW30454   2.247   0.500   0.058
 9852SOL    HW130455   2.210   0.562   0.127
 9852SOL    HW230456   2.172   0.465   0.001
 9853SOL     OW30457   6.899   4.486   3.490
 9853SOL    HW130458   6.837   4.413   3.517
 9853SOL    HW230459   6.984   4.446   3.454
 9854SOL     OW30460   0.831   4.249   5.951
 9854SOL    HW130461   0.897   4.285   5.885
 9854SOL    HW230462   0.783   4.325   5.995
 9855SOL     OW30463   1.152   4.910   1.173
 9855SOL    HW130464   1.088   4.979   1.207
 9855SOL    HW230465   1.176   4.848   1.247
 9856SOL     OW30466   5.821   4.032   3.219
 9856SOL    HW130467   5.783   3.943   3.244
 9856SOL    HW230468   5.757   4.079   3.157
 9857SOL     OW30469   4.339   0.197   5.198
 9857SOL    HW130470   4.342   0.201   5.098
 9857SOL    HW230471   4.332   0.290   5.235
 9858SOL     OW30472   6.515   6.391   2.294
 9858SOL    HW130473   6.604   6.416   2.254
 9858SOL    HW230474   6.443   6.447   2.252
 9859SOL     OW30475   6.995   5.016   3.265
 9859SOL    HW130476   0.031   4.991   3.191
 9859SOL    HW230477   6.920   4.950   3.267
 9860SOL     OW30478   1.307   2.894   4.749
 9860SOL    HW130479   1.305   2.990   4.774
 9860SOL    HW230480   1.349   2.883   4.659
 9861SOL     OW30481   3.193   2.155   3.039
 9861SOL    HW130482   3.272   2.124   2.986
 9861SOL    HW230483   3.186   2.100   3.123
 9862SOL     OW30484   1.094   4.068   0.282
 9862SOL    HW130485   1.149   4.081   0.365
 9862SOL    HW230486   1.069   4.157   0.244
 9863SOL     OW30487   4.301   6.070   0.852
 9863SOL    HW130488   4.272   6.166   0.856
 9863SOL    HW230489   4.223   6.013   0.827
 9864SOL     OW30490   2.366   5.531   5.459
 9864SOL    HW130491   2.306   5.460   5.420
 9864SOL    HW230492   2.411   5.580   5.385
 9865SOL     OW30493   0.745   5.497   5.461
 9865SOL    HW130494   0.714   5.492   5.555
 9865SOL    HW230495   0.811   5.423   5.444
 9866SOL     OW30496   6.608   4.930   5.220
 9866SOL    HW130497   6.580   4.933   5.124
 9866SOL    HW230498   6.705   4.909   5.226
 9867SOL     OW30499   3.911   1.909   2.417
 9867SOL    HW130500   3.979   1.981   2.405
 9867SOL    HW230501   3.883   1.906   2.513
 9868SOL     OW30502   2.220   4.470   4.090
 9868SOL    HW130503   2.199   4.377   4.118
 9868SOL    HW230504   2.287   4.468   4.015
 9869SOL     OW30505   6.451   3.002   1.031
 9869SOL    HW130506   6.545   2.974   1.050
 9869SOL    HW230507   6.426   3.077   1.091
 9870SOL     OW30508   2.539   2.123   2.056
 9870SOL    HW130509   2.441   2.122   2.037
 9870SOL    HW230510   2.566   2.212   2.093
 9871SOL     OW30511   6.172   5.167   3.993
 9871SOL    HW130512   6.174   5.157   3.893
 9871SOL    HW230513   6.081   5.143   4.027
 9872SOL     OW30514   0.644   4.916   6.225
 9872SOL    HW130515   0.639   4.976   6.305
 9872SOL    HW230516   0.605   4.962   6.145
 9873SOL     OW30517   1.382   1.471   5.757
 9873SOL    HW130518   1.328   1.390   5.781
 9873SOL    HW230519   1.469   1.442   5.717
 9874SOL     OW30520   0.094   3.004   5.008
 9874SOL    HW130521   0.010   3.009   5.064
 9874SOL    HW230522   0.162   3.068   5.045
 9875SOL     OW30523   6.619   6.013   1.292
 9875SOL    HW130524   6.686   6.037   1.362
 9875SOL    HW230525   6.555   6.089   1.279
 9876SOL     OW30526   1.206   6.450   3.438
 9876SOL    HW130527   1.180   6.366   3.391
 9876SOL    HW230528   1.140   6.470   3.511
 9877SOL     OW30529   0.874   5.099   5.069
 9877SOL    HW130530   0.795   5.046   5.098
 9877SOL    HW230531   0.871   5.190   5.109
 9878SOL     OW30532   3.238   2.712   6.470
 9878SOL    HW130533   3.301   2.778   6.430
 9878SOL    HW230534   3.276   2.677   6.556
 9879SOL     OW30535   6.972   4.745   5.913
 9879SOL    HW130536   6.989   4.720   6.008
 9879SOL    HW230537   6.952   4.663   5.860
 9880SOL     OW30538   2.403   1.485   0.927
 9880SOL    HW130539   2.402   1.439   1.016
 9880SOL    HW230540   2.494   1.476   0.886
 9881SOL     OW30541   6.598   1.429   3.727
 9881SOL    HW130542   6.541   1.490   3.782
 9881SOL    HW230543   6.611   1.342   3.776
 9882SOL     OW30544   3.480   3.021   5.448
 9882SOL    HW130545   3.530   3.075   5.380
 9882SOL    HW230546   3.529   2.936   5.465
 9883SOL     OW30547   1.906   0.436   2.175
 9883SOL    HW130548   1.851   0.462   2.095
 9883SOL    HW230549   1.906   0.337   2.185
 9884SOL     OW30550   3.076   2.414   5.542
 9884SOL    HW130551   3.087   2.430   5.443
 9884SOL    HW230552   3.069   2.502   5.589
 9885SOL     OW30553   5.264   3.199   5.214
 9885SOL    HW130554   5.343   3.153   5.254
 9885SOL    HW230555   5.180   3.156   5.246
 9886SOL     OW30556   3.635   6.121   1.422
 9886SOL    HW130557   3.626   6.077   1.332
 9886SOL    HW230558   3.719   6.175   1.424
 9887SOL     OW30559   3.064   1.249   6.957
 9887SOL    HW130560   3.148   1.205   6.926
 9887SOL    HW230561   2.989   1.227   6.894
 9888SOL     OW30562   6.513   6.373   3.619
 9888SOL    HW130563   6.495   6.460   3.666
 9888SOL    HW230564   6.606   6.343   3.639
 9889SOL     OW30565   6.879   6.095   3.363
 9889SOL    HW130566   6.902   6.178   3.414
 9889SOL    HW230567   6.961   6.041   3.349
 9890SOL     OW30568   1.002   3.594   1.547
 9890SOL    HW130569   1.045   3.504   1.547
 9890SOL    HW230570   1.027   3.642   1.631
 9891SOL     OW30571   5.805   5.308   1.484
 9891SOL    HW130572   5.733   5.252   1.525
 9891SOL    HW230573   5.810   5.396   1.533
 9892SOL     OW30574   1.638   5.068   3.862
 9892SOL    HW130575   1.604   5.031   3.949
 9892SOL    HW230576   1.580   5.036   3.787
 9893SOL     OW30577   5.532   5.051   4.346
 9893SOL    HW130578   5.453   5.083   4.292
 9893SOL    HW230579   5.514   4.958   4.379
 9894SOL     OW30580   4.719   2.849   5.613
 9894SOL    HW130581   4.643   2.809   5.664
 9894SOL    HW230582   4.803   2.798   5.633
 9895SOL     OW30583   5.536   1.982   6.703
 9895SOL    HW130584   5.601   2.037   6.755
 9895SOL    HW230585   5.452   1.972   6.756
 9896SOL     OW30586   4.401   3.185   0.084
 9896SOL    HW130587   4.387   3.102   0.139
 9896SOL    HW230588   4.314   3.213   0.044
 9897SOL     OW30589   6.938   1.842   4.121
 9897SOL    HW130590   6.915   1.930   4.080
 9897SOL    HW230591   6.873   1.773   4.090
 9898SOL     OW30592   0.946   5.347   5.401
 9898SOL    HW130593   1.028   5.371   5.454
 9898SOL    HW230594   0.931   5.249   5.405
 9899SOL     OW30595   4.797   5.175   2.062
 9899SOL    HW130596   4.841   5.133   2.142
 9899SOL    HW230597   4.791   5.107   1.988
 9900SOL     OW30598   0.729   3.438   3.399
 9900SOL    HW130599   0.721   3.356   3.342
 9900SOL    HW230600   0.815   3.485   3.377
 9901SOL     OW30601   2.523   1.816   5.355
 9901SOL    HW130602   2.574   1.856   5.431
 9901SOL    HW230603   2.460   1.883   5.317
 9902SOL     OW30604   4.614   3.548   6.980
 9902SOL    HW130605   4.647   3.485   6.909
 9902SOL    HW230606   4.623   3.642   6.949
 9903SOL     OW30607   3.696   0.854   1.202
 9903SOL    HW130608   3.778   0.906   1.223
 9903SOL    HW230609   3.618   0.916   1.195
 9904SOL     OW30610   6.863   0.045   2.087
 9904SOL    HW130611   6.851   6.974   2.088
 9904SOL    HW230612   6.858   0.081   2.180
 9905SOL     OW30613   1.628   6.081   6.416
 9905SOL    HW130614   1.637   6.176   6.387
 9905SOL    HW230615   1.628   6.076   6.516
 9906SOL     OW30616   3.644   3.816   6.009
 9906SOL    HW130617   3.596   3.744   6.059
 9906SOL    HW230618   3.743   3.799   6.013
 9907SOL     OW30619   1.657   6.504   2.824
 9907SOL    HW130620   1.630   6.456   2.741
 9907SOL    HW230621   1.600   6.585   2.837
 9908SOL     OW30622   0.984   3.474   5.087
 9908SOL    HW130623   0.922   3.398   5.106
 9908SOL    HW230624   1.061   3.472   5.151
 9909SOL     OW30625   3.450   6.985   2.557
 9909SOL    HW130626   3.482   6.908   2.503
 9909SOL    HW230627   3.445   0.039   2.500
 9910SOL     OW30628   0.842   4.464   1.528
 9910SOL    HW130629   0.849   4.421   1.618
 9910SOL    HW230630   0.763   4.426   1.479
 9911SOL     OW30631   3.519   4.961   3.211
 9911SOL    HW130632   3.505   4.898   3.135
 9911SOL    HW230633   3.617   4.977   3.224
 9912SOL     OW30634   4.277   0.005   1.332
 9912SOL    HW130635   4.376   7.022   1.330
 9912SOL    HW230636   4.233   6.946   1.311
 9913SOL     OW30637   4.419   2.084   2.720
 9913SOL    HW130638   4.430   2.106   2.623
 9913SOL    HW230639   4.381   2.164   2.768
 9914SOL     OW30640   1.763   5.501   5.537
 9914SOL    HW130641   1.734   5.556   5.459
 9914SOL    HW230642   1.821   5.556   5.597
 9915SOL     OW30643   5.298   3.667   4.507
 9915SOL    HW130644   5.361   3.668   4.584
 9915SOL    HW230645   5.277   3.572   4.482
 9916SOL     OW30646   2.509   3.333   0.840
 9916SOL    HW130647   2.590   3.326   0.899
 9916SOL    HW230648   2.443   3.262   0.866
 9917SOL     OW30649   2.438   3.397   5.329
 9917SOL    HW130650   2.348   3.429   5.299
 9917SOL    HW230651   2.439   3.297   5.332
 9918SOL     OW30652   2.325   1.052   4.918
 9918SOL    HW130653   2.266   1.128   4.892
 9918SOL    HW230654   2.416   1.065   4.879
 9919SOL     OW30655   7.002   5.368   2.788
 9919SOL    HW130656   6.919   5.319   2.759
 9919SOL    HW230657   0.048   5.303   2.804
 9920SOL     OW30658   4.201   0.023   1.972
 9920SOL    HW130659   4.202   0.039   1.873
 9920SOL    HW230660   4.295   0.024   2.007
 9921SOL     OW30661   4.798   0.056   3.661
 9921SOL    HW130662   4.882   0.074   3.610
 9921SOL    HW230663   4.817   7.016   3.732
 9922SOL     OW30664   4.589   3.404   1.140
 9922SOL    HW130665   4.669   3.351   1.169
 9922SOL    HW230666   4.560   3.464   1.214
 9923SOL     OW30667   6.541   0.974   5.961
 9923SOL    HW130668   6.465   1.039   5.967
 9923SOL    HW230669   6.589   0.970   6.049
 9924SOL     OW30670   5.247   1.084   2.802
 9924SOL    HW130671   5.251   1.010   2.736
 9924SOL    HW230672   5.268   1.049   2.894
 9925SOL     OW30673   3.062   2.117   4.606
 9925SOL    HW130674   3.066   2.017   4.602
 9925SOL    HW230675   3.025   2.145   4.695
 9926SOL     OW30676   1.629   1.354   0.315
 9926SOL    HW130677   1.719   1.371   0.355
 9926SOL    HW230678   1.562   1.341   0.388
 9927SOL     OW30679   0.777   2.334   2.437
 9927SOL    HW130680   0.819   2.245   2.421
 9927SOL    HW230681   0.681   2.322   2.460
 9928SOL     OW30682   6.612   3.030   2.577
 9928SOL    HW130683   6.540   3.037   2.647
 9928SOL    HW230684   6.581   3.073   2.493
 9929SOL     OW30685   1.563   4.181   5.963
 9929SOL    HW130686   1.647   4.135   5.935
 9929SOL    HW230687   1.570   4.279   5.940
 9930SOL     OW30688   0.695   6.052   0.353
 9930SOL    HW130689   0.691   6.096   0.443
 9930SOL    HW230690   0.605   6.054   0.311
 9931SOL     OW30691   3.053   5.517   6.894
 9931SOL    HW130692   3.064   5.424   6.930
 9931SOL    HW230693   2.971   5.558   6.933
 9932SOL     OW30694   1.956   2.773   0.487
 9932SOL    HW130695   1.859   2.785   0.466
 9932SOL    HW230696   1.966   2.742   0.582
 9933SOL     OW30697   0.771   1.277   2.303
 9933SOL    HW130698   0.826   1.288   2.386
 9933SOL    HW230699   0.719   1.192   2.308
 9934SOL     OW30700   4.550   1.690   6.874
 9934SOL    HW130701   4.548   1.618   6.944
 9934SOL    HW230702   4.582   1.651   6.788
 9935SOL     OW30703   2.692   2.168   0.804
 9935SOL    HW130704   2.729   2.160   0.897
 9935SOL    HW230705   2.722   2.254   0.763
 9936SOL     OW30706   6.055   6.153   6.295
 9936SOL    HW130707   5.988   6.085   6.326
 9936SOL    HW230708   6.146   6.125   6.324
 9937SOL     OW30709   1.105   7.008   3.322
 9937SOL    HW130710   1.082   6.934   3.386
 9937SOL    HW230711   1.181   6.980   3.264
 9938SOL     OW30712   6.958   1.625   3.415
 9938SOL    HW130713   6.926   1.548   3.360
 9938SOL    HW230714   6.914   1.622   3.505
 9939SOL     OW30715   3.304   4.228   1.433
 9939SOL    HW130716   3.232   4.281   1.387
 9939SOL    HW230717   3.393   4.255   1.395
 9940SOL     OW30718   0.316   0.864   3.639
 9940SOL    HW130719   0.370   0.822   3.712
 9940SOL    HW230720   0.238   0.912   3.680
 9941SOL     OW30721   5.529   4.879   0.617
 9941SOL    HW130722   5.537   4.790   0.573
 9941SOL    HW230723   5.434   4.892   0.647
 9942SOL     OW30724   5.658   5.253   2.985
 9942SOL    HW130725   5.612   5.341   2.974
 9942SOL    HW230726   5.620   5.187   2.920
 9943SOL     OW30727   1.422   3.927   6.052
 9943SOL    HW130728   1.484   3.852   6.031
 9943SOL    HW230729   1.453   4.010   6.005
 9944SOL     OW30730   0.959   5.418   6.147
 9944SOL    HW130731   0.940   5.514   6.125
 9944SOL    HW230732   0.884   5.380   6.200
 9945SOL     OW30733   6.627   4.129   6.386
 9945SOL    HW130734   6.630   4.148   6.485
 9945SOL    HW230735   6.571   4.198   6.341
 9946SOL     OW30736   5.170   2.053   1.487
 9946SOL    HW130737   5.184   1.974   1.426
 9946SOL    HW230738   5.253   2.069   1.540
 9947SOL     OW30739   0.677   1.822   3.361
 9947SOL    HW130740   0.732   1.904   3.351
 9947SOL    HW230741   0.605   1.821   3.291
 9948SOL     OW30742   5.455   0.327   4.661
 9948SOL    HW130743   5.396   0.408   4.653
 9948SOL    HW230744   5.466   0.285   4.571
 9949SOL     OW30745   6.410   4.842   3.239
 9949SOL    HW130746   6.489   4.893   3.274
 9949SOL    HW230747   6.344   4.830   3.313
 9950SOL     OW30748   4.999   4.168   5.447
 9950SOL    HW130749   5.043   4.133   5.365
 9950SOL    HW230750   4.904   4.136   5.451
 9951SOL     OW30751   0.206   1.920   3.266
 9951SOL    HW130752   0.196   1.866   3.349
 9951SOL    HW230753   0.155   2.005   3.275
 9952SOL     OW30754   1.262   4.946   2.443
 9952SOL    HW130755   1.327   4.872   2.427
 9952SOL    HW230756   1.256   5.004   2.362
 9953SOL     OW30757   5.948   3.480   3.813
 9953SOL    HW130758   5.947   3.448   3.908
 9953SOL    HW230759   5.974   3.576   3.811
 9954SOL     OW30760   3.833   0.916   0.443
 9954SOL    HW130761   3.799   0.941   0.534
 9954SOL    HW230762   3.845   0.999   0.388
 9955SOL     OW30763   5.665   4.325   1.352
 9955SOL    HW130764   5.747   4.343   1.298
 9955SOL    HW230765   5.643   4.228   1.347
 9956SOL     OW30766   2.290   2.950   3.540
 9956SOL    HW130767   2.367   3.013   3.541
 9956SOL    HW230768   2.321   2.859   3.567
 9957SOL     OW30769   5.618   0.290   0.300
 9957SOL    HW130770   5.647   0.276   0.206
 9957SOL    HW230771   5.598   0.387   0.315
 9958SOL     OW30772   5.634   5.648   0.117
 9958SOL    HW130773   5.554   5.623   0.063
 9958SOL    HW230774   5.708   5.582   0.100
 9959SOL     OW30775   5.132   5.400   0.704
 9959SOL    HW130776   5.209   5.463   0.717
 9959SOL    HW230777   5.071   5.407   0.782
 9960SOL     OW30778   6.983   0.379   0.364
 9960SOL    HW130779   0.047   0.339   0.354
 9960SOL    HW230780   6.931   0.326   0.431
 9961SOL     OW30781   3.235   5.353   1.057
 9961SOL    HW130782   3.182   5.392   1.132
 9961SOL    HW230783   3.282   5.271   1.088
 9962SOL     OW30784   2.975   0.433   1.487
 9962SOL    HW130785   2.944   0.486   1.566
 9962SOL    HW230786   2.907   0.439   1.414
 9963SOL     OW30787   1.036   0.572   6.038
 9963SOL    HW130788   1.118   0.625   6.058
 9963SOL    HW230789   0.964   0.594   6.104
 9964SOL     OW30790   4.548   4.865   5.984
 9964SOL    HW130791   4.535   4.769   5.960
 9964SOL    HW230792   4.645   4.887   5.984
 9965SOL     OW30793   2.648   5.322   3.854
 9965SOL    HW130794   2.638   5.225   3.877
 9965SOL    HW230795   2.745   5.343   3.839
 9966SOL     OW30796   3.631   4.893   2.589
 9966SOL    HW130797   3.709   4.950   2.617
 9966SOL    HW230798   3.621   4.896   2.490
 9967SOL     OW30799   6.367   0.080   3.198
 9967SOL    HW130800   6.458   0.109   3.227
 9967SOL    HW230801   6.333   0.142   3.127
 9968SOL     OW30802   4.042   6.667   6.954
 9968SOL    HW130803   4.063   6.569   6.953
 9968SOL    HW230804   3.956   6.683   6.905
 9969SOL     OW30805   0.939   5.879   4.055
 9969SOL    HW130806   0.986   5.793   4.076
 9969SOL    HW230807   0.896   5.914   4.138
 9970SOL     OW30808   6.719   3.419   1.761
 9970SOL    HW130809   6.803   3.472   1.752
 9970SOL    HW230810   6.674   3.443   1.847
 9971SOL     OW30811   0.669   4.903   3.878
 9971SOL    HW130812   0.711   4.988   3.846
 9971SOL    HW230813   0.583   4.924   3.925
 9972SOL     OW30814   3.038   4.100   6.287
 9972SOL    HW130815   3.049   4.154   6.371
 9972SOL    HW230816   2.964   4.139   6.232
 9973SOL     OW30817   2.324   2.353   3.064
 9973SOL    HW130818   2.254   2.282   3.051
 9973SOL    HW230819   2.283   2.443   3.052
 9974SOL     OW30820   1.046   2.186   3.022
 9974SOL    HW130821   1.098   2.141   3.095
 9974SOL    HW230822   1.042   2.284   3.040
 9975SOL     OW30823   2.515   4.869   0.098
 9975SOL    HW130824   2.485   4.939   0.163
 9975SOL    HW230825   2.473   4.887   0.008
 9976SOL     OW30826   3.784   4.860   5.895
 9976SOL    HW130827   3.763   4.950   5.932
 9976SOL    HW230828   3.877   4.859   5.858
 9977SOL     OW30829   4.485   6.964   5.567
 9977SOL    HW130830   4.457   6.970   5.471
 9977SOL    HW230831   4.415   6.915   5.619
 9978SOL     OW30832   0.937   3.269   6.723
 9978SOL    HW130833   0.900   3.242   6.812
 9978SOL    HW230834   1.033   3.295   6.734
 9979SOL     OW30835   3.334   3.375   5.195
 9979SOL    HW130836   3.394   3.448   5.226
 9979SOL    HW230837   3.277   3.407   5.120
 9980SOL     OW30838   1.912   1.756   1.012
 9980SOL    HW130839   1.900   1.730   1.108
 9980SOL    HW230840   1.979   1.830   1.006
 9981SOL     OW30841   6.112   2.024   0.375
 9981SOL    HW130842   6.191   2.009   0.315
 9981SOL    HW230843   6.036   1.966   0.345
 9982SOL     OW30844   2.294   1.954   4.244
 9982SOL    HW130845   2.371   2.016   4.229
 9982SOL    HW230846   2.211   2.007   4.260
 9983SOL     OW30847   0.747   3.227   2.694
 9983SOL    HW130848   0.718   3.248   2.601
 9983SOL    HW230849   0.724   3.133   2.717
 9984SOL     OW30850   0.184   5.227   1.228
 9984SOL    HW130851   0.169   5.325   1.226
 9984SOL    HW230852   0.204   5.198   1.321
 9985SOL     OW30853   4.878   4.499   0.119
 9985SOL    HW130854   4.959   4.522   0.065
 9985SOL    HW230855   4.877   4.401   0.139
 9986SOL     OW30856   5.438   5.327   0.274
 9986SOL    HW130857   5.514   5.326   0.339
 9986SOL    HW230858   5.472   5.313   0.182
 9987SOL     OW30859   5.739   2.656   1.483
 9987SOL    HW130860   5.741   2.738   1.425
 9987SOL    HW230861   5.645   2.638   1.511
 9988SOL     OW30862   5.886   6.333   4.039
 9988SOL    HW130863   5.876   6.302   3.944
 9988SOL    HW230864   5.819   6.404   4.058
 9989SOL     OW30865   0.215   5.469   2.381
 9989SOL    HW130866   0.193   5.382   2.424
 9989SOL    HW230867   0.130   5.521   2.364
 9990SOL     OW30868   0.142   6.676   3.775
 9990SOL    HW130869   0.165   6.617   3.698
 9990SOL    HW230870   0.172   6.770   3.756
 9991SOL     OW30871   1.582   5.215   3.354
 9991SOL    HW130872   1.620   5.285   3.294
 9991SOL    HW230873   1.645   5.198   3.430
 9992SOL     OW30874   2.586   4.867   1.055
 9992SOL    HW130875   2.620   4.959   1.035
 9992SOL    HW230876   2.494   4.873   1.094
 9993SOL     OW30877   3.581   6.130   4.397
 9993SOL    HW130878   3.658   6.152   4.337
 9993SOL    HW230879   3.510   6.083   4.344
 9994SOL     OW30880   5.864   5.087   4.843
 9994SOL    HW130881   5.814   5.001   4.830
 9994SOL    HW230882   5.893   5.095   4.938
 9995SOL     OW30883   3.271   0.744   5.600
 9995SOL    HW130884   3.180   0.703   5.604
 9995SOL    HW230885   3.265   0.834   5.557
 9996SOL     OW30886   3.147   3.731   0.829
 9996SOL    HW130887   3.186   3.803   0.771
 9996SOL    HW230888   3.048   3.729   0.817
 9997SOL     OW30889   6.306   2.540   3.491
 9997SOL    HW130890   6.378   2.546   3.422
 9997SOL    HW230891   6.224   2.586   3.459
 9998SOL     OW30892   4.864   4.508   2.591
 9998SOL    HW130893   4.909   4.594   2.617
 9998SOL    HW230894   4.930   4.433   2.596
 9999SOL     OW30895   0.921   7.009   3.710
 9999SOL    HW130896   0.907   0.080   3.718
 9999SOL    HW230897   0.832   6.963   3.715
10000SOL     OW30898   4.847   2.310   1.274
10000SOL    HW130899   4.935   2.337   1.313
10000SOL    HW230900   4.862   2.269   1.184
10001SOL     OW30901   4.183   5.944   1.797
10001SOL    HW130902   4.135   5.983   1.876
10001SOL    HW230903   4.281   5.947   1.812
10002SOL     OW30904   2.916   1.331   1.982
10002SOL    HW130905   3.012   1.355   1.997
10002SOL    HW230906   2.875   1.304   2.070
10003SOL     OW30907   1.268   1.187   3.661
10003SOL    HW130908   1.289   1.107   3.717
10003SOL    HW230909   1.315   1.267   3.698
10004SOL     OW30910   6.110   4.276   4.886
10004SOL    HW130911   6.127   4.306   4.792
10004SOL    HW230912   6.190   4.298   4.942
10005SOL     OW30913   2.477   5.563   3.270
10005SOL    HW130914   2.549   5.586   3.335
10005SOL    HW230915   2.434   5.477   3.296
10006SOL     OW30916   5.867   0.389   5.267
10006SOL    HW130917   5.924   0.422   5.192
10006SOL    HW230918   5.822   0.467   5.312
10007SOL     OW30919   1.527   4.857   4.297
10007SOL    HW130920   1.559   4.876   4.390
10007SOL    HW230921   1.479   4.769   4.296
10008SOL     OW30922   4.094   1.425   5.869
10008SOL    HW130923   4.147   1.439   5.953
10008SOL    HW230924   4.021   1.358   5.887
10009SOL     OW30925   1.128   3.327   2.181
10009SOL    HW130926   1.061   3.330   2.255
10009SOL    HW230927   1.213   3.369   2.211
10010SOL     OW30928   2.618   3.743   0.283
10010SOL    HW130929   2.664   3.738   0.195
10010SOL    HW230930   2.665   3.685   0.349
10011SOL     OW30931   1.987   3.234   0.270
10011SOL    HW130932   1.935   3.297   0.328
10011SOL    HW230933   2.045   3.176   0.328
10012SOL     OW30934   5.934   2.381   3.177
10012SOL    HW130935   5.859   2.377   3.110
10012SOL    HW230936   5.918   2.456   3.240
10013SOL     OW30937   0.239   5.966   4.965
10013SOL    HW130938   0.157   5.987   5.018
10013SOL    HW230939   0.319   5.999   5.014
10014SOL     OW30940   0.993   0.521   3.426
10014SOL    HW130941   0.953   0.579   3.497
10014SOL    HW230942   0.985   0.567   3.338
10015SOL     OW30943   3.861   5.323   5.846
10015SOL    HW130944   3.809   5.251   5.893
10015SOL    HW230945   3.799   5.382   5.796
10016SOL     OW30946   2.135   0.626   3.547
10016SOL    HW130947   2.048   0.619   3.597
10016SOL    HW230948   2.136   0.710   3.493
10017SOL     OW30949   2.453   2.446   2.361
10017SOL    HW130950   2.361   2.427   2.394
10017SOL    HW230951   2.521   2.408   2.425
10018SOL     OW30952   6.651   3.320   6.046
10018SOL    HW130953   6.587   3.244   6.057
10018SOL    HW230954   6.697   3.338   6.133
10019SOL     OW30955   0.660   2.082   2.174
10019SOL    HW130956   0.628   2.042   2.260
10019SOL    HW230957   0.600   2.158   2.148
10020SOL     OW30958   6.411   0.859   2.308
10020SOL    HW130959   6.343   0.858   2.235
10020SOL    HW230960   6.471   0.780   2.299
10021SOL     OW30961   0.979   3.234   2.450
10021SOL    HW130962   0.978   3.134   2.442
10021SOL    HW230963   1.066   3.263   2.490
10022SOL     OW30964   2.834   5.581   7.003
10022SOL    HW130965   2.808   5.484   6.999
10022SOL    HW230966   2.774   5.635   6.945
10023SOL     OW30967   1.185   0.309   6.269
10023SOL    HW130968   1.162   0.213   6.289
10023SOL    HW230969   1.113   0.349   6.212
10024SOL     OW30970   1.654   4.823   2.481
10024SOL    HW130971   1.741   4.827   2.432
10024SOL    HW230972   1.635   4.911   2.522
10025SOL     OW30973   1.058   4.486   1.744
10025SOL    HW130974   1.030   4.553   1.812
10025SOL    HW230975   1.008   4.401   1.757
10026SOL     OW30976   5.165   1.797   4.151
10026SOL    HW130977   5.140   1.894   4.143
10026SOL    HW230978   5.233   1.785   4.223
10027SOL     OW30979   2.841   1.786   5.293
10027SOL    HW130980   2.793   1.873   5.284
10027SOL    HW230981   2.831   1.733   5.209
10028SOL     OW30982   4.291   0.663   0.997
10028SOL    HW130983   4.324   0.757   0.989
10028SOL    HW230984   4.254   0.634   0.909
10029SOL     OW30985   0.495   3.671   5.092
10029SOL    HW130986   0.522   3.576   5.077
10029SOL    HW230987   0.432   3.700   5.019
10030SOL     OW30988   2.585   0.033   4.908
10030SOL    HW130989   2.558   0.128   4.921
10030SOL    HW230990   2.573   0.008   4.812
10031SOL     OW30991   2.729   4.780   3.780
10031SOL    HW130992   2.828   4.770   3.792
10031SOL    HW230993   2.711   4.859   3.721
10032SOL     OW30994   2.908   6.268   5.009
10032SOL    HW130995   2.884   6.320   5.091
10032SOL    HW230996   2.993   6.303   4.971
10033SOL     OW30997   3.064   1.382   3.435
10033SOL    HW130998   2.983   1.327   3.417
10033SOL    HW230999   3.113   1.398   3.349
10034SOL     OW31000   2.614   0.610   3.752
10034SOL    HW131001   2.669   0.642   3.674
10034SOL    HW231002   2.517   0.621   3.731
10035SOL     OW31003   5.792   2.849   2.503
10035SOL    HW131004   5.742   2.862   2.418
10035SOL    HW231005   5.883   2.811   2.483
10036SOL     OW31006   0.144   0.968   6.975
10036SOL    HW131007   0.128   0.927   0.037
10036SOL    HW231008   0.239   0.950   6.947
10037SOL     OW31009   6.261   0.165   6.640
10037SOL    HW131010   6.305   0.079   6.613
10037SOL    HW231011   6.173   0.145   6.682
10038SOL     OW31012   4.545   6.651   6.386
10038SOL    HW131013   4.586   6.598   6.312
10038SOL    HW231014   4.605   6.728   6.410
10039SOL     OW31015   6.381   5.493   2.895
10039SOL    HW131016   6.405   5.590   2.893
10039SOL    HW231017   6.393   5.458   2.988
10040SOL     OW31018   3.491   6.540   1.063
10040SOL    HW131019   3.484   6.553   0.964
10040SOL    HW231020   3.552   6.609   1.101
10041SOL     OW31021   6.855   4.932   4.779
10041SOL    HW131022   6.929   4.892   4.724
10041SOL    HW231023   6.868   4.907   4.875
10042SOL     OW31024   0.528   0.456   5.043
10042SOL    HW131025   0.482   0.386   4.989
10042SOL    HW231026   0.589   0.509   4.985
10043SOL     OW31027   0.759   0.776   3.605
10043SOL    HW131028   0.811   0.710   3.658
10043SOL    HW231029   0.822   0.835   3.554
10044SOL     OW31030   2.836   1.707   6.230
10044SOL    HW131031   2.767   1.762   6.278
10044SOL    HW231032   2.917   1.764   6.211
10045SOL     OW31033   3.718   6.861   5.202
10045SOL    HW131034   3.697   6.818   5.114
10045SOL    HW231035   3.741   6.790   5.269
10046SOL     OW31036   0.066   2.660   1.508
10046SOL    HW131037   0.049   2.706   1.421
10046SOL    HW231038   0.097   2.727   1.575
10047SOL     OW31039   6.916   2.252   4.715
10047SOL    HW131040   6.976   2.304   4.775
10047SOL    HW231041   6.950   2.158   4.707
10048SOL     OW31042   4.064   1.799   1.632
10048SOL    HW131043   4.082   1.783   1.729
10048SOL    HW231044   4.099   1.722   1.578
10049SOL     OW31045   1.685   0.122   5.307
10049SOL    HW131046   1.712   0.039   5.259
10049SOL    HW231047   1.636   0.182   5.245
10050SOL     OW31048   5.028   2.803   3.844
10050SOL    HW131049   5.110   2.751   3.822
10050SOL    HW231050   4.989   2.841   3.760
10051SOL     OW31051   5.972   2.957   5.209
10051SOL    HW131052   6.022   2.871   5.204
10051SOL    HW231053   6.036   3.033   5.206
10052SOL     OW31054   0.730   3.369   1.636
10052SOL    HW131055   0.770   3.305   1.570
10052SOL    HW231056   0.798   3.393   1.705
10053SOL     OW31057   3.266   5.993   3.540
10053SOL    HW131058   3.355   5.985   3.585
10053SOL    HW231059   3.210   5.913   3.561
10054SOL     OW31060   3.761   5.514   5.077
10054SOL    HW131061   3.683   5.573   5.097
10054SOL    HW231062   3.732   5.437   5.021
10055SOL     OW31063   6.093   2.800   5.485
10055SOL    HW131064   5.997   2.826   5.473
10055SOL    HW231065   6.105   2.704   5.460
10056SOL     OW31066   6.576   4.717   1.547
10056SOL    HW131067   6.486   4.740   1.585
10056SOL    HW231068   6.592   4.773   1.465
10057SOL     OW31069   3.470   2.122   4.109
10057SOL    HW131070   3.453   2.114   4.207
10057SOL    HW231071   3.385   2.150   4.063
10058SOL     OW31072   0.635   5.191   3.836
10058SOL    HW131073   0.618   5.284   3.805
10058SOL    HW231074   0.681   5.193   3.925
10059SOL     OW31075   5.798   0.783   1.035
10059SOL    HW131076   5.772   0.813   1.127
10059SOL    HW231077   5.853   0.853   0.991
10060SOL     OW31078   2.675   2.734   1.675
10060SOL    HW131079   2.753   2.794   1.691
10060SOL    HW231080   2.687   2.649   1.726
10061SOL     OW31081   6.233   1.330   4.380
10061SOL    HW131082   6.148   1.370   4.413
10061SOL    HW231083   6.246   1.355   4.284
10062SOL     OW31084   6.634   6.178   3.063
10062SOL    HW131085   6.642   6.272   3.096
10062SOL    HW231086   6.621   6.116   3.140
10063SOL     OW31087   0.978   3.149   3.508
10063SOL    HW131088   1.023   3.062   3.530
10063SOL    HW231089   0.901   3.131   3.446
10064SOL     OW31090   5.616   6.410   4.053
10064SOL    HW131091   5.578   6.335   4.107
10064SOL    HW231092   5.579   6.407   3.961
10065SOL     OW31093   1.881   6.482   2.989
10065SOL    HW131094   1.813   6.482   2.915
10065SOL    HW231095   1.846   6.430   3.067
10066SOL     OW31096   0.708   6.857   3.747
10066SOL    HW131097   0.725   6.835   3.843
10066SOL    HW231098   0.615   6.893   3.737
10067SOL     OW31099   4.256   4.742   4.309
10067SOL    HW131100   4.269   4.800   4.228
10067SOL    HW231101   4.314   4.774   4.383
10068SOL     OW31102   5.054   3.633   5.130
10068SOL    HW131103   4.963   3.623   5.092
10068SOL    HW231104   5.053   3.703   5.202
10069SOL     OW31105   2.589   1.505   3.344
10069SOL    HW131106   2.552   1.429   3.397
10069SOL    HW231107   2.630   1.573   3.406
10070SOL     OW31108   1.049   6.854   4.738
10070SOL    HW131109   1.071   6.851   4.835
10070SOL    HW231110   1.131   6.834   4.684
10071SOL     OW31111   5.406   5.620   4.853
10071SOL    HW131112   5.453   5.653   4.935
10071SOL    HW231113   5.311   5.597   4.875
10072SOL     OW31114   0.883   6.498   3.043
10072SOL    HW131115   0.812   6.542   2.988
10072SOL    HW231116   0.856   6.500   3.139
10073SOL     OW31117   7.020   4.667   6.163
10073SOL    HW131118   0.042   4.581   6.148
10073SOL    HW231119   0.003   4.696   6.258
10074SOL     OW31120   2.293   0.351   6.577
10074SOL    HW131121   2.240   0.396   6.649
10074SOL    HW231122   2.263   0.255   6.569
10075SOL     OW31123   0.873   2.580   3.783
10075SOL    HW131124   0.946   2.648   3.789
10075SOL    HW231125   0.908   2.490   3.808
10076SOL     OW31126   4.929   6.729   4.902
10076SOL    HW131127   4.955   6.826   4.900
10076SOL    HW231128   4.911   6.697   4.809
10077SOL     OW31129   4.559   1.716   5.871
10077SOL    HW131130   4.605   1.629   5.851
10077SOL    HW231131   4.597   1.788   5.813
10078SOL     OW31132   5.889   0.116   5.698
10078SOL    HW131133   5.899   0.095   5.601
10078SOL    HW231134   5.798   0.155   5.714
10079SOL     OW31135   0.553   3.451   1.448
10079SOL    HW131136   0.605   3.418   1.527
10079SOL    HW231137   0.587   3.407   1.365
10080SOL     OW31138   2.049   2.958   0.102
10080SOL    HW131139   2.059   3.032   0.035
10080SOL    HW231140   2.065   2.870   0.057
10081SOL     OW31141   1.044   0.575   6.668
10081SOL    HW131142   0.945   0.586   6.654
10081SOL    HW231143   1.091   0.580   6.580
10082SOL     OW31144   5.892   2.175   1.843
10082SOL    HW131145   5.798   2.178   1.808
10082SOL    HW231146   5.892   2.144   1.938
10083SOL     OW31147   4.454   0.565   3.857
10083SOL    HW131148   4.451   0.665   3.849
10083SOL    HW231149   4.540   0.538   3.900
10084SOL     OW31150   2.570   1.262   5.812
10084SOL    HW131151   2.607   1.249   5.904
10084SOL    HW231152   2.595   1.353   5.778
10085SOL     OW31153   0.839   6.074   2.623
10085SOL    HW131154   0.931   6.037   2.637
10085SOL    HW231155   0.772   6.000   2.632
10086SOL     OW31156   5.981   4.339   1.914
10086SOL    HW131157   6.026   4.379   1.993
10086SOL    HW231158   6.037   4.354   1.832
10087SOL     OW31159   1.272   0.349   4.201
10087SOL    HW131160   1.348   0.413   4.214
10087SOL    HW231161   1.278   0.277   4.269
10088SOL     OW31162   0.742   6.993   4.717
10088SOL    HW131163   0.837   6.978   4.692
10088SOL    HW231164   0.684   6.925   4.672
10089SOL     OW31165   1.826   2.542   1.923
10089SOL    HW131166   1.915   2.581   1.947
10089SOL    HW231167   1.758   2.570   1.991
10090SOL     OW31168   1.017   3.915   0.773
10090SOL    HW131169   1.069   3.995   0.743
10090SOL    HW231170   1.055   3.879   0.858
10091SOL     OW31171   1.093   2.788   4.863
10091SOL    HW131172   1.177   2.828   4.826
10091SOL    HW231173   1.015   2.822   4.811
10092SOL     OW31174   1.854   3.745   5.047
10092SOL    HW131175   1.897   3.677   4.987
10092SOL    HW231176   1.891   3.836   5.026
10093SOL     OW31177   6.088   5.462   5.983
10093SOL    HW131178   6.168   5.407   6.008
10093SOL    HW231179   6.078   5.462   5.884
10094SOL     OW31180   1.839   1.679   2.616
10094SOL    HW131181   1.895   1.621   2.675
10094SOL    HW231182   1.814   1.629   2.534
10095SOL     OW31183   0.098   0.964   6.113
10095SOL    HW131184   0.052   0.919   6.036
10095SOL    HW231185   0.188   0.923   6.127
10096SOL     OW31186   0.765   5.750   2.676
10096SOL    HW131187   0.791   5.784   2.586
10096SOL    HW231188   0.840   5.697   2.715
10097SOL     OW31189   1.340   0.580   1.085
10097SOL    HW131190   1.261   0.545   1.035
10097SOL    HW231191   1.333   0.680   1.093
10098SOL     OW31192   2.257   5.100   6.710
10098SOL    HW131193   2.216   5.014   6.681
10098SOL    HW231194   2.193   5.175   6.696
10099SOL     OW31195   6.557   4.618   5.301
10099SOL    HW131196   6.622   4.690   5.321
10099SOL    HW231197   6.464   4.652   5.315
10100SOL     OW31198   5.028   0.707   4.641
10100SOL    HW131199   4.984   0.777   4.698
10100SOL    HW231200   5.018   0.617   4.685
10101SOL     OW31201   0.009   4.770   2.289
10101SOL    HW131202   6.974   4.698   2.258
10101SOL    HW231203   0.049   4.744   2.377
10102SOL     OW31204   3.222   1.522   1.752
10102SOL    HW131205   3.228   1.423   1.759
10102SOL    HW231206   3.315   1.560   1.744
10103SOL     OW31207   2.677   1.424   6.060
10103SOL    HW131208   2.677   1.523   6.047
10103SOL    HW231209   2.767   1.387   6.035
10104SOL     OW31210   0.910   5.719   4.958
10104SOL    HW131211   0.911   5.633   4.908
10104SOL    HW231212   0.963   5.709   5.043
10105SOL     OW31213   1.901   0.431   6.634
10105SOL    HW131214   1.872   0.512   6.582
10105SOL    HW231215   1.990   0.449   6.676
10106SOL     OW31216   5.421   5.933   0.453
10106SOL    HW131217   5.468   5.855   0.411
10106SOL    HW231218   5.488   5.992   0.497
10107SOL     OW31219   6.141   1.641   5.738
10107SOL    HW131220   6.083   1.563   5.714
10107SOL    HW231221   6.135   1.711   5.667
10108SOL     OW31222   6.696   0.127   0.373
10108SOL    HW131223   6.776   0.155   0.425
10108SOL    HW231224   6.619   0.111   0.436
10109SOL     OW31225   4.277   5.408   3.800
10109SOL    HW131226   4.301   5.467   3.877
10109SOL    HW231227   4.188   5.436   3.764
10110SOL     OW31228   3.888   0.559   5.820
10110SOL    HW131229   3.943   0.490   5.868
10110SOL    HW231230   3.815   0.513   5.770
10111SOL     OW31231   0.222   2.949   2.784
10111SOL    HW131232   0.286   3.025   2.796
10111SOL    HW231233   0.192   2.946   2.689
10112SOL     OW31234   4.651   4.150   5.875
10112SOL    HW131235   4.699   4.237   5.864
10112SOL    HW231236   4.559   4.166   5.911
10113SOL     OW31237   3.838   6.995   6.774
10113SOL    HW131238   3.914   0.006   6.826
10113SOL    HW231239   3.802   0.036   6.711
10114SOL     OW31240   5.382   1.135   0.946
10114SOL    HW131241   5.354   1.202   0.877
10114SOL    HW231242   5.480   1.141   0.961
10115SOL     OW31243   1.864   2.331   3.738
10115SOL    HW131244   1.786   2.333   3.675
10115SOL    HW231245   1.860   2.247   3.792
10116SOL     OW31246   0.895   1.263   1.420
10116SOL    HW131247   0.914   1.252   1.322
10116SOL    HW231248   0.852   1.180   1.455
10117SOL     OW31249   5.614   0.203   5.748
10117SOL    HW131250   5.592   0.289   5.700
10117SOL    HW231251   5.553   0.193   5.827
10118SOL     OW31252   6.944   5.575   2.266
10118SOL    HW131253   6.912   5.548   2.175
10118SOL    HW231254   6.888   5.530   2.335
10119SOL     OW31255   2.506   0.665   5.754
10119SOL    HW131256   2.407   0.665   5.770
10119SOL    HW231257   2.547   0.589   5.804
10120SOL     OW31258   7.014   2.705   4.017
10120SOL    HW131259   6.972   2.655   3.941
10120SOL    HW231260   6.943   2.753   4.068
10121SOL     OW31261   6.209   4.567   4.915
10121SOL    HW131262   6.228   4.524   4.827
10121SOL    HW231263   6.148   4.508   4.968
10122SOL     OW31264   5.517   3.525   0.319
10122SOL    HW131265   5.507   3.498   0.223
10122SOL    HW231266   5.579   3.461   0.365
10123SOL     OW31267   6.991   6.321   0.663
10123SOL    HW131268   0.059   6.346   0.674
10123SOL    HW231269   6.976   6.229   0.700
10124SOL     OW31270   3.084   3.985   6.998
10124SOL    HW131271   3.001   4.029   0.002
10124SOL    HW231272   3.078   3.968   6.899
10125SOL     OW31273   1.432   0.328   2.256
10125SOL    HW131274   1.487   0.250   2.286
10125SOL    HW231275   1.345   0.295   2.220
10126SOL     OW31276   6.253   5.113   0.764
10126SOL    HW131277   6.330   5.124   0.702
10126SOL    HW231278   6.210   5.024   0.748
10127SOL     OW31279   3.209   5.724   5.403
10127SOL    HW131280   3.308   5.710   5.407
10127SOL    HW231281   3.171   5.673   5.325
10128SOL     OW31282   6.898   2.064   0.783
10128SOL    HW131283   6.936   2.051   0.874
10128SOL    HW231284   6.829   2.137   0.785
10129SOL     OW31285   6.018   2.232   3.624
10129SOL    HW131286   5.992   2.303   3.689
10129SOL    HW231287   5.962   2.239   3.542
10130SOL     OW31288   0.026   5.874   2.646
10130SOL    HW131289   0.015   5.891   2.548
10130SOL    HW231290   0.092   5.801   2.660
10131SOL     OW31291   0.684   1.107   1.979
10131SOL    HW131292   0.649   1.056   2.057
10131SOL    HW231293   0.675   1.205   1.995
10132SOL     OW31294   2.825   6.351   2.852
10132SOL    HW131295   2.730   6.353   2.823
10132SOL    HW231296   2.850   6.440   2.891
10133SOL     OW31297   4.778   6.121   3.228
10133SOL    HW131298   4.873   6.152   3.236
10133SOL    HW231299   4.742   6.098   3.318
10134SOL     OW31300   0.237   1.283   3.452
10134SOL    HW131301   0.271   1.316   3.540
10134SOL    HW231302   0.315   1.262   3.393
10135SOL     OW31303   4.206   5.048   2.854
10135SOL    HW131304   4.125   5.034   2.797
10135SOL    HW231305   4.186   5.117   2.923
10136SOL     OW31306   6.144   0.340   3.359
10136SOL    HW131307   6.197   0.314   3.440
10136SOL    HW231308   6.170   0.433   3.332
10137SOL     OW31309   6.512   5.547   4.542
10137SOL    HW131310   6.517   5.461   4.491
10137SOL    HW231311   6.419   5.584   4.537
10138SOL     OW31312   6.165   2.100   0.068
10138SOL    HW131313   6.145   2.193   0.098
10138SOL    HW231314   6.086   2.063   0.019
10139SOL     OW31315   3.225   2.958   3.290
10139SOL    HW131316   3.224   3.033   3.224
10139SOL    HW231317   3.301   2.897   3.268
10140SOL     OW31318   6.999   5.374   6.905
10140SOL    HW131319   0.013   5.286   6.882
10140SOL    HW231320   6.917   5.359   6.960
10141SOL     OW31321   1.896   1.441   4.562
10141SOL    HW131322   1.973   1.487   4.517
10141SOL    HW231323   1.921   1.346   4.582
10142SOL     OW31324   3.798   5.797   4.645
10142SOL    HW131325   3.864   5.819   4.717
10142SOL    HW231326   3.843   5.799   4.556
10143SOL     OW31327   4.755   0.174   1.387
10143SOL    HW131328   4.794   0.237   1.319
10143SOL    HW231329   4.719   0.226   1.464
10144SOL     OW31330   3.127   5.858   4.506
10144SOL    HW131331   3.098   5.777   4.557
10144SOL    HW231332   3.138   5.934   4.570
10145SOL     OW31333   3.038   5.809   5.826
10145SOL    HW131334   3.036   5.842   5.920
10145SOL    HW231335   2.945   5.813   5.788
10146SOL     OW31336   4.168   5.310   4.188
10146SOL    HW131337   4.068   5.314   4.187
10146SOL    HW231338   4.199   5.238   4.127
10147SOL     OW31339   4.993   4.277   3.978
10147SOL    HW131340   5.065   4.211   3.957
10147SOL    HW231341   4.930   4.236   4.045
10148SOL     OW31342   6.359   5.440   0.694
10148SOL    HW131343   6.375   5.495   0.613
10148SOL    HW231344   6.262   5.447   0.720
10149SOL     OW31345   4.159   2.050   1.493
10149SOL    HW131346   4.111   1.970   1.529
10149SOL    HW231347   4.214   2.023   1.414
10150SOL     OW31348   4.963   4.294   0.782
10150SOL    HW131349   4.907   4.253   0.709
10150SOL    HW231350   5.043   4.236   0.798
10151SOL     OW31351   1.296   6.697   6.435
10151SOL    HW131352   1.347   6.703   6.349
10151SOL    HW231353   1.214   6.754   6.430
10152SOL     OW31354   0.933   4.652   3.551
10152SOL    HW131355   0.945   4.750   3.535
10152SOL    HW231356   0.906   4.637   3.646
10153SOL     OW31357   4.826   5.976   3.744
10153SOL    HW131358   4.908   5.929   3.779
10153SOL    HW231359   4.841   6.075   3.745
10154SOL     OW31360   6.483   5.910   6.053
10154SOL    HW131361   6.532   5.854   6.119
10154SOL    HW231362   6.550   5.953   5.991
10155SOL     OW31363   4.174   0.978   6.129
10155SOL    HW131364   4.225   0.909   6.077
10155SOL    HW231365   4.210   1.069   6.107
10156SOL     OW31366   5.341   0.199   2.167
10156SOL    HW131367   5.296   0.117   2.132
10156SOL    HW231368   5.323   0.209   2.265
10157SOL     OW31369   6.088   1.205   6.283
10157SOL    HW131370   6.181   1.236   6.299
10157SOL    HW231371   6.084   1.106   6.290
10158SOL     OW31372   4.183   3.583   0.252
10158SOL    HW131373   4.232   3.540   0.176
10158SOL    HW231374   4.085   3.560   0.246
10159SOL     OW31375   2.469   2.291   6.159
10159SOL    HW131376   2.470   2.381   6.204
10159SOL    HW231377   2.485   2.220   6.227
10160SOL     OW31378   0.290   4.680   3.644
10160SOL    HW131379   0.370   4.741   3.642
10160SOL    HW231380   0.320   4.585   3.638
10161SOL     OW31381   3.168   5.206   6.379
10161SOL    HW131382   3.113   5.135   6.421
10161SOL    HW231383   3.148   5.295   6.421
10162SOL     OW31384   2.470   3.053   5.932
10162SOL    HW131385   2.399   3.117   5.901
10162SOL    HW231386   2.467   3.046   6.032
10163SOL     OW31387   6.503   4.039   6.060
10163SOL    HW131388   6.506   3.942   6.037
10163SOL    HW231389   6.447   4.053   6.141
10164SOL     OW31390   6.362   3.117   5.079
10164SOL    HW131391   6.351   3.190   5.012
10164SOL    HW231392   6.459   3.103   5.098
10165SOL     OW31393   0.838   2.194   4.367
10165SOL    HW131394   0.853   2.157   4.276
10165SOL    HW231395   0.843   2.294   4.364
10166SOL     OW31396   2.832   1.865   1.465
10166SOL    HW131397   2.785   1.879   1.552
10166SOL    HW231398   2.927   1.896   1.473
10167SOL     OW31399   5.172   0.976   6.615
10167SOL    HW131400   5.168   1.068   6.654
10167SOL    HW231401   5.262   0.937   6.632
10168SOL     OW31402   6.533   4.247   4.369
10168SOL    HW131403   6.582   4.334   4.375
10168SOL    HW231404   6.465   4.242   4.442
10169SOL     OW31405   6.499   5.097   2.626
10169SOL    HW131406   6.558   5.049   2.561
10169SOL    HW231407   6.428   5.034   2.659
10170SOL     OW31408   1.033   3.892   5.373
10170SOL    HW131409   0.986   3.945   5.304
10170SOL    HW231410   1.082   3.953   5.435
10171SOL     OW31411   6.410   4.154   5.598
10171SOL    HW131412   6.426   4.059   5.568
10171SOL    HW231413   6.314   4.165   5.624
10172SOL     OW31414   4.991   0.420   2.859
10172SOL    HW131415   4.915   0.463   2.907
10172SOL    HW231416   5.040   0.489   2.805
10173SOL     OW31417   1.633   1.420   1.133
10173SOL    HW131418   1.687   1.411   1.216
10173SOL    HW231419   1.678   1.484   1.070
10174SOL     OW31420   6.173   4.462   3.226
10174SOL    HW131421   6.109   4.529   3.263
10174SOL    HW231422   6.248   4.509   3.180
10175SOL     OW31423   6.049   2.351   4.831
10175SOL    HW131424   6.079   2.341   4.736
10175SOL    HW231425   6.116   2.308   4.892
10176SOL     OW31426   1.846   3.389   6.515
10176SOL    HW131427   1.839   3.296   6.553
10176SOL    HW231428   1.829   3.456   6.587
10177SOL     OW31429   2.838   6.905   0.371
10177SOL    HW131430   2.912   6.932   0.308
10177SOL    HW231431   2.838   6.806   0.382
10178SOL     OW31432   5.627   2.981   4.325
10178SOL    HW131433   5.721   2.945   4.328
10178SOL    HW231434   5.629   3.075   4.292
10179SOL     OW31435   1.512   2.181   6.502
10179SOL    HW131436   1.472   2.248   6.565
10179SOL    HW231437   1.439   2.133   6.455
10180SOL     OW31438   2.399   5.532   5.861
10180SOL    HW131439   2.321   5.473   5.838
10180SOL    HW231440   2.391   5.619   5.813
10181SOL     OW31441   6.049   3.228   1.745
10181SOL    HW131442   6.062   3.327   1.747
10181SOL    HW231443   5.978   3.205   1.678
10182SOL     OW31444   5.893   1.113   1.311
10182SOL    HW131445   5.872   1.193   1.367
10182SOL    HW231446   5.950   1.050   1.364
10183SOL     OW31447   1.029   1.846   6.598
10183SOL    HW131448   0.993   1.914   6.533
10183SOL    HW231449   1.074   1.773   6.548
10184SOL     OW31450   4.996   1.669   6.190
10184SOL    HW131451   5.094   1.686   6.191
10184SOL    HW231452   4.955   1.716   6.112
10185SOL     OW31453   5.023   6.964   0.885
10185SOL    HW131454   5.066   0.024   0.907
10185SOL    HW231455   5.004   6.914   0.970
10186SOL     OW31456   5.033   2.876   3.164
10186SOL    HW131457   4.979   2.805   3.119
10186SOL    HW231458   5.091   2.922   3.096
10187SOL     OW31459   0.737   2.150   1.859
10187SOL    HW131460   0.699   2.093   1.933
10187SOL    HW231461   0.837   2.152   1.867
10188SOL     OW31462   4.056   6.389   0.488
10188SOL    HW131463   4.024   6.428   0.574
10188SOL    HW231464   4.023   6.444   0.412
10189SOL     OW31465   2.366   6.491   5.094
10189SOL    HW131466   2.300   6.545   5.043
10189SOL    HW231467   2.428   6.445   5.030
10190SOL     OW31468   4.516   2.443   0.529
10190SOL    HW131469   4.509   2.445   0.629
10190SOL    HW231470   4.464   2.520   0.490
10191SOL     OW31471   5.020   4.643   6.350
10191SOL    HW131472   4.952   4.654   6.423
10191SOL    HW231473   5.063   4.731   6.331
10192SOL     OW31474   3.637   0.584   5.000
10192SOL    HW131475   3.538   0.596   4.994
10192SOL    HW231476   3.680   0.674   5.005
10193SOL     OW31477   4.428   4.306   0.937
10193SOL    HW131478   4.370   4.236   0.981
10193SOL    HW231479   4.496   4.261   0.879
10194SOL     OW31480   6.224   4.302   5.318
10194SOL    HW131481   6.195   4.397   5.330
10194SOL    HW231482   6.291   4.297   5.244
10195SOL     OW31483   6.784   4.574   1.662
10195SOL    HW131484   6.876   4.581   1.621
10195SOL    HW231485   6.718   4.622   1.604
10196SOL     OW31486   6.808   1.130   5.147
10196SOL    HW131487   6.853   1.104   5.061
10196SOL    HW231488   6.873   1.177   5.206
10197SOL     OW31489   6.681   0.756   5.589
10197SOL    HW131490   6.725   0.742   5.500
10197SOL    HW231491   6.616   0.832   5.583
10198SOL     OW31492   3.758   0.175   2.521
10198SOL    HW131493   3.857   0.169   2.514
10198SOL    HW231494   3.732   0.207   2.612
10199SOL     OW31495   1.195   2.772   5.478
10199SOL    HW131496   1.146   2.812   5.555
10199SOL    HW231497   1.185   2.673   5.479
10200SOL     OW31498   5.748   2.901   1.323
10200SOL    HW131499   5.688   2.917   1.245
10200SOL    HW231500   5.788   2.988   1.353
10201SOL     OW31501   0.850   4.285   1.054
10201SOL    HW131502   0.873   4.377   1.086
10201SOL    HW231503   0.838   4.285   0.955
10202SOL     OW31504   4.047   1.584   5.412
10202SOL    HW131505   4.027   1.551   5.504
10202SOL    HW231506   4.119   1.654   5.417
10203SOL     OW31507   5.969   2.656   5.156
10203SOL    HW131508   6.015   2.587   5.100
10203SOL    HW231509   5.883   2.681   5.113
10204SOL     OW31510   5.153   0.049   6.480
10204SOL    HW131511   5.062   0.081   6.453
10204SOL    HW231512   5.144   7.003   6.547
10205SOL     OW31513   1.080   0.877   6.694
10205SOL    HW131514   1.049   0.794   6.740
10205SOL    HW231515   1.078   0.953   6.759
10206SOL     OW31516   1.206   0.818   5.691
10206SOL    HW131517   1.118   0.838   5.733
10206SOL    HW231518   1.219   0.719   5.684
10207SOL     OW31519   1.521   1.605   5.927
10207SOL    HW131520   1.464   1.580   5.849
10207SOL    HW231521   1.588   1.533   5.944
10208SOL     OW31522   6.282   4.919   4.823
10208SOL    HW131523   6.370   4.910   4.778
10208SOL    HW231524   6.293   4.968   4.909
10209SOL     OW31525   6.634   6.969   6.426
10209SOL    HW131526   6.607   0.008   6.357
10209SOL    HW231527   6.651   6.881   6.382
10210SOL     OW31528   4.116   5.888   1.424
10210SOL    HW131529   4.099   5.906   1.327
10210SOL    HW231530   4.056   5.944   1.480
10211SOL     OW31531   4.136   6.226   5.647
10211SOL    HW131532   4.047   6.184   5.631
10211SOL    HW231533   4.125   6.326   5.651
10212SOL     OW31534   0.830   0.214   6.067
10212SOL    HW131535   0.920   0.175   6.047
10212SOL    HW231536   0.826   0.242   6.162
10213SOL     OW31537   5.088   1.867   0.298
10213SOL    HW131538   5.018   1.862   0.370
10213SOL    HW231539   5.053   1.922   0.222
10214SOL     OW31540   0.663   3.028   1.641
10214SOL    HW131541   0.632   3.098   1.705
10214SOL    HW231542   0.687   3.072   1.554
10215SOL     OW31543   3.479   3.163   2.320
10215SOL    HW131544   3.394   3.135   2.276
10215SOL    HW231545   3.505   3.254   2.286
10216SOL     OW31546   6.722   0.328   1.695
10216SOL    HW131547   6.626   0.353   1.683
10216SOL    HW231548   6.728   0.232   1.724
10217SOL     OW31549   2.958   0.989   3.478
10217SOL    HW131550   3.045   1.035   3.457
10217SOL    HW231551   2.946   0.911   3.417
10218SOL     OW31552   1.377   2.821   2.999
10218SOL    HW131553   1.354   2.724   2.984
10218SOL    HW231554   1.382   2.867   2.910
10219SOL     OW31555   0.595   1.079   2.370
10219SOL    HW131556   0.500   1.080   2.401
10219SOL    HW231557   0.633   0.987   2.382
10220SOL     OW31558   3.546   2.612   1.550
10220SOL    HW131559   3.628   2.573   1.507
10220SOL    HW231560   3.506   2.543   1.611
10221SOL     OW31561   1.159   6.060   2.981
10221SOL    HW131562   1.135   5.973   3.024
10221SOL    HW231563   1.106   6.133   3.022
10222SOL     OW31564   3.551   3.648   5.072
10222SOL    HW131565   3.636   3.632   5.022
10222SOL    HW231566   3.478   3.669   5.007
10223SOL     OW31567   0.772   5.556   1.573
10223SOL    HW131568   0.682   5.595   1.559
10223SOL    HW231569   0.814   5.598   1.654
10224SOL     OW31570   6.157   4.180   3.291
10224SOL    HW131571   6.146   4.272   3.253
10224SOL    HW231572   6.202   4.185   3.380
10225SOL     OW31573   2.267   3.724   6.280
10225SOL    HW131574   2.315   3.744   6.365
10225SOL    HW231575   2.185   3.670   6.300
10226SOL     OW31576   4.384   2.637   0.389
10226SOL    HW131577   4.298   2.665   0.431
10226SOL    HW231578   4.417   2.711   0.329
10227SOL     OW31579   5.469   3.856   1.149
10227SOL    HW131580   5.504   3.829   1.059
10227SOL    HW231581   5.370   3.842   1.152
10228SOL     OW31582   5.449   0.476   0.771
10228SOL    HW131583   5.373   0.534   0.800
10228SOL    HW231584   5.533   0.505   0.818
10229SOL     OW31585   0.574   3.518   4.545
10229SOL    HW131586   0.645   3.447   4.543
10229SOL    HW231587   0.521   3.515   4.461
10230SOL     OW31588   6.775   6.488   2.267
10230SOL    HW131589   6.859   6.498   2.214
10230SOL    HW231590   6.797   6.460   2.360
10231SOL     OW31591   1.370   5.532   3.077
10231SOL    HW131592   1.418   5.480   3.006
10231SOL    HW231593   1.431   5.602   3.113
10232SOL     OW31594   5.042   6.230   3.315
10232SOL    HW131595   5.096   6.166   3.260
10232SOL    HW231596   5.101   6.305   3.345
10233SOL     OW31597   4.207   4.456   6.285
10233SOL    HW131598   4.161   4.504   6.359
10233SOL    HW231599   4.186   4.359   6.290
10234SOL     OW31600   0.021   0.845   1.564
10234SOL    HW131601   0.015   0.818   1.468
10234SOL    HW231602   6.991   0.925   1.580
10235SOL     OW31603   1.374   1.184   3.207
10235SOL    HW131604   1.280   1.195   3.240
10235SOL    HW231605   1.399   1.087   3.209
10236SOL     OW31606   2.526   6.820   1.872
10236SOL    HW131607   2.496   6.738   1.824
10236SOL    HW231608   2.447   6.879   1.889
10237SOL     OW31609   0.142   3.428   6.455
10237SOL    HW131610   0.044   3.412   6.439
10237SOL    HW231611   0.194   3.385   6.381
10238SOL     OW31612   3.634   5.989   1.183
10238SOL    HW131613   3.679   5.910   1.225
10238SOL    HW231614   3.656   5.992   1.086
10239SOL     OW31615   1.775   2.561   4.285
10239SOL    HW131616   1.676   2.564   4.299
10239SOL    HW231617   1.809   2.652   4.263
10240SOL     OW31618   2.846   6.352   1.076
10240SOL    HW131619   2.756   6.320   1.046
10240SOL    HW231620   2.916   6.316   1.015
10241SOL     OW31621   3.805   2.310   1.683
10241SOL    HW131622   3.842   2.389   1.635
10241SOL    HW231623   3.739   2.341   1.752
10242SOL     OW31624   6.785   2.674   0.125
10242SOL    HW131625   6.810   2.597   0.183
10242SOL    HW231626   6.862   2.737   0.117
10243SOL     OW31627   2.402   5.208   0.933
10243SOL    HW131628   2.341   5.150   0.878
10243SOL    HW231629   2.361   5.223   1.023
10244SOL     OW31630   2.700   4.116   1.595
10244SOL    HW131631   2.647   4.186   1.547
10244SOL    HW231632   2.794   4.149   1.607
10245SOL     OW31633   3.927   4.430   0.749
10245SOL    HW131634   4.009   4.432   0.805
10245SOL    HW231635   3.904   4.335   0.726
10246SOL     OW31636   3.212   3.036   4.753
10246SOL    HW131637   3.286   2.996   4.699
10246SOL    HW231638   3.226   3.014   4.850
10247SOL     OW31639   0.841   2.982   4.912
10247SOL    HW131640   0.921   3.020   4.958
10247SOL    HW231641   0.782   2.937   4.978
10248SOL     OW31642   0.833   0.100   3.269
10248SOL    HW131643   0.923   0.059   3.252
10248SOL    HW231644   0.820   0.177   3.206
10249SOL     OW31645   2.611   4.862   6.298
10249SOL    HW131646   2.633   4.863   6.201
10249SOL    HW231647   2.541   4.793   6.316
10250SOL     OW31648   4.814   2.255   0.017
10250SOL    HW131649   4.778   2.286   0.105
10250SOL    HW231650   4.834   2.334   6.987
10251SOL     OW31651   2.155   0.140   4.485
10251SOL    HW131652   2.176   0.071   4.416
10251SOL    HW231653   2.234   0.200   4.497
10252SOL     OW31654   5.268   4.153   5.973
10252SOL    HW131655   5.175   4.126   5.997
10252SOL    HW231656   5.320   4.073   5.944
10253SOL     OW31657   4.031   6.830   6.638
10253SOL    HW131658   3.943   6.859   6.676
10253SOL    HW231659   4.096   6.906   6.642
10254SOL     OW31660   5.351   1.312   4.676
10254SOL    HW131661   5.363   1.411   4.664
10254SOL    HW231662   5.414   1.279   4.746
10255SOL     OW31663   3.611   5.308   1.831
10255SOL    HW131664   3.519   5.328   1.797
10255SOL    HW231665   3.608   5.227   1.890
10256SOL     OW31666   4.361   0.607   2.922
10256SOL    HW131667   4.271   0.596   2.880
10256SOL    HW231668   4.401   0.693   2.893
10257SOL     OW31669   3.112   4.956   3.060
10257SOL    HW131670   3.044   4.957   2.986
10257SOL    HW231671   3.154   5.046   3.068
10258SOL     OW31672   1.863   1.616   1.703
10258SOL    HW131673   1.949   1.603   1.654
10258SOL    HW231674   1.789   1.569   1.653
10259SOL     OW31675   0.470   3.480   3.625
10259SOL    HW131676   0.387   3.452   3.576
10259SOL    HW231677   0.466   3.578   3.644
10260SOL     OW31678   1.089   1.443   3.849
10260SOL    HW131679   1.165   1.475   3.792
10260SOL    HW231680   1.109   1.351   3.882
10261SOL     OW31681   6.495   3.802   0.939
10261SOL    HW131682   6.549   3.825   0.858
10261SOL    HW231683   6.426   3.735   0.915
10262SOL     OW31684   3.422   1.193   0.028
10262SOL    HW131685   3.367   1.142   6.989
10262SOL    HW231686   3.515   1.203   7.020
10263SOL     OW31687   5.938   0.753   1.654
10263SOL    HW131688   5.882   0.671   1.665
10263SOL    HW231689   5.878   0.833   1.650
10264SOL     OW31690   6.727   5.644   6.796
10264SOL    HW131691   6.817   5.679   6.819
10264SOL    HW231692   6.734   5.579   6.720
10265SOL     OW31693   1.831   1.810   0.279
10265SOL    HW131694   1.815   1.908   0.289
10265SOL    HW231695   1.920   1.795   0.236
10266SOL     OW31696   2.949   3.486   2.149
10266SOL    HW131697   2.901   3.403   2.121
10266SOL    HW231698   3.021   3.462   2.215
10267SOL     OW31699   5.764   0.955   0.709
10267SOL    HW131700   5.676   0.921   0.742
10267SOL    HW231701   5.766   1.055   0.715
10268SOL     OW31702   4.516   0.511   1.099
10268SOL    HW131703   4.582   0.581   1.074
10268SOL    HW231704   4.423   0.547   1.089
10269SOL     OW31705   2.395   2.054   6.279
10269SOL    HW131706   2.306   2.052   6.324
10269SOL    HW231707   2.464   2.014   6.339
10270SOL     OW31708   3.210   6.286   1.964
10270SOL    HW131709   3.161   6.211   2.008
10270SOL    HW231710   3.182   6.293   1.868
10271SOL     OW31711   1.405   2.403   0.043
10271SOL    HW131712   1.309   2.375   0.041
10271SOL    HW231713   1.412   2.496   0.078
10272SOL     OW31714   6.413   0.416   5.009
10272SOL    HW131715   6.391   0.319   5.007
10272SOL    HW231716   6.391   0.454   5.099
10273SOL     OW31717   2.374   5.329   3.361
10273SOL    HW131718   2.309   5.345   3.435
10273SOL    HW231719   2.448   5.269   3.394
10274SOL     OW31720   0.233   4.909   4.886
10274SOL    HW131721   0.235   4.815   4.922
10274SOL    HW231722   0.228   4.905   4.786
10275SOL     OW31723   0.121   0.598   2.916
10275SOL    HW131724   0.129   0.505   2.951
10275SOL    HW231725   0.206   0.648   2.934
10276SOL     OW31726   4.026   5.882   6.189
10276SOL    HW131727   4.060   5.974   6.211
10276SOL    HW231728   4.016   5.873   6.090
10277SOL     OW31729   0.558   6.738   4.685
10277SOL    HW131730   0.541   6.666   4.618
10277SOL    HW231731   0.631   6.710   4.746
10278SOL     OW31732   0.146   0.510   5.325
10278SOL    HW131733   0.201   0.539   5.404
10278SOL    HW231734   0.108   0.420   5.341
10279SOL     OW31735   1.877   5.852   4.142
10279SOL    HW131736   1.862   5.935   4.197
10279SOL    HW231737   1.907   5.878   4.051
10280SOL     OW31738   5.426   4.047   0.724
10280SOL    HW131739   5.510   4.011   0.765
10280SOL    HW231740   5.417   4.011   0.631
10281SOL     OW31741   6.706   2.155   3.846
10281SOL    HW131742   6.755   2.207   3.776
10281SOL    HW231743   6.611   2.141   3.816
10282SOL     OW31744   5.122   3.873   3.556
10282SOL    HW131745   5.125   3.961   3.604
10282SOL    HW231746   5.215   3.839   3.543
10283SOL     OW31747   0.503   4.140   0.731
10283SOL    HW131748   0.480   4.141   0.634
10283SOL    HW231749   0.423   4.167   0.785
10284SOL     OW31750   0.381   2.789   3.787
10284SOL    HW131751   0.318   2.812   3.861
10284SOL    HW231752   0.474   2.782   3.824
10285SOL     OW31753   5.127   6.258   4.710
10285SOL    HW131754   5.176   6.339   4.744
10285SOL    HW231755   5.185   6.177   4.721
10286SOL     OW31756   2.868   1.591   4.360
10286SOL    HW131757   2.799   1.650   4.402
10286SOL    HW231758   2.894   1.519   4.424
10287SOL     OW31759   2.281   5.869   3.071
10287SOL    HW131760   2.226   5.821   3.002
10287SOL    HW231761   2.375   5.837   3.067
10288SOL     OW31762   3.685   0.195   5.494
10288SOL    HW131763   3.715   0.106   5.529
10288SOL    HW231764   3.764   0.245   5.457
10289SOL     OW31765   2.376   5.951   6.481
10289SOL    HW131766   2.423   6.013   6.419
10289SOL    HW231767   2.350   5.867   6.432
10290SOL     OW31768   3.240   3.018   2.247
10290SOL    HW131769   3.206   3.112   2.245
10290SOL    HW231770   3.241   2.981   2.155
10291SOL     OW31771   2.478   1.281   2.522
10291SOL    HW131772   2.478   1.372   2.480
10291SOL    HW231773   2.493   1.212   2.451
10292SOL     OW31774   6.270   6.512   6.543
10292SOL    HW131775   6.217   6.593   6.569
10292SOL    HW231776   6.352   6.506   6.599
10293SOL     OW31777   1.011   3.689   4.222
10293SOL    HW131778   1.101   3.708   4.263
10293SOL    HW231779   0.940   3.705   4.290
10294SOL     OW31780   3.580   1.659   2.544
10294SOL    HW131781   3.564   1.687   2.638
10294SOL    HW231782   3.570   1.737   2.483
10295SOL     OW31783   0.960   2.550   0.184
10295SOL    HW131784   0.983   2.636   0.138
10295SOL    HW231785   0.870   2.520   0.153
10296SOL     OW31786   5.913   1.220   5.990
10296SOL    HW131787   5.956   1.291   6.045
10296SOL    HW231788   5.875   1.149   6.050
10297SOL     OW31789   3.126   1.924   6.530
10297SOL    HW131790   3.115   1.850   6.463
10297SOL    HW231791   3.064   1.999   6.507
10298SOL     OW31792   0.438   2.462   2.910
10298SOL    HW131793   0.409   2.428   2.999
10298SOL    HW231794   0.404   2.555   2.896
10299SOL     OW31795   4.033   6.085   1.995
10299SOL    HW131796   3.971   6.136   2.054
10299SOL    HW231797   4.110   6.051   2.049
10300SOL     OW31798   0.258   3.310   1.627
10300SOL    HW131799   0.201   3.304   1.709
10300SOL    HW231800   0.332   3.375   1.643
10301SOL     OW31801   4.000   1.156   6.466
10301SOL    HW131802   3.952   1.164   6.553
10301SOL    HW231803   3.980   1.067   6.425
10302SOL     OW31804   2.685   5.815   4.519
10302SOL    HW131805   2.693   5.720   4.549
10302SOL    HW231806   2.619   5.821   4.444
10303SOL     OW31807   1.016   6.348   4.982
10303SOL    HW131808   0.926   6.347   4.940
10303SOL    HW231809   1.072   6.273   4.945
10304SOL     OW31810   6.285   6.826   6.977
10304SOL    HW131811   6.358   6.798   0.012
10304SOL    HW231812   6.300   6.920   6.948
10305SOL     OW31813   2.104   4.044   5.865
10305SOL    HW131814   2.111   3.951   5.831
10305SOL    HW231815   2.127   4.046   5.962
10306SOL     OW31816   5.211   7.027   1.236
10306SOL    HW131817   5.223   0.024   1.140
10306SOL    HW231818   5.114   7.026   1.258
10307SOL     OW31819   2.568   0.296   5.119
10307SOL    HW131820   2.498   0.266   5.184
10307SOL    HW231821   2.525   0.331   5.036
10308SOL     OW31822   2.508   4.523   2.700
10308SOL    HW131823   2.472   4.433   2.723
10308SOL    HW231824   2.465   4.556   2.616
10309SOL     OW31825   6.506   0.973   5.513
10309SOL    HW131826   6.505   0.900   5.444
10309SOL    HW231827   6.420   1.024   5.509
10310SOL     OW31828   3.207   2.770   6.128
10310SOL    HW131829   3.274   2.766   6.202
10310SOL    HW231830   3.154   2.854   6.136
10311SOL     OW31831   5.594   6.239   6.802
10311SOL    HW131832   5.541   6.161   6.771
10311SOL    HW231833   5.584   6.250   6.901
10312SOL     OW31834   4.478   0.489   2.126
10312SOL    HW131835   4.522   0.479   2.215
10312SOL    HW231836   4.413   0.415   2.113
10313SOL     OW31837   4.997   6.357   2.956
10313SOL    HW131838   4.958   6.423   3.020
10313SOL    HW231839   5.088   6.387   2.928
10314SOL     OW31840   0.717   6.901   0.680
10314SOL    HW131841   0.669   6.895   0.768
10314SOL    HW231842   0.814   6.919   0.696
10315SOL     OW31843   5.361   6.452   3.638
10315SOL    HW131844   5.284   6.435   3.699
10315SOL    HW231845   5.375   6.373   3.579
10316SOL     OW31846   0.357   2.491   6.378
10316SOL    HW131847   0.362   2.514   6.281
10316SOL    HW231848   0.403   2.562   6.431
10317SOL     OW31849   3.318   5.876   5.753
10317SOL    HW131850   3.229   5.834   5.770
10317SOL    HW231851   3.363   5.897   5.840
10318SOL     OW31852   6.037   6.969   0.105
10318SOL    HW131853   6.123   6.938   0.144
10318SOL    HW231854   6.037   0.041   0.099
10319SOL     OW31855   0.231   4.453   4.372
10319SOL    HW131856   0.227   4.409   4.462
10319SOL    HW231857   0.139   4.465   4.336
10320SOL     OW31858   0.537   0.492   3.726
10320SOL    HW131859   0.532   0.454   3.633
10320SOL    HW231860   0.633   0.504   3.752
10321SOL     OW31861   5.370   2.094   1.709
10321SOL    HW131862   5.326   2.150   1.779
10321SOL    HW231863   5.461   2.068   1.741
10322SOL     OW31864   4.573   4.426   4.812
10322SOL    HW131865   4.502   4.479   4.859
10322SOL    HW231866   4.531   4.372   4.739
10323SOL     OW31867   0.123   4.355   5.145
10323SOL    HW131868   0.167   4.406   5.219
10323SOL    HW231869   0.095   4.265   5.179
10324SOL     OW31870   3.272   3.536   2.167
10324SOL    HW131871   3.348   3.540   2.102
10324SOL    HW231872   3.270   3.620   2.221
10325SOL     OW31873   0.504   6.042   2.873
10325SOL    HW131874   0.411   6.005   2.868
10325SOL    HW231875   0.566   5.972   2.908
10326SOL     OW31876   5.288   3.607   6.952
10326SOL    HW131877   5.204   3.585   6.904
10326SOL    HW231878   5.272   3.684   7.014
10327SOL     OW31879   2.939   3.901   1.054
10327SOL    HW131880   3.029   3.924   1.092
10327SOL    HW231881   2.876   3.878   1.127
10328SOL     OW31882   6.356   2.969   2.068
10328SOL    HW131883   6.410   3.015   1.997
10328SOL    HW231884   6.336   2.875   2.039
10329SOL     OW31885   3.312   1.667   3.156
10329SOL    HW131886   3.291   1.647   3.060
10329SOL    HW231887   3.366   1.750   3.161
10330SOL     OW31888   4.541   0.223   1.094
10330SOL    HW131889   4.571   0.187   1.182
10330SOL    HW231890   4.556   0.322   1.092
10331SOL     OW31891   6.595   5.623   0.064
10331SOL    HW131892   6.572   5.555   7.023
10331SOL    HW231893   6.529   5.618   0.139
10332SOL     OW31894   1.376   0.876   0.638
10332SOL    HW131895   1.383   0.915   0.731
10332SOL    HW231896   1.283   0.847   0.621
10333SOL     OW31897   1.194   5.939   4.685
10333SOL    HW131898   1.277   5.911   4.733
10333SOL    HW231899   1.126   5.866   4.689
10334SOL     OW31900   3.348   0.176   3.872
10334SOL    HW131901   3.271   0.154   3.931
10334SOL    HW231902   3.369   0.273   3.879
10335SOL     OW31903   0.547   3.741   6.079
10335SOL    HW131904   0.514   3.679   6.008
10335SOL    HW231905   0.489   3.735   6.160
10336SOL     OW31906   5.561   7.017   2.804
10336SOL    HW131907   5.629   0.036   2.748
10336SOL    HW231908   5.606   6.978   2.885
10337SOL     OW31909   6.203   5.319   0.182
10337SOL    HW131910   6.288   5.302   0.132
10337SOL    HW231911   6.180   5.238   0.236
10338SOL     OW31912   1.907   6.282   2.030
10338SOL    HW131913   1.815   6.279   1.989
10338SOL    HW231914   1.970   6.228   1.975
10339SOL     OW31915   6.834   2.532   5.850
10339SOL    HW131916   6.863   2.452   5.902
10339SOL    HW231917   6.735   2.545   5.860
10340SOL     OW31918   1.657   3.435   6.274
10340SOL    HW131919   1.575   3.427   6.217
10340SOL    HW231920   1.709   3.516   6.247
10341SOL     OW31921   2.224   2.898   2.739
10341SOL    HW131922   2.248   2.913   2.834
10341SOL    HW231923   2.283   2.827   2.700
10342SOL     OW31924   1.343   0.713   3.882
10342SOL    HW131925   1.426   0.663   3.856
10342SOL    HW231926   1.265   0.651   3.881
10343SOL     OW31927   2.083   5.709   1.069
10343SOL    HW131928   2.097   5.801   1.105
10343SOL    HW231929   2.029   5.655   1.133
10344SOL     OW31930   3.616   4.552   6.198
10344SOL    HW131931   3.714   4.572   6.200
10344SOL    HW231932   3.567   4.619   6.254
10345SOL     OW31933   1.175   2.947   5.276
10345SOL    HW131934   1.257   2.944   5.219
10345SOL    HW231935   1.180   2.875   5.345
10346SOL     OW31936   0.622   6.068   1.964
10346SOL    HW131937   0.691   6.009   2.008
10346SOL    HW231938   0.656   6.162   1.962
10347SOL     OW31939   4.543   1.750   3.861
10347SOL    HW131940   4.527   1.764   3.958
10347SOL    HW231941   4.633   1.707   3.848
10348SOL     OW31942   6.045   4.111   0.864
10348SOL    HW131943   6.007   4.046   0.798
10348SOL    HW231944   6.138   4.135   0.837
10349SOL     OW31945   0.185   6.507   6.389
10349SOL    HW131946   0.189   6.570   6.312
10349SOL    HW231947   0.146   6.554   6.469
10350SOL     OW31948   2.866   6.666   5.277
10350SOL    HW131949   2.829   6.604   5.209
10350SOL    HW231950   2.870   6.620   5.366
10351SOL     OW31951   4.426   5.014   5.770
10351SOL    HW131952   4.497   5.074   5.734
10351SOL    HW231953   4.460   4.968   5.852
10352SOL     OW31954   4.020   2.318   5.892
10352SOL    HW131955   4.095   2.255   5.873
10352SOL    HW231956   3.965   2.282   5.968
10353SOL     OW31957   6.892   2.688   4.784
10353SOL    HW131958   6.851   2.658   4.870
10353SOL    HW231959   6.970   2.748   4.803
10354SOL     OW31960   5.347   1.270   2.283
10354SOL    HW131961   5.360   1.326   2.201
10354SOL    HW231962   5.251   1.273   2.310
10355SOL     OW31963   2.462   5.749   2.272
10355SOL    HW131964   2.486   5.662   2.315
10355SOL    HW231965   2.366   5.745   2.242
10356SOL     OW31966   0.072   4.111   5.252
10356SOL    HW131967   0.164   4.099   5.287
10356SOL    HW231968   0.036   4.024   5.219
10357SOL     OW31969   2.398   1.860   6.699
10357SOL    HW131970   2.422   1.763   6.693
10357SOL    HW231971   2.333   1.882   6.626
10358SOL     OW31972   0.223   2.053   1.611
10358SOL    HW131973   0.216   2.043   1.710
10358SOL    HW231974   0.318   2.039   1.583
10359SOL     OW31975   0.031   1.226   1.943
10359SOL    HW131976   0.068   1.135   1.922
10359SOL    HW231977   7.016   1.265   1.861
10360SOL     OW31978   5.614   6.032   3.555
10360SOL    HW131979   5.628   5.978   3.473
10360SOL    HW231980   5.703   6.052   3.597
10361SOL     OW31981   2.465   5.349   1.792
10361SOL    HW131982   2.527   5.423   1.765
10361SOL    HW231983   2.433   5.366   1.885
10362SOL     OW31984   1.753   4.159   4.813
10362SOL    HW131985   1.806   4.229   4.764
10362SOL    HW231986   1.664   4.196   4.838
10363SOL     OW31987   5.024   0.730   3.453
10363SOL    HW131988   4.931   0.730   3.489
10363SOL    HW231989   5.084   0.780   3.515
10364SOL     OW31990   1.951   4.347   1.378
10364SOL    HW131991   2.040   4.304   1.360
10364SOL    HW231992   1.949   4.382   1.472
10365SOL     OW31993   5.083   5.327   7.014
10365SOL    HW131994   5.078   5.281   0.074
10365SOL    HW231995   5.021   5.283   6.949
10366SOL     OW31996   2.932   6.600   2.888
10366SOL    HW131997   3.031   6.599   2.881
10366SOL    HW231998   2.892   6.630   2.802
10367SOL     OW31999   6.234   2.663   3.738
10367SOL    HW132000   6.281   2.697   3.819
10367SOL    HW232001   6.299   2.618   3.677
10368SOL     OW32002   1.564   0.800   1.741
10368SOL    HW132003   1.636   0.842   1.796
10368SOL    HW232004   1.475   0.836   1.770
10369SOL     OW32005   3.671   2.642   0.082
10369SOL    HW132006   3.607   2.679   0.015
10369SOL    HW232007   3.621   2.612   0.163
10370SOL     OW32008   3.884   0.862   5.400
10370SOL    HW132009   3.921   0.820   5.317
10370SOL    HW232010   3.943   0.938   5.427
10371SOL     OW32011   4.619   6.531   5.277
10371SOL    HW132012   4.613   6.610   5.216
10371SOL    HW232013   4.678   6.461   5.235
10372SOL     OW32014   2.086   0.947   4.055
10372SOL    HW132015   2.100   0.915   4.149
10372SOL    HW232016   2.165   0.920   3.999
10373SOL     OW32017   0.927   6.352   4.372
10373SOL    HW132018   1.025   6.355   4.392
10373SOL    HW232019   0.905   6.265   4.329
10374SOL     OW32020   2.720   2.381   2.980
10374SOL    HW132021   2.818   2.368   2.994
10374SOL    HW232022   2.700   2.380   2.882
10375SOL     OW32023   5.726   1.997   0.673
10375SOL    HW132024   5.686   2.066   0.734
10375SOL    HW232025   5.818   2.025   0.647
10376SOL     OW32026   0.964   1.135   3.680
10376SOL    HW132027   0.941   1.135   3.583
10376SOL    HW232028   1.063   1.140   3.691
10377SOL     OW32029   0.847   0.600   4.145
10377SOL    HW132030   0.831   0.512   4.101
10377SOL    HW232031   0.816   0.673   4.085
10378SOL     OW32032   0.178   0.344   6.565
10378SOL    HW132033   0.190   0.337   6.467
10378SOL    HW232034   0.098   0.290   6.593
10379SOL     OW32035   5.299   1.084   4.397
10379SOL    HW132036   5.350   1.168   4.379
10379SOL    HW232037   5.201   1.102   4.386
10380SOL     OW32038   5.155   0.446   2.166
10380SOL    HW132039   5.057   0.426   2.174
10380SOL    HW232040   5.206   0.360   2.160
10381SOL     OW32041   4.784   4.946   5.910
10381SOL    HW132042   4.811   4.945   5.814
10381SOL    HW232043   4.839   5.013   5.959
10382SOL     OW32044   2.495   5.198   0.218
10382SOL    HW132045   2.415   5.246   0.181
10382SOL    HW232046   2.473   5.161   0.308
10383SOL     OW32047   0.461   2.553   0.563
10383SOL    HW132048   0.376   2.546   0.615
10383SOL    HW232049   0.442   2.597   0.475
10384SOL     OW32050   6.349   0.177   0.119
10384SOL    HW132051   6.405   0.257   0.138
10384SOL    HW232052   6.367   0.106   0.187
10385SOL     OW32053   6.163   1.544   6.328
10385SOL    HW132054   6.100   1.477   6.288
10385SOL    HW232055   6.118   1.633   6.333
10386SOL     OW32056   6.214   2.548   5.953
10386SOL    HW132057   6.174   2.598   5.877
10386SOL    HW232058   6.205   2.602   6.037
10387SOL     OW32059   1.995   2.647   3.156
10387SOL    HW132060   1.974   2.624   3.251
10387SOL    HW232061   2.094   2.663   3.147
10388SOL     OW32062   1.542   4.859   2.792
10388SOL    HW132063   1.489   4.906   2.862
10388SOL    HW232064   1.535   4.909   2.706
10389SOL     OW32065   0.800   4.764   2.935
10389SOL    HW132066   0.800   4.729   2.841
10389SOL    HW232067   0.725   4.828   2.946
10390SOL     OW32068   1.282   3.070   3.670
10390SOL    HW132069   1.305   3.030   3.581
10390SOL    HW232070   1.222   3.008   3.720
10391SOL     OW32071   2.579   6.372   5.981
10391SOL    HW132072   2.546   6.430   5.907
10391SOL    HW232073   2.678   6.383   5.992
10392SOL     OW32074   6.454   5.205   0.364
10392SOL    HW132075   6.511   5.254   0.298
10392SOL    HW232076   6.478   5.235   0.457
10393SOL     OW32077   1.513   1.325   4.183
10393SOL    HW132078   1.419   1.290   4.192
10393SOL    HW232079   1.559   1.318   4.272
10394SOL     OW32080   1.841   6.450   6.932
10394SOL    HW132081   1.907   6.520   6.905
10394SOL    HW232082   1.753   6.468   6.887
10395SOL     OW32083   0.194   1.215   4.882
10395SOL    HW132084   0.259   1.158   4.832
10395SOL    HW232085   0.239   1.252   4.963
10396SOL     OW32086   0.378   0.123   5.299
10396SOL    HW132087   0.397   0.028   5.325
10396SOL    HW232088   0.281   0.142   5.313
10397SOL     OW32089   4.420   1.474   2.730
10397SOL    HW132090   4.333   1.443   2.691
10397SOL    HW232091   4.406   1.501   2.825
10398SOL     OW32092   6.603   2.630   2.397
10398SOL    HW132093   6.647   2.567   2.461
10398SOL    HW232094   6.567   2.709   2.447
10399SOL     OW32095   5.676   2.129   5.344
10399SOL    HW132096   5.689   2.213   5.291
10399SOL    HW232097   5.765   2.093   5.372
10400SOL     OW32098   2.327   4.832   1.954
10400SOL    HW132099   2.415   4.815   1.999
10400SOL    HW232100   2.340   4.831   1.855
10401SOL     OW32101   0.373   6.360   1.357
10401SOL    HW132102   0.330   6.434   1.306
10401SOL    HW232103   0.437   6.398   1.423
10402SOL     OW32104   0.310   3.040   4.377
10402SOL    HW132105   0.283   2.954   4.421
10402SOL    HW232106   0.410   3.047   4.376
10403SOL     OW32107   5.405   0.842   2.177
10403SOL    HW132108   5.364   0.765   2.226
10403SOL    HW232109   5.367   0.928   2.214
10404SOL     OW32110   0.632   6.470   3.773
10404SOL    HW132111   0.562   6.399   3.775
10404SOL    HW232112   0.722   6.430   3.793
10405SOL     OW32113   1.625   6.501   5.664
10405SOL    HW132114   1.702   6.516   5.727
10405SOL    HW232115   1.613   6.582   5.606
10406SOL     OW32116   2.418   4.745   6.150
10406SOL    HW132117   2.339   4.806   6.140
10406SOL    HW232118   2.437   4.701   6.063
10407SOL     OW32119   1.037   1.549   0.171
10407SOL    HW132120   1.014   1.460   0.210
10407SOL    HW232121   1.108   1.593   0.227
10408SOL     OW32122   4.440   5.483   3.129
10408SOL    HW132123   4.428   5.575   3.166
10408SOL    HW232124   4.367   5.463   3.064
10409SOL     OW32125   6.032   4.986   2.306
10409SOL    HW132126   5.947   4.999   2.256
10409SOL    HW232127   6.094   5.063   2.287
10410SOL     OW32128   5.765   6.821   0.815
10410SOL    HW132129   5.735   6.804   0.721
10410SOL    HW232130   5.759   6.919   0.834
10411SOL     OW32131   2.111   4.520   3.042
10411SOL    HW132132   2.035   4.518   3.108
10411SOL    HW232133   2.082   4.572   2.961
10412SOL     OW32134   0.361   2.250   0.098
10412SOL    HW132135   0.326   2.290   0.013
10412SOL    HW232136   0.461   2.259   0.101
10413SOL     OW32137   0.453   1.991   6.662
10413SOL    HW132138   0.374   2.048   6.644
10413SOL    HW232139   0.429   1.895   6.649
10414SOL     OW32140   5.572   6.753   5.262
10414SOL    HW132141   5.476   6.739   5.285
10414SOL    HW232142   5.627   6.752   5.345
10415SOL     OW32143   0.560   5.494   3.355
10415SOL    HW132144   0.509   5.411   3.377
10415SOL    HW232145   0.589   5.539   3.440
10416SOL     OW32146   5.083   0.984   6.345
10416SOL    HW132147   5.108   0.996   6.441
10416SOL    HW232148   4.996   1.030   6.327
10417SOL     OW32149   3.700   5.097   4.308
10417SOL    HW132150   3.714   5.196   4.313
10417SOL    HW232151   3.619   5.072   4.360
10418SOL     OW32152   6.320   4.040   6.282
10418SOL    HW132153   6.244   4.072   6.339
10418SOL    HW232154   6.310   3.942   6.266
10419SOL     OW32155   2.760   1.447   4.587
10419SOL    HW132156   2.763   1.464   4.685
10419SOL    HW232157   2.740   1.532   4.538
10420SOL     OW32158   5.958   3.443   3.246
10420SOL    HW132159   5.888   3.376   3.269
10420SOL    HW232160   5.979   3.498   3.327
10421SOL     OW32161   0.800   4.638   4.323
10421SOL    HW132162   0.739   4.705   4.365
10421SOL    HW232163   0.807   4.557   4.381
10422SOL     OW32164   6.437   4.014   5.099
10422SOL    HW132165   6.465   4.074   5.174
10422SOL    HW232166   6.514   3.957   5.071
10423SOL     OW32167   2.512   4.917   4.288
10423SOL    HW132168   2.579   4.844   4.304
10423SOL    HW232169   2.501   4.931   4.190
10424SOL     OW32170   3.408   1.135   0.545
10424SOL    HW132171   3.392   1.079   0.627
10424SOL    HW232172   3.320   1.157   0.503
10425SOL     OW32173   1.426   2.513   1.018
10425SOL    HW132174   1.402   2.600   0.977
10425SOL    HW232175   1.518   2.519   1.059
10426SOL     OW32176   6.490   2.242   6.433
10426SOL    HW132177   6.397   2.259   6.401
10426SOL    HW232178   6.505   2.143   6.440
10427SOL     OW32179   5.055   0.314   4.231
10427SOL    HW132180   5.011   0.225   4.223
10427SOL    HW232181   4.989   0.386   4.210
10428SOL     OW32182   2.392   0.278   3.911
10428SOL    HW132183   2.372   0.214   3.837
10428SOL    HW232184   2.491   0.289   3.920
10429SOL     OW32185   1.601   3.083   1.511
10429SOL    HW132186   1.526   3.116   1.454
10429SOL    HW232187   1.579   2.991   1.545
10430SOL     OW32188   3.253   6.957   3.407
10430SOL    HW132189   3.268   7.006   3.321
10430SOL    HW232190   3.205   6.871   3.388
10431SOL     OW32191   4.020   0.291   3.145
10431SOL    HW132192   3.931   0.261   3.111
10431SOL    HW232193   4.089   0.223   3.122
10432SOL     OW32194   0.735   5.392   6.332
10432SOL    HW132195   0.711   5.489   6.339
10432SOL    HW232196   0.667   5.345   6.276
10433SOL     OW32197   2.441   0.023   2.741
10433SOL    HW132198   2.376   7.021   2.811
10433SOL    HW232199   2.432   6.993   2.660
10434SOL     OW32200   5.356   0.827   5.794
10434SOL    HW132201   5.423   0.831   5.869
10434SOL    HW232202   5.386   0.888   5.721
10435SOL     OW32203   2.004   2.027   0.143
10435SOL    HW132204   2.035   1.991   0.055
10435SOL    HW232205   1.966   2.118   0.131
10436SOL     OW32206   6.534   3.462   5.204
10436SOL    HW132207   6.543   3.468   5.304
10436SOL    HW232208   6.438   3.478   5.179
10437SOL     OW32209   5.771   6.439   4.687
10437SOL    HW132210   5.821   6.408   4.767
10437SOL    HW232211   5.684   6.481   4.715
10438SOL     OW32212   6.834   6.056   6.856
10438SOL    HW132213   6.788   5.997   6.922
10438SOL    HW232214   6.893   6.001   6.797
10439SOL     OW32215   6.455   5.753   4.772
10439SOL    HW132216   6.474   5.657   4.793
10439SOL    HW232217   6.482   5.810   4.849
10440SOL     OW32218   6.195   2.551   1.249
10440SOL    HW132219   6.181   2.501   1.163
10440SOL    HW232220   6.202   2.648   1.230
10441SOL     OW32221   4.412   1.863   6.728
10441SOL    HW132222   4.324   1.816   6.723
10441SOL    HW232223   4.479   1.804   6.773
10442SOL     OW32224   1.897   1.680   5.349
10442SOL    HW132225   1.806   1.683   5.390
10442SOL    HW232226   1.939   1.591   5.369
10443SOL     OW32227   0.446   1.532   1.503
10443SOL    HW132228   0.535   1.514   1.545
10443SOL    HW232229   0.373   1.494   1.560
10444SOL     OW32230   3.960   4.967   4.325
10444SOL    HW132231   3.998   5.031   4.392
10444SOL    HW232232   3.865   4.990   4.307
10445SOL     OW32233   0.451   3.120   3.017
10445SOL    HW132234   0.433   3.022   3.026
10445SOL    HW232235   0.496   3.154   3.100
10446SOL     OW32236   2.427   4.449   5.694
10446SOL    HW132237   2.466   4.428   5.604
10446SOL    HW232238   2.399   4.364   5.738
10447SOL     OW32239   0.238   2.223   2.840
10447SOL    HW132240   0.292   2.220   2.924
10447SOL    HW232241   0.294   2.260   2.766
10448SOL     OW32242   2.142   6.747   1.692
10448SOL    HW132243   2.146   6.697   1.606
10448SOL    HW232244   2.061   6.719   1.744
10449SOL     OW32245   3.715   4.943   5.035
10449SOL    HW132246   3.747   4.936   4.940
10449SOL    HW232247   3.615   4.948   5.036
10450SOL     OW32248   6.835   0.652   5.363
10450SOL    HW132249   6.897   0.595   5.417
10450SOL    HW232250   6.799   0.599   5.286
10451SOL     OW32251   3.400   1.274   3.413
10451SOL    HW132252   3.458   1.198   3.444
10451SOL    HW232253   3.415   1.290   3.316
10452SOL     OW32254   6.028   3.150   4.405
10452SOL    HW132255   6.117   3.197   4.404
10452SOL    HW232256   6.036   3.066   4.458
10453SOL     OW32257   4.476   6.215   3.410
10453SOL    HW132258   4.464   6.140   3.346
10453SOL    HW232259   4.567   6.210   3.451
10454SOL     OW32260   6.612   1.620   6.513
10454SOL    HW132261   6.669   1.702   6.525
10454SOL    HW232262   6.662   1.540   6.547
10455SOL     OW32263   0.065   5.319   3.645
10455SOL    HW132264   7.006   5.332   3.599
10455SOL    HW232265   0.089   5.401   3.697
10456SOL     OW32266   1.169   5.168   6.354
10456SOL    HW132267   1.187   5.070   6.354
10456SOL    HW232268   1.099   5.189   6.286
10457SOL     OW32269   3.785   2.388   0.116
10457SOL    HW132270   3.869   2.381   0.170
10457SOL    HW232271   3.763   2.484   0.099
10458SOL     OW32272   0.380   5.983   6.987
10458SOL    HW132273   0.307   6.028   0.010
10458SOL    HW232274   0.346   5.956   6.897
10459SOL     OW32275   6.531   5.239   1.259
10459SOL    HW132276   6.534   5.164   1.325
10459SOL    HW232277   6.557   5.206   1.168
10460SOL     OW32278   0.035   0.892   0.788
10460SOL    HW132279   0.002   0.874   0.696
10460SOL    HW232280   0.081   0.981   0.790
10461SOL     OW32281   6.844   5.145   6.137
10461SOL    HW132282   6.892   5.090   6.070
10461SOL    HW232283   6.874   5.240   6.130
10462SOL     OW32284   4.263   2.171   0.056
10462SOL    HW132285   4.340   2.210   0.107
10462SOL    HW232286   4.237   2.233   7.010
10463SOL     OW32287   4.975   2.174   6.723
10463SOL    HW132288   4.913   2.099   6.702
10463SOL    HW232289   4.921   2.256   6.745
10464SOL     OW32290   6.564   5.038   2.233
10464SOL    HW132291   6.528   4.965   2.175
10464SOL    HW232292   6.606   4.998   2.314
10465SOL     OW32293   5.671   4.588   1.511
10465SOL    HW132294   5.659   4.499   1.467
10465SOL    HW232295   5.671   4.576   1.610
10466SOL     OW32296   6.346   4.448   6.052
10466SOL    HW132297   6.261   4.473   6.006
10466SOL    HW232298   6.384   4.366   6.010
10467SOL     OW32299   0.835   3.522   0.042
10467SOL    HW132300   0.867   3.493   0.132
10467SOL    HW232301   0.905   3.579   7.026
10468SOL     OW32302   1.656   4.332   3.341
10468SOL    HW132303   1.664   4.233   3.353
10468SOL    HW232304   1.735   4.377   3.383
10469SOL     OW32305   0.514   1.656   4.400
10469SOL    HW132306   0.547   1.562   4.400
10469SOL    HW232307   0.425   1.661   4.355
10470SOL     OW32308   2.116   3.290   2.984
10470SOL    HW132309   2.200   3.255   2.943
10470SOL    HW232310   2.038   3.260   2.929
10471SOL     OW32311   3.113   6.405   6.884
10471SOL    HW132312   3.026   6.418   6.931
10471SOL    HW232313   3.113   6.316   6.837
10472SOL     OW32314   3.832   4.788   6.771
10472SOL    HW132315   3.921   4.776   6.817
10472SOL    HW232316   3.846   4.830   6.682
10473SOL     OW32317   5.560   4.488   0.533
10473SOL    HW132318   5.528   4.439   0.615
10473SOL    HW232319   5.657   4.511   0.545
10474SOL     OW32320   5.870   1.081   4.627
10474SOL    HW132321   5.902   1.001   4.678
10474SOL    HW232322   5.858   1.056   4.531
10475SOL     OW32323   1.454   5.587   1.889
10475SOL    HW132324   1.475   5.681   1.916
10475SOL    HW232325   1.360   5.582   1.855
10476SOL     OW32326   4.725   6.048   0.539
10476SOL    HW132327   4.650   6.070   0.601
10476SOL    HW232328   4.785   5.980   0.581
10477SOL     OW32329   6.578   5.475   3.898
10477SOL    HW132330   6.580   5.525   3.811
10477SOL    HW232331   6.668   5.482   3.943
10478SOL     OW32332   6.758   1.322   0.170
10478SOL    HW132333   6.780   1.327   0.267
10478SOL    HW232334   6.821   1.379   0.118
10479SOL     OW32335   0.773   2.452   2.033
10479SOL    HW132336   0.816   2.460   1.943
10479SOL    HW232337   0.839   2.416   2.098
10480SOL     OW32338   2.754   6.944   2.328
10480SOL    HW132339   2.850   6.967   2.311
10480SOL    HW232340   2.715   6.904   2.245
10481SOL     OW32341   6.638   0.719   2.369
10481SOL    HW132342   6.659   0.667   2.287
10481SOL    HW232343   6.652   0.662   2.450
10482SOL     OW32344   4.856   3.226   4.094
10482SOL    HW132345   4.910   3.225   4.178
10482SOL    HW232346   4.803   3.141   4.087
10483SOL     OW32347   6.025   6.711   6.997
10483SOL    HW132348   5.994   6.785   0.028
10483SOL    HW232349   6.122   6.723   6.978
10484SOL     OW32350   6.361   1.189   2.723
10484SOL    HW132351   6.338   1.105   2.673
10484SOL    HW232352   6.409   1.252   2.662
10485SOL     OW32353   5.361   3.853   5.590
10485SOL    HW132354   5.322   3.774   5.544
10485SOL    HW232355   5.325   3.937   5.550
10486SOL     OW32356   5.368   3.184   2.270
10486SOL    HW132357   5.425   3.254   2.311
10486SOL    HW232358   5.306   3.226   2.203
10487SOL     OW32359   5.712   6.330   1.715
10487SOL    HW132360   5.751   6.313   1.624
10487SOL    HW232361   5.631   6.387   1.706
10488SOL     OW32362   2.596   2.590   6.623
10488SOL    HW132363   2.666   2.653   6.656
10488SOL    HW232364   2.521   2.587   6.689
10489SOL     OW32365   0.904   5.676   6.094
10489SOL    HW132366   0.946   5.757   6.135
10489SOL    HW232367   0.899   5.688   5.994
10490SOL     OW32368   0.339   0.483   4.075
10490SOL    HW132369   0.297   0.394   4.086
10490SOL    HW232370   0.348   0.527   4.164
10491SOL     OW32371   1.272   4.185   5.888
10491SOL    HW132372   1.250   4.118   5.818
10491SOL    HW232373   1.371   4.197   5.892
10492SOL     OW32374   4.195   3.641   5.685
10492SOL    HW132375   4.120   3.578   5.665
10492SOL    HW232376   4.282   3.597   5.662
10493SOL     OW32377   2.933   0.970   1.454
10493SOL    HW132378   2.911   1.046   1.393
10493SOL    HW232379   2.988   1.004   1.531
10494SOL     OW32380   5.531   2.489   4.258
10494SOL    HW132381   5.603   2.546   4.218
10494SOL    HW232382   5.571   2.402   4.287
10495SOL     OW32383   1.409   6.480   0.099
10495SOL    HW132384   1.369   6.482   0.008
10495SOL    HW232385   1.477   6.407   0.105
10496SOL     OW32386   6.914   0.089   5.661
10496SOL    HW132387   6.970   0.170   5.640
10496SOL    HW232388   6.941   0.052   5.750
10497SOL     OW32389   1.326   1.063   1.311
10497SOL    HW132390   1.384   0.999   1.362
10497SOL    HW232391   1.231   1.032   1.316
10498SOL     OW32392   2.860   5.674   6.081
10498SOL    HW132393   2.895   5.767   6.076
10498SOL    HW232394   2.933   5.612   6.111
10499SOL     OW32395   3.583   5.312   3.288
10499SOL    HW132396   3.678   5.310   3.255
10499SOL    HW232397   3.524   5.266   3.221
10500SOL     OW32398   1.518   1.870   6.216
10500SOL    HW132399   1.463   1.786   6.220
10500SOL    HW232400   1.488   1.926   6.140
10501SOL     OW32401   1.866   3.233   3.295
10501SOL    HW132402   1.902   3.154   3.246
10501SOL    HW232403   1.936   3.304   3.301
10502SOL     OW32404   3.232   6.033   6.407
10502SOL    HW132405   3.182   6.048   6.492
10502SOL    HW232406   3.321   6.079   6.413
10503SOL     OW32407   2.694   3.565   6.043
10503SOL    HW132408   2.660   3.479   6.082
10503SOL    HW232409   2.738   3.546   5.955
10504SOL     OW32410   2.983   3.292   0.712
10504SOL    HW132411   2.982   3.219   0.780
10504SOL    HW232412   3.023   3.374   0.753
10505SOL     OW32413   6.479   6.242   1.404
10505SOL    HW132414   6.520   6.313   1.460
10505SOL    HW232415   6.421   6.184   1.460
10506SOL     OW32416   0.637   4.449   5.490
10506SOL    HW132417   0.715   4.390   5.468
10506SOL    HW232418   0.596   4.483   5.405
10507SOL     OW32419   0.927   0.615   5.560
10507SOL    HW132420   0.893   0.708   5.574
10507SOL    HW232421   0.982   0.612   5.476
10508SOL     OW32422   5.034   4.190   2.899
10508SOL    HW132423   5.103   4.117   2.900
10508SOL    HW232424   4.998   4.203   2.992
10509SOL     OW32425   1.747   0.051   6.072
10509SOL    HW132426   1.847   0.048   6.068
10509SOL    HW232427   1.709   0.008   5.991
10510SOL     OW32428   6.746   5.890   0.043
10510SOL    HW132429   6.835   5.851   0.018
10510SOL    HW232430   6.677   5.818   0.041
10511SOL     OW32431   5.225   3.062   0.317
10511SOL    HW132432   5.182   3.039   0.405
10511SOL    HW232433   5.156   3.062   0.245
10512SOL     OW32434   3.242   6.511   6.617
10512SOL    HW132435   3.246   6.414   6.644
10512SOL    HW232436   3.165   6.525   6.556
10513SOL     OW32437   6.473   2.210   0.394
10513SOL    HW132438   6.443   2.154   0.317
10513SOL    HW232439   6.393   2.250   0.439
10514SOL     OW32440   0.133   4.844   1.362
10514SOL    HW132441   0.088   4.791   1.434
10514SOL    HW232442   0.225   4.870   1.393
10515SOL     OW32443   6.492   2.183   4.275
10515SOL    HW132444   6.572   2.175   4.215
10515SOL    HW232445   6.492   2.109   4.341
10516SOL     OW32446   3.993   0.465   6.242
10516SOL    HW132447   3.906   0.508   6.268
10516SOL    HW232448   4.018   0.492   6.149
10517SOL     OW32449   0.184   1.469   2.999
10517SOL    HW132450   0.145   1.386   3.040
10517SOL    HW232451   0.243   1.514   3.066
10518SOL     OW32452   0.880   6.812   1.068
10518SOL    HW132453   0.825   6.766   1.138
10518SOL    HW232454   0.857   6.909   1.066
10519SOL     OW32455   2.841   3.602   5.286
10519SOL    HW132456   2.865   3.589   5.190
10519SOL    HW232457   2.770   3.673   5.292
10520SOL     OW32458   4.144   2.850   6.574
10520SOL    HW132459   4.051   2.823   6.551
10520SOL    HW232460   4.165   2.937   6.529
10521SOL     OW32461   6.463   5.704   1.588
10521SOL    HW132462   6.453   5.668   1.495
10521SOL    HW232463   6.423   5.639   1.652
10522SOL     OW32464   6.222   0.750   2.109
10522SOL    HW132465   6.202   0.772   2.013
10522SOL    HW232466   6.147   0.695   2.146
10523SOL     OW32467   0.238   5.859   6.742
10523SOL    HW132468   0.303   5.886   6.671
10523SOL    HW232469   0.259   5.766   6.773
10524SOL     OW32470   3.284   0.931   4.002
10524SOL    HW132471   3.184   0.929   3.999
10524SOL    HW232472   3.315   1.023   4.025
10525SOL     OW32473   2.759   6.072   4.612
10525SOL    HW132474   2.767   6.129   4.530
10525SOL    HW232475   2.710   5.988   4.589
10526SOL     OW32476   6.037   0.022   2.528
10526SOL    HW132477   6.124   0.060   2.496
10526SOL    HW232478   6.054   6.996   2.611
10527SOL     OW32479   1.375   2.630   4.865
10527SOL    HW132480   1.332   2.557   4.811
10527SOL    HW232481   1.340   2.718   4.834
10528SOL     OW32482   6.746   4.594   4.657
10528SOL    HW132483   6.677   4.591   4.729
10528SOL    HW232484   6.834   4.623   4.695
10529SOL     OW32485   6.865   6.537   4.073
10529SOL    HW132486   6.876   6.450   4.026
10529SOL    HW232487   6.779   6.580   4.045
10530SOL     OW32488   2.052   1.343   6.110
10530SOL    HW132489   2.060   1.431   6.157
10530SOL    HW232490   2.135   1.325   6.057
10531SOL     OW32491   2.080   2.697   5.378
10531SOL    HW132492   2.096   2.779   5.323
10531SOL    HW232493   2.129   2.620   5.337
10532SOL     OW32494   3.639   2.489   5.808
10532SOL    HW132495   3.567   2.493   5.738
10532SOL    HW232496   3.597   2.470   5.897
10533SOL     OW32497   2.489   1.270   6.148
10533SOL    HW132498   2.472   1.268   6.247
10533SOL    HW232499   2.554   1.344   6.127
10534SOL     OW32500   6.431   5.591   1.338
10534SOL    HW132501   6.440   5.660   1.265
10534SOL    HW232502   6.404   5.504   1.298
10535SOL     OW32503   0.031   0.683   2.254
10535SOL    HW132504   7.010   0.597   2.252
10535SOL    HW232505   7.002   0.754   2.296
10536SOL     OW32506   4.470   0.214   3.147
10536SOL    HW132507   4.520   0.282   3.093
10536SOL    HW232508   4.436   0.256   3.231
10537SOL     OW32509   0.896   4.786   1.536
10537SOL    HW132510   0.981   4.809   1.583
10537SOL    HW232511   0.877   4.688   1.548
10538SOL     OW32512   4.881   3.430   0.311
10538SOL    HW132513   4.813   3.357   0.312
10538SOL    HW232514   4.838   3.516   0.284
10539SOL     OW32515   0.394   3.380   5.958
10539SOL    HW132516   0.303   3.344   5.939
10539SOL    HW232517   0.402   3.473   5.921
10540SOL     OW32518   2.858   0.563   6.887
10540SOL    HW132519   2.853   0.561   6.987
10540SOL    HW232520   2.912   0.642   6.858
10541SOL     OW32521   3.524   2.585   0.313
10541SOL    HW132522   3.510   2.486   0.324
10541SOL    HW232523   3.474   2.634   0.385
10542SOL     OW32524   0.650   2.706   0.245
10542SOL    HW132525   0.693   2.695   0.335
10542SOL    HW232526   0.638   2.615   0.203
10543SOL     OW32527   1.911   1.156   5.653
10543SOL    HW132528   1.868   1.218   5.588
10543SOL    HW232529   1.886   1.182   5.746
10544SOL     OW32530   1.009   2.394   1.866
10544SOL    HW132531   1.009   2.340   1.782
10544SOL    HW232532   1.091   2.373   1.919
10545SOL     OW32533   6.117   0.407   2.495
10545SOL    HW132534   6.096   0.413   2.592
10545SOL    HW232535   6.084   0.489   2.448
10546SOL     OW32536   2.990   0.535   3.859
10546SOL    HW132537   2.900   0.577   3.866
10546SOL    HW232538   2.984   0.452   3.803
10547SOL     OW32539   4.200   1.616   1.126
10547SOL    HW132540   4.158   1.654   1.044
10547SOL    HW232541   4.295   1.645   1.132
10548SOL     OW32542   5.047   4.087   5.185
10548SOL    HW132543   5.139   4.089   5.147
10548SOL    HW232544   4.992   4.020   5.134
10549SOL     OW32545   1.107   1.108   2.034
10549SOL    HW132546   1.141   1.015   2.045
10549SOL    HW232547   1.041   1.111   1.959
10550SOL     OW32548   5.019   0.030   4.224
10550SOL    HW132549   5.039   0.014   4.321
10550SOL    HW232550   5.105   0.037   4.173
10551SOL     OW32551   1.253   2.806   5.924
10551SOL    HW132552   1.289   2.739   5.989
10551SOL    HW232553   1.212   2.883   5.973
10552SOL     OW32554   3.396   2.276   5.337
10552SOL    HW132555   3.466   2.242   5.274
10552SOL    HW232556   3.330   2.332   5.286
10553SOL     OW32557   2.712   5.345   6.999
10553SOL    HW132558   2.630   5.330   6.942
10553SOL    HW232559   2.762   5.259   7.009
10554SOL     OW32560   6.703   4.392   6.273
10554SOL    HW132561   6.695   4.462   6.202
10554SOL    HW232562   6.614   4.348   6.286
10555SOL     OW32563   3.195   1.883   1.307
10555SOL    HW132564   3.254   1.899   1.385
10555SOL    HW232565   3.135   1.805   1.325
10556SOL     OW32566   2.197   3.213   4.771
10556SOL    HW132567   2.167   3.254   4.857
10556SOL    HW232568   2.235   3.122   4.788
10557SOL     OW32569   6.833   2.654   3.829
10557SOL    HW132570   6.775   2.599   3.769
10557SOL    HW232571   6.777   2.696   3.901
10558SOL     OW32572   5.071   6.347   5.310
10558SOL    HW132573   5.077   6.256   5.270
10558SOL    HW232574   5.066   6.339   5.410
10559SOL     OW32575   4.262   2.336   0.329
10559SOL    HW132576   4.252   2.363   0.425
10559SOL    HW232577   4.350   2.290   0.317
10560SOL     OW32578   0.949   2.995   4.350
10560SOL    HW132579   0.931   2.997   4.252
10560SOL    HW232580   0.873   2.950   4.397
10561SOL     OW32581   2.347   4.292   6.951
10561SOL    HW132582   2.253   4.264   6.934
10561SOL    HW232583   2.404   4.211   6.968
10562SOL     OW32584   3.418   0.957   0.772
10562SOL    HW132585   3.389   0.926   0.862
10562SOL    HW232586   3.427   0.879   0.711
10563SOL     OW32587   1.735   1.842   4.740
10563SOL    HW132588   1.664   1.906   4.712
10563SOL    HW232589   1.761   1.859   4.834
10564SOL     OW32590   6.103   1.936   1.903
10564SOL    HW132591   6.106   1.980   1.814
10564SOL    HW232592   6.189   1.952   1.951
10565SOL     OW32593   5.445   1.929   4.738
10565SOL    HW132594   5.476   1.971   4.823
10565SOL    HW232595   5.345   1.924   4.738
10566SOL     OW32596   3.891   4.606   6.083
10566SOL    HW132597   3.955   4.662   6.136
10566SOL    HW232598   3.922   4.511   6.082
10567SOL     OW32599   1.997   4.372   4.317
10567SOL    HW132600   2.030   4.453   4.269
10567SOL    HW232601   2.058   4.295   4.299
10568SOL     OW32602   4.667   1.361   3.188
10568SOL    HW132603   4.657   1.352   3.287
10568SOL    HW232604   4.728   1.290   3.154
10569SOL     OW32605   5.995   3.356   4.068
10569SOL    HW132606   5.949   3.405   4.142
10569SOL    HW232607   5.960   3.262   4.063
10570SOL     OW32608   1.783   4.576   2.329
10570SOL    HW132609   1.801   4.479   2.319
10570SOL    HW232610   1.755   4.614   2.241
10571SOL     OW32611   6.310   6.659   4.006
10571SOL    HW132612   6.239   6.719   3.968
10571SOL    HW232613   6.304   6.658   4.105
10572SOL     OW32614   6.199   3.573   2.308
10572SOL    HW132615   6.126   3.505   2.307
10572SOL    HW232616   6.248   3.569   2.396
10573SOL     OW32617   5.976   5.022   5.681
10573SOL    HW132618   5.938   5.069   5.761
10573SOL    HW232619   5.926   5.050   5.599
10574SOL     OW32620   0.549   1.626   2.783
10574SOL    HW132621   0.499   1.708   2.756
10574SOL    HW232622   0.616   1.650   2.853
10575SOL     OW32623   1.176   0.082   5.220
10575SOL    HW132624   1.264   0.047   5.252
10575SOL    HW232625   1.189   0.131   5.134
10576SOL     OW32626   1.491   4.922   3.658
10576SOL    HW132627   1.437   4.841   3.682
10576SOL    HW232628   1.584   4.894   3.634
10577SOL     OW32629   1.489   2.076   5.637
10577SOL    HW132630   1.553   2.131   5.690
10577SOL    HW232631   1.532   2.048   5.551
10578SOL     OW32632   6.536   0.713   5.841
10578SOL    HW132633   6.558   0.711   5.743
10578SOL    HW232634   6.551   0.805   5.877
10579SOL     OW32635   4.190   1.851   0.217
10579SOL    HW132636   4.130   1.781   0.256
10579SOL    HW232637   4.284   1.836   0.250
10580SOL     OW32638   6.100   6.218   6.862
10580SOL    HW132639   6.124   6.303   6.816
10580SOL    HW232640   6.182   6.160   6.870
10581SOL     OW32641   5.202   1.101   3.403
10581SOL    HW132642   5.264   1.038   3.449
10581SOL    HW232643   5.184   1.068   3.310
10582SOL     OW32644   3.651   4.990   6.689
10582SOL    HW132645   3.655   5.089   6.706
10582SOL    HW232646   3.697   4.942   6.764
10583SOL     OW32647   4.333   1.616   0.633
10583SOL    HW132648   4.308   1.603   0.537
10583SOL    HW232649   4.296   1.703   0.665
10584SOL     OW32650   5.873   0.156   1.879
10584SOL    HW132651   5.934   0.191   1.808
10584SOL    HW232652   5.857   0.227   1.948
10585SOL     OW32653   1.296   3.357   6.464
10585SOL    HW132654   1.375   3.414   6.488
10585SOL    HW232655   1.232   3.356   6.541
10586SOL     OW32656   3.670   0.543   6.812
10586SOL    HW132657   3.695   0.484   6.889
10586SOL    HW232658   3.690   0.495   6.726
10587SOL     OW32659   6.045   4.168   1.164
10587SOL    HW132660   6.004   4.259   1.174
10587SOL    HW232661   6.042   4.141   1.067
10588SOL     OW32662   6.955   5.550   2.966
10588SOL    HW132663   6.956   5.473   2.903
10588SOL    HW232664   6.862   5.565   2.999
10589SOL     OW32665   6.075   1.991   4.156
10589SOL    HW132666   6.047   2.075   4.202
10589SOL    HW232667   6.014   1.916   4.182
10590SOL     OW32668   0.937   0.928   4.174
10590SOL    HW132669   0.981   0.860   4.233
10590SOL    HW232670   0.944   0.899   4.079
10591SOL     OW32671   1.240   3.115   0.773
10591SOL    HW132672   1.186   3.031   0.762
10591SOL    HW232673   1.200   3.172   0.845
10592SOL     OW32674   6.576   1.492   6.938
10592SOL    HW132675   6.628   1.407   6.948
10592SOL    HW232676   6.620   1.565   6.991
10593SOL     OW32677   1.931   5.022   1.024
10593SOL    HW132678   1.975   5.108   0.997
10593SOL    HW232679   1.865   5.040   1.096
10594SOL     OW32680   0.332   1.844   4.224
10594SOL    HW132681   0.314   1.848   4.126
10594SOL    HW232682   0.325   1.936   4.263
10595SOL     OW32683   3.497   5.949   5.947
10595SOL    HW132684   3.540   6.025   5.898
10595SOL    HW232685   3.565   5.903   6.004
10596SOL     OW32686   3.741   0.886   1.809
10596SOL    HW132687   3.755   0.796   1.767
10596SOL    HW232688   3.828   0.920   1.846
10597SOL     OW32689   1.781   0.413   4.704
10597SOL    HW132690   1.833   0.472   4.643
10597SOL    HW232691   1.733   0.469   4.772
10598SOL     OW32692   1.562   2.398   6.860
10598SOL    HW132693   1.632   2.327   6.857
10598SOL    HW232694   1.511   2.391   6.946
10599SOL     OW32695   5.479   1.177   6.809
10599SOL    HW132696   5.434   1.222   6.886
10599SOL    HW232697   5.549   1.237   6.771
10600SOL     OW32698   2.251   3.199   6.193
10600SOL    HW132699   2.199   3.128   6.146
10600SOL    HW232700   2.274   3.272   6.129
10601SOL     OW32701   3.337   6.517   6.206
10601SOL    HW132702   3.401   6.507   6.282
10601SOL    HW232703   3.363   6.456   6.131
10602SOL     OW32704   4.719   1.019   2.263
10602SOL    HW132705   4.793   0.961   2.296
10602SOL    HW232706   4.632   0.987   2.301
10603SOL     OW32707   1.471   5.221   4.694
10603SOL    HW132708   1.548   5.187   4.640
10603SOL    HW232709   1.443   5.151   4.760
10604SOL     OW32710   6.822   4.355   5.327
10604SOL    HW132711   6.846   4.449   5.305
10604SOL    HW232712   6.804   4.304   5.243
10605SOL     OW32713   1.673   5.005   6.866
10605SOL    HW132714   1.628   4.917   6.882
10605SOL    HW232715   1.751   5.014   6.928
10606SOL     OW32716   0.719   0.586   2.361
10606SOL    HW132717   0.779   0.587   2.440
10606SOL    HW232718   0.638   0.530   2.380
10607SOL     OW32719   5.304   5.072   6.871
10607SOL    HW132720   5.230   5.008   6.850
10607SOL    HW232721   5.290   5.111   6.962
10608SOL     OW32722   6.052   1.928   3.526
10608SOL    HW132723   5.976   1.987   3.553
10608SOL    HW232724   6.093   1.963   3.441
10609SOL     OW32725   3.883   6.520   1.251
10609SOL    HW132726   3.803   6.580   1.239
10609SOL    HW232727   3.962   6.562   1.207
10610SOL     OW32728   1.780   2.832   5.767
10610SOL    HW132729   1.688   2.862   5.793
10610SOL    HW232730   1.796   2.852   5.671
10611SOL     OW32731   5.743   2.947   6.003
10611SOL    HW132732   5.827   2.898   6.028
10611SOL    HW232733   5.675   2.882   5.971
10612SOL     OW32734   2.248   6.870   0.488
10612SOL    HW132735   2.298   6.925   0.555
10612SOL    HW232736   2.189   6.805   0.536
10613SOL     OW32737   0.492   6.287   5.685
10613SOL    HW132738   0.424   6.227   5.642
10613SOL    HW232739   0.477   6.381   5.655
10614SOL     OW32740   6.876   0.927   4.175
10614SOL    HW132741   6.844   0.902   4.267
10614SOL    HW232742   6.972   0.901   4.165
10615SOL     OW32743   5.712   5.406   5.383
10615SOL    HW132744   5.664   5.384   5.298
10615SOL    HW232745   5.736   5.322   5.431
10616SOL     OW32746   2.914   5.531   0.504
10616SOL    HW132747   2.840   5.464   0.503
10616SOL    HW232748   2.935   5.559   0.410
10617SOL     OW32749   1.224   2.111   6.709
10617SOL    HW132750   1.162   2.037   6.735
10617SOL    HW232751   1.188   2.198   6.742
10618SOL     OW32752   6.220   3.814   0.709
10618SOL    HW132753   6.276   3.895   0.729
10618SOL    HW232754   6.267   3.732   0.741
10619SOL     OW32755   1.131   3.897   4.047
10619SOL    HW132756   1.069   3.835   4.096
10619SOL    HW232757   1.083   3.939   3.971
10620SOL     OW32758   1.642   5.637   4.763
10620SOL    HW132759   1.594   5.560   4.805
10620SOL    HW232760   1.661   5.707   4.833
10621SOL     OW32761   2.769   5.971   1.197
10621SOL    HW132762   2.703   6.045   1.207
10621SOL    HW232763   2.815   5.955   1.284
10622SOL     OW32764   4.040   0.674   1.383
10622SOL    HW132765   4.057   0.633   1.293
10622SOL    HW232766   3.984   0.756   1.372
10623SOL     OW32767   6.411   1.551   3.929
10623SOL    HW132768   6.458   1.562   4.016
10623SOL    HW232769   6.398   1.641   3.886
10624SOL     OW32770   1.882   0.418   3.944
10624SOL    HW132771   1.926   0.507   3.957
10624SOL    HW232772   1.913   0.378   3.858
10625SOL     OW32773   0.051   3.213   6.821
10625SOL    HW132774   0.121   3.229   6.752
10625SOL    HW232775   7.009   3.285   6.816
10626SOL     OW32776   0.543   2.829   1.509
10626SOL    HW132777   0.575   2.811   1.416
10626SOL    HW232778   0.601   2.899   1.550
10627SOL     OW32779   6.125   6.012   3.615
10627SOL    HW132780   6.103   5.938   3.678
10627SOL    HW232781   6.194   6.071   3.656
10628SOL     OW32782   6.103   5.756   5.958
10628SOL    HW132783   6.094   5.666   6.001
10628SOL    HW232784   6.054   5.757   5.871
10629SOL     OW32785   2.685   5.458   5.919
10629SOL    HW132786   2.588   5.477   5.903
10629SOL    HW232787   2.736   5.544   5.919
10630SOL     OW32788   0.429   1.209   3.239
10630SOL    HW132789   0.480   1.249   3.163
10630SOL    HW232790   0.364   1.142   3.204
10631SOL     OW32791   1.212   6.625   4.127
10631SOL    HW132792   1.215   6.674   4.040
10631SOL    HW232793   1.120   6.633   4.166
10632SOL     OW32794   0.458   2.367   5.430
10632SOL    HW132795   0.361   2.364   5.452
10632SOL    HW232796   0.474   2.436   5.359
10633SOL     OW32797   1.060   5.074   1.610
10633SOL    HW132798   1.069   5.041   1.517
10633SOL    HW232799   1.097   5.167   1.616
10634SOL     OW32800   3.044   6.613   1.934
10634SOL    HW132801   3.014   6.519   1.915
10634SOL    HW232802   3.018   6.638   2.027
10635SOL     OW32803   2.696   1.499   0.965
10635SOL    HW132804   2.777   1.557   0.961
10635SOL    HW232805   2.721   1.404   0.949
10636SOL     OW32806   0.695   2.387   1.655
10636SOL    HW132807   0.667   2.367   1.749
10636SOL    HW232808   0.720   2.301   1.609
10637SOL     OW32809   3.727   4.633   5.324
10637SOL    HW132810   3.636   4.674   5.309
10637SOL    HW232811   3.738   4.554   5.264
10638SOL     OW32812   0.102   0.042   5.408
10638SOL    HW132813   0.097   0.100   5.489
10638SOL    HW232814   0.055   0.086   5.332
10639SOL     OW32815   2.597   0.741   4.321
10639SOL    HW132816   2.572   0.737   4.224
10639SOL    HW232817   2.587   0.836   4.353
10640SOL     OW32818   4.202   0.045   0.186
10640SOL    HW132819   4.128   0.003   0.134
10640SOL    HW232820   4.169   0.066   0.278
10641SOL     OW32821   4.941   1.307   6.758
10641SOL    HW132822   4.993   1.261   6.686
10641SOL    HW232823   5.000   1.323   6.836
10642SOL     OW32824   6.899   2.618   1.241
10642SOL    HW132825   6.993   2.604   1.213
10642SOL    HW232826   6.858   2.691   1.187
10643SOL     OW32827   3.331   3.320   6.008
10643SOL    HW132828   3.392   3.241   6.008
10643SOL    HW232829   3.334   3.364   5.919
10644SOL     OW32830   3.830   1.305   4.972
10644SOL    HW132831   3.815   1.364   4.893
10644SOL    HW232832   3.745   1.260   4.998
10645SOL     OW32833   2.728   0.871   4.979
10645SOL    HW132834   2.820   0.875   5.019
10645SOL    HW232835   2.660   0.886   5.052
10646SOL     OW32836   0.422   3.754   6.761
10646SOL    HW132837   0.365   3.784   6.838
10646SOL    HW232838   0.364   3.731   6.683
10647SOL     OW32839   0.368   5.406   0.984
10647SOL    HW132840   0.337   5.363   0.900
10647SOL    HW232841   0.315   5.370   1.061
10648SOL     OW32842   4.595   3.344   6.786
10648SOL    HW132843   4.673   3.289   6.754
10648SOL    HW232844   4.521   3.283   6.814
10649SOL     OW32845   0.358   4.657   6.018
10649SOL    HW132846   0.353   4.750   5.982
10649SOL    HW232847   0.428   4.652   6.089
10650SOL     OW32848   3.387   6.671   3.542
10650SOL    HW132849   3.400   6.754   3.597
10650SOL    HW232850   3.394   6.590   3.601
10651SOL     OW32851   3.949   6.558   6.208
10651SOL    HW132852   3.993   6.595   6.126
10651SOL    HW232853   3.992   6.597   6.289
10652SOL     OW32854   3.219   0.770   6.877
10652SOL    HW132855   3.128   0.788   6.841
10652SOL    HW232856   3.275   0.725   6.807
10653SOL     OW32857   5.170   3.582   4.174
10653SOL    HW132858   5.076   3.563   4.145
10653SOL    HW232859   5.231   3.576   4.096
10654SOL     OW32860   4.425   0.428   0.764
10654SOL    HW132861   4.515   0.472   0.767
10654SOL    HW232862   4.354   0.497   0.780
10655SOL     OW32863   2.803   5.780   1.684
10655SOL    HW132864   2.784   5.839   1.763
10655SOL    HW232865   2.893   5.738   1.695
10656SOL     OW32866   6.844   3.041   6.496
10656SOL    HW132867   6.766   3.097   6.468
10656SOL    HW232868   6.817   2.944   6.497
10657SOL     OW32869   6.058   0.690   1.193
10657SOL    HW132870   6.103   0.742   1.119
10657SOL    HW232871   5.959   0.702   1.187
10658SOL     OW32872   0.579   5.397   5.191
10658SOL    HW132873   0.588   5.497   5.196
10658SOL    HW232874   0.512   5.367   5.259
10659SOL     OW32875   5.379   0.498   0.486
10659SOL    HW132876   5.407   0.482   0.581
10659SOL    HW232877   5.457   0.528   0.433
10660SOL     OW32878   5.001   4.998   5.485
10660SOL    HW132879   4.972   5.093   5.476
10660SOL    HW232880   4.988   4.967   5.579
10661SOL     OW32881   0.219   0.371   2.670
10661SOL    HW132882   0.177   0.448   2.623
10661SOL    HW232883   0.294   0.404   2.728
10662SOL     OW32884   5.923   1.459   0.735
10662SOL    HW132885   5.892   1.554   0.745
10662SOL    HW232886   5.863   1.411   0.672
10663SOL     OW32887   6.809   0.591   0.395
10663SOL    HW132888   6.852   0.501   0.386
10663SOL    HW232889   6.712   0.585   0.370
10664SOL     OW32890   1.958   4.685   6.651
10664SOL    HW132891   1.961   4.585   6.652
10664SOL    HW232892   1.936   4.717   6.559
10665SOL     OW32893   6.350   0.870   0.282
10665SOL    HW132894   6.318   0.821   0.363
10665SOL    HW232895   6.386   0.960   0.309
10666SOL     OW32896   1.375   6.841   0.469
10666SOL    HW132897   1.352   6.744   0.467
10666SOL    HW232898   1.405   6.870   0.378
10667SOL     OW32899   3.457   1.752   4.982
10667SOL    HW132900   3.527   1.815   4.949
10667SOL    HW232901   3.501   1.672   5.024
10668SOL     OW32902   2.273   0.910   5.703
10668SOL    HW132903   2.343   0.967   5.745
10668SOL    HW232904   2.227   0.856   5.774
10669SOL     OW32905   0.784   6.320   6.248
10669SOL    HW132906   0.834   6.313   6.334
10669SOL    HW232907   0.696   6.272   6.256
10670SOL     OW32908   6.990   4.495   5.775
10670SOL    HW132909   0.006   4.474   5.688
10670SOL    HW232910   0.028   4.488   5.849
10671SOL     OW32911   1.755   1.580   3.185
10671SOL    HW132912   1.796   1.658   3.138
10671SOL    HW232913   1.823   1.538   3.245
10672SOL     OW32914   6.768   2.786   0.484
10672SOL    HW132915   6.835   2.824   0.421
10672SOL    HW232916   6.807   2.706   0.530
10673SOL     OW32917   3.141   3.458   4.998
10673SOL    HW132918   3.064   3.520   4.984
10673SOL    HW232919   3.117   3.367   4.966
10674SOL     OW32920   3.725   2.109   2.601
10674SOL    HW132921   3.627   2.112   2.622
10674SOL    HW232922   3.746   2.175   2.529
10675SOL     OW32923   0.675   0.514   6.242
10675SOL    HW132924   0.704   0.603   6.207
10675SOL    HW232925   0.578   0.518   6.266
10676SOL     OW32926   6.867   0.397   6.773
10676SOL    HW132927   6.946   0.389   6.834
10676SOL    HW232928   6.884   0.346   6.689
10677SOL     OW32929   0.225   0.638   0.478
10677SOL    HW132930   0.160   0.563   0.472
10677SOL    HW232931   0.219   0.680   0.569
10678SOL     OW32932   2.726   6.621   3.527
10678SOL    HW132933   2.653   6.689   3.518
10678SOL    HW232934   2.804   6.662   3.574
10679SOL     OW32935   5.968   4.902   4.031
10679SOL    HW132936   5.959   4.953   3.945
10679SOL    HW232937   6.046   4.840   4.025
10680SOL     OW32938   1.680   2.417   3.300
10680SOL    HW132939   1.734   2.364   3.235
10680SOL    HW232940   1.583   2.406   3.278
10681SOL     OW32941   0.662   1.257   5.612
10681SOL    HW132942   0.634   1.354   5.609
10681SOL    HW232943   0.761   1.251   5.599
10682SOL     OW32944   6.672   1.822   3.096
10682SOL    HW132945   6.738   1.887   3.134
10682SOL    HW232946   6.598   1.873   3.051
10683SOL     OW32947   1.686   1.554   4.750
10683SOL    HW132948   1.684   1.654   4.748
10683SOL    HW232949   1.764   1.521   4.697
10684SOL     OW32950   5.886   6.151   0.155
10684SOL    HW132951   5.862   6.190   0.067
10684SOL    HW232952   5.949   6.074   0.142
10685SOL     OW32953   0.320   2.317   1.724
10685SOL    HW132954   0.237   2.333   1.670
10685SOL    HW232955   0.389   2.386   1.699
10686SOL     OW32956   3.623   4.622   0.760
10686SOL    HW132957   3.537   4.597   0.716
10686SOL    HW232958   3.665   4.540   0.801
10687SOL     OW32959   0.457   4.939   1.945
10687SOL    HW132960   0.388   4.892   2.000
10687SOL    HW232961   0.547   4.926   1.987
10688SOL     OW32962   6.997   5.822   2.372
10688SOL    HW132963   7.005   5.727   2.343
10688SOL    HW232964   0.042   5.876   2.329
10689SOL     OW32965   0.281   0.537   1.901
10689SOL    HW132966   0.358   0.485   1.866
10689SOL    HW232967   0.216   0.554   1.827
10690SOL     OW32968   4.460   5.665   1.941
10690SOL    HW132969   4.504   5.576   1.939
10690SOL    HW232970   4.474   5.708   2.030
10691SOL     OW32971   6.594   1.283   1.370
10691SOL    HW132972   6.679   1.299   1.320
10691SOL    HW232973   6.588   1.348   1.446
10692SOL     OW32974   4.758   6.068   4.199
10692SOL    HW132975   4.728   5.998   4.133
10692SOL    HW232976   4.679   6.121   4.229
10693SOL     OW32977   5.933   2.158   2.128
10693SOL    HW132978   5.840   2.134   2.155
10693SOL    HW232979   5.999   2.115   2.190
10694SOL     OW32980   3.815   6.121   0.659
10694SOL    HW132981   3.727   6.165   0.680
10694SOL    HW232982   3.801   6.053   0.587
10695SOL     OW32983   5.884   3.101   4.110
10695SOL    HW132984   5.880   3.004   4.086
10695SOL    HW232985   5.950   3.115   4.183
10696SOL     OW32986   5.900   0.087   1.205
10696SOL    HW132987   5.859   7.024   1.210
10696SOL    HW232988   5.941   0.110   1.293
10697SOL     OW32989   2.093   6.236   3.355
10697SOL    HW132990   2.180   6.255   3.402
10697SOL    HW232991   2.051   6.155   3.396
10698SOL     OW32992   2.678   0.473   3.051
10698SOL    HW132993   2.688   0.375   3.069
10698SOL    HW232994   2.706   0.493   2.957
10699SOL     OW32995   1.725   2.317   2.328
10699SOL    HW132996   1.628   2.339   2.340
10699SOL    HW232997   1.742   2.296   2.232
10700SOL     OW32998   6.452   1.028   1.577
10700SOL    HW132999   6.548   1.056   1.585
10700SOL    HW233000   6.394   1.094   1.626
10701SOL     OW33001   3.568   6.197   0.732
10701SOL    HW133002   3.557   6.273   0.796
10701SOL    HW233003   3.507   6.209   0.655
10702SOL     OW33004   6.060   3.107   1.218
10702SOL    HW133005   6.075   3.013   1.187
10702SOL    HW233006   6.120   3.127   1.295
10703SOL     OW33007   3.967   3.332   3.703
10703SOL    HW133008   4.046   3.392   3.717
10703SOL    HW233009   3.883   3.385   3.711
10704SOL     OW33010   5.577   6.615   1.962
10704SOL    HW133011   5.648   6.675   1.926
10704SOL    HW233012   5.620   6.544   2.019
10705SOL     OW33013   1.209   2.583   6.569
10705SOL    HW133014   1.223   2.667   6.622
10705SOL    HW233015   1.116   2.582   6.531
10706SOL     OW33016   3.551   1.310   1.643
10706SOL    HW133017   3.590   1.391   1.599
10706SOL    HW233018   3.574   1.310   1.740
10707SOL     OW33019   6.339   6.811   6.132
10707SOL    HW133020   6.293   6.898   6.149
10707SOL    HW233021   6.296   6.739   6.187
10708SOL     OW33022   4.343   1.093   1.293
10708SOL    HW133023   4.339   1.167   1.227
10708SOL    HW233024   4.296   1.120   1.377
10709SOL     OW33025   0.769   6.417   5.716
10709SOL    HW133026   0.675   6.386   5.720
10709SOL    HW233027   0.810   6.414   5.807
10710SOL     OW33028   6.164   6.008   3.113
10710SOL    HW133029   6.200   6.099   3.092
10710SOL    HW233030   6.198   5.942   3.046
10711SOL     OW33031   2.124   5.823   5.341
10711SOL    HW133032   2.100   5.757   5.413
10711SOL    HW233033   2.194   5.783   5.282
10712SOL     OW33034   4.416   1.169   5.312
10712SOL    HW133035   4.356   1.234   5.359
10712SOL    HW233036   4.449   1.209   5.227
10713SOL     OW33037   1.721   6.421   1.263
10713SOL    HW133038   1.685   6.341   1.214
10713SOL    HW233039   1.646   6.480   1.291
10714SOL     OW33040   0.023   5.357   5.674
10714SOL    HW133041   7.003   5.270   5.690
10714SOL    HW233042   6.984   5.432   5.676
10715SOL     OW33043   5.707   1.365   3.682
10715SOL    HW133044   5.796   1.405   3.660
10715SOL    HW233045   5.687   1.379   3.779
10716SOL     OW33046   6.624   0.942   3.268
10716SOL    HW133047   6.603   0.914   3.361
10716SOL    HW233048   6.589   1.034   3.252
10717SOL     OW33049   6.500   6.636   1.892
10717SOL    HW133050   6.465   6.542   1.897
10717SOL    HW233051   6.514   6.671   1.984
10718SOL     OW33052   0.763   3.772   5.930
10718SOL    HW133053   0.747   3.750   5.834
10718SOL    HW233054   0.683   3.748   5.984
10719SOL     OW33055   3.671   0.976   2.234
10719SOL    HW133056   3.651   0.901   2.171
10719SOL    HW233057   3.704   1.055   2.183
10720SOL     OW33058   0.514   3.274   6.962
10720SOL    HW133059   0.490   3.351   7.020
10720SOL    HW233060   0.582   3.217   7.008
10721SOL     OW33061   4.554   2.596   3.906
10721SOL    HW133062   4.611   2.628   3.831
10721SOL    HW233063   4.597   2.617   3.994
10722SOL     OW33064   0.316   4.255   0.935
10722SOL    HW133065   0.337   4.347   0.969
10722SOL    HW233066   0.240   4.217   0.987
10723SOL     OW33067   5.948   4.478   6.878
10723SOL    HW133068   5.923   4.391   6.919
10723SOL    HW233069   5.880   4.503   6.808
10724SOL     OW33070   3.768   6.960   5.564
10724SOL    HW133071   3.853   6.967   5.511
10724SOL    HW233072   3.790   6.959   5.661
10725SOL     OW33073   6.460   6.898   5.101
10725SOL    HW133074   6.430   6.831   5.034
10725SOL    HW233075   6.558   6.914   5.092
10726SOL     OW33076   5.492   1.205   5.090
10726SOL    HW133077   5.578   1.256   5.096
10726SOL    HW233078   5.476   1.176   4.995
10727SOL     OW33079   2.272   6.190   6.802
10727SOL    HW133080   2.245   6.098   6.775
10727SOL    HW233081   2.205   6.256   6.765
10728SOL     OW33082   6.202   6.323   3.254
10728SOL    HW133083   6.238   6.344   3.163
10728SOL    HW233084   6.112   6.281   3.245
10729SOL     OW33085   5.643   3.209   4.203
10729SOL    HW133086   5.625   3.307   4.205
10729SOL    HW233087   5.742   3.193   4.195
10730SOL     OW33088   1.765   5.621   3.714
10730SOL    HW133089   1.835   5.691   3.704
10730SOL    HW233090   1.805   5.531   3.694
10731SOL     OW33091   4.660   6.467   6.944
10731SOL    HW133092   4.743   6.507   6.983
10731SOL    HW233093   4.680   6.375   6.911
10732SOL     OW33094   6.038   6.285   2.969
10732SOL    HW133095   6.066   6.215   2.903
10732SOL    HW233096   6.008   6.240   3.053
10733SOL     OW33097   0.413   0.833   6.112
10733SOL    HW133098   0.433   0.737   6.130
10733SOL    HW233099   0.494   0.888   6.130
10734SOL     OW33100   1.685   0.566   4.389
10734SOL    HW133101   1.691   0.659   4.424
10734SOL    HW233102   1.649   0.505   4.460
10735SOL     OW33103   6.819   6.759   2.370
10735SOL    HW133104   6.790   6.665   2.355
10735SOL    HW233105   6.755   6.805   2.432
10736SOL     OW33106   5.209   6.968   3.877
10736SOL    HW133107   5.292   6.943   3.828
10736SOL    HW233108   5.166   0.018   3.832
10737SOL     OW33109   6.071   1.006   1.975
10737SOL    HW133110   6.101   0.920   1.934
10737SOL    HW233111   5.972   1.016   1.964
10738SOL     OW33112   3.489   0.470   0.690
10738SOL    HW133113   3.551   0.391   0.684
10738SOL    HW233114   3.406   0.444   0.738
10739SOL     OW33115   5.652   3.160   3.796
10739SOL    HW133116   5.696   3.120   3.715
10739SOL    HW233117   5.672   3.104   3.876
10740SOL     OW33118   2.994   0.706   6.255
10740SOL    HW133119   2.975   0.738   6.162
10740SOL    HW233120   2.914   0.658   6.290
10741SOL     OW33121   1.545   2.057   3.591
10741SOL    HW133122   1.496   2.138   3.624
10741SOL    HW233123   1.636   2.083   3.560
10742SOL     OW33124   6.391   6.425   2.809
10742SOL    HW133125   6.373   6.505   2.866
10742SOL    HW233126   6.372   6.448   2.713
10743SOL     OW33127   3.192   1.739   5.275
10743SOL    HW133128   3.228   1.648   5.253
10743SOL    HW233129   3.107   1.729   5.327
10744SOL     OW33130   2.165   1.342   0.618
10744SOL    HW133131   2.093   1.351   0.550
10744SOL    HW233132   2.142   1.396   0.699
10745SOL     OW33133   1.801   4.567   1.901
10745SOL    HW133134   1.826   4.479   1.860
10745SOL    HW233135   1.884   4.616   1.926
10746SOL     OW33136   2.150   5.992   6.638
10746SOL    HW133137   2.098   6.064   6.593
10746SOL    HW233138   2.231   5.970   6.582
10747SOL     OW33139   6.713   1.056   4.594
10747SOL    HW133140   6.721   1.060   4.694
10747SOL    HW233141   6.709   0.961   4.565
10748SOL     OW33142   3.156   6.720   1.517
10748SOL    HW133143   3.137   6.725   1.615
10748SOL    HW233144   3.138   6.810   1.476
10749SOL     OW33145   5.783   4.432   1.708
10749SOL    HW133146   5.706   4.370   1.693
10749SOL    HW233147   5.861   4.381   1.743
10750SOL     OW33148   4.217   2.274   4.177
10750SOL    HW133149   4.264   2.203   4.230
10750SOL    HW233150   4.131   2.237   4.141
10751SOL     OW33151   0.401   6.099   4.164
10751SOL    HW133152   0.480   6.049   4.199
10751SOL    HW233153   0.343   6.128   4.241
10752SOL     OW33154   6.419   6.482   0.214
10752SOL    HW133155   6.387   6.484   0.309
10752SOL    HW233156   6.340   6.481   0.153
10753SOL     OW33157   5.021   0.431   3.933
10753SOL    HW133158   4.999   0.508   3.992
10753SOL    HW233159   5.082   0.461   3.860
10754SOL     OW33160   0.971   4.241   2.360
10754SOL    HW133161   0.991   4.146   2.379
10754SOL    HW233162   1.044   4.299   2.396
10755SOL     OW33163   0.346   2.874   1.055
10755SOL    HW133164   0.258   2.890   1.101
10755SOL    HW233165   0.351   2.778   1.026
10756SOL     OW33166   1.392   0.552   0.419
10756SOL    HW133167   1.365   0.530   0.325
10756SOL    HW233168   1.355   0.483   0.481
10757SOL     OW33169   0.449   3.530   1.757
10757SOL    HW133170   0.421   3.608   1.701
10757SOL    HW233171   0.548   3.522   1.756
10758SOL     OW33172   0.745   0.506   0.414
10758SOL    HW133173   0.671   0.508   0.481
10758SOL    HW233174   0.707   0.496   0.322
10759SOL     OW33175   3.041   2.639   5.657
10759SOL    HW133176   2.952   2.646   5.701
10759SOL    HW233177   3.043   2.699   5.577
10760SOL     OW33178   1.277   4.861   6.335
10760SOL    HW133179   1.341   4.858   6.411
10760SOL    HW233180   1.243   4.768   6.316
10761SOL     OW33181   1.005   1.774   5.608
10761SOL    HW133182   1.016   1.685   5.563
10761SOL    HW233183   1.050   1.845   5.554
10762SOL     OW33184   2.984   5.918   6.086
10762SOL    HW133185   2.924   5.994   6.113
10762SOL    HW233186   3.033   5.885   6.167
10763SOL     OW33187   5.040   0.441   3.412
10763SOL    HW133188   5.035   0.537   3.439
10763SOL    HW233189   5.074   0.434   3.318
10764SOL     OW33190   4.912   6.637   4.641
10764SOL    HW133191   4.872   6.556   4.685
10764SOL    HW233192   4.943   6.613   4.549
10765SOL     OW33193   0.493   1.602   1.824
10765SOL    HW133194   0.424   1.651   1.770
10765SOL    HW233195   0.580   1.652   1.819
10766SOL     OW33196   2.185   4.883   0.054
10766SOL    HW133197   2.156   4.971   0.093
10766SOL    HW233198   2.249   4.900   7.006
10767SOL     OW33199   1.250   5.115   6.621
10767SOL    HW133200   1.206   5.129   6.533
10767SOL    HW233201   1.180   5.088   6.688
10768SOL     OW33202   5.342   6.233   6.546
10768SOL    HW133203   5.405   6.243   6.469
10768SOL    HW233204   5.363   6.149   6.596
10769SOL     OW33205   3.021   3.107   4.556
10769SOL    HW133206   3.064   3.048   4.624
10769SOL    HW233207   3.059   3.087   4.466
10770SOL     OW33208   5.725   6.905   3.278
10770SOL    HW133209   5.809   6.916   3.330
10770SOL    HW233210   5.664   6.982   3.296
10771SOL     OW33211   4.360   6.186   5.808
10771SOL    HW133212   4.394   6.095   5.783
10771SOL    HW233213   4.278   6.206   5.754
10772SOL     OW33214   5.866   5.278   2.579
10772SOL    HW133215   5.916   5.360   2.549
10772SOL    HW233216   5.775   5.277   2.537
10773SOL     OW33217   0.084   3.599   1.057
10773SOL    HW133218   0.026   3.573   1.134
10773SOL    HW233219   0.108   3.518   1.004
10774SOL     OW33220   0.444   3.728   0.485
10774SOL    HW133221   0.465   3.667   0.561
10774SOL    HW233222   0.425   3.820   0.520
10775SOL     OW33223   1.441   4.100   0.781
10775SOL    HW133224   1.428   4.167   0.708
10775SOL    HW233225   1.424   4.143   0.869
10776SOL     OW33226   0.605   2.644   3.891
10776SOL    HW133227   0.580   2.569   3.952
10776SOL    HW233228   0.697   2.628   3.855
10777SOL     OW33229   2.109   0.940   1.791
10777SOL    HW133230   2.075   1.034   1.797
10777SOL    HW233231   2.143   0.922   1.698
10778SOL     OW33232   5.009   0.415   2.539
10778SOL    HW133233   5.068   0.437   2.618
10778SOL    HW233234   4.914   0.408   2.570
10779SOL     OW33235   5.633   3.206   5.527
10779SOL    HW133236   5.553   3.191   5.585
10779SOL    HW233237   5.605   3.208   5.431
10780SOL     OW33238   1.743   5.123   4.689
10780SOL    HW133239   1.805   5.065   4.741
10780SOL    HW233240   1.783   5.214   4.678
10781SOL     OW33241   5.404   2.082   4.524
10781SOL    HW133242   5.313   2.081   4.483
10781SOL    HW233243   5.406   2.020   4.602
10782SOL     OW33244   0.980   1.280   5.212
10782SOL    HW133245   0.990   1.191   5.256
10782SOL    HW233246   1.001   1.353   5.277
10783SOL     OW33247   0.784   2.533   3.509
10783SOL    HW133248   0.783   2.563   3.604
10783SOL    HW233249   0.715   2.463   3.494
10784SOL     OW33250   4.087   5.788   2.968
10784SOL    HW133251   4.061   5.710   2.911
10784SOL    HW233252   4.048   5.778   3.059
10785SOL     OW33253   1.097   5.172   2.069
10785SOL    HW133254   1.147   5.085   2.066
10785SOL    HW233255   1.089   5.202   2.164
10786SOL     OW33256   4.079   1.686   2.535
10786SOL    HW133257   4.034   1.698   2.623
10786SOL    HW233258   4.101   1.775   2.496
10787SOL     OW33259   4.199   1.065   3.385
10787SOL    HW133260   4.103   1.056   3.359
10787SOL    HW233261   4.233   1.154   3.356
10788SOL     OW33262   2.090   3.883   0.069
10788SOL    HW133263   2.180   3.902   0.029
10788SOL    HW233264   2.021   3.940   0.025
10789SOL     OW33265   6.816   1.171   1.837
10789SOL    HW133266   6.862   1.091   1.876
10789SOL    HW233267   6.764   1.218   1.908
10790SOL     OW33268   0.462   1.614   5.757
10790SOL    HW133269   0.481   1.710   5.737
10790SOL    HW233270   0.488   1.558   5.678
10791SOL     OW33271   1.499   2.246   3.014
10791SOL    HW133272   1.580   2.196   3.043
10791SOL    HW233273   1.432   2.248   3.088
10792SOL     OW33274   3.652   1.320   2.308
10792SOL    HW133275   3.698   1.394   2.259
10792SOL    HW233276   3.720   1.254   2.341
10793SOL     OW33277   3.947   1.849   4.521
10793SOL    HW133278   3.849   1.845   4.539
10793SOL    HW233279   3.970   1.940   4.486
10794SOL     OW33280   5.104   2.117   0.576
10794SOL    HW133281   5.193   2.104   0.618
10794SOL    HW233282   5.115   2.160   0.487
10795SOL     OW33283   6.956   3.210   3.340
10795SOL    HW133284   0.022   3.212   3.305
10795SOL    HW233285   6.945   3.133   3.403
10796SOL     OW33286   0.164   0.035   6.112
10796SOL    HW133287   0.173   7.013   6.198
10796SOL    HW233288   0.106   0.115   6.126
10797SOL     OW33289   4.407   4.558   7.001
10797SOL    HW133290   4.369   4.554   0.065
10797SOL    HW233291   4.349   4.507   6.938
10798SOL     OW33292   1.938   6.450   6.573
10798SOL    HW133293   1.844   6.420   6.587
10798SOL    HW233294   1.939   6.535   6.521
10799SOL     OW33295   2.797   1.458   2.834
10799SOL    HW133296   2.773   1.434   2.928
10799SOL    HW233297   2.754   1.394   2.771
10800SOL     OW33298   2.351   6.941   5.521
10800SOL    HW133299   2.416   7.007   5.558
10800SOL    HW233300   2.266   6.988   5.498
10801SOL     OW33301   3.233   6.115   6.128
10801SOL    HW133302   3.238   6.027   6.175
10801SOL    HW233303   3.326   6.151   6.114
10802SOL     OW33304   0.738   5.215   4.109
10802SOL    HW133305   0.673   5.280   4.147
10802SOL    HW233306   0.727   5.127   4.154
10803SOL     OW33307   7.007   4.133   4.918
10803SOL    HW133308   6.947   4.182   4.855
10803SOL    HW233309   0.072   4.170   4.911
10804SOL     OW33310   5.043   4.778   1.187
10804SOL    HW133311   4.959   4.815   1.147
10804SOL    HW233312   5.027   4.685   1.220
10805SOL     OW33313   4.082   5.898   0.306
10805SOL    HW133314   4.079   5.994   0.333
10805SOL    HW233315   4.025   5.844   0.368
10806SOL     OW33316   6.088   4.137   6.430
10806SOL    HW133317   6.038   4.066   6.481
10806SOL    HW233318   6.084   4.223   6.481
10807SOL     OW33319   4.486   1.114   4.256
10807SOL    HW133320   4.563   1.102   4.193
10807SOL    HW233321   4.514   1.087   4.348
10808SOL     OW33322   0.210   2.092   0.256
10808SOL    HW133323   0.160   2.156   0.315
10808SOL    HW233324   0.255   2.143   0.182
10809SOL     OW33325   3.162   1.374   2.928
10809SOL    HW133326   3.247   1.418   2.900
10809SOL    HW233327   3.177   1.275   2.939
10810SOL     OW33328   1.755   1.392   6.713
10810SOL    HW133329   1.772   1.315   6.774
10810SOL    HW233330   1.715   1.467   6.765
10811SOL     OW33331   4.556   4.555   6.027
10811SOL    HW133332   4.589   4.543   6.120
10811SOL    HW233333   4.460   4.528   6.022
10812SOL     OW33334   6.771   2.546   2.213
10812SOL    HW133335   6.766   2.568   2.116
10812SOL    HW233336   6.699   2.594   2.262
10813SOL     OW33337   3.518   5.467   2.680
10813SOL    HW133338   3.595   5.482   2.743
10813SOL    HW233339   3.484   5.374   2.691
10814SOL     OW33340   2.003   6.129   4.915
10814SOL    HW133341   1.926   6.154   4.975
10814SOL    HW233342   1.974   6.055   4.854
10815SOL     OW33343   4.625   2.222   3.188
10815SOL    HW133344   4.628   2.282   3.108
10815SOL    HW233345   4.612   2.127   3.159
10816SOL     OW33346   2.175   2.342   1.730
10816SOL    HW133347   2.142   2.397   1.807
10816SOL    HW233348   2.131   2.252   1.733
10817SOL     OW33349   4.225   0.317   2.064
10817SOL    HW133350   4.292   0.290   1.996
10817SOL    HW233351   4.223   0.250   2.138
10818SOL     OW33352   4.501   3.023   6.125
10818SOL    HW133353   4.543   3.010   6.036
10818SOL    HW233354   4.569   3.061   6.189
10819SOL     OW33355   0.328   4.171   5.385
10819SOL    HW133356   0.393   4.167   5.309
10819SOL    HW233357   0.307   4.267   5.405
10820SOL     OW33358   6.686   0.403   4.855
10820SOL    HW133359   6.611   0.413   4.920
10820SOL    HW233360   6.656   0.347   4.778
10821SOL     OW33361   6.957   6.821   1.042
10821SOL    HW133362   6.918   6.859   1.125
10821SOL    HW233363   6.949   6.722   1.043
10822SOL     OW33364   0.702   4.731   0.192
10822SOL    HW133365   0.621   4.721   0.251
10822SOL    HW233366   0.733   4.640   0.164
10823SOL     OW33367   1.452   2.001   1.471
10823SOL    HW133368   1.545   1.968   1.489
10823SOL    HW233369   1.457   2.090   1.426
10824SOL     OW33370   5.742   0.179   3.204
10824SOL    HW133371   5.836   0.161   3.176
10824SOL    HW233372   5.738   0.191   3.303
10825SOL     OW33373   3.988   1.364   1.491
10825SOL    HW133374   3.951   1.374   1.399
10825SOL    HW233375   4.083   1.394   1.492
10826SOL     OW33376   6.548   2.784   1.344
10826SOL    HW133377   6.555   2.804   1.442
10826SOL    HW233378   6.452   2.765   1.321
10827SOL     OW33379   1.508   2.489   3.751
10827SOL    HW133380   1.535   2.567   3.694
10827SOL    HW233381   1.576   2.476   3.824
10828SOL     OW33382   1.048   5.912   0.618
10828SOL    HW133383   0.998   5.882   0.537
10828SOL    HW233384   1.019   5.859   0.698
10829SOL     OW33385   2.371   3.776   1.796
10829SOL    HW133386   2.374   3.678   1.815
10829SOL    HW233387   2.431   3.796   1.718
10830SOL     OW33388   4.759   1.628   3.786
10830SOL    HW133389   4.826   1.560   3.817
10830SOL    HW233390   4.805   1.697   3.730
10831SOL     OW33391   5.112   2.735   2.739
10831SOL    HW133392   5.140   2.820   2.694
10831SOL    HW233393   5.044   2.688   2.682
10832SOL     OW33394   6.841   2.508   2.798
10832SOL    HW133395   6.936   2.541   2.797
10832SOL    HW233396   6.799   2.531   2.885
10833SOL     OW33397   2.765   6.943   4.399
10833SOL    HW133398   2.690   6.932   4.334
10833SOL    HW233399   2.822   7.020   4.371
10834SOL     OW33400   0.161   1.225   5.627
10834SOL    HW133401   0.082   1.213   5.567
10834SOL    HW233402   0.240   1.180   5.587
10835SOL     OW33403   6.742   2.613   1.959
10835SOL    HW133404   6.652   2.599   1.920
10835SOL    HW233405   6.804   2.648   1.889
10836SOL     OW33406   1.735   3.172   1.216
10836SOL    HW133407   1.688   3.207   1.135
10836SOL    HW233408   1.668   3.142   1.284
10837SOL     OW33409   1.264   5.539   1.649
10837SOL    HW133410   1.330   5.479   1.602
10837SOL    HW233411   1.259   5.626   1.600
10838SOL     OW33412   6.460   0.071   0.507
10838SOL    HW133413   6.475   0.039   0.600
10838SOL    HW233414   6.432   7.022   0.449
10839SOL     OW33415   1.764   1.446   0.097
10839SOL    HW133416   1.727   1.431   0.189
10839SOL    HW233417   1.731   1.534   0.062
10840SOL     OW33418   3.762   5.586   2.773
10840SOL    HW133419   3.721   5.677   2.786
10840SOL    HW233420   3.746   5.530   2.854
10841SOL     OW33421   4.742   3.179   6.249
10841SOL    HW133422   4.783   3.256   6.200
10841SOL    HW233423   4.683   3.213   6.322
10842SOL     OW33424   6.325   2.882   1.616
10842SOL    HW133425   6.293   2.864   1.709
10842SOL    HW233426   6.348   2.795   1.571
10843SOL     OW33427   0.484   0.937   2.086
10843SOL    HW133428   0.409   0.982   2.037
10843SOL    HW233429   0.446   0.871   2.152
10844SOL     OW33430   3.551   6.831   3.139
10844SOL    HW133431   3.466   6.794   3.102
10844SOL    HW233432   3.534   6.923   3.176
10845SOL     OW33433   1.809   3.047   0.792
10845SOL    HW133434   1.837   2.955   0.821
10845SOL    HW233435   1.709   3.055   0.795
10846SOL     OW33436   3.802   1.773   1.727
10846SOL    HW133437   3.789   1.853   1.785
10846SOL    HW233438   3.892   1.779   1.683
10847SOL     OW33439   4.129   2.862   6.185
10847SOL    HW133440   4.217   2.814   6.180
10847SOL    HW233441   4.055   2.800   6.159
10848SOL     OW33442   1.076   0.453   0.382
10848SOL    HW133443   1.113   0.360   0.384
10848SOL    HW233444   0.977   0.449   0.368
10849SOL     OW33445   2.249   5.128   3.964
10849SOL    HW133446   2.269   5.182   4.046
10849SOL    HW233447   2.153   5.139   3.940
10850SOL     OW33448   5.942   0.566   1.933
10850SOL    HW133449   5.870   0.572   2.001
10850SOL    HW233450   5.916   0.501   1.862
10851SOL     OW33451   4.495   1.826   6.132
10851SOL    HW133452   4.404   1.797   6.164
10851SOL    HW233453   4.519   1.774   6.050
10852SOL     OW33454   0.153   0.087   5.850
10852SOL    HW133455   0.147   0.032   5.933
10852SOL    HW233456   0.181   0.029   5.774
10853SOL     OW33457   2.345   0.533   4.763
10853SOL    HW133458   2.361   0.626   4.795
10853SOL    HW233459   2.307   0.536   4.670
10854SOL     OW33460   6.911   6.255   1.221
10854SOL    HW133461   6.864   6.245   1.133
10854SOL    HW233462   6.999   6.208   1.217
10855SOL     OW33463   1.440   5.312   1.735
10855SOL    HW133464   1.456   5.402   1.777
10855SOL    HW233465   1.381   5.324   1.655
10856SOL     OW33466   6.430   0.326   6.461
10856SOL    HW133467   6.437   0.412   6.511
10856SOL    HW233468   6.369   0.263   6.510
10857SOL     OW33469   6.183   0.247   5.168
10857SOL    HW133470   6.136   0.330   5.138
10857SOL    HW233471   6.229   0.204   5.089
10858SOL     OW33472   1.641   2.221   0.127
10858SOL    HW133473   1.680   2.221   0.034
10858SOL    HW233474   1.548   2.258   0.123
10859SOL     OW33475   1.275   5.763   2.690
10859SOL    HW133476   1.285   5.663   2.692
10859SOL    HW233477   1.313   5.798   2.605
10860SOL     OW33478   5.941   3.604   1.416
10860SOL    HW133479   5.846   3.626   1.433
10860SOL    HW233480   5.996   3.688   1.416
10861SOL     OW33481   2.987   3.260   1.333
10861SOL    HW133482   2.897   3.295   1.357
10861SOL    HW233483   3.057   3.307   1.387
10862SOL     OW33484   3.743   3.731   5.417
10862SOL    HW133485   3.735   3.810   5.356
10862SOL    HW233486   3.652   3.695   5.438
10863SOL     OW33487   1.858   0.510   3.340
10863SOL    HW133488   1.930   0.453   3.381
10863SOL    HW233489   1.792   0.451   3.294
10864SOL     OW33490   3.335   4.382   1.669
10864SOL    HW133491   3.336   4.338   1.579
10864SOL    HW233492   3.240   4.405   1.693
10865SOL     OW33493   3.753   1.414   2.880
10865SOL    HW133494   3.795   1.338   2.930
10865SOL    HW233495   3.778   1.408   2.783
10866SOL     OW33496   0.251   3.229   3.229
10866SOL    HW133497   0.339   3.185   3.213
10866SOL    HW233498   0.263   3.306   3.292
10867SOL     OW33499   4.509   2.744   0.168
10867SOL    HW133500   4.599   2.739   0.212
10867SOL    HW233501   4.512   2.809   0.092
10868SOL     OW33502   1.671   0.139   4.819
10868SOL    HW133503   1.728   0.059   4.800
10868SOL    HW233504   1.712   0.220   4.776
10869NA      NA33505   0.071   1.199   6.127
10870NA      NA33506   4.533   4.501   5.130
10871NA      NA33507   1.590   4.581   2.503
10872NA      NA33508   6.083   3.970   3.208
10873NA      NA33509   3.845   2.278   5.492
10874NA      NA33510   2.130   4.674   0.192
10875NA      NA33511   1.559   5.426   6.765
10876NA      NA33512   4.053   4.576   1.254
10877NA      NA33513   4.827   4.740   0.215
10878NA      NA33514   3.420   1.209   0.257
10879NA      NA33515   5.516   0.067   1.675
10880NA      NA33516   2.538   6.229   5.609
10881NA      NA33517   4.184   5.113   1.630
10882NA      NA33518   3.901   3.703   6.682
   7.02781   7.02781   7.02781
