Generated by trjconv : CNT in water t= 318.00000
33518
    1C        C    1   2.847   2.771   4.746
    1C        C    2   2.898   2.718   4.867
    1C        C    3   2.836   2.764   4.983
    1C        C    4   2.853   2.776   4.262
    1C        C    5   2.904   2.724   4.383
    1C        C    6   2.850   2.773   4.504
    1C        C    7   3.016   2.640   4.629
    1C        C    8   2.899   2.719   4.626
    1C        C    9   3.077   2.602   4.751
    1C        C   10   3.011   2.633   4.872
    1C        C   11   3.184   2.490   4.975
    1C        C   12   3.061   2.556   4.978
    1C        C   13   2.847   2.771   3.772
    1C        C   14   2.901   2.723   3.893
    1C        C   15   2.853   2.776   4.015
    1C        C   16   3.019   2.648   4.142
    1C        C   17   2.904   2.730   4.139
    1C        C   18   3.082   2.611   4.262
    1C        C   19   3.020   2.643   4.385
    1C        C   20   3.208   2.550   4.506
    1C        C   21   3.076   2.601   4.508
    1C        C   22   3.279   2.533   4.627
    1C        C   23   3.209   2.550   4.749
    1C        C   24   3.416   2.476   4.866
    1C        C   25   3.275   2.502   4.865
    1C        C   26   3.495   2.477   4.982
    1C        C   27   2.851   2.772   3.284
    1C        C   28   2.911   2.731   3.406
    1C        C   29   2.857   2.779   3.528
    1C        C   30   3.017   2.642   3.650
    1C        C   31   2.903   2.726   3.650
    1C        C   32   3.075   2.605   3.773
    1C        C   33   3.018   2.643   3.896
    1C        C   34   3.208   2.552   4.017
    1C        C   35   3.079   2.611   4.019
    1C        C   36   3.278   2.536   4.139
    1C        C   37   3.213   2.558   4.262
    1C        C   38   3.417   2.509   4.382
    1C        C   39   3.278   2.534   4.385
    1C        C   40   3.487   2.500   4.504
    1C        C   41   3.418   2.508   4.627
    1C        C   42   3.633   2.483   4.747
    1C        C   43   3.490   2.480   4.745
    1C        C   44   3.707   2.484   4.868
    1C        C   45   3.633   2.475   4.987
    1C        C   46   2.843   2.755   2.796
    1C        C   47   2.895   2.707   2.919
    1C        C   48   2.847   2.762   3.040
    1C        C   49   3.014   2.634   3.163
    1C        C   50   2.901   2.719   3.163
    1C        C   51   3.076   2.601   3.285
    1C        C   52   3.017   2.639   3.408
    1C        C   53   3.210   2.547   3.530
    1C        C   54   3.079   2.601   3.530
    1C        C   55   3.277   2.527   3.653
    1C        C   56   3.205   2.550   3.772
    1C        C   57   3.412   2.506   3.896
    1C        C   58   3.273   2.529   3.894
    1C        C   59   3.486   2.498   4.016
    1C        C   60   3.416   2.506   4.139
    1C        C   61   3.630   2.496   4.260
    1C        C   62   3.489   2.498   4.260
    1C        C   63   3.700   2.506   4.382
    1C        C   64   3.629   2.502   4.504
    1C        C   65   3.837   2.539   4.623
    1C        C   66   3.702   2.498   4.625
    1C        C   67   3.903   2.567   4.744
    1C        C   68   3.842   2.524   4.864
    1C        C   69   4.052   2.582   4.980
    1C        C   70   3.921   2.530   4.979
    1C        C   71   2.830   2.736   2.310
    1C        C   72   2.886   2.692   2.432
    1C        C   73   2.837   2.749   2.551
    1C        C   74   3.012   2.629   2.672
    1C        C   75   2.893   2.705   2.673
    1C        C   76   3.072   2.594   2.795
    1C        C   77   3.012   2.627   2.919
    1C        C   78   3.206   2.544   3.039
    1C        C   79   3.076   2.598   3.041
    1C        C   80   3.274   2.523   3.161
    1C        C   81   3.207   2.547   3.284
    1C        C   82   3.413   2.499   3.404
    1C        C   83   3.274   2.525   3.406
    1C        C   84   3.485   2.492   3.525
    1C        C   85   3.417   2.503   3.649
    1C        C   86   3.624   2.502   3.770
    1C        C   87   3.483   2.499   3.773
    1C        C   88   3.695   2.512   3.892
    1C        C   89   3.627   2.500   4.015
    1C        C   90   3.832   2.550   4.137
    1C        C   91   3.699   2.505   4.137
    1C        C   92   3.901   2.572   4.259
    1C        C   93   3.836   2.542   4.381
    1C        C   94   4.029   2.634   4.498
    1C        C   95   3.905   2.566   4.502
    1C        C   96   4.087   2.675   4.620
    1C        C   97   4.030   2.632   4.742
    1C        C   98   4.190   2.762   4.861
    1C        C   99   4.099   2.652   4.864
    1C        C  100   4.216   2.839   4.975
    1C        C  101   2.819   2.727   2.072
    1C        C  102   2.994   2.593   2.190
    1C        C  103   2.878   2.678   2.189
    1C        C  104   3.064   2.568   2.311
    1C        C  105   3.003   2.612   2.430
    1C        C  106   3.199   2.528   2.554
    1C        C  107   3.068   2.582   2.552
    1C        C  108   3.270   2.513   2.675
    1C        C  109   3.199   2.532   2.795
    1C        C  110   3.411   2.497   2.916
    1C        C  111   3.272   2.522   2.916
    1C        C  112   3.482   2.495   3.038
    1C        C  113   3.413   2.503   3.161
    1C        C  114   3.626   2.502   3.279
    1C        C  115   3.485   2.493   3.283
    1C        C  116   3.693   2.512   3.403
    1C        C  117   3.626   2.496   3.526
    1C        C  118   3.833   2.543   3.650
    1C        C  119   3.696   2.506   3.648
    1C        C  120   3.899   2.572   3.771
    1C        C  121   3.832   2.546   3.893
    1C        C  122   4.026   2.634   4.013
    1C        C  123   3.899   2.572   4.014
    1C        C  124   4.089   2.673   4.134
    1C        C  125   4.028   2.635   4.255
    1C        C  126   4.196   2.766   4.378
    1C        C  127   4.087   2.676   4.377
    1C        C  128   4.246   2.818   4.499
    1C        C  129   4.193   2.769   4.620
    1C        C  130   4.323   2.938   4.741
    1C        C  131   4.240   2.822   4.742
    1C        C  132   4.349   3.006   4.862
    1C        C  133   4.289   2.958   4.978
    1C        C  134   3.174   2.464   2.083
    1C        C  135   3.040   2.504   2.088
    1C        C  136   3.260   2.472   2.193
    1C        C  137   3.195   2.513   2.311
    1C        C  138   3.404   2.471   2.433
    1C        C  139   3.265   2.495   2.433
    1C        C  140   3.481   2.482   2.551
    1C        C  141   3.410   2.492   2.673
    1C        C  142   3.623   2.490   2.791
    1C        C  143   3.482   2.486   2.794
    1C        C  144   3.694   2.505   2.912
    1C        C  145   3.623   2.498   3.034
    1C        C  146   3.832   2.537   3.155
    1C        C  147   3.695   2.502   3.156
    1C        C  148   3.893   2.567   3.279
    1C        C  149   3.830   2.546   3.404
    1C        C  150   4.024   2.630   3.522
    1C        C  151   3.899   2.564   3.527
    1C        C  152   4.085   2.667   3.644
    1C        C  153   4.025   2.635   3.768
    1C        C  154   4.193   2.765   3.890
    1C        C  155   4.083   2.676   3.891
    1C        C  156   4.247   2.812   4.012
    1C        C  157   4.200   2.760   4.134
    1C        C  158   4.336   2.924   4.253
    1C        C  159   4.252   2.811   4.256
    1C        C  160   4.373   2.987   4.374
    1C        C  161   4.332   2.930   4.497
    1C        C  162   4.431   3.117   4.618
    1C        C  163   4.372   2.989   4.619
    1C        C  164   4.463   3.186   4.737
    1C        C  165   4.428   3.123   4.859
    1C        C  166   4.514   3.326   4.973
    1C        C  167   4.472   3.194   4.972
    1C        C  168   3.475   2.431   2.076
    1C        C  169   3.400   2.450   2.192
    1C        C  170   3.616   2.464   2.307
    1C        C  171   3.474   2.457   2.312
    1C        C  172   3.692   2.484   2.425
    1C        C  173   3.622   2.485   2.548
    1C        C  174   3.829   2.543   2.665
    1C        C  175   3.695   2.499   2.669
    1C        C  176   3.898   2.560   2.787
    1C        C  177   3.830   2.541   2.910
    1C        C  178   4.021   2.631   3.032
    1C        C  179   3.896   2.565   3.032
    1C        C  180   4.076   2.674   3.155
    1C        C  181   4.017   2.634   3.277
    1C        C  182   4.192   2.756   3.397
    1C        C  183   4.081   2.667   3.399
    1C        C  184   4.241   2.805   3.520
    1C        C  185   4.191   2.760   3.644
    1C        C  186   4.339   2.914   3.763
    1C        C  187   4.241   2.812   3.766
    1C        C  188   4.380   2.975   3.884
    1C        C  189   4.336   2.922   4.008
    1C        C  190   4.444   3.105   4.129
    1C        C  191   4.375   2.981   4.130
    1C        C  192   4.471   3.171   4.251
    1C        C  193   4.442   3.110   4.375
    1C        C  194   4.505   3.316   4.492
    1C        C  195   4.463   3.181   4.496
    1C        C  196   4.519   3.390   4.612
    1C        C  197   4.516   3.318   4.734
    1C        C  198   4.551   3.535   4.854
    1C        C  199   4.541   3.392   4.852
    1C        C  200   4.583   3.620   4.964
    1C        C  201   3.615   2.423   2.071
    1C        C  202   3.825   2.512   2.184
    1C        C  203   3.691   2.461   2.186
    1C        C  204   3.897   2.545   2.302
    1C        C  205   3.828   2.520   2.423
    1C        C  206   4.022   2.619   2.541
    1C        C  207   3.893   2.562   2.541
    1C        C  208   4.083   2.659   2.662
    1C        C  209   4.022   2.627   2.786
    1C        C  210   4.192   2.753   2.908
    1C        C  211   4.079   2.667   2.908
    1C        C  212   4.246   2.801   3.029
    1C        C  213   4.193   2.752   3.151
    1C        C  214   4.336   2.907   3.274
    1C        C  215   4.245   2.799   3.274
    1C        C  216   4.368   2.970   3.397
    1C        C  217   4.329   2.915   3.521
    1C        C  218   4.437   3.101   3.638
    1C        C  219   4.376   2.973   3.641
    1C        C  220   4.464   3.167   3.760
    1C        C  221   4.438   3.103   3.884
    1C        C  222   4.505   3.304   4.005
    1C        C  223   4.471   3.167   4.005
    1C        C  224   4.516   3.377   4.126
    1C        C  225   4.507   3.308   4.249
    1C        C  226   4.520   3.524   4.368
    1C        C  227   4.516   3.383   4.369
    1C        C  228   4.510   3.599   4.487
    1C        C  229   4.523   3.531   4.610
    1C        C  230   4.502   3.743   4.730
    1C        C  231   4.531   3.604   4.731
    1C        C  232   4.496   3.823   4.846
    1C        C  233   4.543   3.755   4.960
    1C        C  234   4.020   2.607   2.061
    1C        C  235   3.897   2.543   2.068
    1C        C  236   4.085   2.647   2.178
    1C        C  237   4.022   2.612   2.300
    1C        C  238   4.204   2.732   2.422
    1C        C  239   4.086   2.652   2.419
    1C        C  240   4.255   2.789   2.541
    1C        C  241   4.194   2.747   2.661
    1C        C  242   4.338   2.902   2.784
    1C        C  243   4.245   2.795   2.784
    1C        C  244   4.381   2.960   2.905
    1C        C  245   4.340   2.906   3.029
    1C        C  246   4.442   3.089   3.149
    1C        C  247   4.380   2.962   3.152
    1C        C  248   4.463   3.157   3.271
    1C        C  249   4.430   3.097   3.395
    1C        C  250   4.501   3.301   3.513
    1C        C  251   4.462   3.165   3.515
    1C        C  252   4.508   3.371   3.636
    1C        C  253   4.498   3.304   3.760
    1C        C  254   4.528   3.513   3.881
    1C        C  255   4.519   3.372   3.882
    1C        C  256   4.515   3.586   4.001
    1C        C  257   4.518   3.518   4.124
    1C        C  258   4.486   3.731   4.243
    1C        C  259   4.510   3.592   4.244
    1C        C  260   4.468   3.805   4.362
    1C        C  261   4.486   3.738   4.486
    1C        C  262   4.423   3.940   4.605
    1C        C  263   4.474   3.808   4.608
    1C        C  264   4.399   4.011   4.724
    1C        C  265   4.432   3.949   4.846
    1C        C  266   4.320   4.133   4.960
    1C        C  267   4.392   4.015   4.963
    1C        C  268   4.260   2.777   2.063
    1C        C  269   4.198   2.731   2.180
    1C        C  270   4.351   2.885   2.299
    1C        C  271   4.257   2.778   2.300
    1C        C  272   4.394   2.951   2.416
    1C        C  273   4.349   2.895   2.537
    1C        C  274   4.448   3.080   2.660
    1C        C  275   4.378   2.957   2.661
    1C        C  276   4.474   3.148   2.781
    1C        C  277   4.452   3.082   2.904
    1C        C  278   4.506   3.289   3.023
    1C        C  279   4.475   3.151   3.026
    1C        C  280   4.513   3.360   3.144
    1C        C  281   4.501   3.293   3.268
    1C        C  282   4.517   3.507   3.392
    1C        C  283   4.510   3.366   3.388
    1C        C  284   4.513   3.580   3.513
    1C        C  285   4.518   3.512   3.636
    1C        C  286   4.499   3.723   3.753
    1C        C  287   4.520   3.583   3.758
    1C        C  288   4.477   3.793   3.874
    1C        C  289   4.487   3.725   3.997
    1C        C  290   4.421   3.928   4.115
    1C        C  291   4.470   3.796   4.118
    1C        C  292   4.387   3.996   4.235
    1C        C  293   4.420   3.938   4.359
    1C        C  294   4.325   4.126   4.479
    1C        C  295   4.395   4.004   4.482
    1C        C  296   4.281   4.186   4.599
    1C        C  297   4.324   4.132   4.722
    1C        C  298   4.196   4.312   4.838
    1C        C  299   4.278   4.195   4.841
    1C        C  300   4.166   4.402   4.945
    1C        C  301   4.349   2.883   2.063
    1C        C  302   4.471   3.068   2.170
    1C        C  303   4.391   2.949   2.179
    1C        C  304   4.483   3.141   2.292
    1C        C  305   4.456   3.078   2.415
    1C        C  306   4.513   3.281   2.537
    1C        C  307   4.483   3.142   2.538
    1C        C  308   4.515   3.355   2.658
    1C        C  309   4.503   3.286   2.781
    1C        C  310   4.523   3.500   2.900
    1C        C  311   4.517   3.359   2.901
    1C        C  312   4.513   3.570   3.023
    1C        C  313   4.519   3.501   3.146
    1C        C  314   4.485   3.712   3.265
    1C        C  315   4.516   3.574   3.267
    1C        C  316   4.472   3.787   3.384
    1C        C  317   4.490   3.720   3.507
    1C        C  318   4.421   3.919   3.626
    1C        C  319   4.473   3.787   3.630
    1C        C  320   4.392   3.986   3.747
    1C        C  321   4.425   3.925   3.870
    1C        C  322   4.314   4.107   3.990
    1C        C  323   4.389   3.987   3.991
    1C        C  324   4.273   4.170   4.110
    1C        C  325   4.316   4.118   4.234
    1C        C  326   4.188   4.288   4.354
    1C        C  327   4.280   4.180   4.356
    1C        C  328   4.137   4.340   4.475
    1C        C  329   4.186   4.291   4.598
    1C        C  330   4.021   4.435   4.714
    1C        C  331   4.137   4.353   4.715
    1C        C  332   3.967   4.492   4.831
    1C        C  333   4.048   4.478   4.944
    1C        C  334   4.558   3.266   2.064
    1C        C  335   4.530   3.129   2.055
    1C        C  336   4.542   3.349   2.175
    1C        C  337   4.513   3.280   2.295
    1C        C  338   4.527   3.493   2.413
    1C        C  339   4.520   3.352   2.416
    1C        C  340   4.521   3.566   2.534
    1C        C  341   4.522   3.496   2.657
    1C        C  342   4.487   3.707   2.775
    1C        C  343   4.517   3.569   2.778
    1C        C  344   4.467   3.776   2.896
    1C        C  345   4.487   3.709   3.019
    1C        C  346   4.422   3.911   3.139
    1C        C  347   4.472   3.779   3.141
    1C        C  348   4.390   3.980   3.258
    1C        C  349   4.422   3.919   3.382
    1C        C  350   4.323   4.106   3.502
    1C        C  351   4.394   3.984   3.504
    1C        C  352   4.270   4.156   3.623
    1C        C  353   4.315   4.105   3.747
    1C        C  354   4.177   4.268   3.866
    1C        C  355   4.274   4.165   3.868
    1C        C  356   4.121   4.316   3.987
    1C        C  357   4.180   4.276   4.109
    1C        C  358   4.012   4.403   4.231
    1C        C  359   4.131   4.327   4.231
    1C        C  360   3.953   4.446   4.352
    1C        C  361   4.024   4.425   4.472
    1C        C  362   3.830   4.521   4.592
    1C        C  363   3.960   4.467   4.590
    1C        C  364   3.762   4.553   4.712
    1C        C  365   3.837   4.547   4.831
    1C        C  366   3.627   4.592   4.946
    1C        C  367   3.765   4.576   4.948
    1C        C  368   4.515   3.560   2.053
    1C        C  369   4.525   3.489   2.174
    1C        C  370   4.504   3.706   2.287
    1C        C  371   4.528   3.566   2.292
    1C        C  372   4.482   3.775   2.408
    1C        C  373   4.498   3.705   2.529
    1C        C  374   4.421   3.905   2.651
    1C        C  375   4.473   3.773   2.650
    1C        C  376   4.395   3.972   2.773
    1C        C  377   4.425   3.911   2.896
    1C        C  378   4.313   4.093   3.012
    1C        C  379   4.391   3.975   3.017
    1C        C  380   4.268   4.152   3.133
    1C        C  381   4.312   4.098   3.256
    1C        C  382   4.173   4.253   3.376
    1C        C  383   4.277   4.157   3.379
    1C        C  384   4.121   4.305   3.497
    1C        C  385   4.171   4.257   3.620
    1C        C  386   4.006   4.388   3.743
    1C        C  387   4.123   4.310   3.742
    1C        C  388   3.944   4.430   3.863
    1C        C  389   4.004   4.395   3.985
    1C        C  390   3.816   4.486   4.108
    1C        C  391   3.947   4.433   4.109
    1C        C  392   3.748   4.510   4.230
    1C        C  393   3.821   4.495   4.351
    1C        C  394   3.616   4.552   4.475
    1C        C  395   3.756   4.529   4.472
    1C        C  396   3.545   4.564   4.597
    1C        C  397   3.622   4.564   4.716
    1C        C  398   3.406   4.547   4.840
    1C        C  399   3.546   4.568   4.835
    1C        C  400   3.338   4.519   4.959
    1C        C  401   4.505   3.699   2.050
    1C        C  402   4.450   3.912   2.168
    1C        C  403   4.492   3.777   2.166
    1C        C  404   4.415   3.977   2.289
    1C        C  405   4.436   3.909   2.411
    1C        C  406   4.325   4.095   2.527
    1C        C  407   4.400   3.975   2.530
    1C        C  408   4.276   4.148   2.648
    1C        C  409   4.316   4.089   2.770
    1C        C  410   4.169   4.247   2.889
    1C        C  411   4.269   4.147   2.890
    1C        C  412   4.119   4.299   3.010
    1C        C  413   4.171   4.254   3.134
    1C        C  414   3.999   4.380   3.255
    1C        C  415   4.116   4.300   3.256
    1C        C  416   3.941   4.414   3.379
    1C        C  417   4.004   4.384   3.502
    1C        C  418   3.810   4.475   3.617
    1C        C  419   3.942   4.425   3.622
    1C        C  420   3.746   4.502   3.740
    1C        C  421   3.813   4.485   3.863
    1C        C  422   3.610   4.536   3.984
    1C        C  423   3.749   4.509   3.987
    1C        C  424   3.543   4.547   4.108
    1C        C  425   3.610   4.540   4.231
    1C        C  426   3.403   4.551   4.356
    1C        C  427   3.544   4.560   4.354
    1C        C  428   3.332   4.546   4.478
    1C        C  429   3.404   4.557   4.599
    1C        C  430   3.192   4.522   4.724
    1C        C  431   3.331   4.548   4.720
    1C        C  432   3.124   4.494   4.846
    1C        C  433   3.203   4.488   4.962
    1C        C  434   4.387   4.120   2.055
    1C        C  435   4.447   3.994   2.055
    1C        C  436   4.305   4.160   2.165
    1C        C  437   4.338   4.096   2.288
    1C        C  438   4.181   4.249   2.405
    1C        C  439   4.286   4.155   2.405
    1C        C  440   4.122   4.295   2.526
    1C        C  441   4.177   4.248   2.647
    1C        C  442   3.999   4.373   2.766
    1C        C  443   4.116   4.294   2.766
    1C        C  444   3.946   4.422   2.888
    1C        C  445   4.008   4.387   3.010
    1C        C  446   3.812   4.471   3.128
    1C        C  447   3.943   4.419   3.131
    1C        C  448   3.746   4.494   3.250
    1C        C  449   3.813   4.472   3.373
    1C        C  450   3.607   4.527   3.497
    1C        C  451   3.745   4.496   3.494
    1C        C  452   3.537   4.539   3.619
    1C        C  453   3.608   4.532   3.741
    1C        C  454   3.395   4.543   3.865
    1C        C  455   3.537   4.539   3.863
    1C        C  456   3.330   4.535   3.990
    1C        C  457   3.402   4.545   4.112
    1C        C  458   3.193   4.511   4.234
    1C        C  459   3.332   4.535   4.235
    1C        C  460   3.129   4.491   4.358
    1C        C  461   3.193   4.524   4.480
    1C        C  462   2.999   4.437   4.602
    1C        C  463   3.125   4.499   4.602
    1C        C  464   2.931   4.400   4.721
    1C        C  465   2.990   4.443   4.843
    1C        C  466   2.797   4.344   4.959
    1C        C  467   2.905   4.432   4.958
    1C        C  468   4.125   4.289   2.047
    1C        C  469   4.193   4.249   2.163
    1C        C  470   4.013   4.377   2.278
    1C        C  471   4.131   4.297   2.282
    1C        C  472   3.943   4.405   2.398
    1C        C  473   4.007   4.377   2.521
    1C        C  474   3.813   4.465   2.644
    1C        C  475   3.943   4.410   2.642
    1C        C  476   3.746   4.497   2.764
    1C        C  477   3.816   4.476   2.886
    1C        C  478   3.605   4.520   3.010
    1C        C  479   3.742   4.489   3.006
    1C        C  480   3.535   4.532   3.133
    1C        C  481   3.607   4.521   3.254
    1C        C  482   3.395   4.536   3.377
    1C        C  483   3.536   4.534   3.375
    1C        C  484   3.323   4.531   3.498
    1C        C  485   3.395   4.538   3.619
    1C        C  486   3.189   4.502   3.744
    1C        C  487   3.326   4.535   3.742
    1C        C  488   3.127   4.479   3.869
    1C        C  489   3.192   4.506   3.991
    1C        C  490   2.997   4.424   4.116
    1C        C  491   3.123   4.488   4.114
    1C        C  492   2.941   4.387   4.240
    1C        C  493   3.002   4.429   4.360
    1C        C  494   2.830   4.303   4.482
    1C        C  495   2.938   4.395   4.482
    1C        C  496   2.774   4.257   4.603
    1C        C  497   2.816   4.317   4.724
    1C        C  498   2.662   4.170   4.844
    1C        C  499   2.750   4.280   4.843
    1C        C  500   2.599   4.117   4.957
    1C        C  501   4.007   4.362   2.046
    1C        C  502   3.813   4.464   2.157
    1C        C  503   3.943   4.410   2.161
    1C        C  504   3.743   4.482   2.279
    1C        C  505   3.812   4.455   2.400
    1C        C  506   3.606   4.507   2.519
    1C        C  507   3.745   4.482   2.521
    1C        C  508   3.536   4.519   2.641
    1C        C  509   3.606   4.517   2.763
    1C        C  510   3.396   4.519   2.885
    1C        C  511   3.537   4.521   2.886
    1C        C  512   3.325   4.521   3.007
    1C        C  513   3.394   4.534   3.130
    1C        C  514   3.188   4.497   3.254
    1C        C  515   3.326   4.528   3.254
    1C        C  516   3.122   4.472   3.377
    1C        C  517   3.184   4.501   3.500
    1C        C  518   2.996   4.410   3.625
    1C        C  519   3.118   4.481   3.623
    1C        C  520   2.941   4.375   3.750
    1C        C  521   3.000   4.418   3.871
    1C        C  522   2.835   4.287   3.998
    1C        C  523   2.941   4.380   3.994
    1C        C  524   2.785   4.241   4.121
    1C        C  525   2.834   4.295   4.242
    1C        C  526   2.692   4.136   4.363
    1C        C  527   2.779   4.247   4.363
    1C        C  528   2.651   4.078   4.486
    1C        C  529   2.688   4.144   4.605
    1C        C  530   2.584   3.963   4.732
    1C        C  531   2.638   4.095   4.727
    1C        C  532   2.542   3.901   4.853
    1C        C  533   2.527   3.997   4.958
    1C        C  534   3.619   4.556   2.036
    1C        C  535   3.752   4.513   2.041
    1C        C  536   3.537   4.534   2.152
    1C        C  537   3.606   4.518   2.275
    1C        C  538   3.394   4.517   2.400
    1C        C  539   3.535   4.516   2.397
    1C        C  540   3.322   4.508   2.521
    1C        C  541   3.395   4.509   2.642
    1C        C  542   3.185   4.481   2.767
    1C        C  543   3.324   4.507   2.764
    1C        C  544   3.116   4.466   2.890
    1C        C  545   3.187   4.491   3.009
    1C        C  546   2.997   4.404   3.133
    1C        C  547   3.122   4.469   3.133
    1C        C  548   2.938   4.366   3.256
    1C        C  549   2.997   4.405   3.378
    1C        C  550   2.832   4.278   3.505
    1C        C  551   2.937   4.372   3.502
    1C        C  552   2.784   4.229   3.629
    1C        C  553   2.833   4.284   3.750
    1C        C  554   2.703   4.123   3.876
    1C        C  555   2.789   4.234   3.875
    1C        C  556   2.663   4.064   3.999
    1C        C  557   2.696   4.131   4.119
    1C        C  558   2.598   3.945   4.248
    1C        C  559   2.657   4.073   4.241
    1C        C  560   2.565   3.882   4.370
    1C        C  561   2.588   3.952   4.491
    1C        C  562   2.529   3.751   4.615
    1C        C  563   2.563   3.888   4.614
    1C        C  564   2.515   3.682   4.738
    1C        C  565   2.521   3.760   4.857
    1C        C  566   2.537   3.548   4.976
    1C        C  567   2.524   3.687   4.977
    1C        C  568   3.328   4.479   2.041
    1C        C  569   3.396   4.515   2.158
    1C        C  570   3.183   4.477   2.280
    1C        C  571   3.322   4.505   2.279
    1C        C  572   3.114   4.459   2.401
    1C        C  573   3.184   4.482   2.522
    1C        C  574   2.991   4.401   2.648
    1C        C  575   3.116   4.467   2.645
    1C        C  576   2.932   4.359   2.769
    1C        C  577   2.994   4.395   2.891
    1C        C  578   2.823   4.274   3.016
    1C        C  579   2.933   4.362   3.014
    1C        C  580   2.777   4.224   3.139
    1C        C  581   2.833   4.272   3.260
    1C        C  582   2.696   4.114   3.386
    1C        C  583   2.782   4.226   3.383
    1C        C  584   2.658   4.057   3.509
    1C        C  585   2.701   4.115   3.630
    1C        C  586   2.595   3.938   3.755
    1C        C  587   2.663   4.061   3.755
    1C        C  588   2.574   3.872   3.879
    1C        C  589   2.604   3.935   4.001
    1C        C  590   2.544   3.738   4.129
    1C        C  591   2.583   3.874   4.126
    1C        C  592   2.525   3.673   4.253
    1C        C  593   2.531   3.745   4.374
    1C        C  594   2.511   3.534   4.497
    1C        C  595   2.523   3.675   4.496
    1C        C  596   2.517   3.466   4.621
    1C        C  597   2.519   3.540   4.742
    1C        C  598   2.538   3.326   4.862
    1C        C  599   2.527   3.467   4.862
    1C        C  600   2.535   3.249   4.979
    1C        C  601   3.195   4.440   2.041
    1C        C  602   2.982   4.398   2.163
    1C        C  603   3.119   4.439   2.158
    1C        C  604   2.920   4.365   2.287
    1C        C  605   2.985   4.400   2.407
    1C        C  606   2.816   4.272   2.528
    1C        C  607   2.925   4.361   2.529
    1C        C  608   2.770   4.223   2.652
    1C        C  609   2.818   4.277   2.774
    1C        C  610   2.683   4.112   2.897
    1C        C  611   2.766   4.227   2.895
    1C        C  612   2.646   4.054   3.020
    1C        C  613   2.686   4.115   3.141
    1C        C  614   2.592   3.929   3.266
    1C        C  615   2.651   4.057   3.265
    1C        C  616   2.565   3.866   3.390
    1C        C  617   2.592   3.931   3.513
    1C        C  618   2.532   3.731   3.640
    1C        C  619   2.565   3.868   3.636
    1C        C  620   2.521   3.663   3.763
    1C        C  621   2.535   3.736   3.884
    1C        C  622   2.510   3.527   4.008
    1C        C  623   2.528   3.668   4.007
    1C        C  624   2.516   3.458   4.131
    1C        C  625   2.515   3.532   4.251
    1C        C  626   2.545   3.325   4.380
    1C        C  627   2.517   3.464   4.375
    1C        C  628   2.561   3.254   4.501
    1C        C  629   2.541   3.327   4.621
    1C        C  630   2.595   3.118   4.741
    1C        C  631   2.555   3.255   4.741
    1C        C  632   2.617   3.050   4.864
    1C        C  633   2.564   3.112   4.981
    1C        C  634   2.783   4.304   2.055
    1C        C  635   2.890   4.394   2.053
    1C        C  636   2.746   4.232   2.169
    1C        C  637   2.807   4.280   2.287
    1C        C  638   2.674   4.113   2.409
    1C        C  639   2.758   4.226   2.408
    1C        C  640   2.641   4.050   2.531
    1C        C  641   2.684   4.111   2.652
    1C        C  642   2.589   3.923   2.777
    1C        C  643   2.645   4.052   2.775
    1C        C  644   2.563   3.859   2.901
    1C        C  645   2.589   3.925   3.023
    1C        C  646   2.526   3.724   3.152
    1C        C  647   2.567   3.859   3.146
    1C        C  648   2.516   3.655   3.275
    1C        C  649   2.529   3.730   3.394
    1C        C  650   2.507   3.520   3.519
    1C        C  651   2.521   3.661   3.517
    1C        C  652   2.511   3.450   3.642
    1C        C  653   2.515   3.521   3.763
    1C        C  654   2.534   3.314   3.889
    1C        C  655   2.513   3.454   3.887
    1C        C  656   2.561   3.250   4.012
    1C        C  657   2.545   3.320   4.133
    1C        C  658   2.615   3.125   4.258
    1C        C  659   2.564   3.257   4.258
    1C        C  660   2.641   3.057   4.379
    1C        C  661   2.607   3.121   4.501
    1C        C  662   2.714   2.937   4.628
    1C        C  663   2.637   3.055   4.622
    1C        C  664   2.751   2.876   4.750
    1C        C  665   2.700   2.933   4.869
    1C        C  666   2.751   2.874   4.986
    1C        C  667   2.679   4.025   2.055
    1C        C  668   2.681   4.106   2.170
    1C        C  669   2.586   3.915   2.293
    1C        C  670   2.633   4.049   2.290
    1C        C  671   2.555   3.850   2.414
    1C        C  672   2.582   3.922   2.533
    1C        C  673   2.521   3.720   2.660
    1C        C  674   2.563   3.855   2.656
    1C        C  675   2.510   3.652   2.783
    1C        C  676   2.525   3.722   2.904
    1C        C  677   2.506   3.515   3.031
    1C        C  678   2.514   3.656   3.029
    1C        C  679   2.506   3.444   3.153
    1C        C  680   2.502   3.514   3.276
    1C        C  681   2.521   3.305   3.401
    1C        C  682   2.502   3.446   3.399
    1C        C  683   2.537   3.238   3.524
    1C        C  684   2.530   3.310   3.646
    1C        C  685   2.585   3.106   3.771
    1C        C  686   2.543   3.241   3.768
    1C        C  687   2.633   3.051   3.892
    1C        C  688   2.611   3.118   4.014
    1C        C  689   2.718   2.936   4.139
    1C        C  690   2.646   3.058   4.138
    1C        C  691   2.761   2.884   4.263
    1C        C  692   2.713   2.936   4.385
    1C        C  693   2.756   2.878   4.506
    1C        C  694   2.627   3.895   2.056
    1C        C  695   2.531   3.706   2.176
    1C        C  696   2.574   3.840   2.174
    1C        C  697   2.517   3.637   2.298
    1C        C  698   2.522   3.713   2.417
    1C        C  699   2.493   3.507   2.543
    1C        C  700   2.502   3.648   2.541
    1C        C  701   2.498   3.437   2.666
    1C        C  702   2.498   3.511   2.787
    1C        C  703   2.528   3.303   2.912
    1C        C  704   2.506   3.442   2.910
    1C        C  705   2.543   3.234   3.034
    1C        C  706   2.527   3.304   3.156
    1C        C  707   2.598   3.107   3.280
    1C        C  708   2.547   3.239   3.279
    1C        C  709   2.629   3.047   3.404
    1C        C  710   2.597   3.110   3.526
    1C        C  711   2.708   2.933   3.648
    1C        C  712   2.622   3.045   3.649
    1C        C  713   2.754   2.878   3.769
    1C        C  714   2.715   2.936   3.892
    1C        C  715   2.760   2.883   4.015
    1C        C  716   2.457   3.502   2.063
    1C        C  717   2.487   3.639   2.061
    1C        C  718   2.468   3.426   2.183
    1C        C  719   2.486   3.499   2.304
    1C        C  720   2.516   3.290   2.424
    1C        C  721   2.488   3.428   2.426
    1C        C  722   2.540   3.225   2.548
    1C        C  723   2.526   3.298   2.668
    1C        C  724   2.598   3.101   2.792
    1C        C  725   2.543   3.231   2.791
    1C        C  726   2.623   3.035   2.915
    1C        C  727   2.596   3.103   3.035
    1C        C  728   2.709   2.925   3.158
    1C        C  729   2.632   3.043   3.158
    1C        C  730   2.753   2.873   3.282
    1C        C  731   2.715   2.934   3.404
    1C        C  732   2.759   2.880   3.527
    1C        C  733   2.495   3.198   2.074
    1C        C  734   2.493   3.285   2.185
    1C        C  735   2.588   3.087   2.307
    1C        C  736   2.527   3.216   2.304
    1C        C  737   2.623   3.025   2.429
    1C        C  738   2.596   3.095   2.549
    1C        C  739   2.703   2.914   2.674
    1C        C  740   2.633   3.036   2.672
    1C        C  741   2.750   2.861   2.796
    1C        C  742   2.703   2.919   2.916
    1C        C  743   2.748   2.863   3.037
    1C        C  744   2.554   3.072   2.073
    1C        C  745   2.691   2.900   2.187
    1C        C  746   2.616   3.019   2.187
    1C        C  747   2.737   2.843   2.308
    1C        C  748   2.694   2.903   2.429
    1C        C  749   2.742   2.853   2.552
    1C        C  750   2.745   2.845   2.070
    1C        C  751   3.661   2.324   1.970
    1C        O  752   3.663   2.206   2.015
    1C        O  753   3.703   2.354   1.840
    1C        C  754   4.589   3.056   1.941
    1C        O  755   4.528   3.069   1.831
    1C        O  756   4.728   3.036   1.934
    1C        C  757   4.465   4.225   1.985
    1C        O  758   4.566   4.280   2.034
    1C        O  759   4.414   4.301   1.879
    1C        C  760   3.594   4.679   1.958
    1C        O  761   3.595   4.793   2.012
    1C        O  762   3.518   4.688   1.840
    1C        C  763   2.864   4.516   1.974
    1C        O  764   2.892   4.511   1.852
    1C        O  765   2.753   4.601   1.980
    1C        C  766   2.370   3.460   1.951
    1C        O  767   2.403   3.452   1.830
    1C        O  768   2.233   3.490   1.957
    1C        C  769   4.699   3.589   5.050
    1C        O  770   4.704   3.517   5.153
    1C        O  771   4.824   3.637   5.008
    1C        C  772   4.277   4.463   5.022
    1C        O  773   4.297   4.435   5.143
    1C        O  774   4.298   4.601   5.013
    1C        C  775   4.148   2.521   5.074
    1C        O  776   4.222   2.424   5.042
    1C        O  777   4.117   2.508   5.209
    1C        C  778   2.896   4.546   5.051
    1C        O  779   2.836   4.655   5.027
    1C        O  780   2.865   4.531   5.187
    1C        C  781   2.480   3.034   5.074
    1C        O  782   2.360   3.008   5.044
    1C        O  783   2.507   3.018   5.210
    1C        C  784   2.402   3.995   5.039
    1C        O  785   2.293   4.040   4.997
    1C        O  786   2.404   3.950   5.171
    1C        C  787   2.950   2.412   2.014
    1C        O  788   2.904   2.452   1.905
    1C        O  789   2.872   2.311   2.070
    1C        C  790   3.176   2.367   5.057
    1C        O  791   3.202   2.253   5.011
    1C        O  792   3.218   2.370   5.190
    1C        H  793   4.292   3.009   5.072
    1C        H  794   4.159   2.811   5.061
    1C        H  795   4.498   3.137   5.059
    1C        H  796   4.543   3.379   5.062
    1C        H  797   4.557   3.808   5.051
    1C        H  798   4.451   3.996   5.050
    1C        H  799   4.295   4.180   5.053
    1C        H  800   4.040   4.558   5.016
    1C        H  801   3.809   4.543   5.040
    1C        H  802   3.593   4.633   5.039
    1C        H  803   3.372   4.578   5.042
    1C        H  804   3.172   4.420   5.038
    1C        H  805   3.894   2.473   5.065
    1C        H  806   3.681   2.453   5.080
    1C        H  807   3.037   2.591   5.076
    1C        H  808   3.439   2.451   5.070
    1C        H  809   2.862   2.724   5.079
    1C        H  810   2.778   2.940   5.066
    1C        H  811   2.492   3.294   5.066
    1C        H  812   2.594   3.511   5.058
    1C        H  813   2.511   3.738   5.070
    1C        H  814   2.576   4.185   5.036
    1C        H  815   2.714   4.364   5.025
    1C        H  816   2.768   2.913   1.991
    1C        H  817   2.792   2.650   2.003
    1C        H  818   3.205   2.401   2.002
    1C        H  819   3.421   2.434   1.983
    1C        H  820   3.843   2.545   1.976
    1C        H  821   4.068   2.603   1.965
    1C        H  822   4.217   2.753   1.968
    1C        H  823   4.420   2.867   1.984
    1C        H  824   4.625   3.303   1.988
    1C        H  825   4.493   3.500   1.967
    1C        H  826   4.513   3.748   1.956
    1C        H  827   3.813   4.541   1.957
    1C        H  828   3.958   4.372   1.951
    1C        H  829   4.169   4.275   1.950
    1C        H  830   4.520   3.967   1.981
    1C        H  831   2.692   3.826   2.005
    1C        H  832   2.757   4.043   1.985
    1C        H  833   2.711   4.312   1.976
    1C        H  834   3.381   4.468   1.948
    1C        H  835   3.140   4.473   1.955
    1C        H  836   2.562   3.021   1.979
    1C        H  837   2.433   3.224   1.991
    1C        H  838   2.425   3.696   1.994
    2V3OU   H29  839   2.808   3.552   3.228
    2V3OU   C27  840   2.792   3.504   3.328
    2V3OU   H27  841   2.733   3.570   3.397
    2V3OU   H28  842   2.740   3.406   3.315
    2V3OU   O11  843   2.913   3.479   3.400
    2V3OU   C15  844   2.928   3.397   3.510
    2V3OU   C13  845   3.055   3.373   3.567
    2V3OU   C14  846   3.079   3.266   3.655
    2V3OU   C16  847   2.979   3.184   3.706
    2V3OU    H6  848   2.992   3.103   3.778
    2V3OU   C12  849   3.215   3.225   3.695
    2V3OU    O2  850   3.236   3.120   3.760
    2V3OU   C10  851   3.328   3.306   3.648
    2V3OU    C8  852   3.459   3.268   3.676
    2V3OU   O10  853   3.490   3.156   3.746
    2V3OU   H26  854   3.404   3.116   3.767
    2V3OU    C6  855   3.568   3.351   3.636
    2V3OU    C5  856   3.538   3.466   3.564
    2V3OU    C4  857   3.705   3.293   3.636
    2V3OU    H4  858   3.723   3.225   3.726
    2V3OU    H5  859   3.714   3.225   3.546
    2V3OU    C2  860   3.817   3.397   3.632
    2V3OU    O6  861   3.808   3.477   3.750
    2V3OU   H21  862   3.767   3.559   3.717
    2V3OU    C3  863   3.784   3.497   3.521
    2V3OU    H2  864   3.867   3.573   3.521
    2V3OU    H3  865   3.777   3.438   3.426
    2V3OU   C25  866   3.954   3.333   3.610
    2V3OU    O7  867   4.000   3.299   3.501
    2V3OU   C26  868   4.033   3.288   3.732
    2V3OU   H22  869   4.070   3.382   3.782
    2V3OU   H23  870   4.116   3.220   3.701
    2V3OU    O8  871   3.957   3.210   3.821
    2V3OU   H24  872   3.927   3.265   3.895
    2V3OU    C1  873   3.648   3.564   3.533
    2V3OU    H1  874   3.622   3.614   3.435
    2V3OU    O3  875   3.660   3.657   3.641
    2V3OU   C19  876   3.618   3.792   3.617
    2V3OU    H9  877   3.519   3.798   3.563
    2V3OU    O4  878   3.712   3.851   3.530
    2V3OU   C20  879   3.844   3.874   3.579
    2V3OU   H10  880   3.888   3.772   3.598
    2V3OU   C24  881   3.607   3.856   3.756
    2V3OU   H16  882   3.537   3.792   3.815
    2V3OU   H17  883   3.564   3.958   3.743
    2V3OU   C23  884   3.749   3.876   3.811
    2V3OU   H15  885   3.791   3.774   3.839
    2V3OU    N1  886   3.733   3.962   3.926
    2V3OU   H19  887   3.807   3.924   3.982
    2V3OU   H20  888   3.648   3.932   3.970
    2V3OU   C21  889   3.851   3.944   3.714
    2V3OU   H11  890   3.944   3.922   3.775
    2V3OU    O5  891   3.823   4.083   3.707
    2V3OU   H18  892   3.780   4.098   3.793
    2V3OU   C22  893   3.910   3.949   3.464
    2V3OU   H12  894   3.856   4.045   3.445
    2V3OU   H13  895   3.906   3.888   3.370
    2V3OU   H14  896   4.019   3.961   3.488
    2V3OU   C11  897   3.161   3.474   3.556
    2V3OU    O1  898   3.136   3.592   3.521
    2V3OU    C9  899   3.299   3.426   3.579
    2V3OU    C7  900   3.404   3.504   3.532
    2V3OU    O9  901   3.387   3.619   3.459
    2V3OU   H25  902   3.291   3.631   3.465
    2V3OU   C17  903   2.829   3.318   3.571
    2V3OU    H7  904   2.734   3.347   3.526
    2V3OU   C18  905   2.850   3.218   3.665
    2V3OU    H8  906   2.788   3.176   3.745
    3SOL     OW  907   2.653   4.730   5.990
    3SOL    HW1  908   2.701   4.643   6.005
    3SOL    HW2  909   2.574   4.735   6.051
    4SOL     OW  910   6.802   0.013   6.844
    4SOL    HW1  911   6.752   0.025   6.758
    4SOL    HW2  912   6.860   6.957   6.838
    5SOL     OW  913   5.229   2.403   2.083
    5SOL    HW1  914   5.222   2.341   2.161
    5SOL    HW2  915   5.192   2.493   2.108
    6SOL     OW  916   4.790   1.784   2.426
    6SOL    HW1  917   4.760   1.713   2.490
    6SOL    HW2  918   4.732   1.865   2.437
    7SOL     OW  919   0.548   4.028   3.661
    7SOL    HW1  920   0.541   4.035   3.561
    7SOL    HW2  921   0.532   4.118   3.701
    8SOL     OW  922   2.636   2.175   5.424
    8SOL    HW1  923   2.598   2.200   5.335
    8SOL    HW2  924   2.727   2.216   5.434
    9SOL     OW  925   5.942   2.353   6.043
    9SOL    HW1  926   5.970   2.443   6.077
    9SOL    HW2  927   5.948   2.286   6.117
   10SOL     OW  928   2.710   5.079   4.834
   10SOL    HW1  929   2.700   4.979   4.833
   10SOL    HW2  930   2.775   5.105   4.906
   11SOL     OW  931   1.878   1.412   6.131
   11SOL    HW1  932   1.843   1.393   6.040
   11SOL    HW2  933   1.961   1.468   6.124
   12SOL     OW  934   2.916   4.849   3.850
   12SOL    HW1  935   2.874   4.824   3.937
   12SOL    HW2  936   3.006   4.890   3.867
   13SOL     OW  937   4.267   6.265   3.308
   13SOL    HW1  938   4.183   6.281   3.257
   13SOL    HW2  939   4.260   6.305   3.399
   14SOL     OW  940   3.829   5.057   6.048
   14SOL    HW1  941   3.872   4.978   6.005
   14SOL    HW2  942   3.895   5.104   6.106
   15SOL     OW  943   0.837   6.567   0.137
   15SOL    HW1  944   0.902   6.492   0.131
   15SOL    HW2  945   0.864   6.642   0.076
   16SOL     OW  946   5.366   2.638   6.572
   16SOL    HW1  947   5.347   2.546   6.538
   16SOL    HW2  948   5.281   2.678   6.608
   17SOL     OW  949   5.176   0.306   6.483
   17SOL    HW1  950   5.118   0.348   6.553
   17SOL    HW2  951   5.161   0.207   6.484
   18SOL     OW  952   3.474   0.741   4.909
   18SOL    HW1  953   3.500   0.823   4.959
   18SOL    HW2  954   3.454   0.765   4.814
   19SOL     OW  955   0.416   2.579   2.208
   19SOL    HW1  956   0.368   2.658   2.170
   19SOL    HW2  957   0.349   2.514   2.246
   20SOL     OW  958   4.966   1.883   5.176
   20SOL    HW1  959   4.960   1.913   5.081
   20SOL    HW2  960   4.997   1.958   5.234
   21SOL     OW  961   2.696   0.767   3.079
   21SOL    HW1  962   2.620   0.791   3.139
   21SOL    HW2  963   2.763   0.842   3.078
   22SOL     OW  964   1.506   6.026   0.276
   22SOL    HW1  965   1.421   6.057   0.233
   22SOL    HW2  966   1.525   6.083   0.356
   23SOL     OW  967   3.999   5.286   2.164
   23SOL    HW1  968   3.992   5.354   2.091
   23SOL    HW2  969   3.917   5.228   2.165
   24SOL     OW  970   3.833   0.365   2.484
   24SOL    HW1  971   3.757   0.408   2.435
   24SOL    HW2  972   3.918   0.411   2.457
   25SOL     OW  973   2.211   0.105   3.526
   25SOL    HW1  974   2.273   0.151   3.462
   25SOL    HW2  975   2.208   0.008   3.505
   26SOL     OW  976   6.896   2.212   7.002
   26SOL    HW1  977   6.864   2.158   6.924
   26SOL    HW2  978   6.823   2.272   0.009
   27SOL     OW  979   1.856   1.441   1.835
   27SOL    HW1  980   1.799   1.523   1.840
   27SOL    HW2  981   1.816   1.369   1.891
   28SOL     OW  982   0.598   0.991   5.049
   28SOL    HW1  983   0.669   1.006   4.981
   28SOL    HW2  984   0.511   1.028   5.015
   29SOL     OW  985   6.639   1.300   1.079
   29SOL    HW1  986   6.621   1.216   1.028
   29SOL    HW2  987   6.621   1.379   1.021
   30SOL     OW  988   5.000   0.139   5.314
   30SOL    HW1  989   5.037   0.138   5.221
   30SOL    HW2  990   5.062   0.089   5.374
   31SOL     OW  991   0.801   2.463   5.662
   31SOL    HW1  992   0.900   2.477   5.671
   31SOL    HW2  993   0.756   2.551   5.644
   32SOL     OW  994   1.242   1.959   2.394
   32SOL    HW1  995   1.245   1.981   2.296
   32SOL    HW2  996   1.162   1.902   2.412
   33SOL     OW  997   0.790   4.633   5.131
   33SOL    HW1  998   0.796   4.645   5.230
   33SOL    HW2  999   0.882   4.622   5.093
   34SOL     OW 1000   2.306   5.661   5.309
   34SOL    HW1 1001   2.346   5.740   5.262
   34SOL    HW2 1002   2.373   5.586   5.310
   35SOL     OW 1003   4.260   2.109   5.719
   35SOL    HW1 1004   4.301   2.145   5.803
   35SOL    HW2 1005   4.163   2.091   5.734
   36SOL     OW 1006   4.746   1.831   3.714
   36SOL    HW1 1007   4.833   1.848   3.667
   36SOL    HW2 1008   4.708   1.744   3.684
   37SOL     OW 1009   1.541   2.196   4.915
   37SOL    HW1 1010   1.563   2.237   5.004
   37SOL    HW2 1011   1.546   2.266   4.844
   38SOL     OW 1012   1.312   4.843   1.577
   38SOL    HW1 1013   1.321   4.823   1.479
   38SOL    HW2 1014   1.232   4.901   1.592
   39SOL     OW 1015   5.972   5.002   5.961
   39SOL    HW1 1016   5.958   4.915   6.008
   39SOL    HW2 1017   6.009   4.985   5.870
   40SOL     OW 1018   3.648   2.129   0.223
   40SOL    HW1 1019   3.637   2.037   0.261
   40SOL    HW2 1020   3.700   2.186   0.287
   41SOL     OW 1021   5.739   3.559   3.117
   41SOL    HW1 1022   5.837   3.556   3.134
   41SOL    HW2 1023   5.705   3.466   3.104
   42SOL     OW 1024   3.098   6.449   4.703
   42SOL    HW1 1025   3.133   6.380   4.766
   42SOL    HW2 1026   3.164   6.523   4.695
   43SOL     OW 1027   4.271   0.826   5.525
   43SOL    HW1 1028   4.217   0.899   5.568
   43SOL    HW2 1029   4.216   0.780   5.456
   44SOL     OW 1030   5.637   2.424   5.252
   44SOL    HW1 1031   5.570   2.471   5.195
   44SOL    HW2 1032   5.634   2.326   5.234
   45SOL     OW 1033   4.480   5.143   1.716
   45SOL    HW1 1034   4.554   5.080   1.692
   45SOL    HW2 1035   4.404   5.091   1.756
   46SOL     OW 1036   1.453   2.323   3.686
   46SOL    HW1 1037   1.521   2.373   3.635
   46SOL    HW2 1038   1.454   2.352   3.782
   47SOL     OW 1039   4.078   4.247   1.298
   47SOL    HW1 1040   3.994   4.213   1.340
   47SOL    HW2 1041   4.073   4.346   1.289
   48SOL     OW 1042   6.832   2.451   6.789
   48SOL    HW1 1043   6.874   2.407   6.869
   48SOL    HW2 1044   6.888   2.529   6.761
   49SOL     OW 1045   5.889   2.554   1.722
   49SOL    HW1 1046   5.946   2.581   1.645
   49SOL    HW2 1047   5.945   2.508   1.791
   50SOL     OW 1048   6.571   1.165   5.234
   50SOL    HW1 1049   6.624   1.086   5.264
   50SOL    HW2 1050   6.593   1.185   5.138
   51SOL     OW 1051   2.120   6.386   2.493
   51SOL    HW1 1052   2.211   6.422   2.476
   51SOL    HW2 1053   2.116   6.347   2.585
   52SOL     OW 1054   5.050   3.684   1.688
   52SOL    HW1 1055   5.056   3.717   1.594
   52SOL    HW2 1056   5.139   3.696   1.734
   53SOL     OW 1057   4.890   1.033   3.537
   53SOL    HW1 1058   4.897   0.970   3.459
   53SOL    HW2 1059   4.840   0.989   3.611
   54SOL     OW 1060   5.592   6.694   0.905
   54SOL    HW1 1061   5.512   6.737   0.862
   54SOL    HW2 1062   5.642   6.641   0.837
   55SOL     OW 1063   1.966   2.893   4.953
   55SOL    HW1 1064   1.877   2.906   4.909
   55SOL    HW2 1065   2.039   2.916   4.889
   56SOL     OW 1066   0.947   1.067   1.067
   56SOL    HW1 1067   1.044   1.090   1.078
   56SOL    HW2 1068   0.894   1.150   1.054
   57SOL     OW 1069   3.790   1.284   0.764
   57SOL    HW1 1070   3.788   1.268   0.863
   57SOL    HW2 1071   3.835   1.208   0.719
   58SOL     OW 1072   0.840   6.617   5.834
   58SOL    HW1 1073   0.824   6.712   5.809
   58SOL    HW2 1074   0.909   6.578   5.774
   59SOL     OW 1075   0.201   3.723   5.861
   59SOL    HW1 1076   0.265   3.795   5.887
   59SOL    HW2 1077   0.137   3.706   5.936
   60SOL     OW 1078   4.811   2.828   4.352
   60SOL    HW1 1079   4.789   2.925   4.344
   60SOL    HW2 1080   4.874   2.802   4.278
   61SOL     OW 1081   6.919   1.165   4.441
   61SOL    HW1 1082   6.953   1.093   4.502
   61SOL    HW2 1083   6.907   1.250   4.493
   62SOL     OW 1084   2.309   1.458   1.839
   62SOL    HW1 1085   2.335   1.371   1.881
   62SOL    HW2 1086   2.217   1.450   1.800
   63SOL     OW 1087   3.791   0.319   4.172
   63SOL    HW1 1088   3.835   0.404   4.199
   63SOL    HW2 1089   3.705   0.339   4.126
   64SOL     OW 1090   0.046   3.012   6.508
   64SOL    HW1 1091   7.006   2.969   6.445
   64SOL    HW2 1092   0.063   3.106   6.478
   65SOL     OW 1093   1.058   5.821   6.111
   65SOL    HW1 1094   0.999   5.740   6.114
   65SOL    HW2 1095   1.009   5.899   6.149
   66SOL     OW 1096   3.341   0.556   3.484
   66SOL    HW1 1097   3.319   0.641   3.435
   66SOL    HW2 1098   3.288   0.552   3.569
   67SOL     OW 1099   0.385   3.219   6.445
   67SOL    HW1 1100   0.404   3.140   6.386
   67SOL    HW2 1101   0.471   3.254   6.482
   68SOL     OW 1102   0.233   1.786   6.313
   68SOL    HW1 1103   0.160   1.722   6.338
   68SOL    HW2 1104   0.258   1.771   6.217
   69SOL     OW 1105   1.284   3.314   5.118
   69SOL    HW1 1106   1.291   3.284   5.213
   69SOL    HW2 1107   1.339   3.396   5.105
   70SOL     OW 1108   5.242   5.124   4.747
   70SOL    HW1 1109   5.161   5.171   4.781
   70SOL    HW2 1110   5.215   5.052   4.683
   71SOL     OW 1111   4.973   1.999   3.367
   71SOL    HW1 1112   4.890   1.961   3.326
   71SOL    HW2 1113   5.004   1.940   3.442
   72SOL     OW 1114   0.387   1.096   3.023
   72SOL    HW1 1115   0.300   1.079   2.978
   72SOL    HW2 1116   0.459   1.109   2.954
   73SOL     OW 1117   3.256   0.902   1.179
   73SOL    HW1 1118   3.236   0.840   1.103
   73SOL    HW2 1119   3.337   0.957   1.157
   74SOL     OW 1120   3.185   1.124   6.806
   74SOL    HW1 1121   3.282   1.149   6.817
   74SOL    HW2 1122   3.130   1.172   6.873
   75SOL     OW 1123   3.851   1.130   1.492
   75SOL    HW1 1124   3.814   1.223   1.489
   75SOL    HW2 1125   3.827   1.087   1.579
   76SOL     OW 1126   2.910   3.293   6.417
   76SOL    HW1 1127   2.997   3.284   6.370
   76SOL    HW2 1128   2.843   3.336   6.356
   77SOL     OW 1129   1.903   6.239   2.872
   77SOL    HW1 1130   1.940   6.297   2.945
   77SOL    HW2 1131   1.846   6.294   2.812
   78SOL     OW 1132   4.371   1.343   1.106
   78SOL    HW1 1133   4.415   1.417   1.056
   78SOL    HW2 1134   4.343   1.376   1.196
   79SOL     OW 1135   3.165   6.233   1.286
   79SOL    HW1 1136   3.251   6.208   1.330
   79SOL    HW2 1137   3.096   6.250   1.356
   80SOL     OW 1138   4.096   1.451   4.471
   80SOL    HW1 1139   4.132   1.527   4.418
   80SOL    HW2 1140   4.170   1.386   4.490
   81SOL     OW 1141   1.742   6.864   1.685
   81SOL    HW1 1142   1.734   6.765   1.674
   81SOL    HW2 1143   1.833   6.886   1.720
   82SOL     OW 1144   6.675   5.751   1.494
   82SOL    HW1 1145   6.596   5.799   1.457
   82SOL    HW2 1146   6.741   5.734   1.421
   83SOL     OW 1147   0.804   0.698   6.560
   83SOL    HW1 1148   0.805   0.622   6.624
   83SOL    HW2 1149   0.823   0.665   6.467
   84SOL     OW 1150   5.720   4.120   3.342
   84SOL    HW1 1151   5.740   4.124   3.244
   84SOL    HW2 1152   5.797   4.078   3.391
   85SOL     OW 1153   1.362   0.827   3.319
   85SOL    HW1 1154   1.386   0.730   3.316
   85SOL    HW2 1155   1.263   0.837   3.311
   86SOL     OW 1156   0.149   1.281   7.017
   86SOL    HW1 1157   0.231   1.337   7.020
   86SOL    HW2 1158   0.174   1.185   7.004
   87SOL     OW 1159   3.638   4.173   0.937
   87SOL    HW1 1160   3.628   4.120   0.853
   87SOL    HW2 1161   3.702   4.128   0.998
   88SOL     OW 1162   3.043   2.172   6.376
   88SOL    HW1 1163   3.108   2.221   6.434
   88SOL    HW2 1164   2.959   2.155   6.427
   89SOL     OW 1165   3.330   3.497   0.092
   89SOL    HW1 1166   3.374   3.518   0.179
   89SOL    HW2 1167   3.326   3.397   0.080
   90SOL     OW 1168   3.650   4.950   2.899
   90SOL    HW1 1169   3.724   5.003   2.858
   90SOL    HW2 1170   3.680   4.916   2.989
   91SOL     OW 1171   6.050   4.034   5.709
   91SOL    HW1 1172   6.104   4.060   5.789
   91SOL    HW2 1173   6.027   3.937   5.715
   92SOL     OW 1174   4.761   4.166   0.615
   92SOL    HW1 1175   4.803   4.255   0.631
   92SOL    HW2 1176   4.683   4.154   0.676
   93SOL     OW 1177   3.042   3.145   6.962
   93SOL    HW1 1178   3.076   3.168   6.871
   93SOL    HW2 1179   3.113   3.165   0.006
   94SOL     OW 1180   2.099   5.929   7.012
   94SOL    HW1 1181   2.021   5.892   6.963
   94SOL    HW2 1182   2.183   5.884   6.980
   95SOL     OW 1183   1.722   0.477   3.165
   95SOL    HW1 1184   1.819   0.463   3.185
   95SOL    HW2 1185   1.670   0.396   3.194
   96SOL     OW 1186   4.241   5.537   5.675
   96SOL    HW1 1187   4.191   5.450   5.667
   96SOL    HW2 1188   4.195   5.595   5.743
   97SOL     OW 1189   2.273   3.720   5.252
   97SOL    HW1 1190   2.252   3.691   5.159
   97SOL    HW2 1191   2.317   3.810   5.250
   98SOL     OW 1192   1.016   1.305   0.521
   98SOL    HW1 1193   0.927   1.261   0.524
   98SOL    HW2 1194   1.004   1.405   0.523
   99SOL     OW 1195   3.819   3.702   2.211
   99SOL    HW1 1196   3.777   3.721   2.299
   99SOL    HW2 1197   3.918   3.715   2.218
  100SOL     OW 1198   6.915   6.788   4.042
  100SOL    HW1 1199   6.998   6.819   3.997
  100SOL    HW2 1200   6.938   6.752   4.133
  101SOL     OW 1201   0.168   5.681   2.560
  101SOL    HW1 1202   0.071   5.697   2.542
  101SOL    HW2 1203   0.221   5.761   2.532
  102SOL     OW 1204   3.862   5.810   1.866
  102SOL    HW1 1205   3.932   5.865   1.820
  102SOL    HW2 1206   3.837   5.732   1.808
  103SOL     OW 1207   1.936   2.370   2.781
  103SOL    HW1 1208   2.009   2.436   2.800
  103SOL    HW2 1209   1.911   2.323   2.866
  104SOL     OW 1210   1.471   5.024   1.705
  104SOL    HW1 1211   1.412   4.951   1.670
  104SOL    HW2 1212   1.512   4.995   1.791
  105SOL     OW 1213   5.750   1.165   6.157
  105SOL    HW1 1214   5.652   1.148   6.161
  105SOL    HW2 1215   5.776   1.190   6.064
  106SOL     OW 1216   4.245   5.987   3.010
  106SOL    HW1 1217   4.243   5.941   3.099
  106SOL    HW2 1218   4.228   5.921   2.937
  107SOL     OW 1219   0.237   1.008   6.901
  107SOL    HW1 1220   0.280   1.040   6.817
  107SOL    HW2 1221   0.145   0.972   6.880
  108SOL     OW 1222   3.636   0.077   6.118
  108SOL    HW1 1223   3.617   0.148   6.050
  108SOL    HW2 1224   3.559   0.014   6.122
  109SOL     OW 1225   2.925   0.546   2.544
  109SOL    HW1 1226   2.834   0.586   2.548
  109SOL    HW2 1227   2.984   0.592   2.610
  110SOL     OW 1228   2.423   4.867   4.191
  110SOL    HW1 1229   2.503   4.808   4.179
  110SOL    HW2 1230   2.436   4.952   4.141
  111SOL     OW 1231   2.089   1.003   3.290
  111SOL    HW1 1232   1.999   1.047   3.292
  111SOL    HW2 1233   2.092   0.938   3.214
  112SOL     OW 1234   5.267   6.463   0.650
  112SOL    HW1 1235   5.168   6.468   0.640
  112SOL    HW2 1236   5.310   6.535   0.595
  113SOL     OW 1237   1.371   5.859   2.798
  113SOL    HW1 1238   1.325   5.886   2.713
  113SOL    HW2 1239   1.311   5.799   2.851
  114SOL     OW 1240   1.724   6.312   1.841
  114SOL    HW1 1241   1.712   6.400   1.887
  114SOL    HW2 1242   1.820   6.300   1.816
  115SOL     OW 1243   5.285   0.240   2.909
  115SOL    HW1 1244   5.300   0.181   2.989
  115SOL    HW2 1245   5.197   0.287   2.919
  116SOL     OW 1246   0.079   5.573   1.524
  116SOL    HW1 1247   0.001   5.604   1.470
  116SOL    HW2 1248   0.080   5.619   1.613
  117SOL     OW 1249   1.362   0.826   0.769
  117SOL    HW1 1250   1.286   0.771   0.800
  117SOL    HW2 1251   1.417   0.774   0.704
  118SOL     OW 1252   1.908   2.318   3.037
  118SOL    HW1 1253   1.849   2.263   3.096
  118SOL    HW2 1254   1.931   2.403   3.083
  119SOL     OW 1255   0.042   0.307   6.686
  119SOL    HW1 1256   7.015   0.259   6.757
  119SOL    HW2 1257   0.024   0.265   6.597
  120SOL     OW 1258   5.245   0.449   3.990
  120SOL    HW1 1259   5.190   0.370   3.966
  120SOL    HW2 1260   5.211   0.489   4.075
  121SOL     OW 1261   1.075   4.003   0.695
  121SOL    HW1 1262   1.130   3.953   0.761
  121SOL    HW2 1263   1.004   3.943   0.657
  122SOL     OW 1264   1.630   3.563   0.299
  122SOL    HW1 1265   1.635   3.486   0.363
  122SOL    HW2 1266   1.614   3.528   0.207
  123SOL     OW 1267   0.819   1.110   2.184
  123SOL    HW1 1268   0.767   1.044   2.238
  123SOL    HW2 1269   0.916   1.085   2.184
  124SOL     OW 1270   3.296   2.162   0.502
  124SOL    HW1 1271   3.340   2.195   0.419
  124SOL    HW2 1272   3.203   2.130   0.481
  125SOL     OW 1273   3.247   2.848   0.467
  125SOL    HW1 1274   3.254   2.947   0.468
  125SOL    HW2 1275   3.276   2.812   0.556
  126SOL     OW 1276   3.702   3.088   2.817
  126SOL    HW1 1277   3.681   3.120   2.909
  126SOL    HW2 1278   3.801   3.077   2.806
  127SOL     OW 1279   6.965   6.120   6.127
  127SOL    HW1 1280   6.994   6.133   6.032
  127SOL    HW2 1281   6.883   6.064   6.129
  128SOL     OW 1282   4.994   3.442   1.815
  128SOL    HW1 1283   5.017   3.531   1.776
  128SOL    HW2 1284   5.075   3.383   1.812
  129SOL     OW 1285   3.167   4.208   0.349
  129SOL    HW1 1286   3.208   4.298   0.365
  129SOL    HW2 1287   3.230   4.153   0.294
  130SOL     OW 1288   6.162   0.356   4.884
  130SOL    HW1 1289   6.219   0.389   4.960
  130SOL    HW2 1290   6.188   0.403   4.800
  131SOL     OW 1291   5.775   0.526   3.858
  131SOL    HW1 1292   5.690   0.488   3.894
  131SOL    HW2 1293   5.776   0.625   3.872
  132SOL     OW 1294   3.120   2.921   1.222
  132SOL    HW1 1295   3.198   2.983   1.225
  132SOL    HW2 1296   3.153   2.827   1.233
  133SOL     OW 1297   5.595   0.758   3.921
  133SOL    HW1 1298   5.618   0.789   3.829
  133SOL    HW2 1299   5.501   0.786   3.944
  134SOL     OW 1300   0.064   0.025   2.656
  134SOL    HW1 1301   0.042   6.952   2.650
  134SOL    HW2 1302   0.046   0.069   2.568
  135SOL     OW 1303   5.239   3.638   4.056
  135SOL    HW1 1304   5.256   3.548   4.095
  135SOL    HW2 1305   5.258   3.708   4.125
  136SOL     OW 1306   1.864   6.397   4.495
  136SOL    HW1 1307   1.954   6.380   4.534
  136SOL    HW2 1308   1.804   6.320   4.514
  137SOL     OW 1309   4.364   1.365   4.547
  137SOL    HW1 1310   4.361   1.266   4.556
  137SOL    HW2 1311   4.428   1.390   4.474
  138SOL     OW 1312   0.723   4.157   3.028
  138SOL    HW1 1313   0.738   4.068   3.071
  138SOL    HW2 1314   0.680   4.219   3.095
  139SOL     OW 1315   2.095   5.516   6.325
  139SOL    HW1 1316   2.139   5.584   6.266
  139SOL    HW2 1317   2.026   5.466   6.273
  140SOL     OW 1318   1.332   6.607   3.301
  140SOL    HW1 1319   1.332   6.706   3.295
  140SOL    HW2 1320   1.355   6.568   3.212
  141SOL     OW 1321   6.543   2.376   6.449
  141SOL    HW1 1322   6.510   2.283   6.433
  141SOL    HW2 1323   6.593   2.408   6.368
  142SOL     OW 1324   2.106   3.680   2.080
  142SOL    HW1 1325   2.149   3.610   2.021
  142SOL    HW2 1326   2.118   3.655   2.176
  143SOL     OW 1327   5.694   5.669   0.595
  143SOL    HW1 1328   5.671   5.731   0.670
  143SOL    HW2 1329   5.641   5.585   0.603
  144SOL     OW 1330   2.366   4.889   5.264
  144SOL    HW1 1331   2.457   4.905   5.225
  144SOL    HW2 1332   2.324   4.810   5.219
  145SOL     OW 1333   1.949   5.104   1.266
  145SOL    HW1 1334   1.908   5.180   1.316
  145SOL    HW2 1335   1.913   5.102   1.173
  146SOL     OW 1336   4.983   1.029   6.656
  146SOL    HW1 1337   5.028   1.114   6.682
  146SOL    HW2 1338   5.041   0.952   6.678
  147SOL     OW 1339   5.252   1.460   5.920
  147SOL    HW1 1340   5.323   1.523   5.889
  147SOL    HW2 1341   5.166   1.509   5.934
  148SOL     OW 1342   0.518   5.655   1.658
  148SOL    HW1 1343   0.591   5.667   1.591
  148SOL    HW2 1344   0.440   5.712   1.630
  149SOL     OW 1345   3.316   1.888   4.623
  149SOL    HW1 1346   3.267   1.823   4.681
  149SOL    HW2 1347   3.330   1.974   4.673
  150SOL     OW 1348   4.836   0.204   6.280
  150SOL    HW1 1349   4.736   0.197   6.271
  150SOL    HW2 1350   4.873   0.250   6.199
  151SOL     OW 1351   3.550   1.136   1.712
  151SOL    HW1 1352   3.479   1.075   1.747
  151SOL    HW2 1353   3.639   1.102   1.741
  152SOL     OW 1354   6.858   1.599   0.391
  152SOL    HW1 1355   6.943   1.556   0.421
  152SOL    HW2 1356   6.859   1.696   0.415
  153SOL     OW 1357   2.939   0.091   2.757
  153SOL    HW1 1358   3.038   0.099   2.761
  153SOL    HW2 1359   2.905   0.134   2.673
  154SOL     OW 1360   6.963   3.194   0.534
  154SOL    HW1 1361   7.000   3.150   0.616
  154SOL    HW2 1362   6.971   3.133   0.456
  155SOL     OW 1363   0.982   0.144   3.097
  155SOL    HW1 1364   1.013   0.070   3.157
  155SOL    HW2 1365   1.010   0.232   3.135
  156SOL     OW 1366   6.145   0.877   0.044
  156SOL    HW1 1367   6.132   0.871   6.969
  156SOL    HW2 1368   6.241   0.856   0.066
  157SOL     OW 1369   5.561   3.383   0.635
  157SOL    HW1 1370   5.500   3.334   0.697
  157SOL    HW2 1371   5.512   3.404   0.551
  158SOL     OW 1372   1.762   2.613   1.078
  158SOL    HW1 1373   1.816   2.530   1.064
  158SOL    HW2 1374   1.665   2.590   1.075
  159SOL     OW 1375   4.253   5.021   1.247
  159SOL    HW1 1376   4.200   5.026   1.162
  159SOL    HW2 1377   4.310   5.103   1.256
  160SOL     OW 1378   6.087   0.248   0.874
  160SOL    HW1 1379   6.010   0.311   0.884
  160SOL    HW2 1380   6.149   0.282   0.803
  161SOL     OW 1381   1.925   6.811   2.268
  161SOL    HW1 1382   1.948   6.834   2.174
  161SOL    HW2 1383   2.007   6.781   2.316
  162SOL     OW 1384   3.271   6.893   0.071
  162SOL    HW1 1385   3.266   6.874   0.169
  162SOL    HW2 1386   3.224   6.979   0.051
  163SOL     OW 1387   0.651   5.508   2.959
  163SOL    HW1 1388   0.681   5.601   2.937
  163SOL    HW2 1389   0.647   5.454   2.875
  164SOL     OW 1390   1.196   3.165   2.374
  164SOL    HW1 1391   1.224   3.193   2.466
  164SOL    HW2 1392   1.103   3.130   2.376
  165SOL     OW 1393   5.785   4.774   0.362
  165SOL    HW1 1394   5.779   4.853   0.301
  165SOL    HW2 1395   5.700   4.766   0.414
  166SOL     OW 1396   0.039   3.547   2.255
  166SOL    HW1 1397   6.970   3.561   2.224
  166SOL    HW2 1398   0.054   3.595   2.341
  167SOL     OW 1399   6.483   1.079   6.368
  167SOL    HW1 1400   6.463   1.055   6.273
  167SOL    HW2 1401   6.402   1.121   6.410
  168SOL     OW 1402   3.958   2.032   1.702
  168SOL    HW1 1403   3.859   2.038   1.689
  168SOL    HW2 1404   3.998   2.124   1.696
  169SOL     OW 1405   5.797   2.714   6.983
  169SOL    HW1 1406   5.704   2.704   6.948
  169SOL    HW2 1407   5.862   2.674   6.920
  170SOL     OW 1408   0.044   5.729   2.858
  170SOL    HW1 1409   0.003   5.749   2.947
  170SOL    HW2 1410   6.999   5.742   2.787
  171SOL     OW 1411   2.159   3.553   0.401
  171SOL    HW1 1412   2.173   3.592   0.310
  171SOL    HW2 1413   2.070   3.507   0.403
  172SOL     OW 1414   6.136   2.275   2.395
  172SOL    HW1 1415   6.037   2.285   2.385
  172SOL    HW2 1416   6.156   2.206   2.464
  173SOL     OW 1417   5.464   1.181   4.816
  173SOL    HW1 1418   5.506   1.271   4.804
  173SOL    HW2 1419   5.519   1.126   4.878
  174SOL     OW 1420   4.510   5.565   4.037
  174SOL    HW1 1421   4.442   5.498   4.069
  174SOL    HW2 1422   4.464   5.638   3.987
  175SOL     OW 1423   3.506   0.996   1.124
  175SOL    HW1 1424   3.555   0.919   1.084
  175SOL    HW2 1425   3.557   1.032   1.202
  176SOL     OW 1426   4.807   4.456   2.684
  176SOL    HW1 1427   4.832   4.441   2.780
  176SOL    HW2 1428   4.778   4.369   2.643
  177SOL     OW 1429   4.801   2.860   4.864
  177SOL    HW1 1430   4.751   2.856   4.951
  177SOL    HW2 1431   4.754   2.805   4.796
  178SOL     OW 1432   2.682   4.802   4.888
  178SOL    HW1 1433   2.748   4.736   4.924
  178SOL    HW2 1434   2.590   4.762   4.891
  179SOL     OW 1435   4.266   6.930   0.006
  179SOL    HW1 1436   4.170   6.901   0.016
  179SOL    HW2 1437   4.288   6.938   6.933
  180SOL     OW 1438   2.430   6.868   0.623
  180SOL    HW1 1439   2.496   6.805   0.664
  180SOL    HW2 1440   2.472   6.913   0.544
  181SOL     OW 1441   3.643   3.194   6.218
  181SOL    HW1 1442   3.614   3.101   6.193
  181SOL    HW2 1443   3.564   3.255   6.219
  182SOL     OW 1444   4.338   2.509   6.585
  182SOL    HW1 1445   4.292   2.595   6.606
  182SOL    HW2 1446   4.382   2.474   6.669
  183SOL     OW 1447   3.928   2.131   3.529
  183SOL    HW1 1448   4.009   2.156   3.583
  183SOL    HW2 1449   3.912   2.201   3.459
  184SOL     OW 1450   0.530   6.671   3.534
  184SOL    HW1 1451   0.579   6.592   3.498
  184SOL    HW2 1452   0.554   6.752   3.482
  185SOL     OW 1453   1.376   1.101   4.122
  185SOL    HW1 1454   1.375   1.102   4.022
  185SOL    HW2 1455   1.469   1.112   4.156
  186SOL     OW 1456   5.152   0.188   4.547
  186SOL    HW1 1457   5.182   0.259   4.611
  186SOL    HW2 1458   5.215   0.186   4.469
  187SOL     OW 1459   5.767   6.442   2.255
  187SOL    HW1 1460   5.720   6.529   2.269
  187SOL    HW2 1461   5.764   6.418   2.157
  188SOL     OW 1462   0.543   3.004   3.807
  188SOL    HW1 1463   0.494   3.000   3.894
  188SOL    HW2 1464   0.635   3.040   3.822
  189SOL     OW 1465   1.481   4.810   6.856
  189SOL    HW1 1466   1.562   4.839   6.804
  189SOL    HW2 1467   1.405   4.796   6.792
  190SOL     OW 1468   6.207   4.315   6.637
  190SOL    HW1 1469   6.139   4.256   6.680
  190SOL    HW2 1470   6.297   4.300   6.680
  191SOL     OW 1471   6.846   1.292   6.481
  191SOL    HW1 1472   6.924   1.326   6.429
  191SOL    HW2 1473   6.763   1.337   6.451
  192SOL     OW 1474   6.931   4.788   1.522
  192SOL    HW1 1475   6.961   4.791   1.617
  192SOL    HW2 1476   6.836   4.820   1.515
  193SOL     OW 1477   4.902   3.902   5.235
  193SOL    HW1 1478   4.956   3.878   5.155
  193SOL    HW2 1479   4.868   3.819   5.279
  194SOL     OW 1480   3.963   6.215   3.122
  194SOL    HW1 1481   3.976   6.180   3.214
  194SOL    HW2 1482   4.036   6.281   3.100
  195SOL     OW 1483   1.661   0.899   3.187
  195SOL    HW1 1484   1.577   0.854   3.158
  195SOL    HW2 1485   1.738   0.863   3.134
  196SOL     OW 1486   3.412   0.037   0.456
  196SOL    HW1 1487   3.340   0.103   0.432
  196SOL    HW2 1488   3.491   0.052   0.396
  197SOL     OW 1489   2.625   6.698   0.262
  197SOL    HW1 1490   2.577   6.650   0.188
  197SOL    HW2 1491   2.633   6.637   0.341
  198SOL     OW 1492   4.764   6.708   1.778
  198SOL    HW1 1493   4.763   6.739   1.683
  198SOL    HW2 1494   4.707   6.769   1.833
  199SOL     OW 1495   6.539   1.163   2.994
  199SOL    HW1 1496   6.635   1.165   3.022
  199SOL    HW2 1497   6.487   1.228   3.049
  200SOL     OW 1498   1.207   4.465   2.587
  200SOL    HW1 1499   1.252   4.452   2.674
  200SOL    HW2 1500   1.117   4.507   2.602
  201SOL     OW 1501   4.198   6.520   5.960
  201SOL    HW1 1502   4.168   6.431   5.995
  201SOL    HW2 1503   4.171   6.592   6.023
  202SOL     OW 1504   5.311   0.430   5.421
  202SOL    HW1 1505   5.403   0.461   5.393
  202SOL    HW2 1506   5.257   0.411   5.340
  203SOL     OW 1507   5.131   2.279   4.844
  203SOL    HW1 1508   5.147   2.239   4.934
  203SOL    HW2 1509   5.172   2.220   4.774
  204SOL     OW 1510   0.431   0.728   6.828
  204SOL    HW1 1511   0.391   0.692   6.744
  204SOL    HW2 1512   0.503   0.794   6.805
  205SOL     OW 1513   0.703   1.365   2.267
  205SOL    HW1 1514   0.671   1.392   2.177
  205SOL    HW2 1515   0.765   1.287   2.258
  206SOL     OW 1516   0.476   5.026   2.789
  206SOL    HW1 1517   0.407   5.028   2.861
  206SOL    HW2 1518   0.434   5.050   2.701
  207SOL     OW 1519   4.149   0.090   5.135
  207SOL    HW1 1520   4.229   0.113   5.190
  207SOL    HW2 1521   4.151   0.143   5.050
  208SOL     OW 1522   4.997   3.614   5.832
  208SOL    HW1 1523   4.943   3.555   5.772
  208SOL    HW2 1524   5.074   3.653   5.782
  209SOL     OW 1525   0.951   5.735   5.337
  209SOL    HW1 1526   1.029   5.738   5.399
  209SOL    HW2 1527   0.936   5.640   5.306
  210SOL     OW 1528   4.133   2.237   2.066
  210SOL    HW1 1529   4.204   2.242   2.137
  210SOL    HW2 1530   4.043   2.231   2.109
  211SOL     OW 1531   0.971   6.469   4.361
  211SOL    HW1 1532   0.991   6.494   4.266
  211SOL    HW2 1533   0.882   6.425   4.366
  212SOL     OW 1534   2.398   4.802   2.164
  212SOL    HW1 1535   2.395   4.849   2.075
  212SOL    HW2 1536   2.364   4.864   2.235
  213SOL     OW 1537   3.943   0.959   6.714
  213SOL    HW1 1538   4.034   0.987   6.745
  213SOL    HW2 1539   3.936   0.859   6.715
  214SOL     OW 1540   3.206   6.220   2.196
  214SOL    HW1 1541   3.218   6.122   2.182
  214SOL    HW2 1542   3.124   6.236   2.251
  215SOL     OW 1543   3.107   3.940   1.953
  215SOL    HW1 1544   3.066   3.859   1.995
  215SOL    HW2 1545   3.206   3.934   1.959
  216SOL     OW 1546   1.915   6.876   5.015
  216SOL    HW1 1547   1.842   6.939   5.042
  216SOL    HW2 1548   1.964   6.845   5.096
  217SOL     OW 1549   2.516   2.596   4.402
  217SOL    HW1 1550   2.525   2.659   4.324
  217SOL    HW2 1551   2.422   2.564   4.408
  218SOL     OW 1552   0.974   3.142   4.793
  218SOL    HW1 1553   1.010   3.081   4.723
  218SOL    HW2 1554   0.875   3.129   4.801
  219SOL     OW 1555   2.986   6.313   6.344
  219SOL    HW1 1556   3.061   6.248   6.349
  219SOL    HW2 1557   2.938   6.302   6.257
  220SOL     OW 1558   3.269   6.193   6.617
  220SOL    HW1 1559   3.241   6.276   6.665
  220SOL    HW2 1560   3.289   6.121   6.683
  221SOL     OW 1561   6.664   3.344   2.571
  221SOL    HW1 1562   6.722   3.402   2.629
  221SOL    HW2 1563   6.692   3.355   2.475
  222SOL     OW 1564   1.987   4.956   5.528
  222SOL    HW1 1565   1.901   4.972   5.577
  222SOL    HW2 1566   2.061   5.006   5.574
  223SOL     OW 1567   6.550   3.824   0.548
  223SOL    HW1 1568   6.496   3.790   0.471
  223SOL    HW2 1569   6.615   3.893   0.516
  224SOL     OW 1570   2.418   1.910   3.838
  224SOL    HW1 1571   2.490   1.845   3.815
  224SOL    HW2 1572   2.366   1.876   3.916
  225SOL     OW 1573   4.864   1.211   6.179
  225SOL    HW1 1574   4.802   1.156   6.235
  225SOL    HW2 1575   4.899   1.288   6.232
  226SOL     OW 1576   0.490   6.952   6.429
  226SOL    HW1 1577   0.504   6.958   6.330
  226SOL    HW2 1578   0.578   6.938   6.474
  227SOL     OW 1579   1.559   4.576   2.410
  227SOL    HW1 1580   1.567   4.632   2.328
  227SOL    HW2 1581   1.483   4.512   2.399
  228SOL     OW 1582   3.103   6.468   3.892
  228SOL    HW1 1583   3.052   6.416   3.960
  228SOL    HW2 1584   3.128   6.409   3.815
  229SOL     OW 1585   5.944   5.962   0.544
  229SOL    HW1 1586   5.891   5.923   0.619
  229SOL    HW2 1587   5.900   6.046   0.512
  230SOL     OW 1588   3.101   4.823   3.050
  230SOL    HW1 1589   3.069   4.908   3.091
  230SOL    HW2 1590   3.201   4.821   3.050
  231SOL     OW 1591   6.182   1.863   5.847
  231SOL    HW1 1592   6.134   1.851   5.760
  231SOL    HW2 1593   6.117   1.889   5.918
  232SOL     OW 1594   0.825   4.050   6.210
  232SOL    HW1 1595   0.908   4.003   6.180
  232SOL    HW2 1596   0.745   3.994   6.190
  233SOL     OW 1597   1.984   0.969   4.259
  233SOL    HW1 1598   1.955   1.020   4.340
  233SOL    HW2 1599   1.981   1.030   4.179
  234SOL     OW 1600   2.870   6.107   5.582
  234SOL    HW1 1601   2.895   6.080   5.675
  234SOL    HW2 1602   2.924   6.055   5.517
  235SOL     OW 1603   2.857   3.584   2.520
  235SOL    HW1 1604   2.913   3.640   2.459
  235SOL    HW2 1605   2.793   3.529   2.467
  236SOL     OW 1606   6.242   3.072   6.797
  236SOL    HW1 1607   6.311   3.102   6.731
  236SOL    HW2 1608   6.239   2.972   6.799
  237SOL     OW 1609   6.747   6.600   0.734
  237SOL    HW1 1610   6.830   6.610   0.679
  237SOL    HW2 1611   6.667   6.600   0.673
  238SOL     OW 1612   6.428   2.263   0.042
  238SOL    HW1 1613   6.357   2.320   0.083
  238SOL    HW2 1614   6.426   2.172   0.083
  239SOL     OW 1615   6.773   5.046   6.976
  239SOL    HW1 1616   6.795   5.140   7.004
  239SOL    HW2 1617   6.720   5.002   0.025
  240SOL     OW 1618   0.015   3.011   5.138
  240SOL    HW1 1619   7.010   2.994   5.232
  240SOL    HW2 1620   6.985   3.086   5.099
  241SOL     OW 1621   0.834   0.522   4.015
  241SOL    HW1 1622   0.789   0.565   3.937
  241SOL    HW2 1623   0.857   0.427   3.991
  242SOL     OW 1624   2.235   2.479   6.148
  242SOL    HW1 1625   2.333   2.500   6.146
  242SOL    HW2 1626   2.197   2.484   6.056
  243SOL     OW 1627   4.814   6.920   6.318
  243SOL    HW1 1628   4.816   7.019   6.308
  243SOL    HW2 1629   4.904   6.882   6.296
  244SOL     OW 1630   4.963   2.899   4.592
  244SOL    HW1 1631   4.932   2.859   4.506
  244SOL    HW2 1632   4.888   2.897   4.658
  245SOL     OW 1633   0.010   2.375   4.488
  245SOL    HW1 1634   6.952   2.376   4.432
  245SOL    HW2 1635   7.009   2.363   4.584
  246SOL     OW 1636   5.379   3.240   3.134
  246SOL    HW1 1637   5.387   3.145   3.106
  246SOL    HW2 1638   5.470   3.282   3.134
  247SOL     OW 1639   1.863   1.804   2.573
  247SOL    HW1 1640   1.891   1.774   2.482
  247SOL    HW2 1641   1.796   1.877   2.565
  248SOL     OW 1642   4.479   2.490   4.833
  248SOL    HW1 1643   4.382   2.512   4.846
  248SOL    HW2 1644   4.517   2.458   4.920
  249SOL     OW 1645   4.772   0.272   5.374
  249SOL    HW1 1646   4.865   0.240   5.358
  249SOL    HW2 1647   4.771   0.340   5.448
  250SOL     OW 1648   4.562   2.374   5.372
  250SOL    HW1 1649   4.481   2.425   5.400
  250SOL    HW2 1650   4.608   2.336   5.452
  251SOL     OW 1651   4.356   4.661   6.016
  251SOL    HW1 1652   4.297   4.663   6.097
  251SOL    HW2 1653   4.300   4.646   5.934
  252SOL     OW 1654   0.001   0.650   6.917
  252SOL    HW1 1655   0.081   0.595   6.942
  252SOL    HW2 1656   6.943   0.596   6.929
  253SOL     OW 1657   2.289   4.605   0.349
  253SOL    HW1 1658   2.340   4.545   0.411
  253SOL    HW2 1659   2.349   4.679   0.318
  254SOL     OW 1660   6.666   2.821   3.537
  254SOL    HW1 1661   6.686   2.813   3.439
  254SOL    HW2 1662   6.624   2.909   3.555
  255SOL     OW 1663   2.180   2.319   4.136
  255SOL    HW1 1664   2.174   2.311   4.036
  255SOL    HW2 1665   2.271   2.349   4.162
  256SOL     OW 1666   6.704   4.606   0.061
  256SOL    HW1 1667   6.762   4.570   7.012
  256SOL    HW2 1668   6.739   4.573   0.149
  257SOL     OW 1669   3.390   5.402   5.005
  257SOL    HW1 1670   3.459   5.471   5.027
  257SOL    HW2 1671   3.328   5.391   5.082
  258SOL     OW 1672   5.551   3.388   4.933
  258SOL    HW1 1673   5.551   3.358   4.838
  258SOL    HW2 1674   5.469   3.441   4.951
  259SOL     OW 1675   2.216   2.870   2.361
  259SOL    HW1 1676   2.242   2.966   2.359
  259SOL    HW2 1677   2.178   2.844   2.272
  260SOL     OW 1678   4.248   0.903   0.924
  260SOL    HW1 1679   4.320   0.834   0.933
  260SOL    HW2 1680   4.269   0.964   0.847
  261SOL     OW 1681   6.924   3.902   1.295
  261SOL    HW1 1682   6.980   3.866   1.368
  261SOL    HW2 1683   6.958   3.992   1.267
  262SOL     OW 1684   0.559   3.899   2.095
  262SOL    HW1 1685   0.650   3.864   2.074
  262SOL    HW2 1686   0.502   3.898   2.012
  263SOL     OW 1687   0.320   1.336   4.103
  263SOL    HW1 1688   0.225   1.359   4.079
  263SOL    HW2 1689   0.366   1.418   4.138
  264SOL     OW 1690   6.037   4.569   5.407
  264SOL    HW1 1691   6.017   4.608   5.318
  264SOL    HW2 1692   5.964   4.594   5.471
  265SOL     OW 1693   4.870   3.878   2.863
  265SOL    HW1 1694   4.828   3.845   2.948
  265SOL    HW2 1695   4.830   3.830   2.785
  266SOL     OW 1696   3.578   2.940   6.164
  266SOL    HW1 1697   3.584   2.908   6.258
  266SOL    HW2 1698   3.618   2.872   6.103
  267SOL     OW 1699   6.715   2.770   6.118
  267SOL    HW1 1700   6.732   2.868   6.105
  267SOL    HW2 1701   6.757   2.741   6.204
  268SOL     OW 1702   5.047   5.927   5.383
  268SOL    HW1 1703   5.104   5.846   5.369
  268SOL    HW2 1704   5.098   6.008   5.355
  269SOL     OW 1705   1.536   1.606   0.298
  269SOL    HW1 1706   1.614   1.659   0.332
  269SOL    HW2 1707   1.480   1.664   0.238
  270SOL     OW 1708   6.709   0.711   1.804
  270SOL    HW1 1709   6.777   0.765   1.755
  270SOL    HW2 1710   6.753   0.659   1.877
  271SOL     OW 1711   2.802   1.672   0.417
  271SOL    HW1 1712   2.793   1.769   0.394
  271SOL    HW2 1713   2.794   1.660   0.516
  272SOL     OW 1714   3.379   5.246   4.259
  272SOL    HW1 1715   3.342   5.274   4.348
  272SOL    HW2 1716   3.319   5.177   4.218
  273SOL     OW 1717   1.542   5.457   5.476
  273SOL    HW1 1718   1.478   5.439   5.551
  273SOL    HW2 1719   1.632   5.421   5.498
  274SOL     OW 1720   5.307   2.159   4.389
  274SOL    HW1 1721   5.253   2.186   4.310
  274SOL    HW2 1722   5.322   2.239   4.447
  275SOL     OW 1723   0.573   5.849   6.420
  275SOL    HW1 1724   0.644   5.785   6.391
  275SOL    HW2 1725   0.598   5.941   6.392
  276SOL     OW 1726   6.586   5.401   4.051
  276SOL    HW1 1727   6.637   5.441   3.974
  276SOL    HW2 1728   6.509   5.347   4.015
  277SOL     OW 1729   3.277   1.239   6.541
  277SOL    HW1 1730   3.220   1.186   6.603
  277SOL    HW2 1731   3.292   1.186   6.457
  278SOL     OW 1732   6.471   3.523   2.122
  278SOL    HW1 1733   6.379   3.484   2.129
  278SOL    HW2 1734   6.467   3.610   2.073
  279SOL     OW 1735   6.253   2.767   4.295
  279SOL    HW1 1736   6.227   2.816   4.212
  279SOL    HW2 1737   6.246   2.668   4.279
  280SOL     OW 1738   4.209   0.145   3.339
  280SOL    HW1 1739   4.284   0.118   3.279
  280SOL    HW2 1740   4.246   0.184   3.423
  281SOL     OW 1741   2.894   4.724   3.237
  281SOL    HW1 1742   2.931   4.759   3.323
  281SOL    HW2 1743   2.962   4.733   3.165
  282SOL     OW 1744   3.907   2.426   5.352
  282SOL    HW1 1745   3.962   2.477   5.287
  282SOL    HW2 1746   3.956   2.418   5.439
  283SOL     OW 1747   5.859   0.479   5.847
  283SOL    HW1 1748   5.825   0.389   5.875
  283SOL    HW2 1749   5.935   0.506   5.906
  284SOL     OW 1750   0.995   4.596   4.813
  284SOL    HW1 1751   0.931   4.536   4.766
  284SOL    HW2 1752   1.019   4.556   4.901
  285SOL     OW 1753   5.121   5.814   0.271
  285SOL    HW1 1754   5.033   5.774   0.296
  285SOL    HW2 1755   5.184   5.809   0.349
  286SOL     OW 1756   4.374   4.721   5.684
  286SOL    HW1 1757   4.316   4.656   5.634
  286SOL    HW2 1758   4.460   4.733   5.634
  287SOL     OW 1759   1.466   5.398   6.602
  287SOL    HW1 1760   1.409   5.435   6.529
  287SOL    HW2 1761   1.560   5.431   6.590
  288SOL     OW 1762   4.056   1.627   0.198
  288SOL    HW1 1763   3.997   1.706   0.209
  288SOL    HW2 1764   4.028   1.574   0.118
  289SOL     OW 1765   0.847   5.116   5.542
  289SOL    HW1 1766   0.815   5.176   5.468
  289SOL    HW2 1767   0.929   5.067   5.512
  290SOL     OW 1768   5.164   1.141   3.559
  290SOL    HW1 1769   5.079   1.091   3.573
  290SOL    HW2 1770   5.143   1.234   3.529
  291SOL     OW 1771   4.298   1.050   4.034
  291SOL    HW1 1772   4.322   1.129   3.977
  291SOL    HW2 1773   4.329   0.966   3.990
  292SOL     OW 1774   5.069   1.346   3.870
  292SOL    HW1 1775   4.979   1.327   3.908
  292SOL    HW2 1776   5.068   1.329   3.771
  293SOL     OW 1777   4.296   6.556   1.238
  293SOL    HW1 1778   4.372   6.504   1.277
  293SOL    HW2 1779   4.213   6.499   1.238
  294SOL     OW 1780   6.216   5.568   6.804
  294SOL    HW1 1781   6.142   5.542   6.742
  294SOL    HW2 1782   6.230   5.667   6.799
  295SOL     OW 1783   2.307   2.081   5.140
  295SOL    HW1 1784   2.226   2.139   5.128
  295SOL    HW2 1785   2.388   2.130   5.110
  296SOL     OW 1786   0.056   2.286   1.646
  296SOL    HW1 1787   7.003   2.255   1.701
  296SOL    HW2 1788   0.130   2.318   1.706
  297SOL     OW 1789   3.021   5.079   3.462
  297SOL    HW1 1790   3.021   4.984   3.493
  297SOL    HW2 1791   3.001   5.139   3.540
  298SOL     OW 1792   4.538   6.892   0.053
  298SOL    HW1 1793   4.439   6.908   0.054
  298SOL    HW2 1794   4.579   6.933   0.135
  299SOL     OW 1795   4.531   1.911   6.780
  299SOL    HW1 1796   4.529   2.000   6.825
  299SOL    HW2 1797   4.437   1.879   6.765
  300SOL     OW 1798   4.196   0.184   2.743
  300SOL    HW1 1799   4.098   0.207   2.743
  300SOL    HW2 1800   4.248   0.265   2.770
  301SOL     OW 1801   4.999   1.505   1.432
  301SOL    HW1 1802   5.077   1.444   1.440
  301SOL    HW2 1803   5.027   1.598   1.454
  302SOL     OW 1804   0.318   0.799   2.247
  302SOL    HW1 1805   0.261   0.862   2.299
  302SOL    HW2 1806   0.327   0.713   2.297
  303SOL     OW 1807   6.559   6.015   2.081
  303SOL    HW1 1808   6.462   6.032   2.067
  303SOL    HW2 1809   6.595   5.960   2.005
  304SOL     OW 1810   2.386   6.308   6.705
  304SOL    HW1 1811   2.324   6.229   6.701
  304SOL    HW2 1812   2.476   6.278   6.736
  305SOL     OW 1813   1.407   2.950   0.924
  305SOL    HW1 1814   1.421   3.005   1.006
  305SOL    HW2 1815   1.460   2.989   0.848
  306SOL     OW 1816   0.174   1.222   2.684
  306SOL    HW1 1817   0.249   1.288   2.694
  306SOL    HW2 1818   0.099   1.248   2.745
  307SOL     OW 1819   3.976   4.418   6.983
  307SOL    HW1 1820   4.055   4.362   7.008
  307SOL    HW2 1821   3.907   4.361   6.938
  308SOL     OW 1822   5.845   2.380   4.048
  308SOL    HW1 1823   5.763   2.432   4.071
  308SOL    HW2 1824   5.908   2.440   3.996
  309SOL     OW 1825   1.598   6.308   0.387
  309SOL    HW1 1826   1.669   6.238   0.393
  309SOL    HW2 1827   1.516   6.278   0.435
  310SOL     OW 1828   4.974   6.806   4.430
  310SOL    HW1 1829   5.003   6.837   4.521
  310SOL    HW2 1830   4.939   6.883   4.378
  311SOL     OW 1831   2.995   5.111   2.582
  311SOL    HW1 1832   2.981   5.034   2.520
  311SOL    HW2 1833   2.970   5.197   2.536
  312SOL     OW 1834   3.818   2.185   4.044
  312SOL    HW1 1835   3.734   2.155   4.089
  312SOL    HW2 1836   3.799   2.207   3.948
  313SOL     OW 1837   3.323   3.955   2.393
  313SOL    HW1 1838   3.407   3.934   2.344
  313SOL    HW2 1839   3.340   4.026   2.461
  314SOL     OW 1840   2.219   4.676   5.123
  314SOL    HW1 1841   2.194   4.590   5.168
  314SOL    HW2 1842   2.142   4.707   5.068
  315SOL     OW 1843   1.187   2.318   3.894
  315SOL    HW1 1844   1.267   2.339   3.951
  315SOL    HW2 1845   1.193   2.224   3.861
  316SOL     OW 1846   3.717   0.471   4.569
  316SOL    HW1 1847   3.704   0.535   4.493
  316SOL    HW2 1848   3.813   0.442   4.573
  317SOL     OW 1849   0.380   1.433   1.665
  317SOL    HW1 1850   0.442   1.383   1.724
  317SOL    HW2 1851   0.404   1.530   1.665
  318SOL     OW 1852   6.450   0.009   6.857
  318SOL    HW1 1853   6.484   6.941   6.873
  318SOL    HW2 1854   6.351   0.006   6.845
  319SOL     OW 1855   6.427   1.557   3.527
  319SOL    HW1 1856   6.376   1.496   3.467
  319SOL    HW2 1857   6.462   1.635   3.474
  320SOL     OW 1858   5.897   3.155   0.210
  320SOL    HW1 1859   5.877   3.209   0.292
  320SOL    HW2 1860   5.893   3.057   0.233
  321SOL     OW 1861   4.171   2.165   6.864
  321SOL    HW1 1862   4.161   2.204   6.955
  321SOL    HW2 1863   4.250   2.207   6.819
  322SOL     OW 1864   3.271   3.018   4.530
  322SOL    HW1 1865   3.220   3.006   4.616
  322SOL    HW2 1866   3.368   3.024   4.550
  323SOL     OW 1867   1.416   2.867   5.470
  323SOL    HW1 1868   1.328   2.912   5.451
  323SOL    HW2 1869   1.401   2.769   5.480
  324SOL     OW 1870   2.575   0.219   2.792
  324SOL    HW1 1871   2.658   0.181   2.831
  324SOL    HW2 1872   2.597   0.300   2.739
  325SOL     OW 1873   0.885   3.424   2.151
  325SOL    HW1 1874   0.958   3.457   2.092
  325SOL    HW2 1875   0.860   3.494   2.217
  326SOL     OW 1876   0.747   4.301   6.091
  326SOL    HW1 1877   0.780   4.305   5.997
  326SOL    HW2 1878   0.755   4.207   6.125
  327SOL     OW 1879   2.503   4.589   2.876
  327SOL    HW1 1880   2.434   4.654   2.906
  327SOL    HW2 1881   2.591   4.611   2.918
  328SOL     OW 1882   2.041   5.102   1.977
  328SOL    HW1 1883   2.067   5.199   1.975
  328SOL    HW2 1884   2.044   5.069   2.071
  329SOL     OW 1885   2.490   3.531   5.918
  329SOL    HW1 1886   2.500   3.526   5.819
  329SOL    HW2 1887   2.498   3.439   5.957
  330SOL     OW 1888   2.810   6.424   1.041
  330SOL    HW1 1889   2.751   6.371   0.980
  330SOL    HW2 1890   2.885   6.464   0.988
  331SOL     OW 1891   4.981   5.491   0.591
  331SOL    HW1 1892   5.032   5.527   0.669
  331SOL    HW2 1893   4.982   5.391   0.595
  332SOL     OW 1894   5.719   2.863   5.183
  332SOL    HW1 1895   5.683   2.876   5.090
  332SOL    HW2 1896   5.654   2.811   5.237
  333SOL     OW 1897   4.517   0.801   5.615
  333SOL    HW1 1898   4.427   0.798   5.573
  333SOL    HW2 1899   4.575   0.866   5.564
  334SOL     OW 1900   2.855   2.241   0.338
  334SOL    HW1 1901   2.923   2.298   0.291
  334SOL    HW2 1902   2.782   2.300   0.373
  335SOL     OW 1903   3.440   0.169   6.467
  335SOL    HW1 1904   3.536   0.160   6.440
  335SOL    HW2 1905   3.427   0.257   6.513
  336SOL     OW 1906   3.289   0.797   3.392
  336SOL    HW1 1907   3.329   0.879   3.352
  336SOL    HW2 1908   3.198   0.817   3.427
  337SOL     OW 1909   7.001   3.416   5.182
  337SOL    HW1 1910   0.028   3.498   5.209
  337SOL    HW2 1911   6.990   3.357   5.262
  338SOL     OW 1912   2.931   2.250   1.316
  338SOL    HW1 1913   2.948   2.236   1.413
  338SOL    HW2 1914   2.938   2.163   1.268
  339SOL     OW 1915   4.502   5.275   4.872
  339SOL    HW1 1916   4.460   5.334   4.940
  339SOL    HW2 1917   4.576   5.324   4.825
  340SOL     OW 1918   5.187   3.516   4.753
  340SOL    HW1 1919   5.229   3.600   4.787
  340SOL    HW2 1920   5.088   3.521   4.767
  341SOL     OW 1921   5.927   6.494   4.453
  341SOL    HW1 1922   6.014   6.539   4.435
  341SOL    HW2 1923   5.856   6.563   4.469
  342SOL     OW 1924   5.438   3.413   0.380
  342SOL    HW1 1925   5.499   3.383   0.307
  342SOL    HW2 1926   5.348   3.372   0.367
  343SOL     OW 1927   0.613   5.840   1.824
  343SOL    HW1 1928   0.546   5.912   1.810
  343SOL    HW2 1929   0.595   5.764   1.760
  344SOL     OW 1930   0.989   3.593   1.919
  344SOL    HW1 1931   0.923   3.523   1.892
  344SOL    HW2 1932   1.035   3.629   1.838
  345SOL     OW 1933   5.270   2.334   3.525
  345SOL    HW1 1934   5.332   2.300   3.596
  345SOL    HW2 1935   5.222   2.258   3.483
  346SOL     OW 1936   1.838   1.062   2.413
  346SOL    HW1 1937   1.752   1.038   2.459
  346SOL    HW2 1938   1.884   0.978   2.384
  347SOL     OW 1939   3.025   5.837   0.169
  347SOL    HW1 1940   2.958   5.866   0.101
  347SOL    HW2 1941   3.111   5.885   0.154
  348SOL     OW 1942   4.833   3.754   2.623
  348SOL    HW1 1943   4.790   3.715   2.542
  348SOL    HW2 1944   4.865   3.847   2.602
  349SOL     OW 1945   0.059   5.052   1.766
  349SOL    HW1 1946   0.041   4.953   1.767
  349SOL    HW2 1947   0.085   5.080   1.674
  350SOL     OW 1948   2.860   1.916   1.621
  350SOL    HW1 1949   2.951   1.936   1.656
  350SOL    HW2 1950   2.794   1.983   1.656
  351SOL     OW 1951   2.342   3.429   0.817
  351SOL    HW1 1952   2.348   3.491   0.895
  351SOL    HW2 1953   2.340   3.482   0.732
  352SOL     OW 1954   3.440   6.647   3.830
  352SOL    HW1 1955   3.526   6.615   3.869
  352SOL    HW2 1956   3.366   6.631   3.895
  353SOL     OW 1957   3.405   0.254   0.062
  353SOL    HW1 1958   3.471   0.297   0.124
  353SOL    HW2 1959   3.339   0.202   0.114
  354SOL     OW 1960   4.475   2.178   1.685
  354SOL    HW1 1961   4.495   2.270   1.719
  354SOL    HW2 1962   4.413   2.133   1.750
  355SOL     OW 1963   1.521   4.434   2.968
  355SOL    HW1 1964   1.606   4.487   2.966
  355SOL    HW2 1965   1.465   4.463   3.045
  356SOL     OW 1966   2.194   0.617   5.495
  356SOL    HW1 1967   2.225   0.573   5.579
  356SOL    HW2 1968   2.096   0.633   5.500
  357SOL     OW 1969   6.613   6.696   5.421
  357SOL    HW1 1970   6.670   6.746   5.356
  357SOL    HW2 1971   6.529   6.667   5.377
  358SOL     OW 1972   4.661   6.437   0.730
  358SOL    HW1 1973   4.602   6.367   0.770
  358SOL    HW2 1974   4.641   6.526   0.772
  359SOL     OW 1975   2.975   1.947   1.977
  359SOL    HW1 1976   2.895   2.006   1.986
  359SOL    HW2 1977   3.006   1.948   1.882
  360SOL     OW 1978   1.327   4.849   5.627
  360SOL    HW1 1979   1.396   4.921   5.639
  360SOL    HW2 1980   1.358   4.785   5.557
  361SOL     OW 1981   6.810   6.368   3.148
  361SOL    HW1 1982   6.894   6.314   3.145
  361SOL    HW2 1983   6.732   6.308   3.129
  362SOL     OW 1984   3.371   2.783   1.678
  362SOL    HW1 1985   3.381   2.690   1.643
  362SOL    HW2 1986   3.426   2.846   1.623
  363SOL     OW 1987   5.798   4.355   3.451
  363SOL    HW1 1988   5.884   4.373   3.403
  363SOL    HW2 1989   5.755   4.273   3.413
  364SOL     OW 1990   6.770   5.192   6.238
  364SOL    HW1 1991   6.685   5.233   6.207
  364SOL    HW2 1992   6.750   5.123   6.308
  365SOL     OW 1993   5.407   0.077   2.013
  365SOL    HW1 1994   5.308   0.065   2.009
  365SOL    HW2 1995   5.432   0.165   1.973
  366SOL     OW 1996   5.306   1.690   6.751
  366SOL    HW1 1997   5.342   1.599   6.773
  366SOL    HW2 1998   5.219   1.681   6.702
  367SOL     OW 1999   5.860   2.830   1.022
  367SOL    HW1 2000   5.906   2.816   0.935
  367SOL    HW2 2001   5.925   2.818   1.097
  368SOL     OW 2002   0.895   2.839   5.444
  368SOL    HW1 2003   0.963   2.823   5.515
  368SOL    HW2 2004   0.898   2.935   5.416
  369SOL     OW 2005   5.898   5.083   2.269
  369SOL    HW1 2006   5.874   5.086   2.366
  369SOL    HW2 2007   5.923   4.989   2.244
  370SOL     OW 2008   1.278   1.401   5.250
  370SOL    HW1 2009   1.242   1.385   5.158
  370SOL    HW2 2010   1.212   1.366   5.317
  371SOL     OW 2011   1.780   4.646   6.166
  371SOL    HW1 2012   1.760   4.562   6.116
  371SOL    HW2 2013   1.876   4.671   6.153
  372SOL     OW 2014   2.091   6.680   6.355
  372SOL    HW1 2015   2.005   6.731   6.356
  372SOL    HW2 2016   2.090   6.611   6.427
  373SOL     OW 2017   5.931   6.223   4.889
  373SOL    HW1 2018   6.023   6.187   4.901
  373SOL    HW2 2019   5.897   6.197   4.799
  374SOL     OW 2020   2.513   2.158   3.794
  374SOL    HW1 2021   2.488   2.213   3.873
  374SOL    HW2 2022   2.500   2.061   3.815
  375SOL     OW 2023   0.440   4.281   3.718
  375SOL    HW1 2024   0.467   4.365   3.670
  375SOL    HW2 2025   0.341   4.280   3.729
  376SOL     OW 2026   1.562   1.003   5.042
  376SOL    HW1 2027   1.497   1.077   5.026
  376SOL    HW2 2028   1.643   1.040   5.089
  377SOL     OW 2029   1.367   1.791   0.481
  377SOL    HW1 2030   1.312   1.709   0.469
  377SOL    HW2 2031   1.454   1.767   0.524
  378SOL     OW 2032   4.574   2.117   6.938
  378SOL    HW1 2033   4.583   2.108   0.013
  378SOL    HW2 2034   4.526   2.202   6.916
  379SOL     OW 2035   6.050   2.365   1.076
  379SOL    HW1 2036   5.991   2.300   1.027
  379SOL    HW2 2037   5.995   2.441   1.109
  380SOL     OW 2038   3.193   1.125   0.857
  380SOL    HW1 2039   3.098   1.133   0.827
  380SOL    HW2 2040   3.251   1.104   0.779
  381SOL     OW 2041   1.862   4.086   3.532
  381SOL    HW1 2042   1.849   4.149   3.456
  381SOL    HW2 2043   1.913   4.006   3.501
  382SOL     OW 2044   5.941   0.952   0.716
  382SOL    HW1 2045   5.897   1.039   0.734
  382SOL    HW2 2046   6.006   0.962   0.640
  383SOL     OW 2047   3.985   3.216   6.813
  383SOL    HW1 2048   4.083   3.203   6.828
  383SOL    HW2 2049   3.971   3.280   6.737
  384SOL     OW 2050   6.460   5.443   4.625
  384SOL    HW1 2051   6.394   5.440   4.699
  384SOL    HW2 2052   6.412   5.457   4.538
  385SOL     OW 2053   3.019   4.693   5.331
  385SOL    HW1 2054   3.040   4.655   5.421
  385SOL    HW2 2055   2.955   4.632   5.284
  386SOL     OW 2056   3.039   6.687   4.238
  386SOL    HW1 2057   2.986   6.654   4.160
  386SOL    HW2 2058   3.015   6.635   4.320
  387SOL     OW 2059   1.295   6.187   2.838
  387SOL    HW1 2060   1.228   6.241   2.786
  387SOL    HW2 2061   1.387   6.222   2.821
  388SOL     OW 2062   1.381   2.586   5.512
  388SOL    HW1 2063   1.293   2.541   5.494
  388SOL    HW2 2064   1.455   2.519   5.501
  389SOL     OW 2065   3.943   3.779   1.690
  389SOL    HW1 2066   3.864   3.750   1.637
  389SOL    HW2 2067   3.913   3.824   1.774
  390SOL     OW 2068   2.618   1.758   2.322
  390SOL    HW1 2069   2.691   1.819   2.351
  390SOL    HW2 2070   2.578   1.713   2.403
  391SOL     OW 2071   2.421   1.938   6.326
  391SOL    HW1 2072   2.459   1.850   6.296
  391SOL    HW2 2073   2.493   1.991   6.371
  392SOL     OW 2074   1.517   5.003   0.757
  392SOL    HW1 2075   1.595   4.949   0.786
  392SOL    HW2 2076   1.502   4.991   0.659
  393SOL     OW 2077   1.310   4.245   6.431
  393SOL    HW1 2078   1.253   4.324   6.452
  393SOL    HW2 2079   1.318   4.187   6.512
  394SOL     OW 2080   6.769   1.868   0.011
  394SOL    HW1 2081   6.720   1.796   6.986
  394SOL    HW2 2082   6.832   1.914   6.972
  395SOL     OW 2083   4.972   3.597   2.813
  395SOL    HW1 2084   4.913   3.654   2.756
  395SOL    HW2 2085   5.041   3.654   2.858
  396SOL     OW 2086   3.586   4.009   1.366
  396SOL    HW1 2087   3.664   4.069   1.348
  396SOL    HW2 2088   3.576   3.944   1.291
  397SOL     OW 2089   5.197   1.426   6.183
  397SOL    HW1 2090   5.206   1.414   6.084
  397SOL    HW2 2091   5.287   1.437   6.224
  398SOL     OW 2092   0.768   6.448   2.372
  398SOL    HW1 2093   0.771   6.438   2.273
  398SOL    HW2 2094   0.715   6.529   2.397
  399SOL     OW 2095   6.301   5.962   2.716
  399SOL    HW1 2096   6.262   6.000   2.632
  399SOL    HW2 2097   6.231   5.910   2.765
  400SOL     OW 2098   6.762   6.706   5.786
  400SOL    HW1 2099   6.804   6.659   5.709
  400SOL    HW2 2100   6.833   6.735   5.850
  401SOL     OW 2101   5.279   0.663   5.682
  401SOL    HW1 2102   5.369   0.620   5.684
  401SOL    HW2 2103   5.286   0.757   5.714
  402SOL     OW 2104   5.726   0.030   3.260
  402SOL    HW1 2105   5.791   0.082   3.316
  402SOL    HW2 2106   5.719   0.071   3.169
  403SOL     OW 2107   4.064   2.143   4.063
  403SOL    HW1 2108   4.084   2.045   4.071
  403SOL    HW2 2109   3.965   2.157   4.072
  404SOL     OW 2110   1.330   5.070   4.443
  404SOL    HW1 2111   1.327   5.026   4.533
  404SOL    HW2 2112   1.305   5.167   4.453
  405SOL     OW 2113   1.698   3.899   1.782
  405SOL    HW1 2114   1.778   3.860   1.828
  405SOL    HW2 2115   1.642   3.948   1.848
  406SOL     OW 2116   1.045   4.892   4.793
  406SOL    HW1 2117   1.080   4.915   4.703
  406SOL    HW2 2118   1.035   4.792   4.800
  407SOL     OW 2119   1.408   0.777   3.898
  407SOL    HW1 2120   1.477   0.727   3.846
  407SOL    HW2 2121   1.337   0.810   3.836
  408SOL     OW 2122   1.477   2.466   2.838
  408SOL    HW1 2123   1.459   2.388   2.898
  408SOL    HW2 2124   1.462   2.551   2.887
  409SOL     OW 2125   6.911   3.190   1.767
  409SOL    HW1 2126   6.945   3.179   1.860
  409SOL    HW2 2127   6.812   3.178   1.765
  410SOL     OW 2128   1.770   1.530   1.568
  410SOL    HW1 2129   1.769   1.459   1.639
  410SOL    HW2 2130   1.764   1.620   1.611
  411SOL     OW 2131   5.409   0.440   1.740
  411SOL    HW1 2132   5.442   0.397   1.824
  411SOL    HW2 2133   5.328   0.390   1.707
  412SOL     OW 2134   4.472   5.971   4.156
  412SOL    HW1 2135   4.552   5.947   4.101
  412SOL    HW2 2136   4.418   6.039   4.108
  413SOL     OW 2137   5.307   4.015   1.789
  413SOL    HW1 2138   5.263   4.049   1.705
  413SOL    HW2 2139   5.284   4.075   1.865
  414SOL     OW 2140   3.427   5.659   3.403
  414SOL    HW1 2141   3.430   5.759   3.398
  414SOL    HW2 2142   3.478   5.620   3.326
  415SOL     OW 2143   0.751   6.394   6.732
  415SOL    HW1 2144   0.773   6.342   6.815
  415SOL    HW2 2145   0.652   6.403   6.724
  416SOL     OW 2146   4.980   6.372   4.050
  416SOL    HW1 2147   4.967   6.469   4.028
  416SOL    HW2 2148   5.039   6.330   3.982
  417SOL     OW 2149   2.858   5.612   6.500
  417SOL    HW1 2150   2.789   5.683   6.484
  417SOL    HW2 2151   2.845   5.539   6.433
  418SOL     OW 2152   4.298   6.440   0.375
  418SOL    HW1 2153   4.319   6.347   0.407
  418SOL    HW2 2154   4.378   6.498   0.387
  419SOL     OW 2155   2.092   0.234   1.771
  419SOL    HW1 2156   2.135   0.200   1.855
  419SOL    HW2 2157   2.152   0.300   1.727
  420SOL     OW 2158   5.220   1.299   0.168
  420SOL    HW1 2159   5.127   1.281   0.137
  420SOL    HW2 2160   5.285   1.257   0.106
  421SOL     OW 2161   6.728   4.343   5.998
  421SOL    HW1 2162   6.758   4.272   5.934
  421SOL    HW2 2163   6.734   4.309   6.091
  422SOL     OW 2164   6.113   3.496   1.500
  422SOL    HW1 2165   6.152   3.404   1.494
  422SOL    HW2 2166   6.124   3.543   1.412
  423SOL     OW 2167   0.655   1.860   6.305
  423SOL    HW1 2168   0.596   1.867   6.385
  423SOL    HW2 2169   0.693   1.949   6.282
  424SOL     OW 2170   2.224   4.737   0.904
  424SOL    HW1 2171   2.316   4.712   0.873
  424SOL    HW2 2172   2.157   4.711   0.834
  425SOL     OW 2173   5.476   1.595   3.444
  425SOL    HW1 2174   5.573   1.622   3.450
  425SOL    HW2 2175   5.466   1.501   3.478
  426SOL     OW 2176   3.778   2.151   4.668
  426SOL    HW1 2177   3.760   2.217   4.741
  426SOL    HW2 2178   3.877   2.136   4.659
  427SOL     OW 2179   5.310   6.364   3.426
  427SOL    HW1 2180   5.275   6.441   3.480
  427SOL    HW2 2181   5.389   6.395   3.372
  428SOL     OW 2182   3.913   0.313   4.991
  428SOL    HW1 2183   3.939   0.357   4.905
  428SOL    HW2 2184   3.952   0.363   5.067
  429SOL     OW 2185   1.406   3.788   1.099
  429SOL    HW1 2186   1.417   3.740   1.012
  429SOL    HW2 2187   1.330   3.853   1.093
  430SOL     OW 2188   0.736   0.474   5.099
  430SOL    HW1 2189   0.781   0.397   5.052
  430SOL    HW2 2190   0.669   0.516   5.037
  431SOL     OW 2191   3.385   0.007   0.953
  431SOL    HW1 2192   3.414   6.985   0.870
  431SOL    HW2 2193   3.366   0.103   0.933
  432SOL     OW 2194   6.562   1.589   0.396
  432SOL    HW1 2195   6.657   1.617   0.378
  432SOL    HW2 2196   6.550   1.493   0.370
  433SOL     OW 2197   2.609   6.603   4.943
  433SOL    HW1 2198   2.572   6.633   4.855
  433SOL    HW2 2199   2.544   6.542   4.988
  434SOL     OW 2200   3.028   6.079   3.003
  434SOL    HW1 2201   3.057   5.985   3.019
  434SOL    HW2 2202   3.088   6.142   3.053
  435SOL     OW 2203   4.931   2.611   6.827
  435SOL    HW1 2204   4.921   2.620   6.927
  435SOL    HW2 2205   4.956   2.517   6.805
  436SOL     OW 2206   2.988   6.354   1.478
  436SOL    HW1 2207   2.908   6.409   1.500
  436SOL    HW2 2208   3.008   6.292   1.553
  437SOL     OW 2209   0.987   1.211   0.189
  437SOL    HW1 2210   0.891   1.237   0.191
  437SOL    HW2 2211   1.010   1.163   0.273
  438SOL     OW 2212   1.552   3.968   3.510
  438SOL    HW1 2213   1.541   3.916   3.425
  438SOL    HW2 2214   1.640   3.945   3.552
  439SOL     OW 2215   5.375   4.917   2.830
  439SOL    HW1 2216   5.403   4.870   2.746
  439SOL    HW2 2217   5.419   5.007   2.833
  440SOL     OW 2218   1.825   1.407   4.864
  440SOL    HW1 2219   1.786   1.484   4.814
  440SOL    HW2 2220   1.919   1.391   4.832
  441SOL     OW 2221   0.669   2.816   4.014
  441SOL    HW1 2222   0.713   2.757   3.946
  441SOL    HW2 2223   0.570   2.815   3.999
  442SOL     OW 2224   3.256   5.610   5.533
  442SOL    HW1 2225   3.232   5.528   5.482
  442SOL    HW2 2226   3.318   5.586   5.608
  443SOL     OW 2227   5.708   4.497   4.513
  443SOL    HW1 2228   5.802   4.476   4.486
  443SOL    HW2 2229   5.667   4.416   4.554
  444SOL     OW 2230   4.801   0.999   5.704
  444SOL    HW1 2231   4.765   0.916   5.747
  444SOL    HW2 2232   4.823   1.066   5.775
  445SOL     OW 2233   0.942   5.868   2.922
  445SOL    HW1 2234   0.969   5.861   2.826
  445SOL    HW2 2235   0.996   5.940   2.966
  446SOL     OW 2236   2.902   5.870   4.028
  446SOL    HW1 2237   2.919   5.935   4.102
  446SOL    HW2 2238   2.987   5.853   3.978
  447SOL     OW 2239   0.536   2.806   6.008
  447SOL    HW1 2240   0.580   2.891   6.035
  447SOL    HW2 2241   0.604   2.733   6.005
  448SOL     OW 2242   2.162   0.751   3.115
  448SOL    HW1 2243   2.147   0.702   3.201
  448SOL    HW2 2244   2.250   0.725   3.077
  449SOL     OW 2245   4.090   1.087   3.820
  449SOL    HW1 2246   4.156   1.105   3.892
  449SOL    HW2 2247   4.127   1.018   3.758
  450SOL     OW 2248   1.246   5.508   2.936
  450SOL    HW1 2249   1.301   5.456   2.871
  450SOL    HW2 2250   1.210   5.447   3.007
  451SOL     OW 2251   1.660   2.180   3.185
  451SOL    HW1 2252   1.606   2.261   3.209
  451SOL    HW2 2253   1.602   2.115   3.136
  452SOL     OW 2254   5.785   6.489   0.491
  452SOL    HW1 2255   5.699   6.438   0.495
  452SOL    HW2 2256   5.831   6.471   0.404
  453SOL     OW 2257   4.152   0.816   5.887
  453SOL    HW1 2258   4.102   0.757   5.823
  453SOL    HW2 2259   4.097   0.830   5.969
  454SOL     OW 2260   6.620   4.722   6.341
  454SOL    HW1 2261   6.588   4.766   6.424
  454SOL    HW2 2262   6.606   4.784   6.263
  455SOL     OW 2263   6.112   2.480   3.084
  455SOL    HW1 2264   6.047   2.476   3.159
  455SOL    HW2 2265   6.175   2.556   3.099
  456SOL     OW 2266   6.098   6.621   3.828
  456SOL    HW1 2267   6.002   6.628   3.802
  456SOL    HW2 2268   6.144   6.553   3.770
  457SOL     OW 2269   1.769   2.174   3.980
  457SOL    HW1 2270   1.671   2.155   3.986
  457SOL    HW2 2271   1.797   2.226   4.061
  458SOL     OW 2272   4.458   5.821   3.040
  458SOL    HW1 2273   4.420   5.809   2.948
  458SOL    HW2 2274   4.435   5.912   3.074
  459SOL     OW 2275   1.771   6.394   5.504
  459SOL    HW1 2276   1.720   6.417   5.587
  459SOL    HW2 2277   1.847   6.333   5.528
  460SOL     OW 2278   2.460   6.544   3.990
  460SOL    HW1 2279   2.525   6.477   4.027
  460SOL    HW2 2280   2.426   6.602   4.064
  461SOL     OW 2281   6.451   6.381   6.528
  461SOL    HW1 2282   6.537   6.350   6.487
  461SOL    HW2 2283   6.462   6.390   6.627
  462SOL     OW 2284   3.886   3.415   0.004
  462SOL    HW1 2285   3.942   3.359   6.968
  462SOL    HW2 2286   3.936   3.435   0.088
  463SOL     OW 2287   5.405   5.885   3.230
  463SOL    HW1 2288   5.314   5.901   3.267
  463SOL    HW2 2289   5.405   5.903   3.131
  464SOL     OW 2290   2.516   1.426   5.279
  464SOL    HW1 2291   2.592   1.436   5.214
  464SOL    HW2 2292   2.494   1.514   5.320
  465SOL     OW 2293   0.528   2.941   0.223
  465SOL    HW1 2294   0.574   2.861   0.184
  465SOL    HW2 2295   0.521   3.013   0.153
  466SOL     OW 2296   1.122   6.451   3.338
  466SOL    HW1 2297   1.201   6.511   3.350
  466SOL    HW2 2298   1.147   6.374   3.278
  467SOL     OW 2299   1.651   1.048   0.605
  467SOL    HW1 2300   1.732   1.075   0.553
  467SOL    HW2 2301   1.617   1.126   0.656
  468SOL     OW 2302   3.675   0.272   6.304
  468SOL    HW1 2303   3.603   0.341   6.305
  468SOL    HW2 2304   3.658   0.207   6.231
  469SOL     OW 2305   3.069   3.023   6.482
  469SOL    HW1 2306   3.147   2.967   6.511
  469SOL    HW2 2307   3.005   3.033   6.558
  470SOL     OW 2308   4.661   6.460   1.825
  470SOL    HW1 2309   4.562   6.473   1.824
  470SOL    HW2 2310   4.706   6.548   1.811
  471SOL     OW 2311   2.523   2.613   3.703
  471SOL    HW1 2312   2.614   2.655   3.698
  471SOL    HW2 2313   2.525   2.523   3.659
  472SOL     OW 2314   4.494   3.496   6.841
  472SOL    HW1 2315   4.473   3.424   6.775
  472SOL    HW2 2316   4.410   3.527   6.885
  473SOL     OW 2317   1.279   2.967   2.727
  473SOL    HW1 2318   1.219   2.908   2.672
  473SOL    HW2 2319   1.351   3.004   2.670
  474SOL     OW 2320   5.116   4.943   4.301
  474SOL    HW1 2321   5.032   4.992   4.279
  474SOL    HW2 2322   5.192   4.983   4.250
  475SOL     OW 2323   6.250   1.165   6.483
  475SOL    HW1 2324   6.274   1.188   6.577
  475SOL    HW2 2325   6.165   1.112   6.482
  476SOL     OW 2326   0.403   3.364   3.472
  476SOL    HW1 2327   0.424   3.280   3.521
  476SOL    HW2 2328   0.444   3.442   3.520
  477SOL     OW 2329   2.555   6.280   3.436
  477SOL    HW1 2330   2.463   6.282   3.476
  477SOL    HW2 2331   2.594   6.372   3.439
  478SOL     OW 2332   3.474   6.264   2.171
  478SOL    HW1 2333   3.526   6.243   2.254
  478SOL    HW2 2334   3.377   6.271   2.195
  479SOL     OW 2335   4.494   1.708   5.990
  479SOL    HW1 2336   4.467   1.629   5.935
  479SOL    HW2 2337   4.427   1.781   5.980
  480SOL     OW 2338   2.823   0.726   0.022
  480SOL    HW1 2339   2.817   0.721   6.947
  480SOL    HW2 2340   2.902   0.781   0.048
  481SOL     OW 2341   2.087   6.766   1.169
  481SOL    HW1 2342   2.142   6.686   1.145
  481SOL    HW2 2343   2.016   6.779   1.099
  482SOL     OW 2344   4.002   4.766   2.136
  482SOL    HW1 2345   3.967   4.776   2.229
  482SOL    HW2 2346   4.076   4.699   2.135
  483SOL     OW 2347   6.259   1.761   2.090
  483SOL    HW1 2348   6.244   1.663   2.101
  483SOL    HW2 2349   6.352   1.784   2.117
  484SOL     OW 2350   2.150   3.690   4.699
  484SOL    HW1 2351   2.122   3.775   4.744
  484SOL    HW2 2352   2.113   3.612   4.749
  485SOL     OW 2353   3.902   5.668   2.919
  485SOL    HW1 2354   3.876   5.641   2.826
  485SOL    HW2 2355   3.881   5.764   2.933
  486SOL     OW 2356   6.814   1.231   0.525
  486SOL    HW1 2357   6.790   1.138   0.497
  486SOL    HW2 2358   6.914   1.241   0.521
  487SOL     OW 2359   0.876   0.864   2.674
  487SOL    HW1 2360   0.793   0.843   2.621
  487SOL    HW2 2361   0.894   0.789   2.738
  488SOL     OW 2362   0.594   1.341   1.801
  488SOL    HW1 2363   0.605   1.253   1.847
  488SOL    HW2 2364   0.600   1.414   1.869
  489SOL     OW 2365   4.014   6.128   5.922
  489SOL    HW1 2366   4.004   6.092   5.830
  489SOL    HW2 2367   3.932   6.105   5.976
  490SOL     OW 2368   0.542   6.013   2.909
  490SOL    HW1 2369   0.548   6.086   2.978
  490SOL    HW2 2370   0.460   5.959   2.925
  491SOL     OW 2371   1.130   4.070   2.312
  491SOL    HW1 2372   1.093   3.986   2.273
  491SOL    HW2 2373   1.057   4.138   2.319
  492SOL     OW 2374   1.413   0.234   4.849
  492SOL    HW1 2375   1.320   0.200   4.861
  492SOL    HW2 2376   1.414   0.306   4.780
  493SOL     OW 2377   5.069   6.235   5.615
  493SOL    HW1 2378   5.096   6.200   5.525
  493SOL    HW2 2379   5.125   6.314   5.639
  494SOL     OW 2380   0.597   6.896   0.264
  494SOL    HW1 2381   0.619   6.884   0.167
  494SOL    HW2 2382   0.679   6.880   0.319
  495SOL     OW 2383   4.777   5.690   3.622
  495SOL    HW1 2384   4.715   5.612   3.628
  495SOL    HW2 2385   4.825   5.701   3.709
  496SOL     OW 2386   5.061   2.956   1.716
  496SOL    HW1 2387   5.102   2.918   1.799
  496SOL    HW2 2388   5.067   2.889   1.642
  497SOL     OW 2389   2.640   1.802   4.511
  497SOL    HW1 2390   2.616   1.898   4.525
  497SOL    HW2 2391   2.571   1.759   4.452
  498SOL     OW 2392   1.030   4.588   1.560
  498SOL    HW1 2393   0.974   4.621   1.636
  498SOL    HW2 2394   1.119   4.558   1.595
  499SOL     OW 2395   1.667   6.105   4.327
  499SOL    HW1 2396   1.641   6.009   4.335
  499SOL    HW2 2397   1.715   6.134   4.410
  500SOL     OW 2398   0.446   2.758   5.554
  500SOL    HW1 2399   0.402   2.792   5.637
  500SOL    HW2 2400   0.541   2.734   5.574
  501SOL     OW 2401   3.020   6.535   0.890
  501SOL    HW1 2402   2.986   6.625   0.864
  501SOL    HW2 2403   3.050   6.485   0.808
  502SOL     OW 2404   0.962   3.798   6.468
  502SOL    HW1 2405   0.904   3.791   6.386
  502SOL    HW2 2406   1.025   3.720   6.471
  503SOL     OW 2407   0.371   5.322   6.562
  503SOL    HW1 2408   0.399   5.379   6.485
  503SOL    HW2 2409   0.426   5.344   6.642
  504SOL     OW 2410   1.133   4.770   2.663
  504SOL    HW1 2411   1.214   4.715   2.682
  504SOL    HW2 2412   1.132   4.795   2.566
  505SOL     OW 2413   3.039   6.039   5.322
  505SOL    HW1 2414   3.100   6.036   5.243
  505SOL    HW2 2415   2.971   5.966   5.315
  506SOL     OW 2416   2.791   4.821   4.072
  506SOL    HW1 2417   2.717   4.772   4.119
  506SOL    HW2 2418   2.845   4.870   4.140
  507SOL     OW 2419   3.599   6.895   3.517
  507SOL    HW1 2420   3.550   6.850   3.443
  507SOL    HW2 2421   3.580   6.849   3.604
  508SOL     OW 2422   6.386   3.351   2.685
  508SOL    HW1 2423   6.469   3.346   2.630
  508SOL    HW2 2424   6.408   3.330   2.781
  509SOL     OW 2425   2.837   1.196   1.119
  509SOL    HW1 2426   2.850   1.185   1.217
  509SOL    HW2 2427   2.875   1.283   1.089
  510SOL     OW 2428   6.585   4.150   6.563
  510SOL    HW1 2429   6.517   4.196   6.505
  510SOL    HW2 2430   6.567   4.172   6.659
  511SOL     OW 2431   1.094   2.181   6.166
  511SOL    HW1 2432   1.084   2.082   6.160
  511SOL    HW2 2433   1.086   2.210   6.262
  512SOL     OW 2434   6.699   2.935   6.624
  512SOL    HW1 2435   6.661   2.846   6.650
  512SOL    HW2 2436   6.726   2.985   6.706
  513SOL     OW 2437   5.884   6.845   3.296
  513SOL    HW1 2438   5.981   6.869   3.301
  513SOL    HW2 2439   5.835   6.919   3.250
  514SOL     OW 2440   6.390   1.428   4.230
  514SOL    HW1 2441   6.481   1.388   4.238
  514SOL    HW2 2442   6.334   1.371   4.170
  515SOL     OW 2443   0.880   0.071   6.993
  515SOL    HW1 2444   0.807   0.132   0.000
  515SOL    HW2 2445   0.969   0.108   7.021
  516SOL     OW 2446   2.883   4.831   2.072
  516SOL    HW1 2447   2.805   4.886   2.102
  516SOL    HW2 2448   2.849   4.745   2.033
  517SOL     OW 2449   4.407   5.722   1.458
  517SOL    HW1 2450   4.384   5.768   1.372
  517SOL    HW2 2451   4.505   5.728   1.474
  518SOL     OW 2452   2.822   2.076   3.154
  518SOL    HW1 2453   2.888   2.144   3.187
  518SOL    HW2 2454   2.790   2.021   3.231
  519SOL     OW 2455   0.409   6.495   4.281
  519SOL    HW1 2456   0.426   6.399   4.305
  519SOL    HW2 2457   0.313   6.506   4.255
  520SOL     OW 2458   5.785   3.487   6.883
  520SOL    HW1 2459   5.726   3.442   6.816
  520SOL    HW2 2460   5.731   3.510   6.964
  521SOL     OW 2461   6.515   5.335   5.198
  521SOL    HW1 2462   6.494   5.252   5.146
  521SOL    HW2 2463   6.477   5.415   5.152
  522SOL     OW 2464   3.622   3.484   4.749
  522SOL    HW1 2465   3.673   3.567   4.725
  522SOL    HW2 2466   3.524   3.502   4.739
  523SOL     OW 2467   1.042   5.895   1.556
  523SOL    HW1 2468   1.040   5.993   1.575
  523SOL    HW2 2469   1.083   5.847   1.633
  524SOL     OW 2470   0.250   1.817   2.746
  524SOL    HW1 2471   0.161   1.858   2.724
  524SOL    HW2 2472   0.304   1.808   2.662
  525SOL     OW 2473   2.052   3.942   5.905
  525SOL    HW1 2474   1.954   3.927   5.896
  525SOL    HW2 2475   2.095   3.936   5.814
  526SOL     OW 2476   4.208   5.943   3.817
  526SOL    HW1 2477   4.185   6.020   3.877
  526SOL    HW2 2478   4.205   5.973   3.722
  527SOL     OW 2479   5.730   2.992   0.679
  527SOL    HW1 2480   5.737   3.070   0.617
  527SOL    HW2 2481   5.636   2.983   0.710
  528SOL     OW 2482   0.882   2.242   3.766
  528SOL    HW1 2483   0.917   2.211   3.678
  528SOL    HW2 2484   0.952   2.230   3.836
  529SOL     OW 2485   1.232   6.580   5.186
  529SOL    HW1 2486   1.258   6.590   5.282
  529SOL    HW2 2487   1.308   6.610   5.128
  530SOL     OW 2488   3.298   3.262   4.314
  530SOL    HW1 2489   3.385   3.245   4.359
  530SOL    HW2 2490   3.290   3.204   4.233
  531SOL     OW 2491   0.825   1.874   3.050
  531SOL    HW1 2492   0.919   1.841   3.051
  531SOL    HW2 2493   0.823   1.971   3.075
  532SOL     OW 2494   0.424   3.011   6.772
  532SOL    HW1 2495   0.484   2.982   6.697
  532SOL    HW2 2496   0.334   2.968   6.761
  533SOL     OW 2497   4.038   6.201   4.168
  533SOL    HW1 2498   4.011   6.192   4.072
  533SOL    HW2 2499   3.976   6.148   4.226
  534SOL     OW 2500   5.682   6.030   1.965
  534SOL    HW1 2501   5.766   6.084   1.964
  534SOL    HW2 2502   5.662   6.001   2.058
  535SOL     OW 2503   0.133   3.413   4.723
  535SOL    HW1 2504   0.175   3.471   4.793
  535SOL    HW2 2505   0.169   3.320   4.733
  536SOL     OW 2506   6.119   4.807   2.024
  536SOL    HW1 2507   6.194   4.747   1.997
  536SOL    HW2 2508   6.134   4.838   2.118
  537SOL     OW 2509   2.629   6.553   4.542
  537SOL    HW1 2510   2.700   6.623   4.552
  537SOL    HW2 2511   2.660   6.484   4.476
  538SOL     OW 2512   0.784   4.811   3.484
  538SOL    HW1 2513   0.718   4.775   3.418
  538SOL    HW2 2514   0.790   4.911   3.473
  539SOL     OW 2515   1.515   5.861   1.019
  539SOL    HW1 2516   1.573   5.782   1.040
  539SOL    HW2 2517   1.435   5.831   0.967
  540SOL     OW 2518   1.797   1.067   2.807
  540SOL    HW1 2519   1.874   1.015   2.771
  540SOL    HW2 2520   1.800   1.161   2.771
  541SOL     OW 2521   4.890   5.424   3.708
  541SOL    HW1 2522   4.802   5.462   3.679
  541SOL    HW2 2523   4.907   5.448   3.804
  542SOL     OW 2524   6.285   6.087   6.604
  542SOL    HW1 2525   6.382   6.066   6.593
  542SOL    HW2 2526   6.256   6.148   6.531
  543SOL     OW 2527   1.029   3.437   5.202
  543SOL    HW1 2528   0.950   3.383   5.232
  543SOL    HW2 2529   1.101   3.376   5.170
  544SOL     OW 2530   2.109   4.778   0.220
  544SOL    HW1 2531   2.183   4.726   0.263
  544SOL    HW2 2532   2.058   4.719   0.158
  545SOL     OW 2533   3.091   1.695   1.666
  545SOL    HW1 2534   3.034   1.638   1.608
  545SOL    HW2 2535   3.151   1.637   1.722
  546SOL     OW 2536   2.187   2.961   0.861
  546SOL    HW1 2537   2.143   2.874   0.839
  546SOL    HW2 2538   2.285   2.953   0.846
  547SOL     OW 2539   3.335   0.701   0.244
  547SOL    HW1 2540   3.293   0.756   0.317
  547SOL    HW2 2541   3.425   0.669   0.274
  548SOL     OW 2542   3.754   3.448   2.136
  548SOL    HW1 2543   3.762   3.542   2.171
  548SOL    HW2 2544   3.796   3.385   2.200
  549SOL     OW 2545   5.207   3.028   1.489
  549SOL    HW1 2546   5.206   3.113   1.437
  549SOL    HW2 2547   5.124   2.976   1.470
  550SOL     OW 2548   0.565   5.590   3.777
  550SOL    HW1 2549   0.504   5.519   3.811
  550SOL    HW2 2550   0.542   5.612   3.682
  551SOL     OW 2551   0.878   0.394   2.790
  551SOL    HW1 2552   0.830   0.315   2.829
  551SOL    HW2 2553   0.940   0.432   2.859
  552SOL     OW 2554   5.754   4.668   6.801
  552SOL    HW1 2555   5.824   4.601   6.777
  552SOL    HW2 2556   5.764   4.694   6.897
  553SOL     OW 2557   2.787   6.749   2.441
  553SOL    HW1 2558   2.730   6.830   2.426
  553SOL    HW2 2559   2.756   6.676   2.381
  554SOL     OW 2560   5.852   0.222   6.717
  554SOL    HW1 2561   5.847   0.196   6.814
  554SOL    HW2 2562   5.868   0.140   6.662
  555SOL     OW 2563   1.821   4.919   3.692
  555SOL    HW1 2564   1.798   5.006   3.736
  555SOL    HW2 2565   1.744   4.855   3.702
  556SOL     OW 2566   4.388   2.290   3.290
  556SOL    HW1 2567   4.423   2.371   3.243
  556SOL    HW2 2568   4.465   2.236   3.325
  557SOL     OW 2569   0.206   5.257   0.662
  557SOL    HW1 2570   0.150   5.330   0.625
  557SOL    HW2 2571   0.208   5.263   0.762
  558SOL     OW 2572   3.224   3.049   4.846
  558SOL    HW1 2573   3.147   3.058   4.910
  558SOL    HW2 2574   3.277   3.133   4.846
  559SOL     OW 2575   6.551   5.699   0.153
  559SOL    HW1 2576   6.531   5.718   0.057
  559SOL    HW2 2577   6.483   5.743   0.211
  560SOL     OW 2578   4.810   4.877   6.723
  560SOL    HW1 2579   4.888   4.878   6.660
  560SOL    HW2 2580   4.768   4.786   6.721
  561SOL     OW 2581   0.897   1.607   1.321
  561SOL    HW1 2582   0.908   1.512   1.351
  561SOL    HW2 2583   0.853   1.660   1.393
  562SOL     OW 2584   5.064   0.548   6.022
  562SOL    HW1 2585   5.040   0.628   5.967
  562SOL    HW2 2586   5.151   0.563   6.067
  563SOL     OW 2587   2.284   0.930   3.686
  563SOL    HW1 2588   2.232   0.857   3.731
  563SOL    HW2 2589   2.380   0.905   3.683
  564SOL     OW 2590   1.131   2.029   6.950
  564SOL    HW1 2591   1.155   2.046   6.855
  564SOL    HW2 2592   1.094   1.936   6.959
  565SOL     OW 2593   3.867   2.869   5.291
  565SOL    HW1 2594   3.831   2.863   5.197
  565SOL    HW2 2595   3.792   2.858   5.356
  566SOL     OW 2596   0.160   5.203   3.886
  566SOL    HW1 2597   0.134   5.246   3.800
  566SOL    HW2 2598   0.137   5.105   3.883
  567SOL     OW 2599   2.901   2.958   1.672
  567SOL    HW1 2600   2.997   2.986   1.674
  567SOL    HW2 2601   2.894   2.860   1.693
  568SOL     OW 2602   4.624   1.488   0.185
  568SOL    HW1 2603   4.582   1.579   0.181
  568SOL    HW2 2604   4.709   1.492   0.238
  569SOL     OW 2605   1.768   3.052   6.412
  569SOL    HW1 2606   1.716   3.104   6.480
  569SOL    HW2 2607   1.843   3.108   6.378
  570SOL     OW 2608   3.251   6.512   6.826
  570SOL    HW1 2609   3.241   6.498   6.727
  570SOL    HW2 2610   3.200   6.594   6.853
  571SOL     OW 2611   3.105   0.327   1.889
  571SOL    HW1 2612   3.037   0.279   1.834
  571SOL    HW2 2613   3.131   0.270   1.967
  572SOL     OW 2614   2.796   4.759   5.569
  572SOL    HW1 2615   2.856   4.838   5.557
  572SOL    HW2 2616   2.748   4.740   5.483
  573SOL     OW 2617   5.356   1.649   5.618
  573SOL    HW1 2618   5.421   1.601   5.560
  573SOL    HW2 2619   5.396   1.662   5.709
  574SOL     OW 2620   3.403   1.842   3.917
  574SOL    HW1 2621   3.380   1.783   3.994
  574SOL    HW2 2622   3.409   1.787   3.833
  575SOL     OW 2623   5.071   3.909   0.410
  575SOL    HW1 2624   5.020   3.827   0.383
  575SOL    HW2 2625   5.030   3.948   0.492
  576SOL     OW 2626   0.972   1.754   2.738
  576SOL    HW1 2627   1.009   1.759   2.831
  576SOL    HW2 2628   0.883   1.709   2.740
  577SOL     OW 2629   1.255   1.223   2.373
  577SOL    HW1 2630   1.262   1.319   2.400
  577SOL    HW2 2631   1.312   1.207   2.293
  578SOL     OW 2632   5.611   5.498   3.609
  578SOL    HW1 2633   5.547   5.488   3.685
  578SOL    HW2 2634   5.642   5.593   3.604
  579SOL     OW 2635   1.903   2.891   2.675
  579SOL    HW1 2636   1.865   2.838   2.600
  579SOL    HW2 2637   1.849   2.875   2.758
  580SOL     OW 2638   6.556   5.209   0.128
  580SOL    HW1 2639   6.638   5.265   0.145
  580SOL    HW2 2640   6.550   5.138   0.198
  581SOL     OW 2641   2.819   3.344   1.958
  581SOL    HW1 2642   2.778   3.283   1.890
  581SOL    HW2 2643   2.812   3.439   1.925
  582SOL     OW 2644   4.569   0.004   2.297
  582SOL    HW1 2645   4.571   0.064   2.217
  582SOL    HW2 2646   4.662   7.012   2.329
  583SOL     OW 2647   2.974   4.973   5.899
  583SOL    HW1 2648   2.967   5.054   5.957
  583SOL    HW2 2649   2.882   4.945   5.870
  584SOL     OW 2650   3.051   4.093   6.058
  584SOL    HW1 2651   3.061   4.050   5.969
  584SOL    HW2 2652   3.140   4.095   6.105
  585SOL     OW 2653   5.511   2.983   6.261
  585SOL    HW1 2654   5.481   3.065   6.211
  585SOL    HW2 2655   5.451   2.968   6.339
  586SOL     OW 2656   3.762   1.766   5.645
  586SOL    HW1 2657   3.722   1.689   5.595
  586SOL    HW2 2658   3.695   1.839   5.654
  587SOL     OW 2659   4.076   1.272   5.811
  587SOL    HW1 2660   4.100   1.260   5.907
  587SOL    HW2 2661   3.988   1.320   5.804
  588SOL     OW 2662   2.112   4.929   1.751
  588SOL    HW1 2663   2.106   4.957   1.655
  588SOL    HW2 2664   2.101   5.009   1.810
  589SOL     OW 2665   3.009   4.863   1.382
  589SOL    HW1 2666   2.995   4.939   1.447
  589SOL    HW2 2667   3.037   4.900   1.294
  590SOL     OW 2668   4.931   3.546   3.261
  590SOL    HW1 2669   4.892   3.505   3.178
  590SOL    HW2 2670   5.026   3.570   3.245
  591SOL     OW 2671   4.240   5.463   4.086
  591SOL    HW1 2672   4.183   5.531   4.131
  591SOL    HW2 2673   4.191   5.426   4.007
  592SOL     OW 2674   3.449   0.867   1.536
  592SOL    HW1 2675   3.398   0.908   1.612
  592SOL    HW2 2676   3.496   0.938   1.484
  593SOL     OW 2677   4.982   2.457   3.238
  593SOL    HW1 2678   4.909   2.511   3.280
  593SOL    HW2 2679   5.050   2.517   3.197
  594SOL     OW 2680   6.077   2.280   6.678
  594SOL    HW1 2681   6.084   2.336   6.760
  594SOL    HW2 2682   6.004   2.213   6.689
  595SOL     OW 2683   6.035   6.687   3.511
  595SOL    HW1 2684   5.974   6.682   3.590
  595SOL    HW2 2685   5.981   6.693   3.427
  596SOL     OW 2686   1.939   4.630   2.968
  596SOL    HW1 2687   1.999   4.553   2.948
  596SOL    HW2 2688   1.891   4.615   3.054
  597SOL     OW 2689   3.716   6.853   0.129
  597SOL    HW1 2690   3.677   6.821   0.043
  597SOL    HW2 2691   3.810   6.883   0.114
  598SOL     OW 2692   3.630   4.678   5.603
  598SOL    HW1 2693   3.669   4.690   5.511
  598SOL    HW2 2694   3.534   4.705   5.601
  599SOL     OW 2695   2.560   6.460   2.119
  599SOL    HW1 2696   2.614   6.481   2.200
  599SOL    HW2 2697   2.564   6.362   2.101
  600SOL     OW 2698   0.726   1.254   0.205
  600SOL    HW1 2699   0.670   1.206   0.138
  600SOL    HW2 2700   0.668   1.290   0.278
  601SOL     OW 2701   3.130   0.157   4.381
  601SOL    HW1 2702   3.065   0.182   4.309
  601SOL    HW2 2703   3.193   0.089   4.345
  602SOL     OW 2704   2.538   2.487   6.125
  602SOL    HW1 2705   2.530   2.525   6.033
  602SOL    HW2 2706   2.528   2.561   6.192
  603SOL     OW 2707   3.541   2.145   3.713
  603SOL    HW1 2708   3.484   2.108   3.787
  603SOL    HW2 2709   3.494   2.133   3.626
  604SOL     OW 2710   0.847   3.628   1.354
  604SOL    HW1 2711   0.762   3.678   1.336
  604SOL    HW2 2712   0.863   3.623   1.452
  605SOL     OW 2713   0.063   6.515   2.326
  605SOL    HW1 2714   0.017   6.427   2.331
  605SOL    HW2 2715   0.030   6.566   2.246
  606SOL     OW 2716   5.208   0.509   6.309
  606SOL    HW1 2717   5.204   0.439   6.381
  606SOL    HW2 2718   5.265   0.585   6.340
  607SOL     OW 2719   6.544   0.149   5.872
  607SOL    HW1 2720   6.456   0.177   5.832
  607SOL    HW2 2721   6.548   0.050   5.878
  608SOL     OW 2722   2.727   6.033   6.350
  608SOL    HW1 2723   2.724   6.090   6.267
  608SOL    HW2 2724   2.648   6.054   6.407
  609SOL     OW 2725   4.106   3.382   3.280
  609SOL    HW1 2726   4.084   3.478   3.265
  609SOL    HW2 2727   4.071   3.354   3.370
  610SOL     OW 2728   4.888   3.217   2.018
  610SOL    HW1 2729   4.910   3.264   1.933
  610SOL    HW2 2730   4.818   3.148   2.000
  611SOL     OW 2731   3.625   0.060   0.290
  611SOL    HW1 2732   3.623   7.008   0.225
  611SOL    HW2 2733   3.716   0.066   0.331
  612SOL     OW 2734   3.695   6.450   5.421
  612SOL    HW1 2735   3.689   6.532   5.364
  612SOL    HW2 2736   3.791   6.429   5.440
  613SOL     OW 2737   4.411   6.816   5.945
  613SOL    HW1 2738   4.355   6.819   6.028
  613SOL    HW2 2739   4.507   6.821   5.970
  614SOL     OW 2740   4.490   4.330   1.029
  614SOL    HW1 2741   4.495   4.424   1.063
  614SOL    HW2 2742   4.395   4.299   1.034
  615SOL     OW 2743   0.186   2.579   1.997
  615SOL    HW1 2744   0.100   2.585   1.946
  615SOL    HW2 2745   0.244   2.658   1.973
  616SOL     OW 2746   0.601   2.192   3.648
  616SOL    HW1 2747   0.601   2.130   3.569
  616SOL    HW2 2748   0.692   2.194   3.688
  617SOL     OW 2749   6.355   3.595   6.189
  617SOL    HW1 2750   6.270   3.558   6.151
  617SOL    HW2 2751   6.336   3.634   6.279
  618SOL     OW 2752   6.674   2.274   6.668
  618SOL    HW1 2753   6.648   2.319   6.582
  618SOL    HW2 2754   6.720   2.339   6.728
  619SOL     OW 2755   4.769   0.609   6.583
  619SOL    HW1 2756   4.826   0.553   6.644
  619SOL    HW2 2757   4.823   0.685   6.547
  620SOL     OW 2758   4.522   2.629   1.412
  620SOL    HW1 2759   4.448   2.564   1.396
  620SOL    HW2 2760   4.607   2.592   1.375
  621SOL     OW 2761   2.331   6.251   6.393
  621SOL    HW1 2762   2.375   6.327   6.344
  621SOL    HW2 2763   2.233   6.270   6.403
  622SOL     OW 2764   1.430   1.214   4.425
  622SOL    HW1 2765   1.451   1.253   4.515
  622SOL    HW2 2766   1.361   1.270   4.380
  623SOL     OW 2767   1.273   6.180   6.218
  623SOL    HW1 2768   1.270   6.268   6.264
  623SOL    HW2 2769   1.216   6.182   6.136
  624SOL     OW 2770   0.448   1.689   1.724
  624SOL    HW1 2771   0.519   1.758   1.713
  624SOL    HW2 2772   0.378   1.723   1.787
  625SOL     OW 2773   1.403   1.726   1.924
  625SOL    HW1 2774   1.372   1.643   1.970
  625SOL    HW2 2775   1.386   1.718   1.826
  626SOL     OW 2776   0.958   6.128   3.251
  626SOL    HW1 2777   1.013   6.110   3.170
  626SOL    HW2 2778   0.952   6.044   3.306
  627SOL     OW 2779   6.534   6.548   0.540
  627SOL    HW1 2780   6.489   6.601   0.468
  627SOL    HW2 2781   6.471   6.477   0.573
  628SOL     OW 2782   5.423   5.721   5.932
  628SOL    HW1 2783   5.379   5.631   5.927
  628SOL    HW2 2784   5.360   5.786   5.973
  629SOL     OW 2785   0.594   0.403   6.942
  629SOL    HW1 2786   0.575   0.309   6.915
  629SOL    HW2 2787   0.509   0.447   6.971
  630SOL     OW 2788   0.209   1.621   0.921
  630SOL    HW1 2789   0.157   1.690   0.870
  630SOL    HW2 2790   0.235   1.658   1.010
  631SOL     OW 2791   3.978   1.517   5.523
  631SOL    HW1 2792   3.910   1.491   5.455
  631SOL    HW2 2793   3.936   1.517   5.614
  632SOL     OW 2794   3.998   1.473   1.634
  632SOL    HW1 2795   3.983   1.570   1.652
  632SOL    HW2 2796   4.077   1.441   1.687
  633SOL     OW 2797   3.219   3.224   6.752
  633SOL    HW1 2798   3.251   3.193   6.663
  633SOL    HW2 2799   3.281   3.294   6.788
  634SOL     OW 2800   4.074   3.737   2.335
  634SOL    HW1 2801   4.120   3.648   2.341
  634SOL    HW2 2802   4.104   3.784   2.251
  635SOL     OW 2803   4.652   5.346   0.735
  635SOL    HW1 2804   4.686   5.438   0.755
  635SOL    HW2 2805   4.552   5.347   0.741
  636SOL     OW 2806   3.245   6.352   0.370
  636SOL    HW1 2807   3.305   6.386   0.297
  636SOL    HW2 2808   3.245   6.252   0.370
  637SOL     OW 2809   0.042   3.114   3.084
  637SOL    HW1 2810   7.018   3.196   3.114
  637SOL    HW2 2811   0.126   3.104   3.137
  638SOL     OW 2812   5.536   2.462   3.092
  638SOL    HW1 2813   5.522   2.424   3.184
  638SOL    HW2 2814   5.618   2.422   3.052
  639SOL     OW 2815   4.887   3.420   3.009
  639SOL    HW1 2816   4.851   3.340   2.961
  639SOL    HW2 2817   4.905   3.493   2.943
  640SOL     OW 2818   0.395   5.102   4.108
  640SOL    HW1 2819   0.343   5.155   4.041
  640SOL    HW2 2820   0.391   5.005   4.084
  641SOL     OW 2821   0.484   4.235   5.374
  641SOL    HW1 2822   0.549   4.249   5.449
  641SOL    HW2 2823   0.471   4.321   5.325
  642SOL     OW 2824   0.102   3.326   3.826
  642SOL    HW1 2825   0.106   3.303   3.923
  642SOL    HW2 2826   0.133   3.420   3.813
  643SOL     OW 2827   6.189   6.507   6.138
  643SOL    HW1 2828   6.284   6.498   6.109
  643SOL    HW2 2829   6.132   6.443   6.087
  644SOL     OW 2830   1.745   6.804   4.480
  644SOL    HW1 2831   1.739   6.820   4.381
  644SOL    HW2 2832   1.653   6.801   4.519
  645SOL     OW 2833   4.509   0.011   5.186
  645SOL    HW1 2834   4.609   0.005   5.187
  645SOL    HW2 2835   4.480   0.100   5.220
  646SOL     OW 2836   3.286   0.973   4.539
  646SOL    HW1 2837   3.292   0.994   4.637
  646SOL    HW2 2838   3.354   1.027   4.489
  647SOL     OW 2839   5.446   1.998   5.313
  647SOL    HW1 2840   5.393   1.994   5.398
  647SOL    HW2 2841   5.388   1.971   5.236
  648SOL     OW 2842   0.494   3.558   3.636
  648SOL    HW1 2843   0.401   3.594   3.633
  648SOL    HW2 2844   0.556   3.619   3.586
  649SOL     OW 2845   2.549   4.436   0.996
  649SOL    HW1 2846   2.589   4.525   1.017
  649SOL    HW2 2847   2.450   4.440   1.011
  650SOL     OW 2848   5.736   4.395   0.028
  650SOL    HW1 2849   5.678   4.351   0.097
  650SOL    HW2 2850   5.824   4.419   0.069
  651SOL     OW 2851   0.819   6.533   6.123
  651SOL    HW1 2852   0.842   6.560   6.029
  651SOL    HW2 2853   0.900   6.492   6.166
  652SOL     OW 2854   5.298   0.092   3.857
  652SOL    HW1 2855   5.373   0.063   3.798
  652SOL    HW2 2856   5.307   0.046   3.946
  653SOL     OW 2857   1.256   5.772   6.788
  653SOL    HW1 2858   1.324   5.826   6.739
  653SOL    HW2 2859   1.183   5.833   6.822
  654SOL     OW 2860   0.567   5.559   6.997
  654SOL    HW1 2861   0.591   5.528   0.065
  654SOL    HW2 2862   0.641   5.617   6.961
  655SOL     OW 2863   0.131   5.926   1.494
  655SOL    HW1 2864   0.112   6.007   1.438
  655SOL    HW2 2865   0.044   5.888   1.527
  656SOL     OW 2866   1.912   6.180   0.946
  656SOL    HW1 2867   1.883   6.244   1.017
  656SOL    HW2 2868   2.000   6.140   0.971
  657SOL     OW 2869   2.464   3.872   1.616
  657SOL    HW1 2870   2.425   3.933   1.547
  657SOL    HW2 2871   2.393   3.814   1.654
  658SOL     OW 2872   2.180   3.766   6.723
  658SOL    HW1 2873   2.107   3.699   6.736
  658SOL    HW2 2874   2.254   3.725   6.671
  659SOL     OW 2875   1.585   6.093   5.381
  659SOL    HW1 2876   1.569   6.079   5.283
  659SOL    HW2 2877   1.525   6.166   5.414
  660SOL     OW 2878   5.910   3.747   2.436
  660SOL    HW1 2879   5.863   3.825   2.477
  660SOL    HW2 2880   5.855   3.664   2.448
  661SOL     OW 2881   4.766   4.171   3.316
  661SOL    HW1 2882   4.691   4.235   3.298
  661SOL    HW2 2883   4.738   4.107   3.388
  662SOL     OW 2884   4.245   0.158   4.878
  662SOL    HW1 2885   4.313   0.097   4.919
  662SOL    HW2 2886   4.260   0.162   4.779
  663SOL     OW 2887   1.129   3.572   6.536
  663SOL    HW1 2888   1.100   3.492   6.483
  663SOL    HW2 2889   1.224   3.594   6.514
  664SOL     OW 2890   0.147   5.129   6.470
  664SOL    HW1 2891   0.208   5.192   6.422
  664SOL    HW2 2892   0.062   5.175   6.493
  665SOL     OW 2893   4.394   4.719   0.931
  665SOL    HW1 2894   4.361   4.793   0.873
  665SOL    HW2 2895   4.320   4.653   0.946
  666SOL     OW 2896   5.255   1.846   3.023
  666SOL    HW1 2897   5.156   1.832   3.023
  666SOL    HW2 2898   5.275   1.944   3.035
  667SOL     OW 2899   6.044   3.721   3.304
  667SOL    HW1 2900   6.044   3.808   3.255
  667SOL    HW2 2901   6.019   3.647   3.240
  668SOL     OW 2902   4.810   5.945   6.875
  668SOL    HW1 2903   4.761   5.923   6.959
  668SOL    HW2 2904   4.748   5.988   6.810
  669SOL     OW 2905   3.993   6.085   3.374
  669SOL    HW1 2906   3.908   6.035   3.364
  669SOL    HW2 2907   4.008   6.106   3.471
  670SOL     OW 2908   2.558   2.820   1.305
  670SOL    HW1 2909   2.621   2.863   1.370
  670SOL    HW2 2910   2.527   2.732   1.342
  671SOL     OW 2911   2.764   5.686   0.221
  671SOL    HW1 2912   2.808   5.757   0.167
  671SOL    HW2 2913   2.714   5.623   0.161
  672SOL     OW 2914   0.544   4.463   1.633
  672SOL    HW1 2915   0.502   4.469   1.724
  672SOL    HW2 2916   0.547   4.553   1.591
  673SOL     OW 2917   6.710   0.670   1.216
  673SOL    HW1 2918   6.666   0.746   1.168
  673SOL    HW2 2919   6.804   0.659   1.182
  674SOL     OW 2920   0.010   3.077   4.222
  674SOL    HW1 2921   6.966   3.107   4.155
  674SOL    HW2 2922   7.015   3.119   4.311
  675SOL     OW 2923   0.818   1.007   4.384
  675SOL    HW1 2924   0.882   1.060   4.329
  675SOL    HW2 2925   0.749   1.068   4.424
  676SOL     OW 2926   3.868   5.928   2.975
  676SOL    HW1 2927   3.898   5.985   2.899
  676SOL    HW2 2928   3.944   5.915   3.039
  677SOL     OW 2929   6.180   1.391   6.984
  677SOL    HW1 2930   6.127   1.466   6.944
  677SOL    HW2 2931   6.223   1.423   0.044
  678SOL     OW 2932   1.445   1.350   4.663
  678SOL    HW1 2933   1.453   1.369   4.761
  678SOL    HW2 2934   1.485   1.426   4.612
  679SOL     OW 2935   4.675   1.681   4.432
  679SOL    HW1 2936   4.757   1.738   4.440
  679SOL    HW2 2937   4.692   1.607   4.367
  680SOL     OW 2938   6.081   5.578   5.905
  680SOL    HW1 2939   6.025   5.506   5.946
  680SOL    HW2 2940   6.090   5.654   5.969
  681SOL     OW 2941   5.415   5.962   1.330
  681SOL    HW1 2942   5.505   6.001   1.349
  681SOL    HW2 2943   5.415   5.865   1.356
  682SOL     OW 2944   1.628   0.328   0.438
  682SOL    HW1 2945   1.573   0.364   0.513
  682SOL    HW2 2946   1.725   0.342   0.458
  683SOL     OW 2947   3.775   2.583   6.742
  683SOL    HW1 2948   3.800   2.668   6.789
  683SOL    HW2 2949   3.791   2.506   6.804
  684SOL     OW 2950   6.399   0.843   0.161
  684SOL    HW1 2951   6.391   0.932   0.115
  684SOL    HW2 2952   6.438   0.856   0.252
  685SOL     OW 2953   4.509   1.391   4.316
  685SOL    HW1 2954   4.581   1.448   4.278
  685SOL    HW2 2955   4.534   1.295   4.305
  686SOL     OW 2956   5.639   2.419   3.717
  686SOL    HW1 2957   5.568   2.350   3.726
  686SOL    HW2 2958   5.629   2.467   3.629
  687SOL     OW 2959   0.085   2.706   4.782
  687SOL    HW1 2960   0.138   2.731   4.862
  687SOL    HW2 2961   0.139   2.645   4.723
  688SOL     OW 2962   1.615   2.737   6.892
  688SOL    HW1 2963   1.536   2.686   6.925
  688SOL    HW2 2964   1.605   2.753   6.793
  689SOL     OW 2965   0.082   4.371   6.006
  689SOL    HW1 2966   0.076   4.350   5.908
  689SOL    HW2 2967   0.062   4.288   6.058
  690SOL     OW 2968   0.543   4.074   3.399
  690SOL    HW1 2969   0.501   4.007   3.338
  690SOL    HW2 2970   0.556   4.160   3.351
  691SOL     OW 2971   2.438   0.262   6.533
  691SOL    HW1 2972   2.502   0.191   6.563
  691SOL    HW2 2973   2.465   0.350   6.572
  692SOL     OW 2974   4.352   5.729   3.921
  692SOL    HW1 2975   4.308   5.739   4.010
  692SOL    HW2 2976   4.329   5.807   3.863
  693SOL     OW 2977   6.589   0.590   3.502
  693SOL    HW1 2978   6.560   0.498   3.477
  693SOL    HW2 2979   6.556   0.655   3.433
  694SOL     OW 2980   3.900   6.434   2.526
  694SOL    HW1 2981   3.944   6.519   2.497
  694SOL    HW2 2982   3.936   6.405   2.614
  695SOL     OW 2983   4.238   5.685   5.060
  695SOL    HW1 2984   4.178   5.712   5.135
  695SOL    HW2 2985   4.221   5.745   4.981
  696SOL     OW 2986   3.586   5.546   2.597
  696SOL    HW1 2987   3.487   5.560   2.588
  696SOL    HW2 2988   3.619   5.492   2.519
  697SOL     OW 2989   2.129   2.786   4.020
  697SOL    HW1 2990   2.201   2.730   3.981
  697SOL    HW2 2991   2.077   2.733   4.086
  698SOL     OW 2992   5.608   0.428   0.007
  698SOL    HW1 2993   5.595   0.339   0.051
  698SOL    HW2 2994   5.658   0.488   0.070
  699SOL     OW 2995   1.638   3.853   6.221
  699SOL    HW1 2996   1.664   3.950   6.215
  699SOL    HW2 2997   1.585   3.838   6.304
  700SOL     OW 2998   2.731   1.224   3.506
  700SOL    HW1 2999   2.825   1.206   3.477
  700SOL    HW2 3000   2.723   1.205   3.604
  701SOL     OW 3001   5.965   3.328   5.320
  701SOL    HW1 3002   6.003   3.237   5.335
  701SOL    HW2 3003   6.009   3.371   5.242
  702SOL     OW 3004   0.453   6.623   5.910
  702SOL    HW1 3005   0.394   6.701   5.929
  702SOL    HW2 3006   0.399   6.551   5.866
  703SOL     OW 3007   3.402   4.197   6.406
  703SOL    HW1 3008   3.497   4.172   6.425
  703SOL    HW2 3009   3.348   4.186   6.489
  704SOL     OW 3010   1.234   1.339   6.839
  704SOL    HW1 3011   1.159   1.279   6.866
  704SOL    HW2 3012   1.226   1.361   6.742
  705SOL     OW 3013   6.085   6.166   2.980
  705SOL    HW1 3014   6.019   6.240   2.969
  705SOL    HW2 3015   6.164   6.183   2.921
  706SOL     OW 3016   4.393   2.488   4.071
  706SOL    HW1 3017   4.424   2.504   4.165
  706SOL    HW2 3018   4.435   2.406   4.034
  707SOL     OW 3019   4.579   6.748   2.252
  707SOL    HW1 3020   4.678   6.747   2.235
  707SOL    HW2 3021   4.548   6.842   2.261
  708SOL     OW 3022   3.999   1.006   1.152
  708SOL    HW1 3023   3.967   0.930   1.096
  708SOL    HW2 3024   4.074   0.976   1.210
  709SOL     OW 3025   0.809   5.340   0.503
  709SOL    HW1 3026   0.873   5.263   0.502
  709SOL    HW2 3027   0.716   5.306   0.492
  710SOL     OW 3028   3.435   2.858   2.626
  710SOL    HW1 3029   3.393   2.883   2.714
  710SOL    HW2 3030   3.478   2.769   2.634
  711SOL     OW 3031   0.230   2.322   5.953
  711SOL    HW1 3032   0.151   2.277   5.912
  711SOL    HW2 3033   0.206   2.416   5.977
  712SOL     OW 3034   3.781   3.417   1.065
  712SOL    HW1 3035   3.746   3.458   0.981
  712SOL    HW2 3036   3.764   3.318   1.064
  713SOL     OW 3037   3.919   3.168   6.394
  713SOL    HW1 3038   3.839   3.208   6.350
  713SOL    HW2 3039   3.941   3.081   6.349
  714SOL     OW 3040   6.666   4.245   4.152
  714SOL    HW1 3041   6.651   4.250   4.053
  714SOL    HW2 3042   6.597   4.299   4.199
  715SOL     OW 3043   5.856   5.470   7.021
  715SOL    HW1 3044   5.846   5.386   6.968
  715SOL    HW2 3045   5.883   5.545   6.961
  716SOL     OW 3046   0.926   0.114   0.987
  716SOL    HW1 3047   0.995   0.134   1.055
  716SOL    HW2 3048   0.896   0.019   0.996
  717SOL     OW 3049   6.166   4.620   6.024
  717SOL    HW1 3050   6.259   4.650   6.044
  717SOL    HW2 3051   6.159   4.521   6.038
  718SOL     OW 3052   5.048   2.591   6.375
  718SOL    HW1 3053   4.963   2.583   6.325
  718SOL    HW2 3054   5.060   2.510   6.433
  719SOL     OW 3055   6.176   0.714   1.794
  719SOL    HW1 3056   6.157   0.631   1.741
  719SOL    HW2 3057   6.264   0.704   1.841
  720SOL     OW 3058   3.491   0.800   6.740
  720SOL    HW1 3059   3.564   0.801   6.808
  720SOL    HW2 3060   3.404   0.779   6.785
  721SOL     OW 3061   2.518   1.205   3.913
  721SOL    HW1 3062   2.584   1.194   3.839
  721SOL    HW2 3063   2.520   1.299   3.945
  722SOL     OW 3064   2.925   0.197   4.574
  722SOL    HW1 3065   2.930   0.144   4.659
  722SOL    HW2 3066   3.014   0.198   4.530
  723SOL     OW 3067   2.013   3.868   3.080
  723SOL    HW1 3068   2.031   3.783   3.130
  723SOL    HW2 3069   1.936   3.916   3.123
  724SOL     OW 3070   1.260   2.865   4.426
  724SOL    HW1 3071   1.340   2.924   4.439
  724SOL    HW2 3072   1.277   2.777   4.470
  725SOL     OW 3073   3.812   5.881   0.858
  725SOL    HW1 3074   3.803   5.892   0.759
  725SOL    HW2 3075   3.897   5.923   0.888
  726SOL     OW 3076   4.347   4.903   0.721
  726SOL    HW1 3077   4.305   4.896   0.631
  726SOL    HW2 3078   4.352   4.999   0.749
  727SOL     OW 3079   5.844   5.217   6.339
  727SOL    HW1 3080   5.841   5.282   6.264
  727SOL    HW2 3081   5.764   5.229   6.398
  728SOL     OW 3082   6.230   3.647   4.998
  728SOL    HW1 3083   6.237   3.550   5.023
  728SOL    HW2 3084   6.318   3.691   5.011
  729SOL     OW 3085   1.165   2.212   0.553
  729SOL    HW1 3086   1.141   2.277   0.625
  729SOL    HW2 3087   1.227   2.143   0.591
  730SOL     OW 3088   5.622   1.268   2.942
  730SOL    HW1 3089   5.564   1.322   3.003
  730SOL    HW2 3090   5.718   1.284   2.965
  731SOL     OW 3091   5.390   4.559   5.823
  731SOL    HW1 3092   5.418   4.553   5.919
  731SOL    HW2 3093   5.398   4.469   5.780
  732SOL     OW 3094   0.292   2.379   1.731
  732SOL    HW1 3095   0.384   2.387   1.768
  732SOL    HW2 3096   0.278   2.449   1.660
  733SOL     OW 3097   6.068   6.406   5.753
  733SOL    HW1 3098   5.976   6.436   5.777
  733SOL    HW2 3099   6.063   6.326   5.694
  734SOL     OW 3100   6.976   4.637   2.634
  734SOL    HW1 3101   0.031   4.686   2.668
  734SOL    HW2 3102   6.912   4.619   2.709
  735SOL     OW 3103   3.639   2.246   0.592
  735SOL    HW1 3104   3.601   2.153   0.593
  735SOL    HW2 3105   3.731   2.243   0.552
  736SOL     OW 3106   1.021   0.513   2.987
  736SOL    HW1 3107   1.012   0.473   3.078
  736SOL    HW2 3108   1.116   0.542   2.973
  737SOL     OW 3109   4.759   2.324   5.810
  737SOL    HW1 3110   4.825   2.333   5.735
  737SOL    HW2 3111   4.735   2.415   5.844
  738SOL     OW 3112   1.959   4.564   2.369
  738SOL    HW1 3113   1.895   4.632   2.405
  738SOL    HW2 3114   2.053   4.596   2.382
  739SOL     OW 3115   4.343   0.275   4.188
  739SOL    HW1 3116   4.436   0.247   4.214
  739SOL    HW2 3117   4.282   0.262   4.266
  740SOL     OW 3118   5.051   0.188   0.960
  740SOL    HW1 3119   5.071   0.259   0.892
  740SOL    HW2 3120   4.964   0.209   1.005
  741SOL     OW 3121   2.225   6.607   2.991
  741SOL    HW1 3122   2.258   6.644   3.078
  741SOL    HW2 3123   2.262   6.661   2.915
  742SOL     OW 3124   2.581   6.571   1.874
  742SOL    HW1 3125   2.510   6.641   1.861
  742SOL    HW2 3126   2.567   6.526   1.962
  743SOL     OW 3127   0.018   3.898   4.163
  743SOL    HW1 3128   7.024   3.879   4.260
  743SOL    HW2 3129   0.097   3.845   4.133
  744SOL     OW 3130   5.696   0.607   6.828
  744SOL    HW1 3131   5.718   0.557   6.744
  744SOL    HW2 3132   5.655   0.544   6.894
  745SOL     OW 3133   0.737   5.898   4.981
  745SOL    HW1 3134   0.691   5.831   4.923
  745SOL    HW2 3135   0.687   5.985   4.978
  746SOL     OW 3136   0.030   4.891   5.919
  746SOL    HW1 3137   0.113   4.839   5.898
  746SOL    HW2 3138   0.051   4.958   5.991
  747SOL     OW 3139   3.967   6.427   4.310
  747SOL    HW1 3140   3.964   6.422   4.409
  747SOL    HW2 3141   4.004   6.342   4.273
  748SOL     OW 3142   3.866   4.819   2.379
  748SOL    HW1 3143   3.784   4.868   2.349
  748SOL    HW2 3144   3.859   4.801   2.477
  749SOL     OW 3145   6.393   4.421   5.315
  749SOL    HW1 3146   6.347   4.355   5.374
  749SOL    HW2 3147   6.462   4.373   5.260
  750SOL     OW 3148   1.634   2.335   0.720
  750SOL    HW1 3149   1.561   2.384   0.767
  750SOL    HW2 3150   1.697   2.401   0.679
  751SOL     OW 3151   3.627   2.497   6.365
  751SOL    HW1 3152   3.701   2.544   6.414
  751SOL    HW2 3153   3.637   2.398   6.378
  752SOL     OW 3154   3.568   1.419   2.324
  752SOL    HW1 3155   3.501   1.357   2.283
  752SOL    HW2 3156   3.617   1.372   2.397
  753SOL     OW 3157   1.939   3.582   5.084
  753SOL    HW1 3158   1.849   3.559   5.121
  753SOL    HW2 3159   1.941   3.678   5.057
  754SOL     OW 3160   5.408   2.767   5.682
  754SOL    HW1 3161   5.455   2.682   5.657
  754SOL    HW2 3162   5.394   2.823   5.601
  755SOL     OW 3163   1.231   4.318   5.194
  755SOL    HW1 3164   1.220   4.219   5.197
  755SOL    HW2 3165   1.315   4.344   5.243
  756SOL     OW 3166   3.797   0.215   0.605
  756SOL    HW1 3167   3.752   0.139   0.652
  756SOL    HW2 3168   3.760   0.302   0.637
  757SOL     OW 3169   0.914   0.249   4.038
  757SOL    HW1 3170   0.865   0.254   4.125
  757SOL    HW2 3171   0.984   0.178   4.044
  758SOL     OW 3172   4.082   6.997   1.780
  758SOL    HW1 3173   4.100   6.949   1.865
  758SOL    HW2 3174   4.043   0.063   1.801
  759SOL     OW 3175   0.653   1.319   1.173
  759SOL    HW1 3176   0.590   1.389   1.205
  759SOL    HW2 3177   0.655   1.244   1.239
  760SOL     OW 3178   5.409   0.209   5.530
  760SOL    HW1 3179   5.435   0.240   5.622
  760SOL    HW2 3180   5.353   0.278   5.486
  761SOL     OW 3181   5.732   2.948   5.649
  761SOL    HW1 3182   5.643   2.910   5.673
  761SOL    HW2 3183   5.787   2.878   5.604
  762SOL     OW 3184   2.328   0.816   4.882
  762SOL    HW1 3185   2.411   0.817   4.826
  762SOL    HW2 3186   2.330   0.893   4.946
  763SOL     OW 3187   3.898   5.477   6.014
  763SOL    HW1 3188   3.868   5.453   5.922
  763SOL    HW2 3189   3.997   5.466   6.021
  764SOL     OW 3190   5.387   1.813   5.112
  764SOL    HW1 3191   5.461   1.762   5.155
  764SOL    HW2 3192   5.314   1.750   5.086
  765SOL     OW 3193   1.355   6.462   1.346
  765SOL    HW1 3194   1.447   6.447   1.311
  765SOL    HW2 3195   1.289   6.412   1.289
  766SOL     OW 3196   2.460   3.267   6.711
  766SOL    HW1 3197   2.374   3.266   6.661
  766SOL    HW2 3198   2.452   3.331   6.788
  767SOL     OW 3199   6.384   5.549   1.873
  767SOL    HW1 3200   6.450   5.621   1.894
  767SOL    HW2 3201   6.432   5.463   1.857
  768SOL     OW 3202   2.217   6.426   1.965
  768SOL    HW1 3203   2.123   6.427   1.930
  768SOL    HW2 3204   2.281   6.437   1.890
  769SOL     OW 3205   3.243   0.549   4.979
  769SOL    HW1 3206   3.185   0.599   4.914
  769SOL    HW2 3207   3.335   0.589   4.979
  770SOL     OW 3208   2.285   4.180   3.045
  770SOL    HW1 3209   2.350   4.255   3.042
  770SOL    HW2 3210   2.192   4.216   3.054
  771SOL     OW 3211   2.576   5.480   2.548
  771SOL    HW1 3212   2.552   5.460   2.642
  771SOL    HW2 3213   2.609   5.575   2.541
  772SOL     OW 3214   5.635   4.675   0.806
  772SOL    HW1 3215   5.617   4.580   0.834
  772SOL    HW2 3216   5.712   4.711   0.859
  773SOL     OW 3217   0.296   3.561   4.895
  773SOL    HW1 3218   0.246   3.506   4.962
  773SOL    HW2 3219   0.351   3.501   4.837
  774SOL     OW 3220   1.031   1.508   1.061
  774SOL    HW1 3221   0.974   1.560   1.125
  774SOL    HW2 3222   1.009   1.536   0.967
  775SOL     OW 3223   0.735   2.329   2.703
  775SOL    HW1 3224   0.688   2.413   2.729
  775SOL    HW2 3225   0.834   2.342   2.714
  776SOL     OW 3226   1.180   0.336   6.098
  776SOL    HW1 3227   1.265   0.387   6.107
  776SOL    HW2 3228   1.109   0.396   6.060
  777SOL     OW 3229   2.399   5.074   1.579
  777SOL    HW1 3230   2.377   4.979   1.556
  777SOL    HW2 3231   2.324   5.115   1.630
  778SOL     OW 3232   3.091   1.140   2.480
  778SOL    HW1 3233   3.179   1.094   2.472
  778SOL    HW2 3234   3.043   1.138   2.393
  779SOL     OW 3235   0.278   2.656   2.510
  779SOL    HW1 3236   0.235   2.693   2.428
  779SOL    HW2 3237   0.364   2.704   2.528
  780SOL     OW 3238   6.265   3.864   3.717
  780SOL    HW1 3239   6.265   3.939   3.783
  780SOL    HW2 3240   6.339   3.877   3.651
  781SOL     OW 3241   5.288   0.980   0.126
  781SOL    HW1 3242   5.260   0.884   0.130
  781SOL    HW2 3243   5.388   0.986   0.126
  782SOL     OW 3244   1.541   4.054   6.682
  782SOL    HW1 3245   1.607   4.110   6.632
  782SOL    HW2 3246   1.472   4.112   6.723
  783SOL     OW 3247   4.061   5.378   0.751
  783SOL    HW1 3248   4.070   5.385   0.850
  783SOL    HW2 3249   4.021   5.462   0.715
  784SOL     OW 3250   5.614   6.303   0.730
  784SOL    HW1 3251   5.594   6.340   0.639
  784SOL    HW2 3252   5.557   6.223   0.747
  785SOL     OW 3253   0.562   2.507   2.808
  785SOL    HW1 3254   0.564   2.604   2.781
  785SOL    HW2 3255   0.487   2.492   2.872
  786SOL     OW 3256   1.268   0.646   1.455
  786SOL    HW1 3257   1.292   0.558   1.496
  786SOL    HW2 3258   1.351   0.691   1.423
  787SOL     OW 3259   3.218   0.291   6.670
  787SOL    HW1 3260   3.173   0.274   6.582
  787SOL    HW2 3261   3.222   0.389   6.687
  788SOL     OW 3262   4.085   3.011   5.730
  788SOL    HW1 3263   4.065   3.109   5.729
  788SOL    HW2 3264   4.001   2.959   5.714
  789SOL     OW 3265   5.150   4.090   0.900
  789SOL    HW1 3266   5.085   4.055   0.833
  789SOL    HW2 3267   5.229   4.029   0.906
  790SOL     OW 3268   1.794   1.416   4.000
  790SOL    HW1 3269   1.807   1.447   3.906
  790SOL    HW2 3270   1.697   1.417   4.023
  791SOL     OW 3271   3.373   5.508   3.821
  791SOL    HW1 3272   3.366   5.487   3.724
  791SOL    HW2 3273   3.423   5.595   3.833
  792SOL     OW 3274   0.504   6.589   1.255
  792SOL    HW1 3275   0.480   6.664   1.193
  792SOL    HW2 3276   0.563   6.524   1.207
  793SOL     OW 3277   4.686   5.019   3.623
  793SOL    HW1 3278   4.677   4.981   3.531
  793SOL    HW2 3279   4.750   5.096   3.621
  794SOL     OW 3280   3.377   3.703   5.535
  794SOL    HW1 3281   3.351   3.799   5.541
  794SOL    HW2 3282   3.456   3.685   5.594
  795SOL     OW 3283   3.520   6.901   4.082
  795SOL    HW1 3284   3.578   6.914   4.162
  795SOL    HW2 3285   3.575   6.908   3.999
  796SOL     OW 3286   0.507   1.840   6.542
  796SOL    HW1 3287   0.410   1.851   6.563
  796SOL    HW2 3288   0.548   1.776   6.607
  797SOL     OW 3289   5.383   3.206   0.765
  797SOL    HW1 3290   5.363   3.218   0.863
  797SOL    HW2 3291   5.419   3.114   0.751
  798SOL     OW 3292   4.270   0.235   2.006
  798SOL    HW1 3293   4.203   0.219   2.078
  798SOL    HW2 3294   4.333   0.308   2.033
  799SOL     OW 3295   6.366   0.483   5.965
  799SOL    HW1 3296   6.307   0.416   5.920
  799SOL    HW2 3297   6.455   0.486   5.919
  800SOL     OW 3298   5.291   2.549   2.449
  800SOL    HW1 3299   5.287   2.608   2.368
  800SOL    HW2 3300   5.339   2.464   2.425
  801SOL     OW 3301   1.253   3.770   4.143
  801SOL    HW1 3302   1.304   3.712   4.080
  801SOL    HW2 3303   1.213   3.713   4.215
  802SOL     OW 3304   4.419   1.541   0.883
  802SOL    HW1 3305   4.471   1.626   0.873
  802SOL    HW2 3306   4.376   1.518   0.796
  803SOL     OW 3307   0.301   6.652   5.203
  803SOL    HW1 3308   0.239   6.629   5.128
  803SOL    HW2 3309   0.307   6.752   5.212
  804SOL     OW 3310   5.280   5.311   6.567
  804SOL    HW1 3311   5.189   5.347   6.551
  804SOL    HW2 3312   5.318   5.278   6.480
  805SOL     OW 3313   4.012   0.175   5.581
  805SOL    HW1 3314   4.004   0.189   5.482
  805SOL    HW2 3315   4.088   0.113   5.599
  806SOL     OW 3316   5.350   1.158   4.283
  806SOL    HW1 3317   5.270   1.209   4.316
  806SOL    HW2 3318   5.420   1.156   4.354
  807SOL     OW 3319   1.262   2.020   4.089
  807SOL    HW1 3320   1.221   2.061   4.170
  807SOL    HW2 3321   1.189   1.982   4.032
  808SOL     OW 3322   4.510   3.569   6.396
  808SOL    HW1 3323   4.496   3.661   6.432
  808SOL    HW2 3324   4.435   3.545   6.334
  809SOL     OW 3325   0.142   5.166   1.475
  809SOL    HW1 3326   0.187   5.133   1.392
  809SOL    HW2 3327   0.050   5.197   1.453
  810SOL     OW 3328   3.166   2.644   1.213
  810SOL    HW1 3329   3.264   2.624   1.203
  810SOL    HW2 3330   3.114   2.559   1.210
  811SOL     OW 3331   3.908   5.495   4.846
  811SOL    HW1 3332   3.864   5.522   4.760
  811SOL    HW2 3333   3.980   5.428   4.827
  812SOL     OW 3334   0.202   1.253   2.022
  812SOL    HW1 3335   0.213   1.158   1.994
  812SOL    HW2 3336   0.106   1.270   2.046
  813SOL     OW 3337   3.432   6.131   5.477
  813SOL    HW1 3338   3.415   6.227   5.497
  813SOL    HW2 3339   3.384   6.074   5.544
  814SOL     OW 3340   6.870   6.116   2.777
  814SOL    HW1 3341   6.961   6.095   2.741
  814SOL    HW2 3342   6.846   6.210   2.751
  815SOL     OW 3343   0.516   3.540   2.973
  815SOL    HW1 3344   0.497   3.638   2.964
  815SOL    HW2 3345   0.436   3.494   3.011
  816SOL     OW 3346   6.260   6.363   0.545
  816SOL    HW1 3347   6.181   6.306   0.567
  816SOL    HW2 3348   6.300   6.398   0.629
  817SOL     OW 3349   2.045   3.875   0.681
  817SOL    HW1 3350   2.055   3.921   0.769
  817SOL    HW2 3351   2.035   3.944   0.609
  818SOL     OW 3352   6.467   2.602   2.114
  818SOL    HW1 3353   6.385   2.554   2.146
  818SOL    HW2 3354   6.525   2.625   2.192
  819SOL     OW 3355   5.623   2.694   2.770
  819SOL    HW1 3356   5.535   2.661   2.804
  819SOL    HW2 3357   5.635   2.665   2.675
  820SOL     OW 3358   2.828   2.615   5.386
  820SOL    HW1 3359   2.795   2.619   5.480
  820SOL    HW2 3360   2.885   2.694   5.367
  821SOL     OW 3361   1.245   4.024   1.171
  821SOL    HW1 3362   1.186   4.033   1.252
  821SOL    HW2 3363   1.286   4.112   1.149
  822SOL     OW 3364   1.747   4.227   4.236
  822SOL    HW1 3365   1.710   4.319   4.251
  822SOL    HW2 3366   1.757   4.181   4.324
  823SOL     OW 3367   5.622   4.108   6.628
  823SOL    HW1 3368   5.585   4.199   6.648
  823SOL    HW2 3369   5.610   4.048   6.707
  824SOL     OW 3370   5.503   1.099   6.217
  824SOL    HW1 3371   5.508   1.012   6.266
  824SOL    HW2 3372   5.449   1.164   6.270
  825SOL     OW 3373   0.653   4.002   1.150
  825SOL    HW1 3374   0.557   4.031   1.144
  825SOL    HW2 3375   0.701   4.058   1.217
  826SOL     OW 3376   5.346   2.972   5.489
  826SOL    HW1 3377   5.393   3.050   5.532
  826SOL    HW2 3378   5.248   2.992   5.481
  827SOL     OW 3379   3.121   4.912   5.661
  827SOL    HW1 3380   3.066   4.929   5.743
  827SOL    HW2 3381   3.073   4.947   5.581
  828SOL     OW 3382   5.053   6.988   6.483
  828SOL    HW1 3383   5.028   6.892   6.497
  828SOL    HW2 3384   5.100   6.998   6.396
  829SOL     OW 3385   2.990   3.769   2.978
  829SOL    HW1 3386   2.989   3.732   3.071
  829SOL    HW2 3387   2.967   3.696   2.913
  830SOL     OW 3388   4.909   5.186   6.500
  830SOL    HW1 3389   4.971   5.264   6.511
  830SOL    HW2 3390   4.933   5.136   6.417
  831SOL     OW 3391   5.847   0.829   6.537
  831SOL    HW1 3392   5.897   0.785   6.612
  831SOL    HW2 3393   5.835   0.763   6.462
  832SOL     OW 3394   2.854   0.684   1.837
  832SOL    HW1 3395   2.891   0.762   1.787
  832SOL    HW2 3396   2.767   0.656   1.796
  833SOL     OW 3397   0.523   3.803   5.398
  833SOL    HW1 3398   0.494   3.785   5.492
  833SOL    HW2 3399   0.610   3.852   5.399
  834SOL     OW 3400   3.983   3.721   0.177
  834SOL    HW1 3401   3.998   3.625   0.198
  834SOL    HW2 3402   4.008   3.739   0.081
  835SOL     OW 3403   3.224   0.300   5.090
  835SOL    HW1 3404   3.215   0.392   5.053
  835SOL    HW2 3405   3.207   0.302   5.189
  836SOL     OW 3406   4.111   6.175   0.059
  836SOL    HW1 3407   4.012   6.158   0.060
  836SOL    HW2 3408   4.131   6.254   0.001
  837SOL     OW 3409   5.362   6.878   0.308
  837SOL    HW1 3410   5.367   6.835   0.218
  837SOL    HW2 3411   5.450   6.921   0.330
  838SOL     OW 3412   2.532   0.586   4.417
  838SOL    HW1 3413   2.567   0.523   4.487
  838SOL    HW2 3414   2.530   0.679   4.454
  839SOL     OW 3415   2.099   2.789   2.131
  839SOL    HW1 3416   2.142   2.827   2.049
  839SOL    HW2 3417   2.129   2.695   2.144
  840SOL     OW 3418   6.070   6.238   6.747
  840SOL    HW1 3419   5.979   6.214   6.779
  840SOL    HW2 3420   6.090   6.190   6.661
  841SOL     OW 3421   3.844   5.026   6.551
  841SOL    HW1 3422   3.800   4.978   6.626
  841SOL    HW2 3423   3.925   5.074   6.585
  842SOL     OW 3424   4.155   6.864   5.022
  842SOL    HW1 3425   4.231   6.803   5.042
  842SOL    HW2 3426   4.175   6.956   5.055
  843SOL     OW 3427   1.636   1.268   0.819
  843SOL    HW1 3428   1.697   1.343   0.796
  843SOL    HW2 3429   1.586   1.289   0.903
  844SOL     OW 3430   5.960   0.648   0.873
  844SOL    HW1 3431   5.934   0.585   0.947
  844SOL    HW2 3432   6.006   0.728   0.912
  845SOL     OW 3433   5.572   4.339   5.369
  845SOL    HW1 3434   5.489   4.286   5.348
  845SOL    HW2 3435   5.614   4.303   5.453
  846SOL     OW 3436   2.129   1.986   6.744
  846SOL    HW1 3437   2.117   2.079   6.780
  846SOL    HW2 3438   2.040   1.942   6.737
  847SOL     OW 3439   1.812   3.493   1.457
  847SOL    HW1 3440   1.756   3.411   1.467
  847SOL    HW2 3441   1.828   3.533   1.547
  848SOL     OW 3442   5.899   0.686   6.312
  848SOL    HW1 3443   5.987   0.642   6.290
  848SOL    HW2 3444   5.887   0.766   6.254
  849SOL     OW 3445   0.434   4.224   6.035
  849SOL    HW1 3446   0.443   4.317   6.073
  849SOL    HW2 3447   0.520   4.175   6.048
  850SOL     OW 3448   5.183   0.929   3.746
  850SOL    HW1 3449   5.179   1.029   3.747
  850SOL    HW2 3450   5.193   0.897   3.651
  851SOL     OW 3451   0.418   1.849   2.493
  851SOL    HW1 3452   0.510   1.859   2.457
  851SOL    HW2 3453   0.358   1.918   2.452
  852SOL     OW 3454   1.283   2.889   6.881
  852SOL    HW1 3455   1.357   2.924   6.939
  852SOL    HW2 3456   1.303   2.910   6.785
  853SOL     OW 3457   1.945   4.412   2.634
  853SOL    HW1 3458   1.867   4.470   2.659
  853SOL    HW2 3459   1.943   4.328   2.687
  854SOL     OW 3460   4.657   5.975   1.447
  854SOL    HW1 3461   4.676   5.896   1.505
  854SOL    HW2 3462   4.620   6.050   1.502
  855SOL     OW 3463   0.117   0.196   1.950
  855SOL    HW1 3464   0.065   0.110   1.957
  855SOL    HW2 3465   0.055   0.269   1.920
  856SOL     OW 3466   1.544   1.891   5.453
  856SOL    HW1 3467   1.505   1.945   5.379
  856SOL    HW2 3468   1.532   1.939   5.539
  857SOL     OW 3469   5.947   4.576   2.035
  857SOL    HW1 3470   6.026   4.514   2.034
  857SOL    HW2 3471   5.976   4.667   2.004
  858SOL     OW 3472   2.996   3.616   1.176
  858SOL    HW1 3473   3.069   3.671   1.216
  858SOL    HW2 3474   2.951   3.562   1.248
  859SOL     OW 3475   4.838   5.535   5.465
  859SOL    HW1 3476   4.797   5.622   5.439
  859SOL    HW2 3477   4.810   5.511   5.558
  860SOL     OW 3478   4.834   3.681   0.489
  860SOL    HW1 3479   4.795   3.754   0.433
  860SOL    HW2 3480   4.800   3.689   0.583
  861SOL     OW 3481   2.464   6.539   3.682
  861SOL    HW1 3482   2.495   6.538   3.587
  861SOL    HW2 3483   2.488   6.627   3.723
  862SOL     OW 3484   0.841   4.217   4.867
  862SOL    HW1 3485   0.902   4.207   4.788
  862SOL    HW2 3486   0.788   4.134   4.879
  863SOL     OW 3487   6.500   0.433   1.010
  863SOL    HW1 3488   6.531   0.439   1.105
  863SOL    HW2 3489   6.442   0.353   0.998
  864SOL     OW 3490   4.029   4.797   3.447
  864SOL    HW1 3491   4.072   4.751   3.525
  864SOL    HW2 3492   4.030   4.896   3.463
  865SOL     OW 3493   0.775   5.917   5.832
  865SOL    HW1 3494   0.822   5.835   5.865
  865SOL    HW2 3495   0.725   5.959   5.908
  866SOL     OW 3496   1.708   1.684   1.802
  866SOL    HW1 3497   1.632   1.692   1.867
  866SOL    HW2 3498   1.717   1.769   1.751
  867SOL     OW 3499   3.795   3.832   0.693
  867SOL    HW1 3500   3.878   3.858   0.644
  867SOL    HW2 3501   3.715   3.870   0.646
  868SOL     OW 3502   5.567   0.478   1.390
  868SOL    HW1 3503   5.535   0.390   1.353
  868SOL    HW2 3504   5.488   0.533   1.418
  869SOL     OW 3505   6.369   5.047   3.321
  869SOL    HW1 3506   6.370   4.949   3.299
  869SOL    HW2 3507   6.448   5.091   3.279
  870SOL     OW 3508   4.063   3.120   0.885
  870SOL    HW1 3509   4.138   3.123   0.951
  870SOL    HW2 3510   4.031   3.213   0.866
  871SOL     OW 3511   4.904   2.967   3.285
  871SOL    HW1 3512   4.912   3.048   3.227
  871SOL    HW2 3513   4.889   2.995   3.380
  872SOL     OW 3514   5.496   4.420   3.904
  872SOL    HW1 3515   5.567   4.379   3.847
  872SOL    HW2 3516   5.413   4.433   3.850
  873SOL     OW 3517   5.963   0.004   3.997
  873SOL    HW1 3518   6.060   7.007   4.010
  873SOL    HW2 3519   5.954   0.095   3.958
  874SOL     OW 3520   0.915   4.284   5.710
  874SOL    HW1 3521   0.988   4.234   5.663
  874SOL    HW2 3522   0.956   4.349   5.774
  875SOL     OW 3523   3.595   3.003   0.409
  875SOL    HW1 3524   3.670   3.005   0.343
  875SOL    HW2 3525   3.522   3.065   0.380
  876SOL     OW 3526   0.613   5.378   3.195
  876SOL    HW1 3527   0.643   5.290   3.232
  876SOL    HW2 3528   0.642   5.386   3.100
  877SOL     OW 3529   4.144   4.022   6.709
  877SOL    HW1 3530   4.210   4.007   6.782
  877SOL    HW2 3531   4.060   3.972   6.729
  878SOL     OW 3532   3.620   5.585   5.076
  878SOL    HW1 3533   3.603   5.644   5.155
  878SOL    HW2 3534   3.719   5.577   5.061
  879SOL     OW 3535   2.744   2.086   2.046
  879SOL    HW1 3536   2.649   2.113   2.031
  879SOL    HW2 3537   2.802   2.167   2.046
  880SOL     OW 3538   3.464   3.902   5.748
  880SOL    HW1 3539   3.419   3.990   5.730
  880SOL    HW2 3540   3.563   3.914   5.747
  881SOL     OW 3541   4.606   4.049   5.343
  881SOL    HW1 3542   4.686   4.061   5.284
  881SOL    HW2 3543   4.541   4.124   5.327
  882SOL     OW 3544   1.188   1.791   4.402
  882SOL    HW1 3545   1.133   1.719   4.360
  882SOL    HW2 3546   1.283   1.760   4.410
  883SOL     OW 3547   4.727   5.691   5.928
  883SOL    HW1 3548   4.793   5.765   5.921
  883SOL    HW2 3549   4.641   5.717   5.884
  884SOL     OW 3550   6.993   4.086   0.170
  884SOL    HW1 3551   6.951   4.001   0.138
  884SOL    HW2 3552   0.025   4.067   0.250
  885SOL     OW 3553   4.909   5.685   6.272
  885SOL    HW1 3554   4.978   5.705   6.342
  885SOL    HW2 3555   4.867   5.770   6.241
  886SOL     OW 3556   3.941   0.528   0.845
  886SOL    HW1 3557   3.931   0.468   0.924
  886SOL    HW2 3558   4.021   0.500   0.792
  887SOL     OW 3559   3.877   6.765   4.038
  887SOL    HW1 3560   3.925   6.840   3.992
  887SOL    HW2 3561   3.869   6.785   4.136
  888SOL     OW 3562   5.722   6.085   2.798
  888SOL    HW1 3563   5.801   6.125   2.752
  888SOL    HW2 3564   5.740   6.079   2.897
  889SOL     OW 3565   1.689   6.530   5.994
  889SOL    HW1 3566   1.650   6.441   6.020
  889SOL    HW2 3567   1.776   6.543   6.041
  890SOL     OW 3568   2.066   4.996   2.231
  890SOL    HW1 3569   2.138   4.949   2.281
  890SOL    HW2 3570   2.019   5.059   2.293
  891SOL     OW 3571   6.118   4.262   1.073
  891SOL    HW1 3572   6.058   4.190   1.108
  891SOL    HW2 3573   6.137   4.247   0.976
  892SOL     OW 3574   3.853   4.242   5.747
  892SOL    HW1 3575   3.783   4.293   5.697
  892SOL    HW2 3576   3.926   4.216   5.684
  893SOL     OW 3577   1.802   1.190   1.983
  893SOL    HW1 3578   1.890   1.164   1.943
  893SOL    HW2 3579   1.728   1.141   1.935
  894SOL     OW 3580   1.686   2.172   3.505
  894SOL    HW1 3581   1.693   2.160   3.406
  894SOL    HW2 3582   1.673   2.269   3.525
  895SOL     OW 3583   1.314   5.925   4.657
  895SOL    HW1 3584   1.284   5.834   4.627
  895SOL    HW2 3585   1.281   5.994   4.592
  896SOL     OW 3586   5.978   6.567   2.359
  896SOL    HW1 3587   6.026   6.491   2.401
  896SOL    HW2 3588   5.899   6.533   2.308
  897SOL     OW 3589   4.828   1.024   0.509
  897SOL    HW1 3590   4.905   1.051   0.451
  897SOL    HW2 3591   4.862   0.984   0.593
  898SOL     OW 3592   4.160   6.174   2.825
  898SOL    HW1 3593   4.192   6.130   2.909
  898SOL    HW2 3594   4.093   6.244   2.848
  899SOL     OW 3595   0.131   5.387   0.311
  899SOL    HW1 3596   0.080   5.406   0.395
  899SOL    HW2 3597   0.098   5.446   0.237
  900SOL     OW 3598   4.634   6.311   1.055
  900SOL    HW1 3599   4.596   6.280   0.968
  900SOL    HW2 3600   4.651   6.233   1.114
  901SOL     OW 3601   1.089   1.107   5.224
  901SOL    HW1 3602   1.101   1.029   5.164
  901SOL    HW2 3603   1.145   1.096   5.306
  902SOL     OW 3604   0.622   2.158   0.040
  902SOL    HW1 3605   0.524   2.173   0.038
  902SOL    HW2 3606   0.664   2.218   0.108
  903SOL     OW 3607   6.796   3.933   6.394
  903SOL    HW1 3608   6.780   4.032   6.387
  903SOL    HW2 3609   6.884   3.911   6.352
  904SOL     OW 3610   1.854   2.791   3.461
  904SOL    HW1 3611   1.914   2.858   3.504
  904SOL    HW2 3612   1.759   2.820   3.473
  905SOL     OW 3613   4.892   3.813   6.295
  905SOL    HW1 3614   4.943   3.729   6.313
  905SOL    HW2 3615   4.807   3.790   6.247
  906SOL     OW 3616   0.815   3.131   6.003
  906SOL    HW1 3617   0.808   3.085   5.915
  906SOL    HW2 3618   0.724   3.158   6.034
  907SOL     OW 3619   6.068   3.016   2.855
  907SOL    HW1 3620   6.035   2.939   2.909
  907SOL    HW2 3621   6.096   2.984   2.765
  908SOL     OW 3622   1.767   6.076   3.349
  908SOL    HW1 3623   1.764   5.976   3.344
  908SOL    HW2 3624   1.743   6.114   3.259
  909SOL     OW 3625   2.866   6.301   2.029
  909SOL    HW1 3626   2.783   6.286   1.974
  909SOL    HW2 3627   2.925   6.368   1.983
  910SOL     OW 3628   2.702   0.494   1.304
  910SOL    HW1 3629   2.663   0.419   1.251
  910SOL    HW2 3630   2.684   0.581   1.259
  911SOL     OW 3631   7.006   5.269   1.242
  911SOL    HW1 3632   6.936   5.254   1.172
  911SOL    HW2 3633   0.044   5.191   1.245
  912SOL     OW 3634   6.045   0.519   4.516
  912SOL    HW1 3635   6.081   0.426   4.509
  912SOL    HW2 3636   6.118   0.585   4.498
  913SOL     OW 3637   1.534   0.748   3.007
  913SOL    HW1 3638   1.621   0.697   3.002
  913SOL    HW2 3639   1.541   0.831   2.952
  914SOL     OW 3640   2.669   6.017   4.898
  914SOL    HW1 3641   2.632   6.103   4.930
  914SOL    HW2 3642   2.599   5.967   4.846
  915SOL     OW 3643   1.226   3.529   0.175
  915SOL    HW1 3644   1.247   3.513   0.078
  915SOL    HW2 3645   1.131   3.502   0.193
  916SOL     OW 3646   1.512   2.774   1.631
  916SOL    HW1 3647   1.527   2.744   1.536
  916SOL    HW2 3648   1.415   2.768   1.653
  917SOL     OW 3649   5.519   0.382   2.295
  917SOL    HW1 3650   5.505   0.439   2.375
  917SOL    HW2 3651   5.488   0.430   2.213
  918SOL     OW 3652   2.669   6.509   6.842
  918SOL    HW1 3653   2.618   6.541   6.762
  918SOL    HW2 3654   2.756   6.557   6.846
  919SOL     OW 3655   6.759   5.621   2.778
  919SOL    HW1 3656   6.690   5.692   2.789
  919SOL    HW2 3657   6.787   5.587   2.868
  920SOL     OW 3658   2.296   5.939   3.561
  920SOL    HW1 3659   2.336   6.028   3.582
  920SOL    HW2 3660   2.287   5.930   3.461
  921SOL     OW 3661   4.695   4.281   4.151
  921SOL    HW1 3662   4.740   4.244   4.070
  921SOL    HW2 3663   4.694   4.212   4.223
  922SOL     OW 3664   3.666   2.760   5.436
  922SOL    HW1 3665   3.683   2.748   5.534
  922SOL    HW2 3666   3.576   2.800   5.423
  923SOL     OW 3667   3.015   4.362   5.955
  923SOL    HW1 3668   3.007   4.291   6.025
  923SOL    HW2 3669   2.926   4.404   5.940
  924SOL     OW 3670   6.915   2.520   2.597
  924SOL    HW1 3671   6.942   2.616   2.591
  924SOL    HW2 3672   6.994   2.464   2.622
  925SOL     OW 3673   7.010   1.668   6.004
  925SOL    HW1 3674   6.952   1.719   6.068
  925SOL    HW2 3675   7.008   1.571   6.026
  926SOL     OW 3676   6.416   1.291   0.684
  926SOL    HW1 3677   6.463   1.292   0.596
  926SOL    HW2 3678   6.320   1.319   0.671
  927SOL     OW 3679   5.544   3.895   3.361
  927SOL    HW1 3680   5.606   3.972   3.350
  927SOL    HW2 3681   5.560   3.852   3.450
  928SOL     OW 3682   1.302   6.446   0.193
  928SOL    HW1 3683   1.279   6.413   0.284
  928SOL    HW2 3684   1.225   6.432   0.131
  929SOL     OW 3685   0.787   0.886   1.276
  929SOL    HW1 3686   0.802   0.922   1.367
  929SOL    HW2 3687   0.851   0.928   1.212
  930SOL     OW 3688   5.495   6.176   4.840
  930SOL    HW1 3689   5.515   6.158   4.744
  930SOL    HW2 3690   5.497   6.090   4.891
  931SOL     OW 3691   5.745   3.200   2.836
  931SOL    HW1 3692   5.687   3.118   2.836
  931SOL    HW2 3693   5.789   3.210   2.926
  932SOL     OW 3694   2.700   6.693   2.725
  932SOL    HW1 3695   2.767   6.624   2.753
  932SOL    HW2 3696   2.722   6.725   2.633
  933SOL     OW 3697   0.751   5.807   3.153
  933SOL    HW1 3698   0.775   5.713   3.131
  933SOL    HW2 3699   0.814   5.869   3.106
  934SOL     OW 3700   1.591   0.922   4.734
  934SOL    HW1 3701   1.518   0.991   4.729
  934SOL    HW2 3702   1.595   0.872   4.648
  935SOL     OW 3703   5.002   4.106   5.382
  935SOL    HW1 3704   5.066   4.159   5.327
  935SOL    HW2 3705   4.963   4.033   5.327
  936SOL     OW 3706   1.520   1.141   6.321
  936SOL    HW1 3707   1.489   1.075   6.390
  936SOL    HW2 3708   1.559   1.091   6.244
  937SOL     OW 3709   5.008   1.488   4.529
  937SOL    HW1 3710   5.077   1.492   4.602
  937SOL    HW2 3711   4.922   1.454   4.567
  938SOL     OW 3712   0.562   5.504   6.174
  938SOL    HW1 3713   0.563   5.479   6.077
  938SOL    HW2 3714   0.615   5.438   6.226
  939SOL     OW 3715   5.031   0.679   5.506
  939SOL    HW1 3716   5.121   0.659   5.544
  939SOL    HW2 3717   4.983   0.593   5.484
  940SOL     OW 3718   0.931   3.201   2.281
  940SOL    HW1 3719   0.852   3.186   2.341
  940SOL    HW2 3720   0.914   3.281   2.224
  941SOL     OW 3721   6.523   0.700   4.789
  941SOL    HW1 3722   6.496   0.773   4.852
  941SOL    HW2 3723   6.568   0.627   4.840
  942SOL     OW 3724   4.878   0.193   3.735
  942SOL    HW1 3725   4.785   0.231   3.733
  942SOL    HW2 3726   4.902   0.159   3.644
  943SOL     OW 3727   1.506   3.442   3.813
  943SOL    HW1 3728   1.422   3.415   3.766
  943SOL    HW2 3729   1.516   3.541   3.808
  944SOL     OW 3730   6.659   3.996   5.474
  944SOL    HW1 3731   6.747   4.037   5.453
  944SOL    HW2 3732   6.595   4.012   5.398
  945SOL     OW 3733   6.787   4.857   5.519
  945SOL    HW1 3734   6.813   4.950   5.546
  945SOL    HW2 3735   6.864   4.814   5.473
  946SOL     OW 3736   4.582   3.115   5.667
  946SOL    HW1 3737   4.507   3.049   5.663
  946SOL    HW2 3738   4.631   3.115   5.580
  947SOL     OW 3739   3.498   2.940   4.307
  947SOL    HW1 3740   3.404   2.956   4.339
  947SOL    HW2 3741   3.498   2.927   4.208
  948SOL     OW 3742   4.021   0.264   0.977
  948SOL    HW1 3743   4.114   0.251   1.012
  948SOL    HW2 3744   4.015   0.227   0.884
  949SOL     OW 3745   1.208   6.653   6.171
  949SOL    HW1 3746   1.214   6.581   6.239
  949SOL    HW2 3747   1.170   6.735   6.212
  950SOL     OW 3748   4.276   4.979   1.816
  950SOL    HW1 3749   4.251   4.999   1.911
  950SOL    HW2 3750   4.294   4.881   1.807
  951SOL     OW 3751   2.051   0.486   2.725
  951SOL    HW1 3752   2.030   0.389   2.723
  951SOL    HW2 3753   2.035   0.523   2.816
  952SOL     OW 3754   5.135   1.748   2.730
  952SOL    HW1 3755   5.153   1.840   2.764
  952SOL    HW2 3756   5.045   1.717   2.763
  953SOL     OW 3757   5.087   5.653   4.743
  953SOL    HW1 3758   5.123   5.744   4.757
  953SOL    HW2 3759   5.092   5.600   4.828
  954SOL     OW 3760   4.918   5.676   0.374
  954SOL    HW1 3761   4.843   5.636   0.321
  954SOL    HW2 3762   4.949   5.610   0.443
  955SOL     OW 3763   0.063   4.643   2.959
  955SOL    HW1 3764   0.058   4.713   2.889
  955SOL    HW2 3765   0.049   4.684   3.049
  956SOL     OW 3766   0.324   2.241   2.704
  956SOL    HW1 3767   0.408   2.208   2.748
  956SOL    HW2 3768   0.328   2.220   2.606
  957SOL     OW 3769   0.940   5.093   4.446
  957SOL    HW1 3770   0.863   5.095   4.510
  957SOL    HW2 3771   0.906   5.075   4.354
  958SOL     OW 3772   4.594   2.077   2.875
  958SOL    HW1 3773   4.674   2.119   2.834
  958SOL    HW2 3774   4.532   2.045   2.803
  959SOL     OW 3775   3.264   5.483   3.568
  959SOL    HW1 3776   3.311   5.394   3.566
  959SOL    HW2 3777   3.315   5.549   3.514
  960SOL     OW 3778   0.175   5.594   3.319
  960SOL    HW1 3779   0.214   5.506   3.291
  960SOL    HW2 3780   0.188   5.606   3.417
  961SOL     OW 3781   4.637   0.002   3.530
  961SOL    HW1 3782   4.655   6.928   3.529
  961SOL    HW2 3783   4.674   0.044   3.447
  962SOL     OW 3784   1.244   0.884   4.189
  962SOL    HW1 3785   1.314   0.813   4.182
  962SOL    HW2 3786   1.281   0.970   4.152
  963SOL     OW 3787   6.718   2.520   6.272
  963SOL    HW1 3788   6.801   2.569   6.298
  963SOL    HW2 3789   6.734   2.466   6.190
  964SOL     OW 3790   6.127   4.279   0.015
  964SOL    HW1 3791   6.029   4.281   0.034
  964SOL    HW2 3792   6.155   4.366   7.000
  965SOL     OW 3793   5.736   1.777   0.688
  965SOL    HW1 3794   5.821   1.723   0.693
  965SOL    HW2 3795   5.729   1.820   0.598
  966SOL     OW 3796   5.160   2.755   1.926
  966SOL    HW1 3797   5.124   2.675   1.974
  966SOL    HW2 3798   5.245   2.784   1.970
  967SOL     OW 3799   2.436   4.779   1.493
  967SOL    HW1 3800   2.418   4.709   1.562
  967SOL    HW2 3801   2.531   4.808   1.499
  968SOL     OW 3802   3.674   1.883   2.327
  968SOL    HW1 3803   3.602   1.815   2.341
  968SOL    HW2 3804   3.642   1.952   2.262
  969SOL     OW 3805   3.486   5.815   6.574
  969SOL    HW1 3806   3.566   5.847   6.523
  969SOL    HW2 3807   3.435   5.894   6.608
  970SOL     OW 3808   4.591   1.474   5.386
  970SOL    HW1 3809   4.513   1.534   5.370
  970SOL    HW2 3810   4.670   1.508   5.334
  971SOL     OW 3811   6.778   2.227   2.841
  971SOL    HW1 3812   6.770   2.141   2.791
  971SOL    HW2 3813   6.874   2.246   2.861
  972SOL     OW 3814   5.708   3.947   1.665
  972SOL    HW1 3815   5.648   3.983   1.594
  972SOL    HW2 3816   5.793   3.914   1.624
  973SOL     OW 3817   6.898   4.473   6.902
  973SOL    HW1 3818   6.859   4.495   6.812
  973SOL    HW2 3819   6.997   4.457   6.892
  974SOL     OW 3820   5.465   0.089   2.283
  974SOL    HW1 3821   5.480   0.186   2.300
  974SOL    HW2 3822   5.444   0.075   2.186
  975SOL     OW 3823   1.784   5.570   6.845
  975SOL    HW1 3824   1.841   5.652   6.855
  975SOL    HW2 3825   1.702   5.594   6.793
  976SOL     OW 3826   6.422   3.328   2.990
  976SOL    HW1 3827   6.496   3.264   2.970
  976SOL    HW2 3828   6.440   3.374   3.077
  977SOL     OW 3829   1.294   0.628   2.979
  977SOL    HW1 3830   1.333   0.553   2.925
  977SOL    HW2 3831   1.368   0.678   3.024
  978SOL     OW 3832   4.835   3.467   5.680
  978SOL    HW1 3833   4.851   3.370   5.702
  978SOL    HW2 3834   4.737   3.486   5.682
  979SOL     OW 3835   0.123   2.112   0.955
  979SOL    HW1 3836   0.064   2.148   1.027
  979SOL    HW2 3837   0.114   2.170   0.874
  980SOL     OW 3838   4.180   2.339   3.928
  980SOL    HW1 3839   4.144   2.269   3.989
  980SOL    HW2 3840   4.213   2.416   3.982
  981SOL     OW 3841   1.234   2.204   5.416
  981SOL    HW1 3842   1.313   2.187   5.475
  981SOL    HW2 3843   1.152   2.168   5.459
  982SOL     OW 3844   2.347   2.080   3.589
  982SOL    HW1 3845   2.400   1.997   3.569
  982SOL    HW2 3846   2.392   2.130   3.663
  983SOL     OW 3847   5.880   2.161   4.740
  983SOL    HW1 3848   5.802   2.153   4.677
  983SOL    HW2 3849   5.957   2.108   4.704
  984SOL     OW 3850   2.753   1.510   4.148
  984SOL    HW1 3851   2.789   1.597   4.181
  984SOL    HW2 3852   2.694   1.469   4.217
  985SOL     OW 3853   5.003   4.819   6.363
  985SOL    HW1 3854   5.066   4.771   6.301
  985SOL    HW2 3855   4.971   4.903   6.319
  986SOL     OW 3856   5.525   4.115   0.904
  986SOL    HW1 3857   5.457   4.093   0.974
  986SOL    HW2 3858   5.597   4.045   0.905
  987SOL     OW 3859   4.458   0.077   1.848
  987SOL    HW1 3860   4.452   0.148   1.778
  987SOL    HW2 3861   4.468   0.119   1.938
  988SOL     OW 3862   3.362   3.230   3.189
  988SOL    HW1 3863   3.456   3.218   3.157
  988SOL    HW2 3864   3.346   3.172   3.268
  989SOL     OW 3865   6.520   0.893   5.318
  989SOL    HW1 3866   6.576   0.915   5.398
  989SOL    HW2 3867   6.450   0.827   5.344
  990SOL     OW 3868   4.264   0.642   1.867
  990SOL    HW1 3869   4.191   0.575   1.854
  990SOL    HW2 3870   4.348   0.607   1.824
  991SOL     OW 3871   1.551   3.045   4.965
  991SOL    HW1 3872   1.473   2.985   4.946
  991SOL    HW2 3873   1.552   3.068   5.063
  992SOL     OW 3874   0.170   2.790   2.282
  992SOL    HW1 3875   0.073   2.792   2.259
  992SOL    HW2 3876   0.224   2.819   2.203
  993SOL     OW 3877   1.582   4.728   2.056
  993SOL    HW1 3878   1.536   4.751   2.142
  993SOL    HW2 3879   1.600   4.630   2.052
  994SOL     OW 3880   3.207   3.721   2.440
  994SOL    HW1 3881   3.146   3.683   2.371
  994SOL    HW2 3882   3.237   3.812   2.411
  995SOL     OW 3883   3.810   3.269   5.426
  995SOL    HW1 3884   3.827   3.353   5.477
  995SOL    HW2 3885   3.787   3.195   5.489
  996SOL     OW 3886   2.014   4.430   4.244
  996SOL    HW1 3887   2.088   4.491   4.217
  996SOL    HW2 3888   1.926   4.473   4.225
  997SOL     OW 3889   1.108   0.772   3.217
  997SOL    HW1 3890   1.052   0.854   3.206
  997SOL    HW2 3891   1.105   0.718   3.133
  998SOL     OW 3892   4.133   6.685   4.367
  998SOL    HW1 3893   4.074   6.610   4.338
  998SOL    HW2 3894   4.093   6.772   4.337
  999SOL     OW 3895   5.251   4.206   1.985
  999SOL    HW1 3896   5.300   4.203   2.072
  999SOL    HW2 3897   5.280   4.286   1.933
 1000SOL     OW 3898   1.702   0.582   2.163
 1000SOL    HW1 3899   1.747   0.671   2.155
 1000SOL    HW2 3900   1.671   0.552   2.073
 1001SOL     OW 3901   5.885   6.617   0.707
 1001SOL    HW1 3902   5.914   6.539   0.762
 1001SOL    HW2 3903   5.828   6.585   0.631
 1002SOL     OW 3904   6.200   1.594   0.389
 1002SOL    HW1 3905   6.251   1.677   0.367
 1002SOL    HW2 3906   6.203   1.578   0.488
 1003SOL     OW 3907   2.286   5.937   1.576
 1003SOL    HW1 3908   2.261   5.874   1.502
 1003SOL    HW2 3909   2.371   5.905   1.619
 1004SOL     OW 3910   0.101   0.595   1.792
 1004SOL    HW1 3911   0.146   0.602   1.703
 1004SOL    HW2 3912   0.021   0.535   1.783
 1005SOL     OW 3913   0.982   2.187   3.498
 1005SOL    HW1 3914   0.921   2.216   3.425
 1005SOL    HW2 3915   1.039   2.111   3.465
 1006SOL     OW 3916   1.239   5.229   0.851
 1006SOL    HW1 3917   1.317   5.199   0.906
 1006SOL    HW2 3918   1.201   5.150   0.802
 1007SOL     OW 3919   4.845   0.293   4.433
 1007SOL    HW1 3920   4.914   0.272   4.502
 1007SOL    HW2 3921   4.889   0.303   4.344
 1008SOL     OW 3922   2.143   3.471   4.899
 1008SOL    HW1 3923   2.081   3.474   4.977
 1008SOL    HW2 3924   2.212   3.400   4.914
 1009SOL     OW 3925   0.321   5.471   4.843
 1009SOL    HW1 3926   0.355   5.406   4.911
 1009SOL    HW2 3927   0.390   5.484   4.772
 1010SOL     OW 3928   3.624   2.755   5.970
 1010SOL    HW1 3929   3.589   2.686   6.033
 1010SOL    HW2 3930   3.605   2.727   5.876
 1011SOL     OW 3931   2.238   5.329   2.348
 1011SOL    HW1 3932   2.215   5.277   2.266
 1011SOL    HW2 3933   2.295   5.273   2.408
 1012SOL     OW 3934   6.235   0.685   1.139
 1012SOL    HW1 3935   6.149   0.729   1.113
 1012SOL    HW2 3936   6.310   0.721   1.084
 1013SOL     OW 3937   1.117   1.243   5.795
 1013SOL    HW1 3938   1.040   1.184   5.767
 1013SOL    HW2 3939   1.150   1.294   5.716
 1014SOL     OW 3940   4.986   6.050   6.442
 1014SOL    HW1 3941   5.037   6.114   6.383
 1014SOL    HW2 3942   4.978   6.089   6.533
 1015SOL     OW 3943   2.507   6.762   5.461
 1015SOL    HW1 3944   2.596   6.716   5.462
 1015SOL    HW2 3945   2.518   6.854   5.424
 1016SOL     OW 3946   3.622   3.432   0.065
 1016SOL    HW1 3947   3.711   3.451   0.023
 1016SOL    HW2 3948   3.561   3.510   0.052
 1017SOL     OW 3949   3.920   2.629   1.312
 1017SOL    HW1 3950   3.992   2.621   1.381
 1017SOL    HW2 3951   3.831   2.613   1.355
 1018SOL     OW 3952   0.593   3.291   4.229
 1018SOL    HW1 3953   0.604   3.251   4.320
 1018SOL    HW2 3954   0.580   3.390   4.237
 1019SOL     OW 3955   6.716   0.251   1.143
 1019SOL    HW1 3956   6.726   0.211   1.052
 1019SOL    HW2 3957   6.770   0.335   1.149
 1020SOL     OW 3958   1.000   6.457   1.490
 1020SOL    HW1 3959   1.071   6.390   1.514
 1020SOL    HW2 3960   1.004   6.533   1.555
 1021SOL     OW 3961   5.257   0.535   1.240
 1021SOL    HW1 3962   5.254   0.435   1.246
 1021SOL    HW2 3963   5.327   0.563   1.175
 1022SOL     OW 3964   3.419   4.827   6.374
 1022SOL    HW1 3965   3.369   4.841   6.460
 1022SOL    HW2 3966   3.355   4.813   6.299
 1023SOL     OW 3967   1.195   6.955   2.391
 1023SOL    HW1 3968   1.187   6.889   2.466
 1023SOL    HW2 3969   1.135   6.926   2.316
 1024SOL     OW 3970   6.685   2.864   3.931
 1024SOL    HW1 3971   6.697   2.962   3.947
 1024SOL    HW2 3972   6.611   2.830   3.989
 1025SOL     OW 3973   2.468   2.934   0.858
 1025SOL    HW1 3974   2.526   2.950   0.937
 1025SOL    HW2 3975   2.492   2.847   0.816
 1026SOL     OW 3976   2.277   2.785   1.165
 1026SOL    HW1 3977   2.242   2.843   1.090
 1026SOL    HW2 3978   2.352   2.832   1.211
 1027SOL     OW 3979   2.728   6.755   0.999
 1027SOL    HW1 3980   2.726   6.662   1.037
 1027SOL    HW2 3981   2.779   6.815   1.060
 1028SOL     OW 3982   2.827   6.355   0.019
 1028SOL    HW1 3983   2.891   6.431   0.027
 1028SOL    HW2 3984   2.740   6.388   7.005
 1029SOL     OW 3985   2.172   0.601   0.207
 1029SOL    HW1 3986   2.208   0.533   0.271
 1029SOL    HW2 3987   2.157   0.687   0.256
 1030SOL     OW 3988   3.334   3.700   1.838
 1030SOL    HW1 3989   3.410   3.638   1.855
 1030SOL    HW2 3990   3.293   3.728   1.925
 1031SOL     OW 3991   4.788   5.144   0.851
 1031SOL    HW1 3992   4.751   5.222   0.801
 1031SOL    HW2 3993   4.783   5.062   0.794
 1032SOL     OW 3994   1.911   1.772   4.695
 1032SOL    HW1 3995   1.979   1.736   4.759
 1032SOL    HW2 3996   1.831   1.802   4.746
 1033SOL     OW 3997   1.439   6.124   0.562
 1033SOL    HW1 3998   1.379   6.058   0.608
 1033SOL    HW2 3999   1.520   6.139   0.618
 1034SOL     OW 4000   0.345   5.581   5.391
 1034SOL    HW1 4001   0.295   5.496   5.405
 1034SOL    HW2 4002   0.282   5.659   5.397
 1035SOL     OW 4003   1.541   1.524   4.451
 1035SOL    HW1 4004   1.559   1.599   4.515
 1035SOL    HW2 4005   1.553   1.557   4.358
 1036SOL     OW 4006   2.740   1.125   2.227
 1036SOL    HW1 4007   2.684   1.118   2.145
 1036SOL    HW2 4008   2.836   1.136   2.202
 1037SOL     OW 4009   1.383   0.334   1.831
 1037SOL    HW1 4010   1.347   0.329   1.924
 1037SOL    HW2 4011   1.478   0.300   1.830
 1038SOL     OW 4012   1.685   0.184   5.722
 1038SOL    HW1 4013   1.668   0.086   5.732
 1038SOL    HW2 4014   1.781   0.200   5.701
 1039SOL     OW 4015   3.504   3.173   5.729
 1039SOL    HW1 4016   3.480   3.104   5.797
 1039SOL    HW2 4017   3.423   3.198   5.676
 1040SOL     OW 4018   4.712   2.787   2.556
 1040SOL    HW1 4019   4.692   2.841   2.638
 1040SOL    HW2 4020   4.739   2.849   2.482
 1041SOL     OW 4021   6.346   0.008   4.488
 1041SOL    HW1 4022   6.276   6.972   4.525
 1041SOL    HW2 4023   6.417   6.977   4.444
 1042SOL     OW 4024   4.082   5.101   2.347
 1042SOL    HW1 4025   4.021   5.043   2.401
 1042SOL    HW2 4026   4.050   5.195   2.351
 1043SOL     OW 4027   3.819   1.552   4.400
 1043SOL    HW1 4028   3.895   1.520   4.456
 1043SOL    HW2 4029   3.854   1.612   4.327
 1044SOL     OW 4030   5.011   4.321   2.017
 1044SOL    HW1 4031   5.078   4.249   1.995
 1044SOL    HW2 4032   4.920   4.291   1.988
 1045SOL     OW 4033   3.675   6.424   2.316
 1045SOL    HW1 4034   3.629   6.425   2.227
 1045SOL    HW2 4035   3.773   6.408   2.303
 1046SOL     OW 4036   1.032   0.324   0.533
 1046SOL    HW1 4037   1.075   0.412   0.549
 1046SOL    HW2 4038   1.004   0.317   0.437
 1047SOL     OW 4039   1.619   0.218   3.198
 1047SOL    HW1 4040   1.669   0.164   3.131
 1047SOL    HW2 4041   1.637   0.181   3.290
 1048SOL     OW 4042   5.652   6.495   4.685
 1048SOL    HW1 4043   5.564   6.465   4.720
 1048SOL    HW2 4044   5.637   6.563   4.613
 1049SOL     OW 4045   6.044   5.364   3.967
 1049SOL    HW1 4046   6.027   5.289   3.903
 1049SOL    HW2 4047   5.986   5.442   3.944
 1050SOL     OW 4048   4.271   5.357   1.030
 1050SOL    HW1 4049   4.318   5.312   1.106
 1050SOL    HW2 4050   4.292   5.454   1.030
 1051SOL     OW 4051   2.409   6.099   0.827
 1051SOL    HW1 4052   2.433   6.003   0.840
 1051SOL    HW2 4053   2.440   6.152   0.906
 1052SOL     OW 4054   3.618   0.292   4.798
 1052SOL    HW1 4055   3.637   0.365   4.733
 1052SOL    HW2 4056   3.673   0.211   4.775
 1053SOL     OW 4057   5.455   4.998   3.171
 1053SOL    HW1 4058   5.384   4.965   3.234
 1053SOL    HW2 4059   5.413   5.019   3.083
 1054SOL     OW 4060   2.273   3.665   5.666
 1054SOL    HW1 4061   2.296   3.741   5.727
 1054SOL    HW2 4062   2.356   3.613   5.645
 1055SOL     OW 4063   5.389   6.673   3.766
 1055SOL    HW1 4064   5.313   6.732   3.794
 1055SOL    HW2 4065   5.448   6.723   3.702
 1056SOL     OW 4066   1.886   4.800   5.817
 1056SOL    HW1 4067   1.910   4.725   5.755
 1056SOL    HW2 4068   1.929   4.784   5.906
 1057SOL     OW 4069   3.565   3.306   2.655
 1057SOL    HW1 4070   3.485   3.284   2.599
 1057SOL    HW2 4071   3.602   3.222   2.695
 1058SOL     OW 4072   5.173   1.616   3.142
 1058SOL    HW1 4073   5.264   1.641   3.110
 1058SOL    HW2 4074   5.106   1.680   3.106
 1059SOL     OW 4075   2.288   0.385   1.368
 1059SOL    HW1 4076   2.290   0.361   1.465
 1059SOL    HW2 4077   2.335   0.314   1.316
 1060SOL     OW 4078   0.069   4.436   4.502
 1060SOL    HW1 4079   7.003   4.453   4.463
 1060SOL    HW2 4080   0.090   4.338   4.496
 1061SOL     OW 4081   5.747   3.766   1.331
 1061SOL    HW1 4082   5.681   3.762   1.406
 1061SOL    HW2 4083   5.818   3.697   1.346
 1062SOL     OW 4084   5.795   3.948   5.949
 1062SOL    HW1 4085   5.808   4.044   5.975
 1062SOL    HW2 4086   5.801   3.891   6.031
 1063SOL     OW 4087   2.141   4.718   1.413
 1063SOL    HW1 4088   2.132   4.704   1.315
 1063SOL    HW2 4089   2.133   4.815   1.434
 1064SOL     OW 4090   2.024   4.399   1.906
 1064SOL    HW1 4091   1.951   4.362   1.850
 1064SOL    HW2 4092   2.012   4.368   2.001
 1065SOL     OW 4093   4.396   6.954   4.178
 1065SOL    HW1 4094   4.394   6.875   4.239
 1065SOL    HW2 4095   4.303   6.992   4.169
 1066SOL     OW 4096   4.847   0.608   4.033
 1066SOL    HW1 4097   4.820   0.512   4.032
 1066SOL    HW2 4098   4.817   0.651   4.118
 1067SOL     OW 4099   0.989   3.348   0.558
 1067SOL    HW1 4100   1.021   3.423   0.616
 1067SOL    HW2 4101   1.064   3.315   0.501
 1068SOL     OW 4102   4.945   4.932   2.483
 1068SOL    HW1 4103   4.993   4.915   2.569
 1068SOL    HW2 4104   4.912   4.846   2.445
 1069SOL     OW 4105   4.881   4.684   0.608
 1069SOL    HW1 4106   4.845   4.735   0.687
 1069SOL    HW2 4107   4.805   4.659   0.548
 1070SOL     OW 4108   0.454   6.981   2.036
 1070SOL    HW1 4109   0.453   6.964   2.135
 1070SOL    HW2 4110   0.445   0.055   2.020
 1071SOL     OW 4111   2.139   0.219   3.136
 1071SOL    HW1 4112   2.147   0.124   3.165
 1071SOL    HW2 4113   2.213   0.241   3.072
 1072SOL     OW 4114   1.719   6.974   1.269
 1072SOL    HW1 4115   1.638   0.007   1.270
 1072SOL    HW2 4116   1.781   7.002   1.343
 1073SOL     OW 4117   4.320   6.836   1.936
 1073SOL    HW1 4118   4.227   6.827   1.971
 1073SOL    HW2 4119   4.343   6.933   1.926
 1074SOL     OW 4120   2.574   5.444   0.442
 1074SOL    HW1 4121   2.570   5.539   0.473
 1074SOL    HW2 4122   2.580   5.442   0.343
 1075SOL     OW 4123   4.258   6.573   3.829
 1075SOL    HW1 4124   4.215   6.594   3.741
 1075SOL    HW2 4125   4.189   6.573   3.901
 1076SOL     OW 4126   6.482   3.966   5.266
 1076SOL    HW1 4127   6.479   3.913   5.182
 1076SOL    HW2 4128   6.389   3.984   5.298
 1077SOL     OW 4129   5.745   0.044   0.985
 1077SOL    HW1 4130   5.801   0.086   0.914
 1077SOL    HW2 4131   5.655   0.088   0.987
 1078SOL     OW 4132   0.788   1.607   2.387
 1078SOL    HW1 4133   0.755   1.515   2.370
 1078SOL    HW2 4134   0.760   1.638   2.478
 1079SOL     OW 4135   1.987   5.974   1.982
 1079SOL    HW1 4136   2.023   6.051   2.035
 1079SOL    HW2 4137   1.996   5.995   1.884
 1080SOL     OW 4138   1.655   4.636   3.503
 1080SOL    HW1 4139   1.580   4.667   3.562
 1080SOL    HW2 4140   1.731   4.605   3.559
 1081SOL     OW 4141   0.307   6.337   6.065
 1081SOL    HW1 4142   0.299   6.242   6.094
 1081SOL    HW2 4143   0.255   6.351   5.981
 1082SOL     OW 4144   3.777   1.878   5.918
 1082SOL    HW1 4145   3.753   1.818   5.995
 1082SOL    HW2 4146   3.812   1.823   5.843
 1083SOL     OW 4147   3.959   3.933   0.889
 1083SOL    HW1 4148   4.054   3.914   0.865
 1083SOL    HW2 4149   3.898   3.886   0.825
 1084SOL     OW 4150   6.452   5.745   0.593
 1084SOL    HW1 4151   6.362   5.786   0.610
 1084SOL    HW2 4152   6.440   5.650   0.563
 1085SOL     OW 4153   1.547   4.159   3.814
 1085SOL    HW1 4154   1.642   4.129   3.823
 1085SOL    HW2 4155   1.517   4.148   3.719
 1086SOL     OW 4156   6.673   5.951   1.851
 1086SOL    HW1 4157   6.745   5.885   1.829
 1086SOL    HW2 4158   6.646   5.998   1.767
 1087SOL     OW 4159   6.022   2.955   5.715
 1087SOL    HW1 4160   6.071   2.900   5.646
 1087SOL    HW2 4161   5.951   2.899   5.758
 1088SOL     OW 4162   6.234   4.552   3.395
 1088SOL    HW1 4163   6.157   4.601   3.437
 1088SOL    HW2 4164   6.202   4.466   3.357
 1089SOL     OW 4165   1.512   6.633   4.851
 1089SOL    HW1 4166   1.496   6.536   4.871
 1089SOL    HW2 4167   1.463   6.689   4.918
 1090SOL     OW 4168   2.487   1.325   3.465
 1090SOL    HW1 4169   2.411   1.261   3.478
 1090SOL    HW2 4170   2.573   1.273   3.460
 1091SOL     OW 4171   2.524   2.851   5.639
 1091SOL    HW1 4172   2.491   2.945   5.644
 1091SOL    HW2 4173   2.535   2.824   5.544
 1092SOL     OW 4174   1.647   3.901   0.676
 1092SOL    HW1 4175   1.679   3.995   0.664
 1092SOL    HW2 4176   1.692   3.842   0.608
 1093SOL     OW 4177   1.271   1.525   2.109
 1093SOL    HW1 4178   1.173   1.505   2.112
 1093SOL    HW2 4179   1.307   1.530   2.202
 1094SOL     OW 4180   0.829   5.777   4.054
 1094SOL    HW1 4181   0.798   5.766   3.960
 1094SOL    HW2 4182   0.787   5.859   4.094
 1095SOL     OW 4183   0.780   2.556   6.040
 1095SOL    HW1 4184   0.818   2.581   6.129
 1095SOL    HW2 4185   0.816   2.617   5.970
 1096SOL     OW 4186   3.290   4.637   1.711
 1096SOL    HW1 4187   3.382   4.662   1.743
 1096SOL    HW2 4188   3.222   4.690   1.762
 1097SOL     OW 4189   1.908   4.166   4.029
 1097SOL    HW1 4190   1.936   4.074   4.054
 1097SOL    HW2 4191   1.869   4.212   4.108
 1098SOL     OW 4192   4.538   3.248   1.110
 1098SOL    HW1 4193   4.503   3.288   1.025
 1098SOL    HW2 4194   4.626   3.204   1.092
 1099SOL     OW 4195   4.265   1.628   5.370
 1099SOL    HW1 4196   4.330   1.689   5.414
 1099SOL    HW2 4197   4.200   1.593   5.438
 1100SOL     OW 4198   3.368   1.949   5.927
 1100SOL    HW1 4199   3.437   1.977   5.861
 1100SOL    HW2 4200   3.278   1.954   5.886
 1101SOL     OW 4201   6.079   2.393   0.414
 1101SOL    HW1 4202   6.122   2.469   0.463
 1101SOL    HW2 4203   5.983   2.386   0.441
 1102SOL     OW 4204   0.977   5.668   4.433
 1102SOL    HW1 4205   0.949   5.737   4.501
 1102SOL    HW2 4206   0.966   5.706   4.341
 1103SOL     OW 4207   3.473   1.672   0.981
 1103SOL    HW1 4208   3.460   1.578   0.948
 1103SOL    HW2 4209   3.397   1.697   1.040
 1104SOL     OW 4210   2.372   3.418   5.246
 1104SOL    HW1 4211   2.456   3.393   5.294
 1104SOL    HW2 4212   2.343   3.509   5.276
 1105SOL     OW 4213   5.999   3.870   4.613
 1105SOL    HW1 4214   6.088   3.830   4.636
 1105SOL    HW2 4215   5.937   3.797   4.585
 1106SOL     OW 4216   1.043   1.969   1.069
 1106SOL    HW1 4217   0.986   1.920   1.003
 1106SOL    HW2 4218   1.094   1.903   1.124
 1107SOL     OW 4219   1.929   0.070   6.609
 1107SOL    HW1 4220   1.984   0.007   6.664
 1107SOL    HW2 4221   1.975   0.158   6.603
 1108SOL     OW 4222   3.176   1.238   5.984
 1108SOL    HW1 4223   3.129   1.222   5.897
 1108SOL    HW2 4224   3.115   1.284   6.047
 1109SOL     OW 4225   4.610   7.012   4.691
 1109SOL    HW1 4226   4.549   6.996   4.768
 1109SOL    HW2 4227   4.698   0.021   4.724
 1110SOL     OW 4228   2.732   1.961   2.934
 1110SOL    HW1 4229   2.778   2.000   3.015
 1110SOL    HW2 4230   2.790   1.890   2.894
 1111SOL     OW 4231   5.120   4.864   6.632
 1111SOL    HW1 4232   5.079   4.856   6.541
 1111SOL    HW2 4233   5.121   4.775   6.676
 1112SOL     OW 4234   5.128   1.411   2.306
 1112SOL    HW1 4235   5.192   1.416   2.383
 1112SOL    HW2 4236   5.135   1.494   2.251
 1113SOL     OW 4237   0.275   3.444   3.014
 1113SOL    HW1 4238   0.209   3.518   3.030
 1113SOL    HW2 4239   0.270   3.378   3.089
 1114SOL     OW 4240   4.272   1.644   6.494
 1114SOL    HW1 4241   4.278   1.545   6.478
 1114SOL    HW2 4242   4.265   1.691   6.406
 1115SOL     OW 4243   4.313   2.898   0.339
 1115SOL    HW1 4244   4.323   2.925   0.435
 1115SOL    HW2 4245   4.296   2.799   0.334
 1116SOL     OW 4246   5.581   6.179   5.237
 1116SOL    HW1 4247   5.565   6.187   5.335
 1116SOL    HW2 4248   5.565   6.267   5.193
 1117SOL     OW 4249   1.422   2.290   1.508
 1117SOL    HW1 4250   1.508   2.242   1.530
 1117SOL    HW2 4251   1.365   2.232   1.451
 1118SOL     OW 4252   2.562   4.247   1.624
 1118SOL    HW1 4253   2.622   4.323   1.647
 1118SOL    HW2 4254   2.616   4.172   1.585
 1119SOL     OW 4255   4.474   4.318   0.428
 1119SOL    HW1 4256   4.402   4.277   0.483
 1119SOL    HW2 4257   4.539   4.247   0.401
 1120SOL     OW 4258   5.846   0.191   5.086
 1120SOL    HW1 4259   5.868   0.272   5.031
 1120SOL    HW2 4260   5.751   0.197   5.118
 1121SOL     OW 4261   5.217   5.352   2.428
 1121SOL    HW1 4262   5.139   5.390   2.478
 1121SOL    HW2 4263   5.198   5.257   2.404
 1122SOL     OW 4264   4.330   3.526   0.224
 1122SOL    HW1 4265   4.389   3.466   0.279
 1122SOL    HW2 4266   4.314   3.611   0.274
 1123SOL     OW 4267   5.445   1.335   3.575
 1123SOL    HW1 4268   5.351   1.307   3.590
 1123SOL    HW2 4269   5.495   1.261   3.529
 1124SOL     OW 4270   6.521   4.268   4.890
 1124SOL    HW1 4271   6.483   4.361   4.891
 1124SOL    HW2 4272   6.541   4.242   4.796
 1125SOL     OW 4273   3.161   1.323   4.726
 1125SOL    HW1 4274   3.233   1.391   4.711
 1125SOL    HW2 4275   3.084   1.341   4.664
 1126SOL     OW 4276   5.183   5.538   6.893
 1126SOL    HW1 4277   5.172   5.538   6.993
 1126SOL    HW2 4278   5.126   5.466   6.853
 1127SOL     OW 4279   4.583   4.961   5.150
 1127SOL    HW1 4280   4.520   5.025   5.105
 1127SOL    HW2 4281   4.646   4.923   5.082
 1128SOL     OW 4282   5.306   1.963   5.549
 1128SOL    HW1 4283   5.348   1.889   5.602
 1128SOL    HW2 4284   5.210   1.942   5.531
 1129SOL     OW 4285   3.241   0.738   6.847
 1129SOL    HW1 4286   3.269   0.653   6.892
 1129SOL    HW2 4287   3.180   0.717   6.770
 1130SOL     OW 4288   1.592   4.670   0.998
 1130SOL    HW1 4289   1.668   4.640   1.056
 1130SOL    HW2 4290   1.625   4.734   0.929
 1131SOL     OW 4291   0.118   6.131   6.343
 1131SOL    HW1 4292   0.064   6.135   6.426
 1131SOL    HW2 4293   0.060   6.103   6.266
 1132SOL     OW 4294   4.925   6.876   1.573
 1132SOL    HW1 4295   5.025   6.878   1.570
 1132SOL    HW2 4296   4.890   6.952   1.518
 1133SOL     OW 4297   0.891   0.618   1.282
 1133SOL    HW1 4298   0.825   0.573   1.222
 1133SOL    HW2 4299   0.859   0.711   1.304
 1134SOL     OW 4300   4.736   1.649   1.625
 1134SOL    HW1 4301   4.651   1.701   1.624
 1134SOL    HW2 4302   4.738   1.587   1.547
 1135SOL     OW 4303   2.084   1.147   2.526
 1135SOL    HW1 4304   2.043   1.233   2.556
 1135SOL    HW2 4305   2.015   1.092   2.479
 1136SOL     OW 4306   3.245   5.135   4.912
 1136SOL    HW1 4307   3.336   5.175   4.913
 1136SOL    HW2 4308   3.216   5.122   4.817
 1137SOL     OW 4309   1.252   1.756   6.007
 1137SOL    HW1 4310   1.234   1.832   5.945
 1137SOL    HW2 4311   1.350   1.743   6.017
 1138SOL     OW 4312   0.516   1.355   6.618
 1138SOL    HW1 4313   0.540   1.320   6.527
 1138SOL    HW2 4314   0.419   1.339   6.636
 1139SOL     OW 4315   3.048   5.598   1.463
 1139SOL    HW1 4316   3.080   5.540   1.388
 1139SOL    HW2 4317   3.008   5.682   1.426
 1140SOL     OW 4318   3.436   1.050   2.039
 1140SOL    HW1 4319   3.375   0.973   2.053
 1140SOL    HW2 4320   3.389   1.121   1.987
 1141SOL     OW 4321   0.287   6.988   6.588
 1141SOL    HW1 4322   0.362   6.980   6.522
 1141SOL    HW2 4323   0.268   6.899   6.628
 1142SOL     OW 4324   2.963   0.283   4.173
 1142SOL    HW1 4325   2.960   0.227   4.091
 1142SOL    HW2 4326   3.047   0.337   4.174
 1143SOL     OW 4327   1.748   3.611   1.694
 1143SOL    HW1 4328   1.767   3.709   1.708
 1143SOL    HW2 4329   1.752   3.564   1.782
 1144SOL     OW 4330   6.297   4.956   5.463
 1144SOL    HW1 4331   6.288   4.892   5.540
 1144SOL    HW2 4332   6.299   5.049   5.497
 1145SOL     OW 4333   0.232   3.905   2.216
 1145SOL    HW1 4334   0.189   3.896   2.126
 1145SOL    HW2 4335   0.301   3.977   2.213
 1146SOL     OW 4336   6.093   0.831   1.517
 1146SOL    HW1 4337   6.059   0.744   1.552
 1146SOL    HW2 4338   6.065   0.905   1.578
 1147SOL     OW 4339   1.474   5.141   0.979
 1147SOL    HW1 4340   1.483   5.082   0.898
 1147SOL    HW2 4341   1.565   5.167   1.011
 1148SOL     OW 4342   4.887   6.749   6.538
 1148SOL    HW1 4343   4.844   6.837   6.517
 1148SOL    HW2 4344   4.820   6.689   6.582
 1149SOL     OW 4345   6.472   4.008   2.675
 1149SOL    HW1 4346   6.388   4.041   2.632
 1149SOL    HW2 4347   6.544   3.998   2.606
 1150SOL     OW 4348   2.873   4.046   0.909
 1150SOL    HW1 4349   2.791   4.103   0.903
 1150SOL    HW2 4350   2.850   3.959   0.951
 1151SOL     OW 4351   4.633   5.023   6.557
 1151SOL    HW1 4352   4.668   4.974   6.637
 1151SOL    HW2 4353   4.698   5.095   6.532
 1152SOL     OW 4354   6.859   5.824   5.982
 1152SOL    HW1 4355   6.858   5.730   5.947
 1152SOL    HW2 4356   6.800   5.829   6.063
 1153SOL     OW 4357   2.440   0.076   2.292
 1153SOL    HW1 4358   2.401   0.093   2.202
 1153SOL    HW2 4359   2.371   0.094   2.362
 1154SOL     OW 4360   0.676   4.184   1.893
 1154SOL    HW1 4361   0.721   4.246   1.828
 1154SOL    HW2 4362   0.657   4.097   1.848
 1155SOL     OW 4363   2.391   5.053   6.912
 1155SOL    HW1 4364   2.384   5.129   6.848
 1155SOL    HW2 4365   2.300   5.027   6.943
 1156SOL     OW 4366   2.604   1.163   4.888
 1156SOL    HW1 4367   2.533   1.115   4.939
 1156SOL    HW2 4368   2.563   1.216   4.814
 1157SOL     OW 4369   5.917   0.409   4.942
 1157SOL    HW1 4370   5.910   0.479   5.014
 1157SOL    HW2 4371   6.012   0.404   4.910
 1158SOL     OW 4372   6.850   5.986   5.446
 1158SOL    HW1 4373   6.854   5.886   5.445
 1158SOL    HW2 4374   6.912   6.022   5.377
 1159SOL     OW 4375   5.844   6.666   3.758
 1159SOL    HW1 4376   5.783   6.588   3.765
 1159SOL    HW2 4377   5.792   6.751   3.766
 1160SOL     OW 4378   3.717   3.159   1.013
 1160SOL    HW1 4379   3.689   3.135   0.920
 1160SOL    HW2 4380   3.690   3.086   1.075
 1161SOL     OW 4381   5.686   0.400   6.613
 1161SOL    HW1 4382   5.596   0.361   6.593
 1161SOL    HW2 4383   5.749   0.327   6.641
 1162SOL     OW 4384   2.960   2.168   6.788
 1162SOL    HW1 4385   2.957   2.078   6.744
 1162SOL    HW2 4386   2.882   2.178   6.849
 1163SOL     OW 4387   0.041   3.260   1.550
 1163SOL    HW1 4388   7.013   3.208   1.483
 1163SOL    HW2 4389   7.015   3.263   1.637
 1164SOL     OW 4390   5.496   2.321   4.739
 1164SOL    HW1 4391   5.442   2.327   4.656
 1164SOL    HW2 4392   5.441   2.351   4.817
 1165SOL     OW 4393   2.187   4.605   4.142
 1165SOL    HW1 4394   2.262   4.552   4.103
 1165SOL    HW2 4395   2.218   4.654   4.223
 1166SOL     OW 4396   3.859   6.673   0.389
 1166SOL    HW1 4397   3.763   6.701   0.392
 1166SOL    HW2 4398   3.915   6.749   0.356
 1167SOL     OW 4399   4.158   6.386   6.282
 1167SOL    HW1 4400   4.230   6.452   6.306
 1167SOL    HW2 4401   4.087   6.388   6.352
 1168SOL     OW 4402   5.752   2.022   3.456
 1168SOL    HW1 4403   5.791   1.982   3.539
 1168SOL    HW2 4404   5.712   1.950   3.400
 1169SOL     OW 4405   5.508   2.515   6.254
 1169SOL    HW1 4406   5.551   2.604   6.237
 1169SOL    HW2 4407   5.418   2.513   6.210
 1170SOL     OW 4408   5.295   1.446   2.524
 1170SOL    HW1 4409   5.350   1.528   2.535
 1170SOL    HW2 4410   5.325   1.377   2.590
 1171SOL     OW 4411   2.943   6.593   0.149
 1171SOL    HW1 4412   2.846   6.617   0.153
 1171SOL    HW2 4413   2.981   6.590   0.242
 1172SOL     OW 4414   3.304   3.768   2.107
 1172SOL    HW1 4415   3.305   3.689   2.170
 1172SOL    HW2 4416   3.274   3.849   2.156
 1173SOL     OW 4417   3.400   0.127   5.840
 1173SOL    HW1 4418   3.352   0.125   5.927
 1173SOL    HW2 4419   3.483   0.181   5.848
 1174SOL     OW 4420   2.969   4.407   0.196
 1174SOL    HW1 4421   3.026   4.354   0.258
 1174SOL    HW2 4422   3.007   4.500   0.188
 1175SOL     OW 4423   4.172   2.996   6.551
 1175SOL    HW1 4424   4.107   3.056   6.504
 1175SOL    HW2 4425   4.251   3.049   6.583
 1176SOL     OW 4426   5.844   4.254   0.285
 1176SOL    HW1 4427   5.846   4.215   0.377
 1176SOL    HW2 4428   5.819   4.183   0.219
 1177SOL     OW 4429   6.827   1.281   6.010
 1177SOL    HW1 4430   6.804   1.187   6.037
 1177SOL    HW2 4431   6.752   1.342   6.037
 1178SOL     OW 4432   3.555   3.819   1.189
 1178SOL    HW1 4433   3.527   3.735   1.236
 1178SOL    HW2 4434   3.556   3.803   1.091
 1179SOL     OW 4435   3.255   6.061   0.519
 1179SOL    HW1 4436   3.159   6.053   0.547
 1179SOL    HW2 4437   3.303   6.121   0.583
 1180SOL     OW 4438   2.478   6.297   3.828
 1180SOL    HW1 4439   2.394   6.307   3.880
 1180SOL    HW2 4440   2.497   6.381   3.778
 1181SOL     OW 4441   6.696   2.588   4.980
 1181SOL    HW1 4442   6.709   2.687   4.978
 1181SOL    HW2 4443   6.668   2.560   5.072
 1182SOL     OW 4444   3.046   5.197   3.938
 1182SOL    HW1 4445   3.000   5.266   3.994
 1182SOL    HW2 4446   2.988   5.174   3.859
 1183SOL     OW 4447   3.562   6.244   1.709
 1183SOL    HW1 4448   3.553   6.337   1.673
 1183SOL    HW2 4449   3.580   6.248   1.807
 1184SOL     OW 4450   4.586   6.738   6.386
 1184SOL    HW1 4451   4.638   6.671   6.333
 1184SOL    HW2 4452   4.631   6.827   6.381
 1185SOL     OW 4453   1.379   0.314   0.608
 1185SOL    HW1 4454   1.314   0.385   0.580
 1185SOL    HW2 4455   1.349   0.274   0.694
 1186SOL     OW 4456   6.120   5.861   6.440
 1186SOL    HW1 4457   6.122   5.947   6.389
 1186SOL    HW2 4458   6.182   5.795   6.397
 1187SOL     OW 4459   5.607   0.264   5.358
 1187SOL    HW1 4460   5.682   0.197   5.360
 1187SOL    HW2 4461   5.536   0.237   5.423
 1188SOL     OW 4462   3.571   6.225   6.591
 1188SOL    HW1 4463   3.487   6.237   6.538
 1188SOL    HW2 4464   3.557   6.256   6.685
 1189SOL     OW 4465   6.242   0.937   2.285
 1189SOL    HW1 4466   6.256   0.969   2.191
 1189SOL    HW2 4467   6.267   1.010   2.349
 1190SOL     OW 4468   3.474   5.007   3.950
 1190SOL    HW1 4469   3.450   5.097   3.913
 1190SOL    HW2 4470   3.528   5.019   4.033
 1191SOL     OW 4471   2.818   6.757   4.580
 1191SOL    HW1 4472   2.856   6.773   4.671
 1191SOL    HW2 4473   2.844   6.832   4.519
 1192SOL     OW 4474   5.588   6.392   3.016
 1192SOL    HW1 4475   5.643   6.471   2.992
 1192SOL    HW2 4476   5.506   6.390   2.959
 1193SOL     OW 4477   0.558   0.859   5.288
 1193SOL    HW1 4478   0.601   0.929   5.344
 1193SOL    HW2 4479   0.561   0.886   5.191
 1194SOL     OW 4480   0.248   1.461   1.293
 1194SOL    HW1 4481   0.168   1.483   1.237
 1194SOL    HW2 4482   0.226   1.387   1.356
 1195SOL     OW 4483   6.795   3.427   1.129
 1195SOL    HW1 4484   6.790   3.483   1.212
 1195SOL    HW2 4485   6.708   3.380   1.114
 1196SOL     OW 4486   6.239   4.987   2.220
 1196SOL    HW1 4487   6.192   4.955   2.303
 1196SOL    HW2 4488   6.332   4.951   2.219
 1197SOL     OW 4489   4.618   6.369   3.980
 1197SOL    HW1 4490   4.678   6.398   3.905
 1197SOL    HW2 4491   4.673   6.327   4.052
 1198SOL     OW 4492   1.520   3.730   2.342
 1198SOL    HW1 4493   1.489   3.822   2.318
 1198SOL    HW2 4494   1.587   3.699   2.275
 1199SOL     OW 4495   3.882   3.381   2.756
 1199SOL    HW1 4496   3.974   3.420   2.751
 1199SOL    HW2 4497   3.830   3.411   2.675
 1200SOL     OW 4498   3.995   3.891   4.406
 1200SOL    HW1 4499   4.054   3.812   4.391
 1200SOL    HW2 4500   3.970   3.896   4.502
 1201SOL     OW 4501   6.971   1.025   4.190
 1201SOL    HW1 4502   6.885   0.987   4.156
 1201SOL    HW2 4503   6.952   1.089   4.264
 1202SOL     OW 4504   5.908   0.802   5.927
 1202SOL    HW1 4505   5.948   0.851   5.850
 1202SOL    HW2 4506   5.964   0.722   5.948
 1203SOL     OW 4507   0.173   6.688   1.315
 1203SOL    HW1 4508   0.081   6.705   1.349
 1203SOL    HW2 4509   0.240   6.732   1.375
 1204SOL     OW 4510   4.471   1.929   1.981
 1204SOL    HW1 4511   4.398   1.933   2.049
 1204SOL    HW2 4512   4.506   1.836   1.974
 1205SOL     OW 4513   3.902   3.137   0.236
 1205SOL    HW1 4514   3.829   3.199   0.266
 1205SOL    HW2 4515   3.870   3.084   0.157
 1206SOL     OW 4516   1.425   2.504   4.372
 1206SOL    HW1 4517   1.344   2.521   4.428
 1206SOL    HW2 4518   1.506   2.533   4.422
 1207SOL     OW 4519   0.297   0.433   0.208
 1207SOL    HW1 4520   0.365   0.474   0.148
 1207SOL    HW2 4521   0.240   0.504   0.248
 1208SOL     OW 4522   3.546   3.586   1.387
 1208SOL    HW1 4523   3.531   3.520   1.314
 1208SOL    HW2 4524   3.459   3.615   1.425
 1209SOL     OW 4525   5.528   0.433   4.271
 1209SOL    HW1 4526   5.512   0.445   4.173
 1209SOL    HW2 4527   5.547   0.522   4.313
 1210SOL     OW 4528   4.980   0.074   3.480
 1210SOL    HW1 4529   4.908   0.099   3.415
 1210SOL    HW2 4530   5.017   7.009   3.455
 1211SOL     OW 4531   0.949   3.773   3.001
 1211SOL    HW1 4532   0.972   3.702   3.068
 1211SOL    HW2 4533   0.875   3.830   3.037
 1212SOL     OW 4534   6.397   0.773   6.376
 1212SOL    HW1 4535   6.421   0.846   6.312
 1212SOL    HW2 4536   6.480   0.724   6.404
 1213SOL     OW 4537   5.633   2.329   2.501
 1213SOL    HW1 4538   5.541   2.340   2.466
 1213SOL    HW2 4539   5.653   2.231   2.512
 1214SOL     OW 4540   0.555   2.331   6.175
 1214SOL    HW1 4541   0.490   2.353   6.248
 1214SOL    HW2 4542   0.597   2.242   6.195
 1215SOL     OW 4543   2.305   5.080   2.968
 1215SOL    HW1 4544   2.267   5.162   2.925
 1215SOL    HW2 4545   2.404   5.092   2.978
 1216SOL     OW 4546   0.109   0.998   0.456
 1216SOL    HW1 4547   0.031   0.938   0.471
 1216SOL    HW2 4548   0.117   1.020   0.359
 1217SOL     OW 4549   2.869   5.154   0.574
 1217SOL    HW1 4550   2.777   5.124   0.602
 1217SOL    HW2 4551   2.864   5.197   0.484
 1218SOL     OW 4552   1.290   4.085   5.768
 1218SOL    HW1 4553   1.335   4.137   5.842
 1218SOL    HW2 4554   1.317   3.989   5.774
 1219SOL     OW 4555   5.296   5.265   1.620
 1219SOL    HW1 4556   5.220   5.297   1.676
 1219SOL    HW2 4557   5.265   5.186   1.566
 1220SOL     OW 4558   6.926   3.970   2.618
 1220SOL    HW1 4559   6.839   3.924   2.635
 1220SOL    HW2 4560   6.966   3.999   2.705
 1221SOL     OW 4561   5.627   3.565   6.195
 1221SOL    HW1 4562   5.682   3.644   6.223
 1221SOL    HW2 4563   5.590   3.581   6.103
 1222SOL     OW 4564   0.592   0.505   0.353
 1222SOL    HW1 4565   0.645   0.588   0.337
 1222SOL    HW2 4566   0.649   0.425   0.332
 1223SOL     OW 4567   3.370   1.471   0.014
 1223SOL    HW1 4568   3.454   1.427   7.008
 1223SOL    HW2 4569   3.330   1.419   0.089
 1224SOL     OW 4570   2.811   5.895   7.013
 1224SOL    HW1 4571   2.871   5.868   6.938
 1224SOL    HW2 4572   2.716   5.897   6.981
 1225SOL     OW 4573   4.186   2.383   0.477
 1225SOL    HW1 4574   4.167   2.334   0.392
 1225SOL    HW2 4575   4.099   2.410   0.521
 1226SOL     OW 4576   4.476   6.242   0.816
 1226SOL    HW1 4577   4.485   6.150   0.776
 1226SOL    HW2 4578   4.409   6.294   0.764
 1227SOL     OW 4579   5.129   5.271   6.078
 1227SOL    HW1 4580   5.055   5.222   6.032
 1227SOL    HW2 4581   5.098   5.363   6.101
 1228SOL     OW 4582   3.255   2.597   0.149
 1228SOL    HW1 4583   3.243   2.518   0.089
 1228SOL    HW2 4584   3.166   2.628   0.181
 1229SOL     OW 4585   1.731   5.399   0.306
 1229SOL    HW1 4586   1.650   5.373   0.253
 1229SOL    HW2 4587   1.813   5.360   0.264
 1230SOL     OW 4588   6.007   5.566   2.307
 1230SOL    HW1 4589   6.082   5.591   2.368
 1230SOL    HW2 4590   6.016   5.469   2.281
 1231SOL     OW 4591   1.722   1.664   5.448
 1231SOL    HW1 4592   1.651   1.727   5.417
 1231SOL    HW2 4593   1.680   1.579   5.479
 1232SOL     OW 4594   5.896   1.416   4.900
 1232SOL    HW1 4595   5.977   1.369   4.935
 1232SOL    HW2 4596   5.885   1.503   4.948
 1233SOL     OW 4597   0.416   5.916   4.753
 1233SOL    HW1 4598   0.359   5.925   4.835
 1233SOL    HW2 4599   0.477   5.994   4.745
 1234SOL     OW 4600   6.028   2.124   5.704
 1234SOL    HW1 4601   5.956   2.153   5.640
 1234SOL    HW2 4602   6.071   2.205   5.744
 1235SOL     OW 4603   6.355   4.900   1.373
 1235SOL    HW1 4604   6.307   4.849   1.444
 1235SOL    HW2 4605   6.294   4.968   1.333
 1236SOL     OW 4606   3.683   1.083   2.156
 1236SOL    HW1 4607   3.598   1.081   2.104
 1236SOL    HW2 4608   3.663   1.086   2.254
 1237SOL     OW 4609   0.848   4.928   5.261
 1237SOL    HW1 4610   0.854   4.951   5.164
 1237SOL    HW2 4611   0.939   4.921   5.300
 1238SOL     OW 4612   1.374   0.544   5.788
 1238SOL    HW1 4613   1.389   0.452   5.751
 1238SOL    HW2 4614   1.277   0.558   5.802
 1239SOL     OW 4615   0.299   0.078   5.824
 1239SOL    HW1 4616   0.365   0.106   5.753
 1239SOL    HW2 4617   0.249   7.022   5.792
 1240SOL     OW 4618   5.970   5.741   1.095
 1240SOL    HW1 4619   5.907   5.764   1.169
 1240SOL    HW2 4620   6.039   5.813   1.087
 1241SOL     OW 4621   5.813   4.554   5.570
 1241SOL    HW1 4622   5.739   4.601   5.521
 1241SOL    HW2 4623   5.775   4.482   5.628
 1242SOL     OW 4624   1.938   4.341   0.561
 1242SOL    HW1 4625   1.850   4.382   0.584
 1242SOL    HW2 4626   1.974   4.383   0.478
 1243SOL     OW 4627   0.387   1.385   4.814
 1243SOL    HW1 4628   0.457   1.428   4.757
 1243SOL    HW2 4629   0.422   1.372   4.907
 1244SOL     OW 4630   5.348   5.801   5.057
 1244SOL    HW1 4631   5.429   5.756   5.095
 1244SOL    HW2 4632   5.266   5.753   5.085
 1245SOL     OW 4633   5.646   4.487   6.598
 1245SOL    HW1 4634   5.726   4.427   6.597
 1245SOL    HW2 4635   5.656   4.554   6.672
 1246SOL     OW 4636   3.217   1.839   2.661
 1246SOL    HW1 4637   3.231   1.931   2.625
 1246SOL    HW2 4638   3.298   1.811   2.713
 1247SOL     OW 4639   6.604   6.981   6.207
 1247SOL    HW1 4640   6.578   7.024   6.294
 1247SOL    HW2 4641   6.545   7.016   6.134
 1248SOL     OW 4642   1.989   5.942   3.877
 1248SOL    HW1 4643   1.936   6.003   3.819
 1248SOL    HW2 4644   1.969   5.960   3.973
 1249SOL     OW 4645   0.639   3.134   1.629
 1249SOL    HW1 4646   0.601   3.149   1.720
 1249SOL    HW2 4647   0.707   3.204   1.608
 1250SOL     OW 4648   5.691   4.939   3.436
 1250SOL    HW1 4649   5.629   4.862   3.451
 1250SOL    HW2 4650   5.641   5.024   3.446
 1251SOL     OW 4651   1.878   0.823   3.037
 1251SOL    HW1 4652   1.971   0.806   3.071
 1251SOL    HW2 4653   1.881   0.892   2.965
 1252SOL     OW 4654   3.526   4.561   6.358
 1252SOL    HW1 4655   3.496   4.655   6.376
 1252SOL    HW2 4656   3.450   4.509   6.318
 1253SOL     OW 4657   3.085   6.899   2.906
 1253SOL    HW1 4658   3.103   6.851   2.820
 1253SOL    HW2 4659   3.026   6.978   2.888
 1254SOL     OW 4660   0.183   2.408   4.241
 1254SOL    HW1 4661   0.123   2.365   4.308
 1254SOL    HW2 4662   0.132   2.426   4.157
 1255SOL     OW 4663   5.342   1.748   6.325
 1255SOL    HW1 4664   5.359   1.817   6.395
 1255SOL    HW2 4665   5.312   1.792   6.241
 1256SOL     OW 4666   0.512   6.337   3.793
 1256SOL    HW1 4667   0.544   6.344   3.698
 1256SOL    HW2 4668   0.431   6.277   3.796
 1257SOL     OW 4669   7.018   4.884   4.424
 1257SOL    HW1 4670   7.013   4.852   4.518
 1257SOL    HW2 4671   0.060   4.829   4.373
 1258SOL     OW 4672   1.974   5.092   2.849
 1258SOL    HW1 4673   1.983   5.152   2.929
 1258SOL    HW2 4674   2.047   5.112   2.784
 1259SOL     OW 4675   3.600   6.663   4.782
 1259SOL    HW1 4676   3.693   6.625   4.784
 1259SOL    HW2 4677   3.600   6.748   4.729
 1260SOL     OW 4678   3.192   1.572   0.631
 1260SOL    HW1 4679   3.257   1.618   0.692
 1260SOL    HW2 4680   3.112   1.630   0.616
 1261SOL     OW 4681   6.796   5.034   6.498
 1261SOL    HW1 4682   6.840   5.007   6.584
 1261SOL    HW2 4683   6.697   5.025   6.507
 1262SOL     OW 4684   5.204   5.100   1.440
 1262SOL    HW1 4685   5.118   5.068   1.399
 1262SOL    HW2 4686   5.279   5.087   1.375
 1263SOL     OW 4687   6.979   1.685   1.441
 1263SOL    HW1 4688   6.935   1.707   1.353
 1263SOL    HW2 4689   6.910   1.655   1.506
 1264SOL     OW 4690   0.061   3.839   1.495
 1264SOL    HW1 4691   0.135   3.805   1.438
 1264SOL    HW2 4692   0.018   3.762   1.543
 1265SOL     OW 4693   5.380   5.476   3.770
 1265SOL    HW1 4694   5.284   5.449   3.759
 1265SOL    HW2 4695   5.417   5.432   3.852
 1266SOL     OW 4696   0.829   1.048   4.079
 1266SOL    HW1 4697   0.829   1.055   3.979
 1266SOL    HW2 4698   0.878   0.965   4.107
 1267SOL     OW 4699   5.608   6.330   1.329
 1267SOL    HW1 4700   5.523   6.334   1.278
 1267SOL    HW2 4701   5.678   6.384   1.282
 1268SOL     OW 4702   4.300   2.618   0.369
 1268SOL    HW1 4703   4.236   2.542   0.383
 1268SOL    HW2 4704   4.312   2.668   0.455
 1269SOL     OW 4705   5.669   6.400   5.938
 1269SOL    HW1 4706   5.674   6.350   6.024
 1269SOL    HW2 4707   5.759   6.439   5.916
 1270SOL     OW 4708   2.176   3.840   3.976
 1270SOL    HW1 4709   2.088   3.876   4.007
 1270SOL    HW2 4710   2.236   3.828   4.056
 1271SOL     OW 4711   3.314   1.890   3.547
 1271SOL    HW1 4712   3.335   1.805   3.596
 1271SOL    HW2 4713   3.347   1.883   3.453
 1272SOL     OW 4714   5.632   5.600   0.118
 1272SOL    HW1 4715   5.557   5.536   0.103
 1272SOL    HW2 4716   5.717   5.563   0.080
 1273SOL     OW 4717   0.709   4.626   6.691
 1273SOL    HW1 4718   0.750   4.580   6.770
 1273SOL    HW2 4719   0.693   4.560   6.618
 1274SOL     OW 4720   6.291   3.046   1.689
 1274SOL    HW1 4721   6.242   3.124   1.728
 1274SOL    HW2 4722   6.226   2.973   1.666
 1275SOL     OW 4723   3.200   1.275   4.387
 1275SOL    HW1 4724   3.284   1.280   4.441
 1275SOL    HW2 4725   3.175   1.367   4.356
 1276SOL     OW 4726   6.764   0.519   4.888
 1276SOL    HW1 4727   6.760   0.569   4.974
 1276SOL    HW2 4728   6.841   0.552   4.833
 1277SOL     OW 4729   1.231   6.717   5.900
 1277SOL    HW1 4730   1.262   6.720   5.995
 1277SOL    HW2 4731   1.236   6.808   5.860
 1278SOL     OW 4732   1.327   0.217   5.189
 1278SOL    HW1 4733   1.406   0.274   5.168
 1278SOL    HW2 4734   1.252   0.274   5.222
 1279SOL     OW 4735   3.616   6.130   0.906
 1279SOL    HW1 4736   3.677   6.057   0.937
 1279SOL    HW2 4737   3.643   6.216   0.948
 1280SOL     OW 4738   2.961   6.557   4.474
 1280SOL    HW1 4739   2.905   6.629   4.516
 1280SOL    HW2 4740   3.008   6.505   4.545
 1281SOL     OW 4741   1.715   6.151   3.077
 1281SOL    HW1 4742   1.764   6.173   2.993
 1281SOL    HW2 4743   1.648   6.080   3.059
 1282SOL     OW 4744   0.692   1.444   6.007
 1282SOL    HW1 4745   0.706   1.349   6.035
 1282SOL    HW2 4746   0.660   1.497   6.085
 1283SOL     OW 4747   6.772   2.793   5.129
 1283SOL    HW1 4748   6.817   2.810   5.041
 1283SOL    HW2 4749   6.820   2.719   5.177
 1284SOL     OW 4750   4.710   1.103   2.730
 1284SOL    HW1 4751   4.784   1.036   2.733
 1284SOL    HW2 4752   4.626   1.058   2.696
 1285SOL     OW 4753   4.462   2.304   6.756
 1285SOL    HW1 4754   4.509   2.228   6.711
 1285SOL    HW2 4755   4.527   2.377   6.776
 1286SOL     OW 4756   4.971   3.712   2.209
 1286SOL    HW1 4757   4.967   3.809   2.233
 1286SOL    HW2 4758   4.926   3.698   2.120
 1287SOL     OW 4759   5.325   4.599   5.500
 1287SOL    HW1 4760   5.231   4.619   5.472
 1287SOL    HW2 4761   5.357   4.671   5.562
 1288SOL     OW 4762   4.659   3.402   0.034
 1288SOL    HW1 4763   4.604   3.330   0.077
 1288SOL    HW2 4764   4.613   3.433   6.975
 1289SOL     OW 4765   1.213   6.109   2.122
 1289SOL    HW1 4766   1.117   6.080   2.119
 1289SOL    HW2 4767   1.219   6.207   2.104
 1290SOL     OW 4768   1.117   0.113   0.056
 1290SOL    HW1 4769   1.139   0.068   0.142
 1290SOL    HW2 4770   1.194   0.172   0.029
 1291SOL     OW 4771   0.301   4.010   5.544
 1291SOL    HW1 4772   0.364   3.953   5.596
 1291SOL    HW2 4773   0.298   3.979   5.449
 1292SOL     OW 4774   0.326   5.899   2.488
 1292SOL    HW1 4775   0.249   5.923   2.427
 1292SOL    HW2 4776   0.409   5.888   2.433
 1293SOL     OW 4777   1.097   1.688   0.027
 1293SOL    HW1 4778   1.114   1.697   6.954
 1293SOL    HW2 4779   1.163   1.623   0.066
 1294SOL     OW 4780   1.377   3.880   6.874
 1294SOL    HW1 4781   1.418   3.911   6.789
 1294SOL    HW2 4782   1.284   3.846   6.856
 1295SOL     OW 4783   7.013   3.432   2.620
 1295SOL    HW1 4784   0.058   3.499   2.646
 1295SOL    HW2 4785   0.003   3.404   2.525
 1296SOL     OW 4786   3.370   0.518   5.469
 1296SOL    HW1 4787   3.446   0.485   5.524
 1296SOL    HW2 4788   3.317   0.584   5.522
 1297SOL     OW 4789   5.772   0.955   1.075
 1297SOL    HW1 4790   5.820   0.999   1.150
 1297SOL    HW2 4791   5.683   0.999   1.061
 1298SOL     OW 4792   6.015   4.739   2.782
 1298SOL    HW1 4793   5.926   4.779   2.761
 1298SOL    HW2 4794   6.085   4.810   2.779
 1299SOL     OW 4795   0.734   3.542   3.305
 1299SOL    HW1 4796   0.792   3.463   3.324
 1299SOL    HW2 4797   0.675   3.522   3.226
 1300SOL     OW 4798   3.173   2.952   1.755
 1300SOL    HW1 4799   3.243   2.881   1.743
 1300SOL    HW2 4800   3.216   3.042   1.755
 1301SOL     OW 4801   0.680   5.619   1.408
 1301SOL    HW1 4802   0.623   5.674   1.348
 1301SOL    HW2 4803   0.629   5.536   1.435
 1302SOL     OW 4804   4.507   0.310   5.234
 1302SOL    HW1 4805   4.510   0.399   5.189
 1302SOL    HW2 4806   4.597   0.290   5.275
 1303SOL     OW 4807   4.525   1.415   2.356
 1303SOL    HW1 4808   4.450   1.472   2.388
 1303SOL    HW2 4809   4.598   1.414   2.424
 1304SOL     OW 4810   1.528   0.688   6.791
 1304SOL    HW1 4811   1.461   0.735   6.734
 1304SOL    HW2 4812   1.573   0.753   6.852
 1305SOL     OW 4813   4.990   3.008   0.035
 1305SOL    HW1 4814   4.944   3.097   0.030
 1305SOL    HW2 4815   5.053   2.999   6.982
 1306SOL     OW 4816   0.386   4.303   5.040
 1306SOL    HW1 4817   0.374   4.389   5.090
 1306SOL    HW2 4818   0.328   4.232   5.082
 1307SOL     OW 4819   0.998   3.653   4.812
 1307SOL    HW1 4820   1.086   3.660   4.858
 1307SOL    HW2 4821   0.986   3.559   4.778
 1308SOL     OW 4822   5.425   6.430   4.418
 1308SOL    HW1 4823   5.374   6.498   4.470
 1308SOL    HW2 4824   5.481   6.475   4.349
 1309SOL     OW 4825   4.708   3.064   5.234
 1309SOL    HW1 4826   4.629   3.118   5.263
 1309SOL    HW2 4827   4.678   2.987   5.178
 1310SOL     OW 4828   0.604   3.910   4.736
 1310SOL    HW1 4829   0.657   3.826   4.727
 1310SOL    HW2 4830   0.523   3.893   4.793
 1311SOL     OW 4831   0.564   0.141   4.654
 1311SOL    HW1 4832   0.544   0.144   4.556
 1311SOL    HW2 4833   0.596   0.050   4.679
 1312SOL     OW 4834   1.669   0.381   6.445
 1312SOL    HW1 4835   1.580   0.337   6.455
 1312SOL    HW2 4836   1.697   0.420   6.532
 1313SOL     OW 4837   0.853   4.233   3.856
 1313SOL    HW1 4838   0.845   4.216   3.954
 1313SOL    HW2 4839   0.844   4.331   3.838
 1314SOL     OW 4840   4.002   0.764   5.666
 1314SOL    HW1 4841   3.931   0.834   5.659
 1314SOL    HW2 4842   4.044   0.750   5.577
 1315SOL     OW 4843   6.998   0.891   1.005
 1315SOL    HW1 4844   0.063   0.906   0.964
 1315SOL    HW2 4845   6.994   0.936   1.094
 1316SOL     OW 4846   2.045   6.679   4.754
 1316SOL    HW1 4847   2.052   6.684   4.655
 1316SOL    HW2 4848   1.951   6.661   4.781
 1317SOL     OW 4849   2.084   3.960   5.639
 1317SOL    HW1 4850   2.081   3.933   5.543
 1317SOL    HW2 4851   2.120   4.054   5.646
 1318SOL     OW 4852   1.194   0.612   0.859
 1318SOL    HW1 4853   1.228   0.630   0.951
 1318SOL    HW2 4854   1.108   0.562   0.865
 1319SOL     OW 4855   0.289   1.112   6.631
 1319SOL    HW1 4856   0.256   1.030   6.584
 1319SOL    HW2 4857   0.215   1.179   6.636
 1320SOL     OW 4858   5.356   3.654   0.320
 1320SOL    HW1 4859   5.406   3.570   0.340
 1320SOL    HW2 4860   5.258   3.638   0.325
 1321SOL     OW 4861   5.200   1.852   5.793
 1321SOL    HW1 4862   5.134   1.927   5.794
 1321SOL    HW2 4863   5.267   1.866   5.866
 1322SOL     OW 4864   4.109   0.548   3.896
 1322SOL    HW1 4865   4.021   0.564   3.852
 1322SOL    HW2 4866   4.133   0.451   3.889
 1323SOL     OW 4867   4.672   1.622   5.714
 1323SOL    HW1 4868   4.673   1.526   5.686
 1323SOL    HW2 4869   4.649   1.629   5.811
 1324SOL     OW 4870   1.148   3.054   0.070
 1324SOL    HW1 4871   1.195   3.004   7.023
 1324SOL    HW2 4872   1.213   3.115   0.117
 1325SOL     OW 4873   2.182   6.778   2.358
 1325SOL    HW1 4874   2.262   6.806   2.410
 1325SOL    HW2 4875   2.211   6.730   2.275
 1326SOL     OW 4876   4.831   3.295   5.113
 1326SOL    HW1 4877   4.779   3.380   5.124
 1326SOL    HW2 4878   4.793   3.224   5.171
 1327SOL     OW 4879   1.647   4.962   1.443
 1327SOL    HW1 4880   1.715   4.949   1.515
 1327SOL    HW2 4881   1.570   5.015   1.479
 1328SOL     OW 4882   1.550   3.155   1.070
 1328SOL    HW1 4883   1.563   3.251   1.044
 1328SOL    HW2 4884   1.636   3.105   1.056
 1329SOL     OW 4885   0.716   2.564   1.369
 1329SOL    HW1 4886   0.722   2.542   1.271
 1329SOL    HW2 4887   0.738   2.483   1.423
 1330SOL     OW 4888   0.064   1.100   1.653
 1330SOL    HW1 4889   0.087   1.128   1.746
 1330SOL    HW2 4890   0.004   1.168   1.611
 1331SOL     OW 4891   5.002   2.699   3.393
 1331SOL    HW1 4892   5.078   2.734   3.339
 1331SOL    HW2 4893   4.954   2.774   3.438
 1332SOL     OW 4894   2.981   6.884   0.219
 1332SOL    HW1 4895   2.954   6.893   0.123
 1332SOL    HW2 4896   3.070   6.840   0.225
 1333SOL     OW 4897   3.429   3.488   5.299
 1333SOL    HW1 4898   3.494   3.509   5.226
 1333SOL    HW2 4899   3.376   3.571   5.322
 1334SOL     OW 4900   6.169   1.996   4.358
 1334SOL    HW1 4901   6.091   2.030   4.306
 1334SOL    HW2 4902   6.197   2.066   4.424
 1335SOL     OW 4903   2.928   1.425   3.277
 1335SOL    HW1 4904   2.865   1.488   3.322
 1335SOL    HW2 4905   2.930   1.444   3.179
 1336SOL     OW 4906   2.006   2.025   5.713
 1336SOL    HW1 4907   1.975   1.935   5.684
 1336SOL    HW2 4908   2.053   2.017   5.801
 1337SOL     OW 4909   1.948   1.945   5.345
 1337SOL    HW1 4910   1.874   1.970   5.283
 1337SOL    HW2 4911   1.910   1.930   5.437
 1338SOL     OW 4912   5.714   1.887   5.961
 1338SOL    HW1 4913   5.753   1.926   5.878
 1338SOL    HW2 4914   5.715   1.787   5.955
 1339SOL     OW 4915   0.764   1.239   6.152
 1339SOL    HW1 4916   0.778   1.206   6.059
 1339SOL    HW2 4917   0.852   1.251   6.197
 1340SOL     OW 4918   0.663   1.936   2.391
 1340SOL    HW1 4919   0.761   1.936   2.413
 1340SOL    HW2 4920   0.635   2.028   2.364
 1341SOL     OW 4921   5.121   0.205   5.942
 1341SOL    HW1 4922   5.137   0.223   6.039
 1341SOL    HW2 4923   5.155   0.282   5.887
 1342SOL     OW 4924   2.041   5.043   6.242
 1342SOL    HW1 4925   2.039   4.950   6.279
 1342SOL    HW2 4926   1.964   5.056   6.180
 1343SOL     OW 4927   4.623   6.161   2.667
 1343SOL    HW1 4928   4.644   6.171   2.764
 1343SOL    HW2 4929   4.708   6.141   2.616
 1344SOL     OW 4930   6.741   4.584   4.114
 1344SOL    HW1 4931   6.804   4.506   4.124
 1344SOL    HW2 4932   6.794   4.668   4.100
 1345SOL     OW 4933   1.998   0.893   2.758
 1345SOL    HW1 4934   1.966   0.814   2.706
 1345SOL    HW2 4935   2.098   0.887   2.769
 1346SOL     OW 4936   0.759   6.280   4.314
 1346SOL    HW1 4937   0.749   6.286   4.413
 1346SOL    HW2 4938   0.669   6.266   4.272
 1347SOL     OW 4939   6.419   5.765   4.613
 1347SOL    HW1 4940   6.443   5.809   4.526
 1347SOL    HW2 4941   6.404   5.667   4.597
 1348SOL     OW 4942   5.176   5.107   2.372
 1348SOL    HW1 4943   5.248   5.051   2.332
 1348SOL    HW2 4944   5.095   5.050   2.389
 1349SOL     OW 4945   4.691   2.083   5.857
 1349SOL    HW1 4946   4.637   2.087   5.772
 1349SOL    HW2 4947   4.756   2.159   5.859
 1350SOL     OW 4948   4.911   4.265   6.949
 1350SOL    HW1 4949   4.985   4.240   6.888
 1350SOL    HW2 4950   4.868   4.350   6.918
 1351SOL     OW 4951   6.703   1.525   3.579
 1351SOL    HW1 4952   6.738   1.495   3.668
 1351SOL    HW2 4953   6.603   1.518   3.578
 1352SOL     OW 4954   6.611   6.917   3.227
 1352SOL    HW1 4955   6.672   6.991   3.255
 1352SOL    HW2 4956   6.556   6.946   3.149
 1353SOL     OW 4957   6.563   3.854   6.095
 1353SOL    HW1 4958   6.587   3.767   6.139
 1353SOL    HW2 4959   6.647   3.900   6.066
 1354SOL     OW 4960   0.883   2.600   0.542
 1354SOL    HW1 4961   0.874   2.595   0.642
 1354SOL    HW2 4962   0.825   2.673   0.508
 1355SOL     OW 4963   0.060   2.874   5.480
 1355SOL    HW1 4964   0.075   2.842   5.574
 1355SOL    HW2 4965   7.004   2.934   5.478
 1356SOL     OW 4966   2.949   3.574   2.768
 1356SOL    HW1 4967   2.908   3.592   2.679
 1356SOL    HW2 4968   2.962   3.476   2.780
 1357SOL     OW 4969   1.360   3.859   4.753
 1357SOL    HW1 4970   1.347   3.941   4.697
 1357SOL    HW2 4971   1.445   3.868   4.805
 1358SOL     OW 4972   4.144   1.222   6.150
 1358SOL    HW1 4973   4.240   1.198   6.138
 1358SOL    HW2 4974   4.096   1.146   6.195
 1359SOL     OW 4975   5.949   4.963   1.863
 1359SOL    HW1 4976   5.915   4.904   1.790
 1359SOL    HW2 4977   6.011   4.911   1.921
 1360SOL     OW 4978   4.008   2.871   0.995
 1360SOL    HW1 4979   4.046   2.952   0.951
 1360SOL    HW2 4980   3.953   2.898   1.074
 1361SOL     OW 4981   0.450   5.938   5.620
 1361SOL    HW1 4982   0.420   5.988   5.540
 1361SOL    HW2 4983   0.432   5.992   5.702
 1362SOL     OW 4984   3.061   3.856   4.439
 1362SOL    HW1 4985   3.137   3.872   4.376
 1362SOL    HW2 4986   3.033   3.942   4.480
 1363SOL     OW 4987   6.762   5.754   3.651
 1363SOL    HW1 4988   6.756   5.759   3.551
 1363SOL    HW2 4989   6.677   5.789   3.691
 1364SOL     OW 4990   6.519   2.227   1.252
 1364SOL    HW1 4991   6.552   2.234   1.346
 1364SOL    HW2 4992   6.591   2.191   1.193
 1365SOL     OW 4993   1.122   2.859   5.580
 1365SOL    HW1 4994   1.189   2.794   5.615
 1365SOL    HW2 4995   1.117   2.938   5.642
 1366SOL     OW 4996   0.320   4.497   0.292
 1366SOL    HW1 4997   0.400   4.489   0.234
 1366SOL    HW2 4998   0.349   4.517   0.386
 1367SOL     OW 4999   1.779   6.104   2.546
 1367SOL    HW1 5000   1.817   6.157   2.470
 1367SOL    HW2 5001   1.849   6.045   2.585
 1368SOL     OW 5002   0.045   0.349   4.149
 1368SOL    HW1 5003   0.091   0.389   4.069
 1368SOL    HW2 5004   0.109   0.289   4.197
 1369SOL     OW 5005   2.771   0.232   2.517
 1369SOL    HW1 5006   2.706   0.305   2.535
 1369SOL    HW2 5007   2.864   0.268   2.522
 1370SOL     OW 5008   4.295   1.546   2.398
 1370SOL    HW1 5009   4.263   1.614   2.464
 1370SOL    HW2 5010   4.282   1.581   2.306
 1371SOL     OW 5011   6.253   1.758   4.821
 1371SOL    HW1 5012   6.156   1.755   4.795
 1371SOL    HW2 5013   6.307   1.788   4.744
 1372SOL     OW 5014   1.173   2.929   0.643
 1372SOL    HW1 5015   1.200   3.024   0.660
 1372SOL    HW2 5016   1.147   2.918   0.547
 1373SOL     OW 5017   4.416   2.550   0.113
 1373SOL    HW1 5018   4.416   2.632   0.057
 1373SOL    HW2 5019   4.357   2.564   0.193
 1374SOL     OW 5020   4.360   2.311   1.148
 1374SOL    HW1 5021   4.279   2.252   1.136
 1374SOL    HW2 5022   4.331   2.406   1.150
 1375SOL     OW 5023   0.168   5.736   6.464
 1375SOL    HW1 5024   0.197   5.746   6.368
 1375SOL    HW2 5025   0.247   5.751   6.524
 1376SOL     OW 5026   4.544   4.664   5.283
 1376SOL    HW1 5027   4.534   4.758   5.252
 1376SOL    HW2 5028   4.557   4.662   5.382
 1377SOL     OW 5029   0.908   3.175   5.504
 1377SOL    HW1 5030   0.923   3.240   5.578
 1377SOL    HW2 5031   0.871   3.223   5.424
 1378SOL     OW 5032   5.833   1.438   4.635
 1378SOL    HW1 5033   5.760   1.506   4.633
 1378SOL    HW2 5034   5.840   1.400   4.727
 1379SOL     OW 5035   4.140   6.397   3.088
 1379SOL    HW1 5036   4.077   6.471   3.115
 1379SOL    HW2 5037   4.230   6.436   3.067
 1380SOL     OW 5038   0.523   0.156   3.498
 1380SOL    HW1 5039   0.585   0.233   3.515
 1380SOL    HW2 5040   0.486   0.123   3.584
 1381SOL     OW 5041   5.969   1.863   0.324
 1381SOL    HW1 5042   5.964   1.765   0.305
 1381SOL    HW2 5043   6.012   1.877   0.414
 1382SOL     OW 5044   5.131   3.149   0.677
 1382SOL    HW1 5045   5.219   3.177   0.716
 1382SOL    HW2 5046   5.063   3.143   0.750
 1383SOL     OW 5047   0.609   0.453   2.334
 1383SOL    HW1 5048   0.680   0.458   2.263
 1383SOL    HW2 5049   0.651   0.468   2.424
 1384SOL     OW 5050   4.597   0.590   2.184
 1384SOL    HW1 5051   4.624   0.680   2.219
 1384SOL    HW2 5052   4.637   0.575   2.094
 1385SOL     OW 5053   2.417   4.481   3.353
 1385SOL    HW1 5054   2.507   4.517   3.376
 1385SOL    HW2 5055   2.384   4.423   3.427
 1386SOL     OW 5056   2.848   0.761   4.067
 1386SOL    HW1 5057   2.810   0.670   4.049
 1386SOL    HW2 5058   2.901   0.759   4.152
 1387SOL     OW 5059   3.178   5.824   2.749
 1387SOL    HW1 5060   3.102   5.787   2.695
 1387SOL    HW2 5061   3.261   5.772   2.728
 1388SOL     OW 5062   0.545   0.571   2.959
 1388SOL    HW1 5063   0.480   0.647   2.965
 1388SOL    HW2 5064   0.638   0.606   2.968
 1389SOL     OW 5065   6.842   1.635   4.174
 1389SOL    HW1 5066   6.812   1.600   4.086
 1389SOL    HW2 5067   6.902   1.714   4.160
 1390SOL     OW 5068   6.375   2.917   6.384
 1390SOL    HW1 5069   6.340   2.824   6.374
 1390SOL    HW2 5070   6.474   2.914   6.395
 1391SOL     OW 5071   6.172   0.197   5.559
 1391SOL    HW1 5072   6.187   0.122   5.494
 1391SOL    HW2 5073   6.129   0.274   5.511
 1392SOL     OW 5074   6.139   6.579   5.546
 1392SOL    HW1 5075   6.076   6.536   5.482
 1392SOL    HW2 5076   6.133   6.534   5.635
 1393SOL     OW 5077   6.430   4.167   6.096
 1393SOL    HW1 5078   6.449   4.142   6.191
 1393SOL    HW2 5079   6.409   4.084   6.044
 1394SOL     OW 5080   3.333   5.903   5.649
 1394SOL    HW1 5081   3.360   5.812   5.618
 1394SOL    HW2 5082   3.345   5.910   5.748
 1395SOL     OW 5083   1.568   4.440   5.007
 1395SOL    HW1 5084   1.522   4.351   4.999
 1395SOL    HW2 5085   1.506   4.512   4.976
 1396SOL     OW 5086   0.070   1.411   5.182
 1396SOL    HW1 5087   0.034   1.405   5.089
 1396SOL    HW2 5088   7.023   1.385   5.247
 1397SOL     OW 5089   0.430   6.333   4.849
 1397SOL    HW1 5090   0.377   6.356   4.768
 1397SOL    HW2 5091   0.372   6.286   4.915
 1398SOL     OW 5092   2.713   0.866   6.436
 1398SOL    HW1 5093   2.783   0.795   6.431
 1398SOL    HW2 5094   2.756   0.953   6.462
 1399SOL     OW 5095   4.062   5.715   0.620
 1399SOL    HW1 5096   4.062   5.659   0.537
 1399SOL    HW2 5097   4.052   5.811   0.594
 1400SOL     OW 5098   0.498   1.619   4.180
 1400SOL    HW1 5099   0.436   1.696   4.164
 1400SOL    HW2 5100   0.588   1.642   4.145
 1401SOL     OW 5101   6.148   0.257   4.094
 1401SOL    HW1 5102   6.167   0.241   3.997
 1401SOL    HW2 5103   6.224   0.222   4.149
 1402SOL     OW 5104   5.370   4.076   6.291
 1402SOL    HW1 5105   5.451   4.110   6.244
 1402SOL    HW2 5106   5.294   4.067   6.227
 1403SOL     OW 5107   2.635   2.054   0.763
 1403SOL    HW1 5108   2.615   2.063   0.665
 1403SOL    HW2 5109   2.612   2.139   0.810
 1404SOL     OW 5110   6.709   0.284   6.640
 1404SOL    HW1 5111   6.675   0.290   6.733
 1404SOL    HW2 5112   6.753   0.371   6.615
 1405SOL     OW 5113   2.867   3.260   0.726
 1405SOL    HW1 5114   2.907   3.242   0.636
 1405SOL    HW2 5115   2.802   3.336   0.719
 1406SOL     OW 5116   1.277   5.989   0.758
 1406SOL    HW1 5117   1.319   6.000   0.848
 1406SOL    HW2 5118   1.194   6.044   0.753
 1407SOL     OW 5119   0.504   3.677   3.972
 1407SOL    HW1 5120   0.475   3.597   3.921
 1407SOL    HW2 5121   0.589   3.713   3.933
 1408SOL     OW 5122   4.720   1.099   6.354
 1408SOL    HW1 5123   4.652   1.156   6.399
 1408SOL    HW2 5124   4.708   1.004   6.382
 1409SOL     OW 5125   0.276   0.448   5.305
 1409SOL    HW1 5126   0.316   0.530   5.347
 1409SOL    HW2 5127   0.324   0.367   5.338
 1410SOL     OW 5128   1.201   4.155   6.175
 1410SOL    HW1 5129   1.235   4.167   6.268
 1410SOL    HW2 5130   1.270   4.187   6.110
 1411SOL     OW 5131   2.966   6.289   0.245
 1411SOL    HW1 5132   2.897   6.307   0.175
 1411SOL    HW2 5133   3.052   6.333   0.218
 1412SOL     OW 5134   1.091   3.521   1.028
 1412SOL    HW1 5135   1.078   3.491   1.123
 1412SOL    HW2 5136   1.169   3.474   0.988
 1413SOL     OW 5137   2.357   1.043   4.477
 1413SOL    HW1 5138   2.445   0.997   4.470
 1413SOL    HW2 5139   2.367   1.127   4.531
 1414SOL     OW 5140   2.119   1.727   1.864
 1414SOL    HW1 5141   2.072   1.696   1.947
 1414SOL    HW2 5142   2.166   1.649   1.822
 1415SOL     OW 5143   2.496   1.477   4.019
 1415SOL    HW1 5144   2.443   1.561   4.027
 1415SOL    HW2 5145   2.594   1.498   4.027
 1416SOL     OW 5146   4.384   6.212   4.879
 1416SOL    HW1 5147   4.445   6.276   4.925
 1416SOL    HW2 5148   4.438   6.144   4.830
 1417SOL     OW 5149   2.984   2.782   0.540
 1417SOL    HW1 5150   3.083   2.793   0.535
 1417SOL    HW2 5151   2.941   2.870   0.561
 1418SOL     OW 5152   3.117   3.493   2.167
 1418SOL    HW1 5153   3.151   3.464   2.257
 1418SOL    HW2 5154   3.115   3.414   2.105
 1419SOL     OW 5155   3.178   6.160   4.351
 1419SOL    HW1 5156   3.247   6.090   4.368
 1419SOL    HW2 5157   3.211   6.249   4.383
 1420SOL     OW 5158   3.400   6.109   3.039
 1420SOL    HW1 5159   3.476   6.056   2.999
 1420SOL    HW2 5160   3.397   6.200   2.997
 1421SOL     OW 5161   1.728   4.526   4.186
 1421SOL    HW1 5162   1.764   4.615   4.161
 1421SOL    HW2 5163   1.628   4.529   4.187
 1422SOL     OW 5164   1.521   4.296   6.254
 1422SOL    HW1 5165   1.509   4.393   6.235
 1422SOL    HW2 5166   1.455   4.267   6.323
 1423SOL     OW 5167   4.634   6.781   4.532
 1423SOL    HW1 5168   4.555   6.773   4.471
 1423SOL    HW2 5169   4.626   6.865   4.586
 1424SOL     OW 5170   6.727   3.278   6.490
 1424SOL    HW1 5171   6.747   3.255   6.585
 1424SOL    HW2 5172   6.793   3.347   6.458
 1425SOL     OW 5173   2.075   5.553   5.944
 1425SOL    HW1 5174   1.982   5.519   5.945
 1425SOL    HW2 5175   2.138   5.480   5.972
 1426SOL     OW 5176   2.671   2.395   0.099
 1426SOL    HW1 5177   2.762   2.433   0.117
 1426SOL    HW2 5178   2.602   2.451   0.144
 1427SOL     OW 5179   6.941   6.627   4.613
 1427SOL    HW1 5180   6.891   6.611   4.698
 1427SOL    HW2 5181   6.930   6.548   4.553
 1428SOL     OW 5182   0.384   2.044   0.127
 1428SOL    HW1 5183   0.386   2.086   0.218
 1428SOL    HW2 5184   0.381   1.944   0.137
 1429SOL     OW 5185   4.583   1.601   0.499
 1429SOL    HW1 5186   4.506   1.539   0.517
 1429SOL    HW2 5187   4.655   1.550   0.452
 1430SOL     OW 5188   1.617   5.078   4.028
 1430SOL    HW1 5189   1.570   5.040   4.107
 1430SOL    HW2 5190   1.626   5.177   4.038
 1431SOL     OW 5191   2.412   2.370   6.586
 1431SOL    HW1 5192   2.361   2.325   6.513
 1431SOL    HW2 5193   2.349   2.419   6.646
 1432SOL     OW 5194   2.864   1.483   1.077
 1432SOL    HW1 5195   2.815   1.543   1.141
 1432SOL    HW2 5196   2.936   1.535   1.031
 1433SOL     OW 5197   5.144   0.413   5.165
 1433SOL    HW1 5198   5.113   0.320   5.147
 1433SOL    HW2 5199   5.066   0.471   5.186
 1434SOL     OW 5200   0.998   0.536   5.983
 1434SOL    HW1 5201   1.049   0.597   5.924
 1434SOL    HW2 5202   0.996   0.444   5.943
 1435SOL     OW 5203   6.779   6.819   3.051
 1435SOL    HW1 5204   6.785   6.892   2.984
 1435SOL    HW2 5205   6.726   6.850   3.130
 1436SOL     OW 5206   4.913   4.501   6.739
 1436SOL    HW1 5207   5.011   4.497   6.758
 1436SOL    HW2 5208   4.899   4.530   6.644
 1437SOL     OW 5209   3.465   2.087   5.469
 1437SOL    HW1 5210   3.368   2.088   5.493
 1437SOL    HW2 5211   3.481   2.151   5.393
 1438SOL     OW 5212   3.028   7.013   1.891
 1438SOL    HW1 5213   2.940   6.975   1.922
 1438SOL    HW2 5214   3.012   0.052   1.816
 1439SOL     OW 5215   6.711   4.658   0.972
 1439SOL    HW1 5216   6.741   4.729   1.037
 1439SOL    HW2 5217   6.773   4.581   0.976
 1440SOL     OW 5218   3.412   3.004   5.939
 1440SOL    HW1 5219   3.363   2.918   5.953
 1440SOL    HW2 5220   3.477   3.018   6.013
 1441SOL     OW 5221   6.157   2.112   3.975
 1441SOL    HW1 5222   6.201   2.085   3.889
 1441SOL    HW2 5223   6.058   2.113   3.963
 1442SOL     OW 5224   6.202   5.216   6.634
 1442SOL    HW1 5225   6.251   5.270   6.702
 1442SOL    HW2 5226   6.261   5.200   6.555
 1443SOL     OW 5227   0.872   3.226   4.194
 1443SOL    HW1 5228   0.888   3.200   4.099
 1443SOL    HW2 5229   0.776   3.253   4.205
 1444SOL     OW 5230   4.065   5.998   0.901
 1444SOL    HW1 5231   4.100   6.048   0.821
 1444SOL    HW2 5232   4.102   6.039   0.984
 1445SOL     OW 5233   0.637   3.267   2.233
 1445SOL    HW1 5234   0.657   3.291   2.328
 1445SOL    HW2 5235   0.700   3.316   2.172
 1446SOL     OW 5236   4.692   2.313   0.435
 1446SOL    HW1 5237   4.766   2.378   0.450
 1446SOL    HW2 5238   4.706   2.233   0.494
 1447SOL     OW 5239   6.102   6.872   5.687
 1447SOL    HW1 5240   6.125   6.818   5.768
 1447SOL    HW2 5241   6.186   6.901   5.641
 1448SOL     OW 5242   6.405   2.514   6.872
 1448SOL    HW1 5243   6.417   2.561   6.784
 1448SOL    HW2 5244   6.479   2.448   6.884
 1449SOL     OW 5245   0.783   0.920   0.649
 1449SOL    HW1 5246   0.795   0.890   0.743
 1449SOL    HW2 5247   0.840   0.865   0.588
 1450SOL     OW 5248   0.854   2.197   1.435
 1450SOL    HW1 5249   0.777   2.140   1.409
 1450SOL    HW2 5250   0.913   2.211   1.355
 1451SOL     OW 5251   2.381   0.367   2.420
 1451SOL    HW1 5252   2.335   0.421   2.490
 1451SOL    HW2 5253   2.370   0.411   2.331
 1452SOL     OW 5254   4.567   0.459   4.697
 1452SOL    HW1 5255   4.654   0.419   4.725
 1452SOL    HW2 5256   4.498   0.442   4.768
 1453SOL     OW 5257   0.152   3.705   5.243
 1453SOL    HW1 5258   0.232   3.750   5.203
 1453SOL    HW2 5259   0.095   3.773   5.289
 1454SOL     OW 5260   0.252   3.234   2.506
 1454SOL    HW1 5261   0.260   3.228   2.406
 1454SOL    HW2 5262   0.164   3.194   2.535
 1455SOL     OW 5263   0.980   0.558   1.797
 1455SOL    HW1 5264   0.893   0.607   1.799
 1455SOL    HW2 5265   1.012   0.542   1.891
 1456SOL     OW 5266   6.701   6.327   5.283
 1456SOL    HW1 5267   6.704   6.384   5.365
 1456SOL    HW2 5268   6.761   6.366   5.213
 1457SOL     OW 5269   1.413   6.558   1.621
 1457SOL    HW1 5270   1.379   6.522   1.534
 1457SOL    HW2 5271   1.432   6.482   1.683
 1458SOL     OW 5272   5.740   5.289   3.469
 1458SOL    HW1 5273   5.685   5.364   3.505
 1458SOL    HW2 5274   5.829   5.287   3.516
 1459SOL     OW 5275   2.807   5.242   5.851
 1459SOL    HW1 5276   2.765   5.196   5.772
 1459SOL    HW2 5277   2.883   5.299   5.819
 1460SOL     OW 5278   0.650   5.582   5.365
 1460SOL    HW1 5279   0.550   5.573   5.372
 1460SOL    HW2 5280   0.672   5.672   5.327
 1461SOL     OW 5281   6.864   5.047   3.900
 1461SOL    HW1 5282   6.771   5.010   3.893
 1461SOL    HW2 5283   6.881   5.078   3.993
 1462SOL     OW 5284   1.187   0.543   6.517
 1462SOL    HW1 5285   1.245   0.511   6.592
 1462SOL    HW2 5286   1.174   0.469   6.451
 1463SOL     OW 5287   0.169   5.794   6.856
 1463SOL    HW1 5288   0.167   5.694   6.846
 1463SOL    HW2 5289   0.246   5.819   6.915
 1464SOL     OW 5290   6.280   0.215   1.082
 1464SOL    HW1 5291   6.267   0.160   1.165
 1464SOL    HW2 5292   6.193   0.223   1.033
 1465SOL     OW 5293   1.808   1.054   3.352
 1465SOL    HW1 5294   1.747   1.011   3.285
 1465SOL    HW2 5295   1.804   1.002   3.438
 1466SOL     OW 5296   0.997   1.560   2.187
 1466SOL    HW1 5297   0.991   1.470   2.144
 1466SOL    HW2 5298   0.949   1.559   2.274
 1467SOL     OW 5299   1.829   2.044   2.806
 1467SOL    HW1 5300   1.862   2.138   2.820
 1467SOL    HW2 5301   1.778   2.039   2.720
 1468SOL     OW 5302   5.137   5.971   2.816
 1468SOL    HW1 5303   5.086   5.885   2.821
 1468SOL    HW2 5304   5.080   6.045   2.851
 1469SOL     OW 5305   0.709   0.878   2.023
 1469SOL    HW1 5306   0.718   0.890   2.122
 1469SOL    HW2 5307   0.799   0.878   1.981
 1470SOL     OW 5308   1.691   2.004   2.559
 1470SOL    HW1 5309   1.651   2.085   2.516
 1470SOL    HW2 5310   1.618   1.938   2.580
 1471SOL     OW 5311   0.652   6.930   0.786
 1471SOL    HW1 5312   0.657   6.879   0.701
 1471SOL    HW2 5313   0.567   6.982   0.789
 1472SOL     OW 5314   3.975   6.402   5.460
 1472SOL    HW1 5315   4.059   6.440   5.421
 1472SOL    HW2 5316   3.983   6.397   5.559
 1473SOL     OW 5317   5.142   6.373   4.752
 1473SOL    HW1 5318   5.139   6.427   4.836
 1473SOL    HW2 5319   5.136   6.276   4.775
 1474SOL     OW 5320   5.757   5.490   2.483
 1474SOL    HW1 5321   5.752   5.516   2.579
 1474SOL    HW2 5322   5.842   5.526   2.444
 1475SOL     OW 5323   6.594   6.891   2.093
 1475SOL    HW1 5324   6.522   6.840   2.139
 1475SOL    HW2 5325   6.554   6.957   2.029
 1476SOL     OW 5326   2.607   1.246   1.345
 1476SOL    HW1 5327   2.668   1.185   1.395
 1476SOL    HW2 5328   2.516   1.206   1.340
 1477SOL     OW 5329   3.401   0.522   6.608
 1477SOL    HW1 5330   3.460   0.451   6.647
 1477SOL    HW2 5331   3.455   0.603   6.587
 1478SOL     OW 5332   6.245   5.241   0.176
 1478SOL    HW1 5333   6.194   5.247   0.090
 1478SOL    HW2 5334   6.339   5.211   0.158
 1479SOL     OW 5335   1.710   3.000   6.848
 1479SOL    HW1 5336   1.802   2.994   6.809
 1479SOL    HW2 5337   1.679   2.908   6.872
 1480SOL     OW 5338   3.287   0.740   5.879
 1480SOL    HW1 5339   3.326   0.824   5.917
 1480SOL    HW2 5340   3.273   0.752   5.780
 1481SOL     OW 5341   6.406   2.483   5.777
 1481SOL    HW1 5342   6.470   2.428   5.831
 1481SOL    HW2 5343   6.361   2.424   5.710
 1482SOL     OW 5344   4.739   2.428   1.532
 1482SOL    HW1 5345   4.674   2.352   1.529
 1482SOL    HW2 5346   4.752   2.457   1.627
 1483SOL     OW 5347   4.982   2.079   6.515
 1483SOL    HW1 5348   5.074   2.107   6.488
 1483SOL    HW2 5349   4.974   1.979   6.507
 1484SOL     OW 5350   6.048   4.646   4.288
 1484SOL    HW1 5351   6.083   4.716   4.352
 1484SOL    HW2 5352   5.963   4.679   4.247
 1485SOL     OW 5353   3.667   1.550   3.356
 1485SOL    HW1 5354   3.694   1.510   3.444
 1485SOL    HW2 5355   3.729   1.625   3.333
 1486SOL     OW 5356   5.441   1.635   3.011
 1486SOL    HW1 5357   5.378   1.700   2.967
 1486SOL    HW2 5358   5.531   1.676   3.018
 1487SOL     OW 5359   6.293   2.659   6.324
 1487SOL    HW1 5360   6.210   2.706   6.295
 1487SOL    HW2 5361   6.332   2.610   6.246
 1488SOL     OW 5362   5.235   1.544   3.956
 1488SOL    HW1 5363   5.314   1.540   3.894
 1488SOL    HW2 5364   5.178   1.463   3.942
 1489SOL     OW 5365   3.847   5.266   4.368
 1489SOL    HW1 5366   3.850   5.229   4.275
 1489SOL    HW2 5367   3.939   5.289   4.398
 1490SOL     OW 5368   1.164   2.818   1.860
 1490SOL    HW1 5369   1.115   2.808   1.773
 1490SOL    HW2 5370   1.149   2.736   1.916
 1491SOL     OW 5371   6.021   3.846   3.585
 1491SOL    HW1 5372   6.105   3.883   3.626
 1491SOL    HW2 5373   6.042   3.762   3.536
 1492SOL     OW 5374   5.376   0.827   2.379
 1492SOL    HW1 5375   5.319   0.745   2.383
 1492SOL    HW2 5376   5.370   0.867   2.288
 1493SOL     OW 5377   4.288   6.557   4.671
 1493SOL    HW1 5378   4.203   6.516   4.703
 1493SOL    HW2 5379   4.271   6.613   4.590
 1494SOL     OW 5380   5.720   1.940   6.308
 1494SOL    HW1 5381   5.728   1.967   6.212
 1494SOL    HW2 5382   5.732   1.841   6.316
 1495SOL     OW 5383   6.748   2.467   4.368
 1495SOL    HW1 5384   6.667   2.451   4.424
 1495SOL    HW2 5385   6.810   2.530   4.417
 1496SOL     OW 5386   0.662   1.297   1.530
 1496SOL    HW1 5387   0.618   1.227   1.475
 1496SOL    HW2 5388   0.640   1.282   1.627
 1497SOL     OW 5389   6.526   2.866   3.046
 1497SOL    HW1 5390   6.577   2.822   3.120
 1497SOL    HW2 5391   6.588   2.884   2.969
 1498SOL     OW 5392   1.805   5.184   6.377
 1498SOL    HW1 5393   1.707   5.181   6.357
 1498SOL    HW2 5394   1.842   5.091   6.378
 1499SOL     OW 5395   1.309   3.269   6.598
 1499SOL    HW1 5396   1.276   3.341   6.536
 1499SOL    HW2 5397   1.231   3.226   6.644
 1500SOL     OW 5398   6.517   6.451   0.196
 1500SOL    HW1 5399   6.509   6.541   0.239
 1500SOL    HW2 5400   6.570   6.460   0.111
 1501SOL     OW 5401   5.540   2.082   6.499
 1501SOL    HW1 5402   5.537   2.178   6.471
 1501SOL    HW2 5403   5.583   2.027   6.427
 1502SOL     OW 5404   4.781   0.363   0.737
 1502SOL    HW1 5405   4.808   0.278   0.691
 1502SOL    HW2 5406   4.684   0.382   0.717
 1503SOL     OW 5407   1.036   3.430   1.275
 1503SOL    HW1 5408   0.974   3.505   1.297
 1503SOL    HW2 5409   1.070   3.388   1.359
 1504SOL     OW 5410   0.702   0.419   5.378
 1504SOL    HW1 5411   0.788   0.372   5.394
 1504SOL    HW2 5412   0.694   0.443   5.281
 1505SOL     OW 5413   5.661   0.845   5.826
 1505SOL    HW1 5414   5.666   0.896   5.740
 1505SOL    HW2 5415   5.753   0.833   5.863
 1506SOL     OW 5416   0.935   5.825   0.973
 1506SOL    HW1 5417   0.947   5.896   0.904
 1506SOL    HW2 5418   0.883   5.749   0.934
 1507SOL     OW 5419   1.137   1.966   5.847
 1507SOL    HW1 5420   1.096   2.057   5.844
 1507SOL    HW2 5421   1.140   1.927   5.755
 1508SOL     OW 5422   6.713   0.815   2.139
 1508SOL    HW1 5423   6.721   0.914   2.134
 1508SOL    HW2 5424   6.684   0.788   2.230
 1509SOL     OW 5425   4.344   1.969   6.080
 1509SOL    HW1 5426   4.266   2.002   6.134
 1509SOL    HW2 5427   4.380   2.043   6.024
 1510SOL     OW 5428   4.689   2.027   5.020
 1510SOL    HW1 5429   4.762   1.964   4.992
 1510SOL    HW2 5430   4.708   2.061   5.112
 1511SOL     OW 5431   3.328   3.159   1.747
 1511SOL    HW1 5432   3.333   3.212   1.833
 1511SOL    HW2 5433   3.415   3.112   1.732
 1512SOL     OW 5434   0.573   5.134   1.320
 1512SOL    HW1 5435   0.554   5.078   1.239
 1512SOL    HW2 5436   0.610   5.075   1.392
 1513SOL     OW 5437   3.615   0.622   4.017
 1513SOL    HW1 5438   3.619   0.535   3.967
 1513SOL    HW2 5439   3.621   0.698   3.953
 1514SOL     OW 5440   4.242   1.785   5.827
 1514SOL    HW1 5441   4.225   1.882   5.846
 1514SOL    HW2 5442   4.159   1.733   5.845
 1515SOL     OW 5443   5.418   2.239   3.752
 1515SOL    HW1 5444   5.406   2.230   3.851
 1515SOL    HW2 5445   5.437   2.148   3.713
 1516SOL     OW 5446   6.299   0.277   0.466
 1516SOL    HW1 5447   6.345   0.341   0.527
 1516SOL    HW2 5448   6.211   0.251   0.505
 1517SOL     OW 5449   4.787   6.186   3.722
 1517SOL    HW1 5450   4.832   6.110   3.768
 1517SOL    HW2 5451   4.809   6.184   3.625
 1518SOL     OW 5452   0.870   3.181   0.112
 1518SOL    HW1 5453   0.864   3.279   0.092
 1518SOL    HW2 5454   0.966   3.154   0.118
 1519SOL     OW 5455   6.208   4.807   1.585
 1519SOL    HW1 5456   6.108   4.812   1.596
 1519SOL    HW2 5457   6.246   4.752   1.659
 1520SOL     OW 5458   0.542   3.689   2.270
 1520SOL    HW1 5459   0.481   3.611   2.258
 1520SOL    HW2 5460   0.522   3.759   2.202
 1521SOL     OW 5461   1.672   4.263   6.592
 1521SOL    HW1 5462   1.753   4.264   6.533
 1521SOL    HW2 5463   1.669   4.347   6.646
 1522SOL     OW 5464   6.465   0.131   5.467
 1522SOL    HW1 5465   6.410   0.202   5.511
 1522SOL    HW2 5466   6.532   0.175   5.407
 1523SOL     OW 5467   5.635   5.096   1.395
 1523SOL    HW1 5468   5.559   5.090   1.329
 1523SOL    HW2 5469   5.613   5.165   1.464
 1524SOL     OW 5470   1.693   2.073   1.864
 1524SOL    HW1 5471   1.771   2.057   1.804
 1524SOL    HW2 5472   1.711   2.153   1.922
 1525SOL     OW 5473   6.700   2.367   0.045
 1525SOL    HW1 5474   6.608   2.330   0.045
 1525SOL    HW2 5475   6.706   2.440   0.114
 1526SOL     OW 5476   0.017   0.184   6.966
 1526SOL    HW1 5477   6.947   0.151   6.968
 1526SOL    HW2 5478   0.042   0.219   0.032
 1527SOL     OW 5479   3.388   1.508   5.166
 1527SOL    HW1 5480   3.310   1.470   5.116
 1527SOL    HW2 5481   3.386   1.608   5.160
 1528SOL     OW 5482   5.146   6.240   2.592
 1528SOL    HW1 5483   5.163   6.264   2.497
 1528SOL    HW2 5484   5.197   6.157   2.615
 1529SOL     OW 5485   3.921   0.490   0.347
 1529SOL    HW1 5486   3.890   0.466   0.439
 1529SOL    HW2 5487   3.897   0.585   0.328
 1530SOL     OW 5488   3.376   1.712   2.113
 1530SOL    HW1 5489   3.371   1.779   2.187
 1530SOL    HW2 5490   3.342   1.624   2.146
 1531SOL     OW 5491   4.413   0.806   5.019
 1531SOL    HW1 5492   4.393   0.886   4.962
 1531SOL    HW2 5493   4.466   0.835   5.099
 1532SOL     OW 5494   2.522   3.697   6.152
 1532SOL    HW1 5495   2.604   3.647   6.179
 1532SOL    HW2 5496   2.473   3.646   6.082
 1533SOL     OW 5497   6.866   3.056   0.296
 1533SOL    HW1 5498   6.877   3.145   0.251
 1533SOL    HW2 5499   6.807   3.066   0.375
 1534SOL     OW 5500   1.920   4.864   6.458
 1534SOL    HW1 5501   1.855   4.827   6.390
 1534SOL    HW2 5502   2.006   4.813   6.452
 1535SOL     OW 5503   5.086   6.330   3.693
 1535SOL    HW1 5504   5.102   6.232   3.681
 1535SOL    HW2 5505   5.165   6.371   3.739
 1536SOL     OW 5506   4.121   4.295   5.307
 1536SOL    HW1 5507   4.127   4.199   5.334
 1536SOL    HW2 5508   4.201   4.320   5.252
 1537SOL     OW 5509   4.706   6.251   3.223
 1537SOL    HW1 5510   4.670   6.342   3.242
 1537SOL    HW2 5511   4.746   6.213   3.306
 1538SOL     OW 5512   4.118   6.240   5.670
 1538SOL    HW1 5513   4.114   6.281   5.761
 1538SOL    HW2 5514   4.027   6.210   5.643
 1539SOL     OW 5515   4.230   3.801   1.844
 1539SOL    HW1 5516   4.152   3.813   1.783
 1539SOL    HW2 5517   4.293   3.878   1.831
 1540SOL     OW 5518   1.942   6.313   6.010
 1540SOL    HW1 5519   1.934   6.399   6.061
 1540SOL    HW2 5520   1.969   6.240   6.073
 1541SOL     OW 5521   3.712   2.922   2.496
 1541SOL    HW1 5522   3.649   2.900   2.570
 1541SOL    HW2 5523   3.668   2.904   2.408
 1542SOL     OW 5524   6.380   5.575   2.246
 1542SOL    HW1 5525   6.449   5.636   2.286
 1542SOL    HW2 5526   6.368   5.597   2.149
 1543SOL     OW 5527   3.404   4.388   5.398
 1543SOL    HW1 5528   3.434   4.301   5.438
 1543SOL    HW2 5529   3.483   4.434   5.357
 1544SOL     OW 5530   3.263   3.681   3.067
 1544SOL    HW1 5531   3.202   3.750   3.027
 1544SOL    HW2 5532   3.326   3.725   3.131
 1545SOL     OW 5533   4.944   0.977   3.966
 1545SOL    HW1 5534   4.940   0.909   4.039
 1545SOL    HW2 5535   4.861   0.971   3.911
 1546SOL     OW 5536   4.050   6.530   5.700
 1546SOL    HW1 5537   3.966   6.582   5.714
 1546SOL    HW2 5538   4.107   6.536   5.782
 1547SOL     OW 5539   1.344   3.695   3.012
 1547SOL    HW1 5540   1.439   3.686   2.985
 1547SOL    HW2 5541   1.285   3.662   2.939
 1548SOL     OW 5542   4.697   3.984   5.792
 1548SOL    HW1 5543   4.683   3.893   5.830
 1548SOL    HW2 5544   4.763   4.034   5.849
 1549SOL     OW 5545   4.435   1.035   3.415
 1549SOL    HW1 5546   4.371   1.083   3.354
 1549SOL    HW2 5547   4.477   0.959   3.365
 1550SOL     OW 5548   2.655   4.512   6.700
 1550SOL    HW1 5549   2.658   4.541   6.795
 1550SOL    HW2 5550   2.746   4.481   6.672
 1551SOL     OW 5551   2.012   4.203   6.162
 1551SOL    HW1 5552   2.090   4.154   6.122
 1551SOL    HW2 5553   2.003   4.292   6.118
 1552SOL     OW 5554   6.763   6.699   0.167
 1552SOL    HW1 5555   6.709   6.775   0.202
 1552SOL    HW2 5556   6.847   6.734   0.126
 1553SOL     OW 5557   0.289   1.236   5.536
 1553SOL    HW1 5558   0.353   1.308   5.508
 1553SOL    HW2 5559   0.206   1.278   5.572
 1554SOL     OW 5560   4.466   1.378   3.320
 1554SOL    HW1 5561   4.370   1.364   3.296
 1554SOL    HW2 5562   4.505   1.292   3.354
 1555SOL     OW 5563   4.954   2.146   0.591
 1555SOL    HW1 5564   4.857   2.127   0.607
 1555SOL    HW2 5565   4.985   2.098   0.509
 1556SOL     OW 5566   2.555   0.894   0.866
 1556SOL    HW1 5567   2.627   0.825   0.871
 1556SOL    HW2 5568   2.572   0.965   0.935
 1557SOL     OW 5569   1.883   1.313   6.631
 1557SOL    HW1 5570   1.811   1.308   6.561
 1557SOL    HW2 5571   1.971   1.326   6.587
 1558SOL     OW 5572   5.481   0.964   4.674
 1558SOL    HW1 5573   5.576   0.936   4.683
 1558SOL    HW2 5574   5.468   1.055   4.714
 1559SOL     OW 5575   0.360   2.554   0.032
 1559SOL    HW1 5576   0.312   2.596   0.109
 1559SOL    HW2 5577   0.304   2.480   7.018
 1560SOL     OW 5578   2.719   2.061   6.159
 1560SOL    HW1 5579   2.639   2.102   6.114
 1560SOL    HW2 5580   2.775   2.014   6.091
 1561SOL     OW 5581   0.017   6.200   3.106
 1561SOL    HW1 5582   0.114   6.185   3.090
 1561SOL    HW2 5583   6.990   6.181   3.022
 1562SOL     OW 5584   3.838   5.680   2.654
 1562SOL    HW1 5585   3.753   5.634   2.625
 1562SOL    HW2 5586   3.842   5.771   2.613
 1563SOL     OW 5587   2.300   0.654   6.010
 1563SOL    HW1 5588   2.325   0.561   6.035
 1563SOL    HW2 5589   2.205   0.656   5.978
 1564SOL     OW 5590   1.206   3.196   2.926
 1564SOL    HW1 5591   1.188   3.162   2.833
 1564SOL    HW2 5592   1.202   3.119   2.990
 1565SOL     OW 5593   4.359   5.171   4.619
 1565SOL    HW1 5594   4.390   5.266   4.616
 1565SOL    HW2 5595   4.321   5.150   4.709
 1566SOL     OW 5596   5.381   4.869   4.117
 1566SOL    HW1 5597   5.438   4.830   4.045
 1566SOL    HW2 5598   5.376   4.804   4.194
 1567SOL     OW 5599   6.265   6.225   6.974
 1567SOL    HW1 5600   6.336   6.156   6.986
 1567SOL    HW2 5601   6.228   6.219   6.881
 1568SOL     OW 5602   1.953   5.457   1.153
 1568SOL    HW1 5603   1.892   5.394   1.201
 1568SOL    HW2 5604   1.995   5.519   1.220
 1569SOL     OW 5605   3.010   7.010   3.675
 1569SOL    HW1 5606   3.001   0.085   3.671
 1569SOL    HW2 5607   2.951   6.973   3.747
 1570SOL     OW 5608   2.176   6.954   0.556
 1570SOL    HW1 5609   2.092   6.930   0.606
 1570SOL    HW2 5610   2.255   6.928   0.611
 1571SOL     OW 5611   6.202   1.665   2.543
 1571SOL    HW1 5612   6.214   1.572   2.509
 1571SOL    HW2 5613   6.128   1.710   2.492
 1572SOL     OW 5614   0.699   6.179   0.493
 1572SOL    HW1 5615   0.621   6.133   0.537
 1572SOL    HW2 5616   0.665   6.246   0.427
 1573SOL     OW 5617   6.244   3.413   1.843
 1573SOL    HW1 5618   6.218   3.491   1.786
 1573SOL    HW2 5619   6.228   3.435   1.939
 1574SOL     OW 5620   6.992   1.290   2.890
 1574SOL    HW1 5621   0.016   1.323   2.971
 1574SOL    HW2 5622   6.933   1.213   2.915
 1575SOL     OW 5623   2.544   2.143   1.173
 1575SOL    HW1 5624   2.493   2.135   1.088
 1575SOL    HW2 5625   2.600   2.061   1.187
 1576SOL     OW 5626   0.827   0.970   2.929
 1576SOL    HW1 5627   0.776   1.045   2.970
 1576SOL    HW2 5628   0.860   0.998   2.839
 1577SOL     OW 5629   2.796   0.574   5.352
 1577SOL    HW1 5630   2.829   0.664   5.322
 1577SOL    HW2 5631   2.717   0.587   5.412
 1578SOL     OW 5632   5.616   2.757   6.166
 1578SOL    HW1 5633   5.572   2.844   6.188
 1578SOL    HW2 5634   5.628   2.751   6.067
 1579SOL     OW 5635   0.942   1.990   2.401
 1579SOL    HW1 5636   0.951   2.020   2.306
 1579SOL    HW2 5637   0.976   2.061   2.462
 1580SOL     OW 5638   3.198   4.105   4.095
 1580SOL    HW1 5639   3.255   4.135   4.019
 1580SOL    HW2 5640   3.109   4.077   4.061
 1581SOL     OW 5641   6.622   4.337   5.151
 1581SOL    HW1 5642   6.593   4.312   5.059
 1581SOL    HW2 5643   6.693   4.274   5.182
 1582SOL     OW 5644   2.531   0.104   3.760
 1582SOL    HW1 5645   2.515   0.036   3.830
 1582SOL    HW2 5646   2.552   0.059   3.673
 1583SOL     OW 5647   0.932   5.371   3.320
 1583SOL    HW1 5648   0.965   5.323   3.239
 1583SOL    HW2 5649   1.005   5.377   3.387
 1584SOL     OW 5650   0.680   6.108   6.398
 1584SOL    HW1 5651   0.777   6.122   6.417
 1584SOL    HW2 5652   0.636   6.197   6.382
 1585SOL     OW 5653   4.895   1.576   3.481
 1585SOL    HW1 5654   4.833   1.546   3.554
 1585SOL    HW2 5655   4.841   1.615   3.407
 1586SOL     OW 5656   3.301   4.846   1.926
 1586SOL    HW1 5657   3.376   4.789   1.892
 1586SOL    HW2 5658   3.338   4.919   1.983
 1587SOL     OW 5659   3.068   5.838   6.241
 1587SOL    HW1 5660   3.087   5.855   6.338
 1587SOL    HW2 5661   3.092   5.744   6.218
 1588SOL     OW 5662   3.884   0.529   2.916
 1588SOL    HW1 5663   3.886   0.595   2.840
 1588SOL    HW2 5664   3.858   0.577   3.000
 1589SOL     OW 5665   6.676   3.067   2.086
 1589SOL    HW1 5666   6.692   2.985   2.030
 1589SOL    HW2 5667   6.591   3.111   2.055
 1590SOL     OW 5668   4.007   6.656   5.180
 1590SOL    HW1 5669   4.035   6.735   5.126
 1590SOL    HW2 5670   4.067   6.647   5.260
 1591SOL     OW 5671   6.899   5.215   1.943
 1591SOL    HW1 5672   6.962   5.168   1.881
 1591SOL    HW2 5673   6.923   5.194   2.037
 1592SOL     OW 5674   1.812   3.934   0.107
 1592SOL    HW1 5675   1.815   3.976   0.198
 1592SOL    HW2 5676   1.716   3.927   0.077
 1593SOL     OW 5677   1.394   6.279   5.465
 1593SOL    HW1 5678   1.392   6.319   5.556
 1593SOL    HW2 5679   1.305   6.238   5.444
 1594SOL     OW 5680   0.416   6.055   1.832
 1594SOL    HW1 5681   0.489   6.103   1.785
 1594SOL    HW2 5682   0.371   6.117   1.897
 1595SOL     OW 5683   1.511   5.249   0.306
 1595SOL    HW1 5684   1.441   5.320   0.297
 1595SOL    HW2 5685   1.536   5.238   0.402
 1596SOL     OW 5686   0.264   2.502   3.539
 1596SOL    HW1 5687   0.277   2.590   3.494
 1596SOL    HW2 5688   0.240   2.517   3.635
 1597SOL     OW 5689   1.437   6.251   0.049
 1597SOL    HW1 5690   1.531   6.226   0.028
 1597SOL    HW2 5691   1.435   6.335   0.103
 1598SOL     OW 5692   6.827   4.159   5.803
 1598SOL    HW1 5693   6.922   4.147   5.775
 1598SOL    HW2 5694   6.769   4.165   5.721
 1599SOL     OW 5695   4.865   5.192   5.001
 1599SOL    HW1 5696   4.802   5.213   5.076
 1599SOL    HW2 5697   4.867   5.094   4.986
 1600SOL     OW 5698   4.249   1.183   3.265
 1600SOL    HW1 5699   4.307   1.200   3.186
 1600SOL    HW2 5700   4.158   1.156   3.235
 1601SOL     OW 5701   6.954   5.790   4.807
 1601SOL    HW1 5702   0.022   5.810   4.838
 1601SOL    HW2 5703   6.958   5.718   4.737
 1602SOL     OW 5704   4.023   5.868   3.204
 1602SOL    HW1 5705   4.034   5.925   3.286
 1602SOL    HW2 5706   4.057   5.776   3.222
 1603SOL     OW 5707   1.139   6.191   3.471
 1603SOL    HW1 5708   1.126   6.279   3.425
 1603SOL    HW2 5709   1.101   6.118   3.415
 1604SOL     OW 5710   6.130   4.505   1.693
 1604SOL    HW1 5711   6.131   4.498   1.593
 1604SOL    HW2 5712   6.222   4.527   1.725
 1605SOL     OW 5713   6.472   5.321   1.311
 1605SOL    HW1 5714   6.459   5.302   1.408
 1605SOL    HW2 5715   6.551   5.270   1.277
 1606SOL     OW 5716   3.591   0.700   5.703
 1606SOL    HW1 5717   3.624   0.723   5.794
 1606SOL    HW2 5718   3.653   0.739   5.634
 1607SOL     OW 5719   4.143   1.364   0.808
 1607SOL    HW1 5720   4.150   1.323   0.899
 1607SOL    HW2 5721   4.072   1.434   0.808
 1608SOL     OW 5722   1.018   1.006   3.512
 1608SOL    HW1 5723   0.985   0.942   3.444
 1608SOL    HW2 5724   1.064   1.083   3.467
 1609SOL     OW 5725   4.340   0.140   0.148
 1609SOL    HW1 5726   4.368   0.109   0.239
 1609SOL    HW2 5727   4.304   0.063   0.096
 1610SOL     OW 5728   6.132   4.809   6.224
 1610SOL    HW1 5729   6.039   4.844   6.237
 1610SOL    HW2 5730   6.130   4.736   6.156
 1611SOL     OW 5731   2.582   3.931   1.052
 1611SOL    HW1 5732   2.602   4.026   1.027
 1611SOL    HW2 5733   2.666   3.877   1.049
 1612SOL     OW 5734   2.935   0.022   6.515
 1612SOL    HW1 5735   3.020   7.005   6.481
 1612SOL    HW2 5736   2.902   6.994   6.593
 1613SOL     OW 5737   1.356   5.425   1.910
 1613SOL    HW1 5738   1.341   5.510   1.959
 1613SOL    HW2 5739   1.429   5.438   1.842
 1614SOL     OW 5740   5.534   3.186   7.024
 1614SOL    HW1 5741   5.597   3.109   7.019
 1614SOL    HW2 5742   5.512   3.217   6.932
 1615SOL     OW 5743   5.626   5.126   0.857
 1615SOL    HW1 5744   5.608   5.220   0.887
 1615SOL    HW2 5745   5.568   5.105   0.778
 1616SOL     OW 5746   3.141   1.418   5.016
 1616SOL    HW1 5747   3.126   1.419   4.917
 1616SOL    HW2 5748   3.072   1.475   5.061
 1617SOL     OW 5749   6.201   6.931   2.706
 1617SOL    HW1 5750   6.246   6.982   2.633
 1617SOL    HW2 5751   6.134   6.989   2.752
 1618SOL     OW 5752   1.724   4.594   1.804
 1618SOL    HW1 5753   1.743   4.690   1.825
 1618SOL    HW2 5754   1.644   4.588   1.745
 1619SOL     OW 5755   1.370   3.954   2.220
 1619SOL    HW1 5756   1.286   3.993   2.257
 1619SOL    HW2 5757   1.348   3.875   2.162
 1620SOL     OW 5758   2.634   4.806   1.776
 1620SOL    HW1 5759   2.711   4.863   1.748
 1620SOL    HW2 5760   2.666   4.737   1.841
 1621SOL     OW 5761   0.254   0.882   0.703
 1621SOL    HW1 5762   0.213   0.915   0.618
 1621SOL    HW2 5763   0.237   0.949   0.776
 1622SOL     OW 5764   0.740   3.030   4.893
 1622SOL    HW1 5765   0.648   3.065   4.912
 1622SOL    HW2 5766   0.790   3.021   4.979
 1623SOL     OW 5767   2.187   3.205   5.122
 1623SOL    HW1 5768   2.249   3.281   5.139
 1623SOL    HW2 5769   2.240   3.121   5.110
 1624SOL     OW 5770   3.066   0.987   5.012
 1624SOL    HW1 5771   3.049   1.052   5.085
 1624SOL    HW2 5772   2.992   0.991   4.945
 1625SOL     OW 5773   0.891   5.155   0.155
 1625SOL    HW1 5774   0.929   5.095   0.226
 1625SOL    HW2 5775   0.791   5.147   0.155
 1626SOL     OW 5776   4.150   2.048   0.139
 1626SOL    HW1 5777   4.185   2.109   0.068
 1626SOL    HW2 5778   4.064   2.007   0.109
 1627SOL     OW 5779   6.027   3.472   3.158
 1627SOL    HW1 5780   6.100   3.466   3.090
 1627SOL    HW2 5781   6.021   3.385   3.208
 1628SOL     OW 5782   4.920   4.324   0.181
 1628SOL    HW1 5783   4.992   4.298   0.246
 1628SOL    HW2 5784   4.935   4.277   0.094
 1629SOL     OW 5785   3.021   0.819   4.267
 1629SOL    HW1 5786   2.974   0.890   4.318
 1629SOL    HW2 5787   3.077   0.764   4.330
 1630SOL     OW 5788   1.091   5.006   5.470
 1630SOL    HW1 5789   1.177   4.982   5.516
 1630SOL    HW2 5790   1.109   5.078   5.403
 1631SOL     OW 5791   1.594   3.160   6.606
 1631SOL    HW1 5792   1.496   3.176   6.593
 1631SOL    HW2 5793   1.606   3.086   6.672
 1632SOL     OW 5794   6.579   2.204   0.612
 1632SOL    HW1 5795   6.543   2.182   0.521
 1632SOL    HW2 5796   6.655   2.268   0.603
 1633SOL     OW 5797   5.284   3.801   4.302
 1633SOL    HW1 5798   5.272   3.741   4.381
 1633SOL    HW2 5799   5.303   3.894   4.334
 1634SOL     OW 5800   4.307   5.436   5.018
 1634SOL    HW1 5801   4.299   5.376   5.097
 1634SOL    HW2 5802   4.266   5.525   5.038
 1635SOL     OW 5803   0.127   5.041   6.151
 1635SOL    HW1 5804   0.073   5.125   6.147
 1635SOL    HW2 5805   0.120   5.001   6.243
 1636SOL     OW 5806   3.028   4.353   1.694
 1636SOL    HW1 5807   2.993   4.406   1.771
 1636SOL    HW2 5808   3.016   4.256   1.713
 1637SOL     OW 5809   0.925   0.150   2.517
 1637SOL    HW1 5810   1.011   0.147   2.467
 1637SOL    HW2 5811   0.942   0.130   2.614
 1638SOL     OW 5812   0.252   4.356   3.359
 1638SOL    HW1 5813   0.228   4.280   3.298
 1638SOL    HW2 5814   0.226   4.443   3.317
 1639SOL     OW 5815   4.846   6.943   2.317
 1639SOL    HW1 5816   4.920   6.971   2.379
 1639SOL    HW2 5817   4.866   6.978   2.225
 1640SOL     OW 5818   6.052   0.822   0.283
 1640SOL    HW1 5819   6.071   0.872   0.198
 1640SOL    HW2 5820   6.103   0.736   0.284
 1641SOL     OW 5821   4.847   2.558   3.597
 1641SOL    HW1 5822   4.804   2.628   3.654
 1641SOL    HW2 5823   4.908   2.601   3.531
 1642SOL     OW 5824   6.030   3.695   6.308
 1642SOL    HW1 5825   6.011   3.602   6.279
 1642SOL    HW2 5826   6.067   3.694   6.401
 1643SOL     OW 5827   2.936   4.869   5.135
 1643SOL    HW1 5828   2.955   4.820   5.220
 1643SOL    HW2 5829   2.891   4.808   5.071
 1644SOL     OW 5830   6.210   3.687   0.508
 1644SOL    HW1 5831   6.246   3.767   0.556
 1644SOL    HW2 5832   6.180   3.713   0.417
 1645SOL     OW 5833   3.060   5.244   5.597
 1645SOL    HW1 5834   3.149   5.219   5.558
 1645SOL    HW2 5835   3.040   5.340   5.577
 1646SOL     OW 5836   2.929   6.027   0.338
 1646SOL    HW1 5837   2.933   6.111   0.284
 1646SOL    HW2 5838   2.994   5.961   0.300
 1647SOL     OW 5839   5.644   2.930   4.668
 1647SOL    HW1 5840   5.699   3.013   4.662
 1647SOL    HW2 5841   5.613   2.903   4.577
 1648SOL     OW 5842   5.424   5.123   0.669
 1648SOL    HW1 5843   5.327   5.107   0.648
 1648SOL    HW2 5844   5.448   5.218   0.649
 1649SOL     OW 5845   3.039   0.644   4.569
 1649SOL    HW1 5846   3.067   0.642   4.665
 1649SOL    HW2 5847   3.120   0.655   4.512
 1650SOL     OW 5848   1.723   6.245   5.800
 1650SOL    HW1 5849   1.790   6.268   5.871
 1650SOL    HW2 5850   1.770   6.205   5.722
 1651SOL     OW 5851   0.718   1.828   1.272
 1651SOL    HW1 5852   0.624   1.820   1.306
 1651SOL    HW2 5853   0.782   1.821   1.348
 1652SOL     OW 5854   1.210   4.039   2.601
 1652SOL    HW1 5855   1.181   4.068   2.511
 1652SOL    HW2 5856   1.134   3.996   2.649
 1653SOL     OW 5857   0.965   6.659   0.987
 1653SOL    HW1 5858   0.961   6.662   1.087
 1653SOL    HW2 5859   1.055   6.626   0.959
 1654SOL     OW 5860   0.604   3.764   1.313
 1654SOL    HW1 5861   0.531   3.711   1.271
 1654SOL    HW2 5862   0.620   3.846   1.259
 1655SOL     OW 5863   0.194   2.453   5.283
 1655SOL    HW1 5864   0.267   2.457   5.351
 1655SOL    HW2 5865   0.173   2.358   5.263
 1656SOL     OW 5866   2.617   4.630   2.237
 1656SOL    HW1 5867   2.522   4.650   2.214
 1656SOL    HW2 5868   2.668   4.608   2.154
 1657SOL     OW 5869   0.117   0.997   3.263
 1657SOL    HW1 5870   0.078   0.957   3.179
 1657SOL    HW2 5871   0.042   1.029   3.321
 1658SOL     OW 5872   0.382   6.139   1.124
 1658SOL    HW1 5873   0.332   6.082   1.190
 1658SOL    HW2 5874   0.318   6.203   1.081
 1659SOL     OW 5875   3.897   0.409   6.102
 1659SOL    HW1 5876   3.807   0.368   6.086
 1659SOL    HW2 5877   3.969   0.343   6.081
 1660SOL     OW 5878   1.014   5.174   3.914
 1660SOL    HW1 5879   0.972   5.211   3.997
 1660SOL    HW2 5880   0.959   5.097   3.881
 1661SOL     OW 5881   2.541   0.403   1.784
 1661SOL    HW1 5882   2.596   0.342   1.841
 1661SOL    HW2 5883   2.599   0.440   1.711
 1662SOL     OW 5884   6.647   0.813   4.569
 1662SOL    HW1 5885   6.581   0.766   4.627
 1662SOL    HW2 5886   6.613   0.905   4.547
 1663SOL     OW 5887   4.472   6.065   2.455
 1663SOL    HW1 5888   4.480   5.968   2.474
 1663SOL    HW2 5889   4.509   6.117   2.532
 1664SOL     OW 5890   2.162   0.445   4.432
 1664SOL    HW1 5891   2.205   0.516   4.376
 1664SOL    HW2 5892   2.070   0.426   4.397
 1665SOL     OW 5893   6.903   1.704   2.989
 1665SOL    HW1 5894   6.904   1.723   2.891
 1665SOL    HW2 5895   6.996   1.681   3.019
 1666SOL     OW 5896   5.346   2.489   6.953
 1666SOL    HW1 5897   5.358   2.408   7.011
 1666SOL    HW2 5898   5.260   2.483   6.903
 1667SOL     OW 5899   6.656   5.610   1.717
 1667SOL    HW1 5900   6.685   5.515   1.711
 1667SOL    HW2 5901   6.675   5.657   1.631
 1668SOL     OW 5902   5.346   6.417   5.364
 1668SOL    HW1 5903   5.396   6.503   5.354
 1668SOL    HW2 5904   5.392   6.359   5.431
 1669SOL     OW 5905   6.817   5.536   6.488
 1669SOL    HW1 5906   6.825   5.561   6.584
 1669SOL    HW2 5907   6.909   5.525   6.449
 1670SOL     OW 5908   7.024   3.891   5.343
 1670SOL    HW1 5909   0.021   3.891   5.441
 1670SOL    HW2 5910   6.956   3.962   5.324
 1671SOL     OW 5911   5.234   1.366   1.471
 1671SOL    HW1 5912   5.281   1.449   1.441
 1671SOL    HW2 5913   5.292   1.318   1.536
 1672SOL     OW 5914   1.790   3.024   0.954
 1672SOL    HW1 5915   1.823   3.118   0.946
 1672SOL    HW2 5916   1.855   2.971   1.008
 1673SOL     OW 5917   0.835   1.655   4.543
 1673SOL    HW1 5918   0.907   1.636   4.475
 1673SOL    HW2 5919   0.760   1.705   4.500
 1674SOL     OW 5920   0.911   3.801   2.478
 1674SOL    HW1 5921   0.941   3.795   2.383
 1674SOL    HW2 5922   0.895   3.709   2.514
 1675SOL     OW 5923   4.853   0.167   6.540
 1675SOL    HW1 5924   4.844   0.192   6.444
 1675SOL    HW2 5925   4.918   0.093   6.550
 1676SOL     OW 5926   2.061   2.600   1.805
 1676SOL    HW1 5927   2.143   2.543   1.793
 1676SOL    HW2 5928   2.070   2.682   1.748
 1677SOL     OW 5929   2.938   3.818   4.812
 1677SOL    HW1 5930   2.864   3.755   4.789
 1677SOL    HW2 5931   3.021   3.765   4.831
 1678SOL     OW 5932   4.799   4.097   4.358
 1678SOL    HW1 5933   4.899   4.089   4.353
 1678SOL    HW2 5934   4.758   4.014   4.319
 1679SOL     OW 5935   1.978   2.416   4.274
 1679SOL    HW1 5936   1.888   2.414   4.231
 1679SOL    HW2 5937   2.048   2.396   4.205
 1680SOL     OW 5938   0.138   2.925   4.580
 1680SOL    HW1 5939   0.224   2.915   4.530
 1680SOL    HW2 5940   0.117   2.841   4.630
 1681SOL     OW 5941   6.735   5.873   0.307
 1681SOL    HW1 5942   6.676   5.797   0.281
 1681SOL    HW2 5943   6.824   5.863   0.262
 1682SOL     OW 5944   1.218   0.900   4.475
 1682SOL    HW1 5945   1.261   0.989   4.494
 1682SOL    HW2 5946   1.228   0.878   4.378
 1683SOL     OW 5947   4.699   5.223   1.434
 1683SOL    HW1 5948   4.739   5.203   1.524
 1683SOL    HW2 5949   4.634   5.151   1.410
 1684SOL     OW 5950   1.599   5.780   2.237
 1684SOL    HW1 5951   1.667   5.731   2.291
 1684SOL    HW2 5952   1.646   5.836   2.168
 1685SOL     OW 5953   2.703   0.903   5.067
 1685SOL    HW1 5954   2.748   0.944   4.987
 1685SOL    HW2 5955   2.621   0.956   5.089
 1686SOL     OW 5956   2.845   5.868   5.235
 1686SOL    HW1 5957   2.764   5.815   5.208
 1686SOL    HW2 5958   2.865   5.937   5.165
 1687SOL     OW 5959   2.044   3.813   1.406
 1687SOL    HW1 5960   2.054   3.713   1.399
 1687SOL    HW2 5961   2.132   3.853   1.430
 1688SOL     OW 5962   1.897   2.705   4.205
 1688SOL    HW1 5963   1.848   2.620   4.187
 1688SOL    HW2 5964   1.842   2.783   4.175
 1689SOL     OW 5965   6.128   1.577   2.805
 1689SOL    HW1 5966   6.181   1.605   2.725
 1689SOL    HW2 5967   6.150   1.637   2.882
 1690SOL     OW 5968   1.461   2.755   3.357
 1690SOL    HW1 5969   1.373   2.755   3.404
 1690SOL    HW2 5970   1.524   2.817   3.404
 1691SOL     OW 5971   5.709   3.830   3.568
 1691SOL    HW1 5972   5.806   3.844   3.548
 1691SOL    HW2 5973   5.691   3.732   3.575
 1692SOL     OW 5974   5.572   6.819   1.430
 1692SOL    HW1 5975   5.499   6.750   1.422
 1692SOL    HW2 5976   5.613   6.834   1.340
 1693SOL     OW 5977   0.382   2.050   1.817
 1693SOL    HW1 5978   0.346   2.136   1.854
 1693SOL    HW2 5979   0.405   1.989   1.893
 1694SOL     OW 5980   5.508   0.512   2.550
 1694SOL    HW1 5981   5.504   0.456   2.633
 1694SOL    HW2 5982   5.597   0.558   2.545
 1695SOL     OW 5983   3.193   1.115   5.520
 1695SOL    HW1 5984   3.270   1.073   5.472
 1695SOL    HW2 5985   3.118   1.130   5.455
 1696SOL     OW 5986   4.535   4.115   0.769
 1696SOL    HW1 5987   4.571   4.054   0.839
 1696SOL    HW2 5988   4.471   4.179   0.810
 1697SOL     OW 5989   5.514   7.017   0.822
 1697SOL    HW1 5990   5.463   6.935   0.851
 1697SOL    HW2 5991   5.601   6.990   0.781
 1698SOL     OW 5992   4.207   0.346   0.259
 1698SOL    HW1 5993   4.111   0.358   0.232
 1698SOL    HW2 5994   4.253   0.286   0.194
 1699SOL     OW 5995   1.481   0.550   0.798
 1699SOL    HW1 5996   1.383   0.567   0.805
 1699SOL    HW2 5997   1.496   0.455   0.770
 1700SOL     OW 5998   5.576   2.587   3.490
 1700SOL    HW1 5999   5.593   2.500   3.444
 1700SOL    HW2 6000   5.478   2.594   3.510
 1701SOL     OW 6001   4.391   4.530   6.393
 1701SOL    HW1 6002   4.335   4.611   6.374
 1701SOL    HW2 6003   4.342   4.448   6.364
 1702SOL     OW 6004   6.796   2.339   0.489
 1702SOL    HW1 6005   6.870   2.306   0.430
 1702SOL    HW2 6006   6.737   2.401   0.437
 1703SOL     OW 6007   2.880   2.679   1.735
 1703SOL    HW1 6008   2.847   2.615   1.804
 1703SOL    HW2 6009   2.898   2.630   1.649
 1704SOL     OW 6010   1.131   2.458   0.713
 1704SOL    HW1 6011   1.182   2.495   0.635
 1704SOL    HW2 6012   1.095   2.534   0.768
 1705SOL     OW 6013   3.313   1.904   1.515
 1705SOL    HW1 6014   3.272   1.826   1.468
 1705SOL    HW2 6015   3.264   1.921   1.601
 1706SOL     OW 6016   4.513   1.032   2.068
 1706SOL    HW1 6017   4.479   1.120   2.102
 1706SOL    HW2 6018   4.437   0.977   2.035
 1707SOL     OW 6019   5.368   2.084   2.127
 1707SOL    HW1 6020   5.411   2.149   2.064
 1707SOL    HW2 6021   5.439   2.036   2.179
 1708SOL     OW 6022   5.055   5.019   1.672
 1708SOL    HW1 6023   5.063   4.925   1.704
 1708SOL    HW2 6024   5.103   5.029   1.585
 1709SOL     OW 6025   3.433   5.469   2.198
 1709SOL    HW1 6026   3.438   5.424   2.287
 1709SOL    HW2 6027   3.339   5.467   2.164
 1710SOL     OW 6028   5.227   5.540   4.188
 1710SOL    HW1 6029   5.222   5.553   4.089
 1710SOL    HW2 6030   5.134   5.532   4.225
 1711SOL     OW 6031   1.089   4.815   4.106
 1711SOL    HW1 6032   1.113   4.757   4.028
 1711SOL    HW2 6033   1.031   4.764   4.169
 1712SOL     OW 6034   6.982   2.535   5.630
 1712SOL    HW1 6035   0.028   2.571   5.692
 1712SOL    HW2 6036   6.993   2.576   5.540
 1713SOL     OW 6037   4.958   2.682   1.741
 1713SOL    HW1 6038   5.012   2.703   1.823
 1713SOL    HW2 6039   5.017   2.687   1.661
 1714SOL     OW 6040   3.149   1.837   5.501
 1714SOL    HW1 6041   3.145   1.808   5.405
 1714SOL    HW2 6042   3.093   1.919   5.512
 1715SOL     OW 6043   6.853   5.768   3.061
 1715SOL    HW1 6044   6.795   5.843   3.031
 1715SOL    HW2 6045   6.929   5.804   3.116
 1716SOL     OW 6046   4.943   6.855   2.840
 1716SOL    HW1 6047   4.978   6.844   2.934
 1716SOL    HW2 6048   4.888   6.775   2.816
 1717SOL     OW 6049   2.434   6.434   5.757
 1717SOL    HW1 6050   2.362   6.472   5.814
 1717SOL    HW2 6051   2.405   6.347   5.719
 1718SOL     OW 6052   2.069   2.155   0.914
 1718SOL    HW1 6053   2.037   2.248   0.935
 1718SOL    HW2 6054   1.992   2.092   0.917
 1719SOL     OW 6055   1.737   3.242   0.677
 1719SOL    HW1 6056   1.662   3.303   0.651
 1719SOL    HW2 6057   1.785   3.280   0.756
 1720SOL     OW 6058   0.320   2.725   6.832
 1720SOL    HW1 6059   0.392   2.792   6.852
 1720SOL    HW2 6060   0.311   2.662   6.909
 1721SOL     OW 6061   1.605   6.225   1.280
 1721SOL    HW1 6062   1.613   6.321   1.255
 1721SOL    HW2 6063   1.692   6.191   1.314
 1722SOL     OW 6064   3.888   1.592   3.882
 1722SOL    HW1 6065   3.895   1.691   3.882
 1722SOL    HW2 6066   3.856   1.561   3.971
 1723SOL     OW 6067   6.193   2.401   2.813
 1723SOL    HW1 6068   6.174   2.393   2.910
 1723SOL    HW2 6069   6.136   2.337   2.762
 1724SOL     OW 6070   6.819   2.863   1.578
 1724SOL    HW1 6071   6.757   2.795   1.616
 1724SOL    HW2 6072   6.849   2.925   1.651
 1725SOL     OW 6073   1.502   4.774   6.400
 1725SOL    HW1 6074   1.559   4.706   6.446
 1725SOL    HW2 6075   1.437   4.812   6.466
 1726SOL     OW 6076   5.695   4.817   5.242
 1726SOL    HW1 6077   5.647   4.903   5.259
 1726SOL    HW2 6078   5.641   4.742   5.281
 1727SOL     OW 6079   3.391   3.091   4.036
 1727SOL    HW1 6080   3.367   3.170   3.979
 1727SOL    HW2 6081   3.309   3.059   4.085
 1728SOL     OW 6082   4.634   4.704   5.552
 1728SOL    HW1 6083   4.689   4.667   5.627
 1728SOL    HW2 6084   4.691   4.763   5.494
 1729SOL     OW 6085   2.441   4.381   3.058
 1729SOL    HW1 6086   2.451   4.422   3.149
 1729SOL    HW2 6087   2.483   4.441   2.990
 1730SOL     OW 6088   0.932   0.011   5.758
 1730SOL    HW1 6089   1.017   6.986   5.742
 1730SOL    HW2 6090   0.858   6.989   5.708
 1731SOL     OW 6091   6.809   3.576   2.726
 1731SOL    HW1 6092   6.813   3.565   2.826
 1731SOL    HW2 6093   6.877   3.518   2.683
 1732SOL     OW 6094   2.363   5.454   5.634
 1732SOL    HW1 6095   2.372   5.355   5.649
 1732SOL    HW2 6096   2.271   5.476   5.604
 1733SOL     OW 6097   1.576   4.613   1.346
 1733SOL    HW1 6098   1.660   4.664   1.325
 1733SOL    HW2 6099   1.562   4.610   1.445
 1734SOL     OW 6100   4.300   3.129   1.064
 1734SOL    HW1 6101   4.317   3.038   1.024
 1734SOL    HW2 6102   4.388   3.174   1.082
 1735SOL     OW 6103   5.069   5.980   0.710
 1735SOL    HW1 6104   5.057   5.969   0.808
 1735SOL    HW2 6105   5.119   6.065   0.692
 1736SOL     OW 6106   3.262   2.953   0.164
 1736SOL    HW1 6107   3.207   2.880   0.205
 1736SOL    HW2 6108   3.338   2.976   0.224
 1737SOL     OW 6109   2.722   1.153   4.317
 1737SOL    HW1 6110   2.817   1.170   4.293
 1737SOL    HW2 6111   2.691   1.066   4.278
 1738SOL     OW 6112   2.238   2.104   3.888
 1738SOL    HW1 6113   2.169   2.133   3.822
 1738SOL    HW2 6114   2.288   2.026   3.853
 1739SOL     OW 6115   0.431   2.018   5.562
 1739SOL    HW1 6116   0.485   1.974   5.634
 1739SOL    HW2 6117   0.491   2.043   5.486
 1740SOL     OW 6118   6.916   1.882   5.609
 1740SOL    HW1 6119   7.015   1.892   5.618
 1740SOL    HW2 6120   6.882   1.817   5.676
 1741SOL     OW 6121   2.525   0.809   3.668
 1741SOL    HW1 6122   2.578   0.807   3.583
 1741SOL    HW2 6123   2.587   0.818   3.746
 1742SOL     OW 6124   5.653   0.677   6.107
 1742SOL    HW1 6125   5.734   0.683   6.049
 1742SOL    HW2 6126   5.662   0.598   6.168
 1743SOL     OW 6127   1.353   2.677   1.191
 1743SOL    HW1 6128   1.286   2.603   1.201
 1743SOL    HW2 6129   1.306   2.765   1.194
 1744SOL     OW 6130   6.827   1.690   2.653
 1744SOL    HW1 6131   6.728   1.682   2.655
 1744SOL    HW2 6132   6.868   1.600   2.668
 1745SOL     OW 6133   6.277   6.233   2.773
 1745SOL    HW1 6134   6.278   6.138   2.743
 1745SOL    HW2 6135   6.340   6.287   2.716
 1746SOL     OW 6136   1.401   4.619   4.894
 1746SOL    HW1 6137   1.310   4.587   4.869
 1746SOL    HW2 6138   1.405   4.718   4.886
 1747SOL     OW 6139   5.755   1.874   2.714
 1747SOL    HW1 6140   5.729   1.907   2.805
 1747SOL    HW2 6141   5.771   1.775   2.718
 1748SOL     OW 6142   1.107   0.881   5.025
 1748SOL    HW1 6143   1.067   0.799   4.982
 1748SOL    HW2 6144   1.182   0.854   5.084
 1749SOL     OW 6145   2.714   0.647   4.999
 1749SOL    HW1 6146   2.655   0.644   4.918
 1749SOL    HW2 6147   2.709   0.738   5.040
 1750SOL     OW 6148   5.206   6.607   4.503
 1750SOL    HW1 6149   5.114   6.610   4.463
 1750SOL    HW2 6150   5.200   6.633   4.600
 1751SOL     OW 6151   4.109   6.464   4.977
 1751SOL    HW1 6152   4.202   6.482   5.007
 1751SOL    HW2 6153   4.045   6.499   5.045
 1752SOL     OW 6154   0.171   2.060   1.297
 1752SOL    HW1 6155   0.213   2.143   1.260
 1752SOL    HW2 6156   0.238   1.986   1.296
 1753SOL     OW 6157   0.197   1.058   0.908
 1753SOL    HW1 6158   0.274   1.102   0.953
 1753SOL    HW2 6159   0.138   1.127   0.866
 1754SOL     OW 6160   2.071   4.460   0.300
 1754SOL    HW1 6161   2.151   4.518   0.319
 1754SOL    HW2 6162   2.030   4.487   0.213
 1755SOL     OW 6163   0.170   5.960   2.143
 1755SOL    HW1 6164   0.137   5.990   2.233
 1755SOL    HW2 6165   0.151   5.863   2.132
 1756SOL     OW 6166   4.142   5.771   5.822
 1756SOL    HW1 6167   4.181   5.779   5.730
 1756SOL    HW2 6168   4.184   5.837   5.883
 1757SOL     OW 6169   2.735   5.428   5.010
 1757SOL    HW1 6170   2.679   5.359   5.055
 1757SOL    HW2 6171   2.828   5.425   5.045
 1758SOL     OW 6172   1.953   0.184   4.155
 1758SOL    HW1 6173   2.029   0.183   4.091
 1758SOL    HW2 6174   1.937   0.278   4.187
 1759SOL     OW 6175   1.781   5.589   6.323
 1759SOL    HW1 6176   1.709   5.531   6.286
 1759SOL    HW2 6177   1.820   5.546   6.404
 1760SOL     OW 6178   5.720   1.666   3.004
 1760SOL    HW1 6179   5.765   1.616   3.079
 1760SOL    HW2 6180   5.770   1.652   2.919
 1761SOL     OW 6181   0.135   0.029   1.051
 1761SOL    HW1 6182   0.218   0.049   1.103
 1761SOL    HW2 6183   0.159   0.018   0.954
 1762SOL     OW 6184   0.191   1.160   5.240
 1762SOL    HW1 6185   0.106   1.211   5.227
 1762SOL    HW2 6186   0.173   1.077   5.294
 1763SOL     OW 6187   1.026   3.526   3.607
 1763SOL    HW1 6188   1.091   3.599   3.630
 1763SOL    HW2 6189   1.015   3.521   3.508
 1764SOL     OW 6190   2.102   3.721   2.619
 1764SOL    HW1 6191   2.023   3.736   2.558
 1764SOL    HW2 6192   2.118   3.803   2.673
 1765SOL     OW 6193   3.506   1.160   0.906
 1765SOL    HW1 6194   3.606   1.166   0.912
 1765SOL    HW2 6195   3.471   1.110   0.985
 1766SOL     OW 6196   4.743   4.118   2.748
 1766SOL    HW1 6197   4.793   4.066   2.679
 1766SOL    HW2 6198   4.776   4.094   2.839
 1767SOL     OW 6199   0.299   3.265   2.819
 1767SOL    HW1 6200   0.211   3.231   2.786
 1767SOL    HW2 6201   0.285   3.349   2.871
 1768SOL     OW 6202   4.429   1.511   5.819
 1768SOL    HW1 6203   4.490   1.433   5.808
 1768SOL    HW2 6204   4.349   1.500   5.760
 1769SOL     OW 6205   4.024   2.010   5.963
 1769SOL    HW1 6206   4.011   2.041   6.057
 1769SOL    HW2 6207   3.943   1.961   5.932
 1770SOL     OW 6208   6.785   4.108   4.369
 1770SOL    HW1 6209   6.740   4.164   4.299
 1770SOL    HW2 6210   6.878   4.142   4.384
 1771SOL     OW 6211   1.588   4.987   0.249
 1771SOL    HW1 6212   1.548   4.907   0.204
 1771SOL    HW2 6213   1.555   5.071   0.205
 1772SOL     OW 6214   3.334   0.219   3.534
 1772SOL    HW1 6215   3.297   0.128   3.549
 1772SOL    HW2 6216   3.404   0.216   3.463
 1773SOL     OW 6217   3.280   3.902   6.797
 1773SOL    HW1 6218   3.328   3.965   6.858
 1773SOL    HW2 6219   3.290   3.809   6.830
 1774SOL     OW 6220   4.556   0.723   1.894
 1774SOL    HW1 6221   4.540   0.774   1.979
 1774SOL    HW2 6222   4.519   0.774   1.817
 1775SOL     OW 6223   2.024   5.915   4.483
 1775SOL    HW1 6224   2.036   5.997   4.540
 1775SOL    HW2 6225   2.109   5.897   4.433
 1776SOL     OW 6226   4.370   0.965   5.823
 1776SOL    HW1 6227   4.288   0.911   5.844
 1776SOL    HW2 6228   4.437   0.907   5.776
 1777SOL     OW 6229   3.036   5.759   5.634
 1777SOL    HW1 6230   3.127   5.728   5.605
 1777SOL    HW2 6231   2.974   5.757   5.555
 1778SOL     OW 6232   4.337   2.044   4.481
 1778SOL    HW1 6233   4.300   2.105   4.411
 1778SOL    HW2 6234   4.436   2.040   4.473
 1779SOL     OW 6235   4.359   1.961   4.031
 1779SOL    HW1 6236   4.269   1.917   4.033
 1779SOL    HW2 6237   4.410   1.928   3.951
 1780SOL     OW 6238   2.154   4.636   5.547
 1780SOL    HW1 6239   2.117   4.641   5.454
 1780SOL    HW2 6240   2.239   4.582   5.546
 1781SOL     OW 6241   4.942   5.520   3.383
 1781SOL    HW1 6242   4.929   5.600   3.442
 1781SOL    HW2 6243   5.016   5.463   3.421
 1782SOL     OW 6244   3.063   1.772   3.323
 1782SOL    HW1 6245   3.056   1.860   3.275
 1782SOL    HW2 6246   2.973   1.727   3.323
 1783SOL     OW 6247   2.157   2.928   6.455
 1783SOL    HW1 6248   2.077   2.933   6.515
 1783SOL    HW2 6249   2.206   3.015   6.457
 1784SOL     OW 6250   3.066   0.731   2.715
 1784SOL    HW1 6251   2.998   0.802   2.734
 1784SOL    HW2 6252   3.133   0.728   2.789
 1785SOL     OW 6253   5.144   5.396   3.571
 1785SOL    HW1 6254   5.162   5.306   3.610
 1785SOL    HW2 6255   5.067   5.439   3.620
 1786SOL     OW 6256   1.299   3.215   0.673
 1786SOL    HW1 6257   1.384   3.163   0.681
 1786SOL    HW2 6258   1.260   3.230   0.764
 1787SOL     OW 6259   2.008   0.634   4.911
 1787SOL    HW1 6260   2.054   0.639   5.000
 1787SOL    HW2 6261   1.909   0.639   4.924
 1788SOL     OW 6262   3.385   3.785   0.218
 1788SOL    HW1 6263   3.394   3.707   0.278
 1788SOL    HW2 6264   3.419   3.761   0.127
 1789SOL     OW 6265   6.519   2.271   2.076
 1789SOL    HW1 6266   6.540   2.313   2.164
 1789SOL    HW2 6267   6.430   2.225   2.080
 1790SOL     OW 6268   3.876   6.462   4.560
 1790SOL    HW1 6269   3.946   6.416   4.615
 1790SOL    HW2 6270   3.786   6.429   4.586
 1791SOL     OW 6271   0.568   1.804   4.832
 1791SOL    HW1 6272   0.489   1.863   4.818
 1791SOL    HW2 6273   0.548   1.738   4.904
 1792SOL     OW 6274   0.703   1.313   4.404
 1792SOL    HW1 6275   0.622   1.265   4.369
 1792SOL    HW2 6276   0.690   1.412   4.396
 1793SOL     OW 6277   6.939   0.240   3.447
 1793SOL    HW1 6278   6.924   0.160   3.389
 1793SOL    HW2 6279   6.911   0.322   3.397
 1794SOL     OW 6280   5.362   6.469   6.514
 1794SOL    HW1 6281   5.393   6.415   6.436
 1794SOL    HW2 6282   5.269   6.501   6.497
 1795SOL     OW 6283   6.982   4.954   2.433
 1795SOL    HW1 6284   0.003   5.015   2.498
 1795SOL    HW2 6285   0.027   4.904   2.381
 1796SOL     OW 6286   1.924   1.391   4.241
 1796SOL    HW1 6287   1.868   1.417   4.162
 1796SOL    HW2 6288   1.982   1.313   4.216
 1797SOL     OW 6289   1.620   0.361   5.945
 1797SOL    HW1 6290   1.657   0.282   5.896
 1797SOL    HW2 6291   1.524   0.346   5.966
 1798SOL     OW 6292   4.908   2.632   5.712
 1798SOL    HW1 6293   4.998   2.673   5.694
 1798SOL    HW2 6294   4.856   2.628   5.627
 1799SOL     OW 6295   6.183   1.713   6.638
 1799SOL    HW1 6296   6.186   1.813   6.627
 1799SOL    HW2 6297   6.169   1.690   6.734
 1800SOL     OW 6298   5.207   4.412   3.795
 1800SOL    HW1 6299   5.188   4.494   3.848
 1800SOL    HW2 6300   5.231   4.437   3.701
 1801SOL     OW 6301   1.187   1.408   2.664
 1801SOL    HW1 6302   1.172   1.454   2.752
 1801SOL    HW2 6303   1.216   1.314   2.680
 1802SOL     OW 6304   5.435   5.232   2.559
 1802SOL    HW1 6305   5.353   5.272   2.520
 1802SOL    HW2 6306   5.448   5.267   2.652
 1803SOL     OW 6307   6.539   6.172   0.920
 1803SOL    HW1 6308   6.612   6.240   0.918
 1803SOL    HW2 6309   6.549   6.114   1.001
 1804SOL     OW 6310   3.125   3.078   5.383
 1804SOL    HW1 6311   3.032   3.091   5.417
 1804SOL    HW2 6312   3.178   3.161   5.398
 1805SOL     OW 6313   0.582   4.052   5.847
 1805SOL    HW1 6314   0.636   4.000   5.781
 1805SOL    HW2 6315   0.527   4.119   5.799
 1806SOL     OW 6316   1.716   2.141   1.523
 1806SOL    HW1 6317   1.753   2.103   1.608
 1806SOL    HW2 6318   1.770   2.221   1.496
 1807SOL     OW 6319   6.254   1.977   6.671
 1807SOL    HW1 6320   6.311   1.937   6.742
 1807SOL    HW2 6321   6.258   2.077   6.677
 1808SOL     OW 6322   6.205   4.367   4.749
 1808SOL    HW1 6323   6.201   4.382   4.848
 1808SOL    HW2 6324   6.199   4.455   4.702
 1809SOL     OW 6325   2.301   2.367   4.639
 1809SOL    HW1 6326   2.246   2.396   4.560
 1809SOL    HW2 6327   2.360   2.442   4.668
 1810SOL     OW 6328   2.094   0.193   5.363
 1810SOL    HW1 6329   2.110   0.185   5.461
 1810SOL    HW2 6330   2.140   0.117   5.316
 1811SOL     OW 6331   4.241   4.747   3.249
 1811SOL    HW1 6332   4.156   4.754   3.301
 1811SOL    HW2 6333   4.243   4.818   3.179
 1812SOL     OW 6334   4.801   0.200   5.823
 1812SOL    HW1 6335   4.840   0.236   5.739
 1812SOL    HW2 6336   4.761   0.110   5.805
 1813SOL     OW 6337   4.191   4.833   1.468
 1813SOL    HW1 6338   4.282   4.822   1.507
 1813SOL    HW2 6339   4.191   4.908   1.402
 1814SOL     OW 6340   6.285   0.789   0.871
 1814SOL    HW1 6341   6.210   0.763   0.810
 1814SOL    HW2 6342   6.369   0.744   0.841
 1815SOL     OW 6343   6.124   1.325   2.271
 1815SOL    HW1 6344   6.148   1.253   2.336
 1815SOL    HW2 6345   6.054   1.292   2.208
 1816SOL     OW 6346   1.730   4.863   0.867
 1816SOL    HW1 6347   1.792   4.831   0.795
 1816SOL    HW2 6348   1.783   4.914   0.935
 1817SOL     OW 6349   3.800   6.702   3.307
 1817SOL    HW1 6350   3.706   6.707   3.272
 1817SOL    HW2 6351   3.834   6.794   3.325
 1818SOL     OW 6352   2.232   5.824   1.332
 1818SOL    HW1 6353   2.153   5.885   1.341
 1818SOL    HW2 6354   2.257   5.815   1.236
 1819SOL     OW 6355   1.311   6.096   1.799
 1819SOL    HW1 6356   1.253   6.026   1.840
 1819SOL    HW2 6357   1.283   6.110   1.704
 1820SOL     OW 6358   3.164   0.172   2.118
 1820SOL    HW1 6359   3.100   0.108   2.161
 1820SOL    HW2 6360   3.166   0.257   2.171
 1821SOL     OW 6361   2.390   0.993   1.942
 1821SOL    HW1 6362   2.328   0.963   1.869
 1821SOL    HW2 6363   2.346   1.064   1.997
 1822SOL     OW 6364   1.046   3.064   1.240
 1822SOL    HW1 6365   1.093   3.149   1.215
 1822SOL    HW2 6366   0.962   3.086   1.290
 1823SOL     OW 6367   3.280   5.940   3.238
 1823SOL    HW1 6368   3.209   5.878   3.203
 1823SOL    HW2 6369   3.301   6.009   3.168
 1824SOL     OW 6370   3.718   3.337   0.344
 1824SOL    HW1 6371   3.758   3.425   0.372
 1824SOL    HW2 6372   3.671   3.349   0.257
 1825SOL     OW 6373   1.784   2.065   4.675
 1825SOL    HW1 6374   1.771   2.024   4.585
 1825SOL    HW2 6375   1.761   2.162   4.671
 1826SOL     OW 6376   3.352   1.446   1.471
 1826SOL    HW1 6377   3.392   1.395   1.395
 1826SOL    HW2 6378   3.422   1.462   1.541
 1827SOL     OW 6379   6.962   5.696   1.315
 1827SOL    HW1 6380   6.912   5.675   1.231
 1827SOL    HW2 6381   6.990   5.792   1.314
 1828SOL     OW 6382   1.839   2.379   0.399
 1828SOL    HW1 6383   1.881   2.350   0.485
 1828SOL    HW2 6384   1.739   2.371   0.406
 1829SOL     OW 6385   3.289   0.732   2.878
 1829SOL    HW1 6386   3.275   0.673   2.957
 1829SOL    HW2 6387   3.387   0.744   2.862
 1830SOL     OW 6388   5.480   6.277   4.157
 1830SOL    HW1 6389   5.495   6.206   4.225
 1830SOL    HW2 6390   5.514   6.364   4.191
 1831SOL     OW 6391   5.807   0.283   1.579
 1831SOL    HW1 6392   5.834   0.347   1.506
 1831SOL    HW2 6393   5.757   0.207   1.538
 1832SOL     OW 6394   4.243   2.032   1.515
 1832SOL    HW1 6395   4.317   2.080   1.564
 1832SOL    HW2 6396   4.187   2.098   1.466
 1833SOL     OW 6397   5.245   0.897   1.068
 1833SOL    HW1 6398   5.177   0.908   0.995
 1833SOL    HW2 6399   5.199   0.864   1.151
 1834SOL     OW 6400   2.516   3.731   0.695
 1834SOL    HW1 6401   2.460   3.812   0.711
 1834SOL    HW2 6402   2.603   3.740   0.744
 1835SOL     OW 6403   0.454   4.858   2.347
 1835SOL    HW1 6404   0.525   4.802   2.388
 1835SOL    HW2 6405   0.492   4.911   2.272
 1836SOL     OW 6406   5.204   2.261   1.270
 1836SOL    HW1 6407   5.168   2.303   1.353
 1836SOL    HW2 6408   5.134   2.203   1.229
 1837SOL     OW 6409   1.018   0.420   4.596
 1837SOL    HW1 6410   1.010   0.364   4.513
 1837SOL    HW2 6411   0.953   0.387   4.664
 1838SOL     OW 6412   6.512   1.298   5.831
 1838SOL    HW1 6413   6.526   1.373   5.767
 1838SOL    HW2 6414   6.592   1.238   5.830
 1839SOL     OW 6415   7.002   2.016   5.066
 1839SOL    HW1 6416   0.016   1.924   5.073
 1839SOL    HW2 6417   6.904   2.013   5.083
 1840SOL     OW 6418   3.752   0.360   1.438
 1840SOL    HW1 6419   3.686   0.413   1.491
 1840SOL    HW2 6420   3.761   0.269   1.479
 1841SOL     OW 6421   2.125   1.325   3.608
 1841SOL    HW1 6422   2.193   1.255   3.589
 1841SOL    HW2 6423   2.133   1.356   3.702
 1842SOL     OW 6424   1.313   5.749   0.074
 1842SOL    HW1 6425   1.307   5.845   0.046
 1842SOL    HW2 6426   1.405   5.715   0.053
 1843SOL     OW 6427   6.083   1.504   3.748
 1843SOL    HW1 6428   6.179   1.530   3.756
 1843SOL    HW2 6429   6.075   1.405   3.737
 1844SOL     OW 6430   3.244   6.312   5.287
 1844SOL    HW1 6431   3.288   6.223   5.300
 1844SOL    HW2 6432   3.187   6.332   5.367
 1845SOL     OW 6433   3.251   6.683   4.760
 1845SOL    HW1 6434   3.206   6.772   4.757
 1845SOL    HW2 6435   3.314   6.680   4.838
 1846SOL     OW 6436   3.259   1.520   1.833
 1846SOL    HW1 6437   3.195   1.511   1.910
 1846SOL    HW2 6438   3.352   1.502   1.864
 1847SOL     OW 6439   1.327   0.788   6.611
 1847SOL    HW1 6440   1.239   0.817   6.647
 1847SOL    HW2 6441   1.315   0.714   6.546
 1848SOL     OW 6442   1.887   6.076   3.587
 1848SOL    HW1 6443   1.813   6.028   3.634
 1848SOL    HW2 6444   1.856   6.100   3.494
 1849SOL     OW 6445   4.166   2.852   1.750
 1849SOL    HW1 6446   4.256   2.811   1.733
 1849SOL    HW2 6447   4.096   2.781   1.751
 1850SOL     OW 6448   0.544   2.779   2.384
 1850SOL    HW1 6449   0.496   2.717   2.322
 1850SOL    HW2 6450   0.604   2.840   2.331
 1851SOL     OW 6451   0.360   3.403   7.021
 1851SOL    HW1 6452   0.325   3.322   0.045
 1851SOL    HW2 6453   0.460   3.397   7.015
 1852SOL     OW 6454   6.810   4.044   2.220
 1852SOL    HW1 6455   6.751   3.979   2.267
 1852SOL    HW2 6456   6.856   4.103   2.287
 1853SOL     OW 6457   0.681   2.575   3.381
 1853SOL    HW1 6458   0.635   2.636   3.317
 1853SOL    HW2 6459   0.622   2.496   3.400
 1854SOL     OW 6460   2.327   5.426   3.128
 1854SOL    HW1 6461   2.272   5.494   3.177
 1854SOL    HW2 6462   2.396   5.389   3.190
 1855SOL     OW 6463   5.251   3.492   5.541
 1855SOL    HW1 6464   5.230   3.423   5.610
 1855SOL    HW2 6465   5.317   3.454   5.475
 1856SOL     OW 6466   5.157   4.159   5.932
 1856SOL    HW1 6467   5.129   4.180   5.838
 1856SOL    HW2 6468   5.229   4.090   5.931
 1857SOL     OW 6469   4.180   2.036   6.296
 1857SOL    HW1 6470   4.249   2.074   6.358
 1857SOL    HW2 6471   4.125   1.968   6.345
 1858SOL     OW 6472   5.538   3.797   2.888
 1858SOL    HW1 6473   5.442   3.819   2.904
 1858SOL    HW2 6474   5.550   3.698   2.885
 1859SOL     OW 6475   4.757   1.865   4.006
 1859SOL    HW1 6476   4.700   1.818   4.074
 1859SOL    HW2 6477   4.736   1.830   3.915
 1860SOL     OW 6478   0.434   1.299   5.294
 1860SOL    HW1 6479   0.482   1.232   5.351
 1860SOL    HW2 6480   0.337   1.275   5.289
 1861SOL     OW 6481   6.747   6.650   2.060
 1861SOL    HW1 6482   6.704   6.581   2.118
 1861SOL    HW2 6483   6.701   6.738   2.073
 1862SOL     OW 6484   3.400   0.144   6.836
 1862SOL    HW1 6485   3.342   0.192   6.771
 1862SOL    HW2 6486   3.404   0.194   6.922
 1863SOL     OW 6487   0.530   2.762   3.111
 1863SOL    HW1 6488   0.591   2.685   3.088
 1863SOL    HW2 6489   0.584   2.846   3.118
 1864SOL     OW 6490   1.615   6.436   5.232
 1864SOL    HW1 6491   1.547   6.494   5.277
 1864SOL    HW2 6492   1.678   6.399   5.300
 1865SOL     OW 6493   4.025   6.814   0.068
 1865SOL    HW1 6494   4.005   6.718   0.047
 1865SOL    HW2 6495   4.005   6.832   0.165
 1866SOL     OW 6496   5.949   5.004   3.533
 1866SOL    HW1 6497   6.022   5.070   3.516
 1866SOL    HW2 6498   5.881   5.010   3.460
 1867SOL     OW 6499   0.752   4.089   0.225
 1867SOL    HW1 6500   0.845   4.121   0.241
 1867SOL    HW2 6501   0.691   4.124   0.296
 1868SOL     OW 6502   4.717   3.479   6.504
 1868SOL    HW1 6503   4.632   3.505   6.458
 1868SOL    HW2 6504   4.713   3.507   6.600
 1869SOL     OW 6505   6.928   3.281   4.670
 1869SOL    HW1 6506   7.002   3.341   4.699
 1869SOL    HW2 6507   6.855   3.336   4.628
 1870SOL     OW 6508   1.733   2.922   4.795
 1870SOL    HW1 6509   1.647   2.964   4.821
 1870SOL    HW2 6510   1.745   2.928   4.696
 1871SOL     OW 6511   0.804   0.705   6.954
 1871SOL    HW1 6512   0.720   0.717   6.901
 1871SOL    HW2 6513   0.837   0.794   6.985
 1872SOL     OW 6514   4.397   1.986   0.252
 1872SOL    HW1 6515   4.313   1.991   0.199
 1872SOL    HW2 6516   4.421   2.077   0.285
 1873SOL     OW 6517   5.950   1.117   5.976
 1873SOL    HW1 6518   6.030   1.060   5.991
 1873SOL    HW2 6519   5.970   1.211   6.006
 1874SOL     OW 6520   2.248   0.987   0.183
 1874SOL    HW1 6521   2.317   0.920   0.211
 1874SOL    HW2 6522   2.275   1.078   0.212
 1875SOL     OW 6523   0.176   0.597   0.857
 1875SOL    HW1 6524   0.191   0.682   0.806
 1875SOL    HW2 6525   0.212   0.607   0.949
 1876SOL     OW 6526   3.429   6.438   6.049
 1876SOL    HW1 6527   3.493   6.376   6.002
 1876SOL    HW2 6528   3.445   6.531   6.018
 1877SOL     OW 6529   0.272   1.610   3.105
 1877SOL    HW1 6530   0.314   1.677   3.045
 1877SOL    HW2 6531   0.267   1.646   3.198
 1878SOL     OW 6532   6.214   3.029   4.188
 1878SOL    HW1 6533   6.288   3.037   4.121
 1878SOL    HW2 6534   6.201   3.116   4.234
 1879SOL     OW 6535   1.939   5.304   3.634
 1879SOL    HW1 6536   1.888   5.302   3.548
 1879SOL    HW2 6537   2.004   5.380   3.632
 1880SOL     OW 6538   0.219   1.775   4.273
 1880SOL    HW1 6539   0.168   1.699   4.314
 1880SOL    HW2 6540   0.275   1.820   4.342
 1881SOL     OW 6541   1.096   2.671   2.894
 1881SOL    HW1 6542   1.026   2.653   2.963
 1881SOL    HW2 6543   1.056   2.663   2.803
 1882SOL     OW 6544   0.906   3.843   7.013
 1882SOL    HW1 6545   0.841   3.907   0.030
 1882SOL    HW2 6546   0.938   3.880   6.925
 1883SOL     OW 6547   1.288   3.081   3.591
 1883SOL    HW1 6548   1.248   3.043   3.675
 1883SOL    HW2 6549   1.333   3.007   3.540
 1884SOL     OW 6550   5.977   2.617   6.818
 1884SOL    HW1 6551   5.941   2.562   6.742
 1884SOL    HW2 6552   6.044   2.564   6.869
 1885SOL     OW 6553   0.429   2.294   6.435
 1885SOL    HW1 6554   0.488   2.229   6.482
 1885SOL    HW2 6555   0.379   2.349   6.502
 1886SOL     OW 6556   2.011   1.309   1.485
 1886SOL    HW1 6557   2.022   1.245   1.409
 1886SOL    HW2 6558   2.009   1.403   1.449
 1887SOL     OW 6559   0.957   5.864   6.495
 1887SOL    HW1 6560   0.948   5.963   6.480
 1887SOL    HW2 6561   0.885   5.816   6.446
 1888SOL     OW 6562   2.878   2.322   6.597
 1888SOL    HW1 6563   2.783   2.345   6.619
 1888SOL    HW2 6564   2.918   2.271   6.674
 1889SOL     OW 6565   5.575   2.816   6.592
 1889SOL    HW1 6566   5.666   2.814   6.552
 1889SOL    HW2 6567   5.524   2.735   6.564
 1890SOL     OW 6568   1.429   5.721   5.113
 1890SOL    HW1 6569   1.330   5.726   5.130
 1890SOL    HW2 6570   1.455   5.791   5.047
 1891SOL     OW 6571   5.591   2.346   3.357
 1891SOL    HW1 6572   5.515   2.282   3.361
 1891SOL    HW2 6573   5.678   2.296   3.359
 1892SOL     OW 6574   3.771   0.522   0.595
 1892SOL    HW1 6575   3.675   0.522   0.626
 1892SOL    HW2 6576   3.831   0.537   0.673
 1893SOL     OW 6577   3.573   2.782   6.447
 1893SOL    HW1 6578   3.662   2.817   6.473
 1893SOL    HW2 6579   3.582   2.686   6.418
 1894SOL     OW 6580   3.750   3.628   3.142
 1894SOL    HW1 6581   3.686   3.667   3.076
 1894SOL    HW2 6582   3.800   3.552   3.100
 1895SOL     OW 6583   5.954   0.992   2.315
 1895SOL    HW1 6584   5.903   0.967   2.233
 1895SOL    HW2 6585   6.050   0.967   2.304
 1896SOL     OW 6586   0.329   0.536   2.346
 1896SOL    HW1 6587   0.282   0.484   2.275
 1896SOL    HW2 6588   0.428   0.527   2.334
 1897SOL     OW 6589   1.263   4.673   2.363
 1897SOL    HW1 6590   1.234   4.628   2.278
 1897SOL    HW2 6591   1.259   4.607   2.438
 1898SOL     OW 6592   3.464   4.865   2.477
 1898SOL    HW1 6593   3.435   4.769   2.481
 1898SOL    HW2 6594   3.404   4.920   2.535
 1899SOL     OW 6595   1.039   1.758   2.488
 1899SOL    HW1 6596   1.000   1.840   2.446
 1899SOL    HW2 6597   1.020   1.758   2.586
 1900SOL     OW 6598   1.369   0.158   5.935
 1900SOL    HW1 6599   1.408   0.183   5.847
 1900SOL    HW2 6600   1.315   0.234   5.971
 1901SOL     OW 6601   2.095   1.488   1.693
 1901SOL    HW1 6602   2.017   1.503   1.753
 1901SOL    HW2 6603   2.068   1.432   1.615
 1902SOL     OW 6604   2.279   2.640   4.779
 1902SOL    HW1 6605   2.370   2.637   4.738
 1902SOL    HW2 6606   2.251   2.736   4.791
 1903SOL     OW 6607   6.216   3.067   3.216
 1903SOL    HW1 6608   6.243   3.151   3.264
 1903SOL    HW2 6609   6.292   3.034   3.161
 1904SOL     OW 6610   5.717   6.707   4.520
 1904SOL    HW1 6611   5.671   6.793   4.501
 1904SOL    HW2 6612   5.769   6.715   4.605
 1905SOL     OW 6613   2.019   1.147   4.052
 1905SOL    HW1 6614   1.954   1.164   3.979
 1905SOL    HW2 6615   2.109   1.125   4.013
 1906SOL     OW 6616   2.492   7.011   5.284
 1906SOL    HW1 6617   2.497   6.957   5.200
 1906SOL    HW2 6618   2.552   0.067   5.276
 1907SOL     OW 6619   3.444   6.435   3.216
 1907SOL    HW1 6620   3.464   6.398   3.125
 1907SOL    HW2 6621   3.517   6.408   3.279
 1908SOL     OW 6622   4.043   0.257   5.327
 1908SOL    HW1 6623   4.065   0.189   5.257
 1908SOL    HW2 6624   4.110   0.331   5.325
 1909SOL     OW 6625   0.860   4.168   2.615
 1909SOL    HW1 6626   0.841   4.239   2.682
 1909SOL    HW2 6627   0.876   4.081   2.662
 1910SOL     OW 6628   6.905   2.943   6.309
 1910SOL    HW1 6629   6.811   2.968   6.335
 1910SOL    HW2 6630   6.924   2.977   6.217
 1911SOL     OW 6631   5.463   3.703   5.232
 1911SOL    HW1 6632   5.370   3.701   5.266
 1911SOL    HW2 6633   5.469   3.649   5.148
 1912SOL     OW 6634   2.936   0.101   0.881
 1912SOL    HW1 6635   3.001   0.027   0.896
 1912SOL    HW2 6636   2.844   0.063   0.872
 1913SOL     OW 6637   1.176   5.888   5.244
 1913SOL    HW1 6638   1.096   5.854   5.294
 1913SOL    HW2 6639   1.250   5.905   5.309
 1914SOL     OW 6640   3.811   2.928   6.553
 1914SOL    HW1 6641   3.762   2.948   6.638
 1914SOL    HW2 6642   3.867   3.007   6.529
 1915SOL     OW 6643   3.789   2.138   4.965
 1915SOL    HW1 6644   3.777   2.046   4.927
 1915SOL    HW2 6645   3.701   2.174   4.995
 1916SOL     OW 6646   3.252   5.659   0.991
 1916SOL    HW1 6647   3.257   5.560   1.001
 1916SOL    HW2 6648   3.170   5.692   1.039
 1917SOL     OW 6649   2.946   3.296   4.906
 1917SOL    HW1 6650   2.850   3.292   4.935
 1917SOL    HW2 6651   2.986   3.205   4.911
 1918SOL     OW 6652   0.777   1.209   5.878
 1918SOL    HW1 6653   0.682   1.219   5.848
 1918SOL    HW2 6654   0.833   1.276   5.829
 1919SOL     OW 6655   2.512   0.824   1.655
 1919SOL    HW1 6656   2.478   0.752   1.715
 1919SOL    HW2 6657   2.479   0.913   1.687
 1920SOL     OW 6658   1.853   4.804   2.526
 1920SOL    HW1 6659   1.835   4.785   2.623
 1920SOL    HW2 6660   1.878   4.900   2.515
 1921SOL     OW 6661   0.933   4.802   0.120
 1921SOL    HW1 6662   0.965   4.888   0.160
 1921SOL    HW2 6663   0.963   4.796   0.025
 1922SOL     OW 6664   2.789   4.492   0.844
 1922SOL    HW1 6665   2.873   4.442   0.825
 1922SOL    HW2 6666   2.714   4.426   0.855
 1923SOL     OW 6667   2.928   0.636   5.675
 1923SOL    HW1 6668   2.986   0.649   5.594
 1923SOL    HW2 6669   2.877   0.720   5.693
 1924SOL     OW 6670   4.334   5.439   1.423
 1924SOL    HW1 6671   4.316   5.537   1.420
 1924SOL    HW2 6672   4.377   5.416   1.510
 1925SOL     OW 6673   1.694   4.463   0.538
 1925SOL    HW1 6674   1.672   4.415   0.453
 1925SOL    HW2 6675   1.615   4.460   0.600
 1926SOL     OW 6676   2.154   6.450   3.299
 1926SOL    HW1 6677   2.150   6.399   3.213
 1926SOL    HW2 6678   2.249   6.472   3.321
 1927SOL     OW 6679   3.291   4.060   6.181
 1927SOL    HW1 6680   3.323   4.112   6.260
 1927SOL    HW2 6681   3.357   4.069   6.107
 1928SOL     OW 6682   6.341   4.482   5.726
 1928SOL    HW1 6683   6.357   4.384   5.729
 1928SOL    HW2 6684   6.345   4.514   5.632
 1929SOL     OW 6685   0.989   5.227   1.175
 1929SOL    HW1 6686   0.929   5.223   1.255
 1929SOL    HW2 6687   0.935   5.210   1.093
 1930SOL     OW 6688   3.470   3.667   6.644
 1930SOL    HW1 6689   3.479   3.668   6.544
 1930SOL    HW2 6690   3.373   3.663   6.668
 1931SOL     OW 6691   0.560   3.301   2.766
 1931SOL    HW1 6692   0.465   3.269   2.767
 1931SOL    HW2 6693   0.569   3.380   2.826
 1932SOL     OW 6694   4.868   3.737   3.439
 1932SOL    HW1 6695   4.923   3.730   3.522
 1932SOL    HW2 6696   4.889   3.660   3.379
 1933SOL     OW 6697   2.107   4.417   0.785
 1933SOL    HW1 6698   2.053   4.359   0.724
 1933SOL    HW2 6699   2.204   4.411   0.760
 1934SOL     OW 6700   0.599   0.007   5.355
 1934SOL    HW1 6701   0.696   7.017   5.336
 1934SOL    HW2 6702   0.544   6.993   5.281
 1935SOL     OW 6703   4.499   6.029   3.626
 1935SOL    HW1 6704   4.411   6.010   3.581
 1935SOL    HW2 6705   4.564   5.957   3.602
 1936SOL     OW 6706   6.133   3.762   4.045
 1936SOL    HW1 6707   6.157   3.854   4.074
 1936SOL    HW2 6708   6.036   3.759   4.020
 1937SOL     OW 6709   3.629   0.103   1.213
 1937SOL    HW1 6710   3.706   0.052   1.251
 1937SOL    HW2 6711   3.563   0.038   1.174
 1938SOL     OW 6712   1.692   2.023   1.177
 1938SOL    HW1 6713   1.695   2.123   1.171
 1938SOL    HW2 6714   1.761   1.991   1.240
 1939SOL     OW 6715   6.762   0.025   4.876
 1939SOL    HW1 6716   6.663   0.012   4.878
 1939SOL    HW2 6717   6.784   0.119   4.901
 1940SOL     OW 6718   5.184   4.910   0.743
 1940SOL    HW1 6719   5.279   4.893   0.720
 1940SOL    HW2 6720   5.143   4.828   0.783
 1941SOL     OW 6721   0.253   3.939   3.610
 1941SOL    HW1 6722   0.343   3.984   3.612
 1941SOL    HW2 6723   0.264   3.842   3.629
 1942SOL     OW 6724   5.485   1.370   1.060
 1942SOL    HW1 6725   5.565   1.414   1.101
 1942SOL    HW2 6726   5.471   1.280   1.103
 1943SOL     OW 6727   2.614   6.205   3.186
 1943SOL    HW1 6728   2.604   6.233   3.282
 1943SOL    HW2 6729   2.637   6.284   3.130
 1944SOL     OW 6730   6.394   2.644   0.224
 1944SOL    HW1 6731   6.361   2.682   0.137
 1944SOL    HW2 6732   6.441   2.716   0.276
 1945SOL     OW 6733   4.032   5.503   1.031
 1945SOL    HW1 6734   4.010   5.578   1.094
 1945SOL    HW2 6735   4.124   5.470   1.049
 1946SOL     OW 6736   6.444   0.034   0.952
 1946SOL    HW1 6737   6.489   0.086   0.880
 1946SOL    HW2 6738   6.381   0.093   1.002
 1947SOL     OW 6739   5.040   6.256   5.025
 1947SOL    HW1 6740   5.063   6.353   5.025
 1947SOL    HW2 6741   5.037   6.222   5.119
 1948SOL     OW 6742   5.654   5.468   4.336
 1948SOL    HW1 6743   5.641   5.476   4.238
 1948SOL    HW2 6744   5.745   5.502   4.360
 1949SOL     OW 6745   3.299   4.428   6.290
 1949SOL    HW1 6746   3.234   4.486   6.337
 1949SOL    HW2 6747   3.319   4.347   6.345
 1950SOL     OW 6748   3.766   4.237   6.877
 1950SOL    HW1 6749   3.675   4.271   6.900
 1950SOL    HW2 6750   3.791   4.267   6.786
 1951SOL     OW 6751   6.190   3.040   0.187
 1951SOL    HW1 6752   6.169   2.957   0.136
 1951SOL    HW2 6753   6.181   3.120   0.127
 1952SOL     OW 6754   4.657   3.101   0.773
 1952SOL    HW1 6755   4.700   3.084   0.862
 1952SOL    HW2 6756   4.713   3.060   0.701
 1953SOL     OW 6757   6.588   1.547   5.722
 1953SOL    HW1 6758   6.507   1.596   5.755
 1953SOL    HW2 6759   6.670   1.601   5.739
 1954SOL     OW 6760   6.018   0.660   3.059
 1954SOL    HW1 6761   5.946   0.686   3.123
 1954SOL    HW2 6762   6.099   0.630   3.110
 1955SOL     OW 6763   0.586   1.155   2.808
 1955SOL    HW1 6764   0.682   1.154   2.779
 1955SOL    HW2 6765   0.528   1.123   2.733
 1956SOL     OW 6766   5.275   6.975   2.802
 1956SOL    HW1 6767   5.225   0.003   2.871
 1956SOL    HW2 6768   5.307   0.012   2.730
 1957SOL     OW 6769   5.612   4.546   4.168
 1957SOL    HW1 6770   5.624   4.448   4.188
 1957SOL    HW2 6771   5.570   4.591   4.248
 1958SOL     OW 6772   5.015   2.069   2.519
 1958SOL    HW1 6773   5.022   1.978   2.479
 1958SOL    HW2 6774   5.017   2.138   2.446
 1959SOL     OW 6775   1.011   0.611   4.891
 1959SOL    HW1 6776   1.039   0.661   4.809
 1959SOL    HW2 6777   1.078   0.541   4.912
 1960SOL     OW 6778   6.616   4.425   2.367
 1960SOL    HW1 6779   6.599   4.371   2.450
 1960SOL    HW2 6780   6.685   4.495   2.387
 1961SOL     OW 6781   5.914   4.079   3.514
 1961SOL    HW1 6782   5.955   4.150   3.571
 1961SOL    HW2 6783   5.945   3.989   3.546
 1962SOL     OW 6784   1.475   6.561   3.735
 1962SOL    HW1 6785   1.434   6.480   3.776
 1962SOL    HW2 6786   1.518   6.617   3.806
 1963SOL     OW 6787   0.979   2.224   1.203
 1963SOL    HW1 6788   1.011   2.144   1.153
 1963SOL    HW2 6789   0.984   2.305   1.144
 1964SOL     OW 6790   4.427   4.465   0.750
 1964SOL    HW1 6791   4.494   4.535   0.725
 1964SOL    HW2 6792   4.451   4.426   0.839
 1965SOL     OW 6793   1.670   3.152   4.572
 1965SOL    HW1 6794   1.688   3.195   4.661
 1965SOL    HW2 6795   1.737   3.184   4.506
 1966SOL     OW 6796   7.018   6.360   0.834
 1966SOL    HW1 6797   7.019   6.448   0.787
 1966SOL    HW2 6798   7.024   6.286   0.767
 1967SOL     OW 6799   5.602   2.714   5.891
 1967SOL    HW1 6800   5.622   2.617   5.875
 1967SOL    HW2 6801   5.516   2.738   5.846
 1968SOL     OW 6802   1.909   6.515   6.169
 1968SOL    HW1 6803   1.854   6.560   6.239
 1968SOL    HW2 6804   2.006   6.529   6.189
 1969SOL     OW 6805   0.507   1.520   1.261
 1969SOL    HW1 6806   0.410   1.498   1.264
 1969SOL    HW2 6807   0.532   1.576   1.340
 1970SOL     OW 6808   3.218   6.278   6.007
 1970SOL    HW1 6809   3.301   6.327   6.033
 1970SOL    HW2 6810   3.138   6.336   6.023
 1971SOL     OW 6811   0.466   0.064   5.618
 1971SOL    HW1 6812   0.521   0.052   5.535
 1971SOL    HW2 6813   0.397   7.016   5.624
 1972SOL     OW 6814   5.835   2.325   2.015
 1972SOL    HW1 6815   5.825   2.226   2.014
 1972SOL    HW2 6816   5.905   2.352   1.949
 1973SOL     OW 6817   3.331   2.939   6.919
 1973SOL    HW1 6818   3.252   2.929   6.858
 1973SOL    HW2 6819   3.302   2.917   7.013
 1974SOL     OW 6820   6.003   6.968   5.259
 1974SOL    HW1 6821   6.068   6.898   5.288
 1974SOL    HW2 6822   6.046   0.002   5.190
 1975SOL     OW 6823   2.120   1.393   3.878
 1975SOL    HW1 6824   2.051   1.373   3.947
 1975SOL    HW2 6825   2.180   1.314   3.866
 1976SOL     OW 6826   0.263   7.016   0.112
 1976SOL    HW1 6827   0.246   0.091   0.107
 1976SOL    HW2 6828   0.210   6.977   0.187
 1977SOL     OW 6829   1.226   3.086   4.942
 1977SOL    HW1 6830   1.266   3.172   4.975
 1977SOL    HW2 6831   1.142   3.106   4.892
 1978SOL     OW 6832   2.108   6.366   3.027
 1978SOL    HW1 6833   2.132   6.462   3.017
 1978SOL    HW2 6834   2.190   6.314   3.051
 1979SOL     OW 6835   6.149   3.978   6.191
 1979SOL    HW1 6836   6.135   3.890   6.146
 1979SOL    HW2 6837   6.194   3.964   6.279
 1980SOL     OW 6838   3.375   0.090   4.651
 1980SOL    HW1 6839   3.324   0.100   4.737
 1980SOL    HW2 6840   3.387   0.179   4.608
 1981SOL     OW 6841   0.144   2.477   2.692
 1981SOL    HW1 6842   0.174   2.572   2.697
 1981SOL    HW2 6843   0.223   2.416   2.687
 1982SOL     OW 6844   0.389   4.052   4.449
 1982SOL    HW1 6845   0.369   4.114   4.373
 1982SOL    HW2 6846   0.480   4.071   4.485
 1983SOL     OW 6847   1.139   0.818   2.869
 1983SOL    HW1 6848   1.136   0.803   2.771
 1983SOL    HW2 6849   1.190   0.744   2.913
 1984SOL     OW 6850   5.145   1.682   5.183
 1984SOL    HW1 6851   5.133   1.638   5.272
 1984SOL    HW2 6852   5.084   1.760   5.176
 1985SOL     OW 6853   1.521   6.263   2.406
 1985SOL    HW1 6854   1.549   6.227   2.495
 1985SOL    HW2 6855   1.459   6.198   2.362
 1986SOL     OW 6856   2.187   1.380   6.564
 1986SOL    HW1 6857   2.162   1.416   6.655
 1986SOL    HW2 6858   2.194   1.456   6.500
 1987SOL     OW 6859   2.027   2.414   2.408
 1987SOL    HW1 6860   1.965   2.423   2.486
 1987SOL    HW2 6861   2.011   2.326   2.363
 1988SOL     OW 6862   6.274   3.855   0.942
 1988SOL    HW1 6863   6.251   3.855   1.039
 1988SOL    HW2 6864   6.341   3.783   0.923
 1989SOL     OW 6865   2.021   5.450   5.189
 1989SOL    HW1 6866   2.015   5.462   5.090
 1989SOL    HW2 6867   2.087   5.514   5.227
 1990SOL     OW 6868   3.743   6.250   0.475
 1990SOL    HW1 6869   3.719   6.157   0.504
 1990SOL    HW2 6870   3.660   6.305   0.469
 1991SOL     OW 6871   3.338   5.342   6.681
 1991SOL    HW1 6872   3.432   5.313   6.663
 1991SOL    HW2 6873   3.339   5.424   6.739
 1992SOL     OW 6874   0.505   0.798   0.672
 1992SOL    HW1 6875   0.408   0.820   0.664
 1992SOL    HW2 6876   0.555   0.879   0.704
 1993SOL     OW 6877   3.468   2.261   5.248
 1993SOL    HW1 6878   3.519   2.341   5.279
 1993SOL    HW2 6879   3.375   2.289   5.222
 1994SOL     OW 6880   0.638   1.378   0.453
 1994SOL    HW1 6881   0.683   1.293   0.480
 1994SOL    HW2 6882   0.707   1.443   0.419
 1995SOL     OW 6883   5.028   2.418   3.758
 1995SOL    HW1 6884   5.034   2.332   3.707
 1995SOL    HW2 6885   4.972   2.483   3.707
 1996SOL     OW 6886   1.850   3.026   0.543
 1996SOL    HW1 6887   1.822   3.108   0.593
 1996SOL    HW2 6888   1.950   3.023   0.537
 1997SOL     OW 6889   3.358   1.487   4.659
 1997SOL    HW1 6890   3.356   1.536   4.572
 1997SOL    HW2 6891   3.430   1.525   4.717
 1998SOL     OW 6892   2.653   4.602   6.975
 1998SOL    HW1 6893   2.686   4.695   6.960
 1998SOL    HW2 6894   2.565   4.605   7.023
 1999SOL     OW 6895   2.190   6.122   6.656
 1999SOL    HW1 6896   2.102   6.123   6.705
 1999SOL    HW2 6897   2.185   6.059   6.579
 2000SOL     OW 6898   4.328   2.508   5.399
 2000SOL    HW1 6899   4.259   2.544   5.336
 2000SOL    HW2 6900   4.292   2.508   5.492
 2001SOL     OW 6901   2.983   0.242   1.271
 2001SOL    HW1 6902   2.999   0.320   1.331
 2001SOL    HW2 6903   3.071   0.200   1.247
 2002SOL     OW 6904   0.431   4.584   6.716
 2002SOL    HW1 6905   0.372   4.604   6.637
 2002SOL    HW2 6906   0.521   4.625   6.701
 2003SOL     OW 6907   6.117   5.703   2.566
 2003SOL    HW1 6908   6.034   5.706   2.623
 2003SOL    HW2 6909   6.186   5.647   2.611
 2004SOL     OW 6910   4.816   1.674   4.890
 2004SOL    HW1 6911   4.857   1.764   4.903
 2004SOL    HW2 6912   4.888   1.604   4.893
 2005SOL     OW 6913   0.222   5.138   0.212
 2005SOL    HW1 6914   0.208   5.228   0.255
 2005SOL    HW2 6915   0.144   5.079   0.232
 2006SOL     OW 6916   5.795   0.304   3.381
 2006SOL    HW1 6917   5.863   0.288   3.309
 2006SOL    HW2 6918   5.840   0.347   3.459
 2007SOL     OW 6919   4.666   4.665   0.946
 2007SOL    HW1 6920   4.568   4.685   0.946
 2007SOL    HW2 6921   4.700   4.663   1.041
 2008SOL     OW 6922   2.066   4.939   4.030
 2008SOL    HW1 6923   1.996   4.964   3.963
 2008SOL    HW2 6924   2.156   4.967   3.996
 2009SOL     OW 6925   5.091   0.736   2.548
 2009SOL    HW1 6926   5.034   0.735   2.465
 2009SOL    HW2 6927   5.163   0.667   2.540
 2010SOL     OW 6928   1.909   2.056   1.716
 2010SOL    HW1 6929   1.958   1.981   1.671
 2010SOL    HW2 6930   1.975   2.121   1.755
 2011SOL     OW 6931   6.629   6.443   4.786
 2011SOL    HW1 6932   6.574   6.493   4.852
 2011SOL    HW2 6933   6.574   6.372   4.742
 2012SOL     OW 6934   1.483   4.145   2.406
 2012SOL    HW1 6935   1.419   4.069   2.417
 2012SOL    HW2 6936   1.560   4.116   2.350
 2013SOL     OW 6937   6.094   2.566   3.362
 2013SOL    HW1 6938   6.060   2.539   3.452
 2013SOL    HW2 6939   6.192   2.581   3.367
 2014SOL     OW 6940   2.652   5.828   3.637
 2014SOL    HW1 6941   2.726   5.852   3.699
 2014SOL    HW2 6942   2.617   5.911   3.594
 2015SOL     OW 6943   2.048   0.533   6.964
 2015SOL    HW1 6944   2.098   0.548   0.025
 2015SOL    HW2 6945   2.008   0.619   6.933
 2016SOL     OW 6946   1.727   5.755   6.108
 2016SOL    HW1 6947   1.633   5.733   6.082
 2016SOL    HW2 6948   1.764   5.680   6.163
 2017SOL     OW 6949   3.538   6.710   4.316
 2017SOL    HW1 6950   3.611   6.648   4.344
 2017SOL    HW2 6951   3.537   6.716   4.216
 2018SOL     OW 6952   5.247   1.148   5.533
 2018SOL    HW1 6953   5.166   1.093   5.556
 2018SOL    HW2 6954   5.280   1.193   5.616
 2019SOL     OW 6955   5.282   3.024   6.456
 2019SOL    HW1 6956   5.290   3.017   6.555
 2019SOL    HW2 6957   5.250   3.115   6.431
 2020SOL     OW 6958   1.767   6.679   5.439
 2020SOL    HW1 6959   1.811   6.624   5.368
 2020SOL    HW2 6960   1.725   6.617   5.506
 2021SOL     OW 6961   0.623   6.150   4.805
 2021SOL    HW1 6962   0.552   6.213   4.835
 2021SOL    HW2 6963   0.712   6.197   4.803
 2022SOL     OW 6964   1.166   3.754   3.661
 2022SOL    HW1 6965   1.256   3.792   3.685
 2022SOL    HW2 6966   1.126   3.809   3.588
 2023SOL     OW 6967   6.734   0.552   6.916
 2023SOL    HW1 6968   6.692   0.461   6.920
 2023SOL    HW2 6969   6.716   0.594   6.827
 2024SOL     OW 6970   0.127   6.532   3.522
 2024SOL    HW1 6971   0.197   6.604   3.528
 2024SOL    HW2 6972   0.127   6.478   3.606
 2025SOL     OW 6973   3.080   1.240   3.389
 2025SOL    HW1 6974   3.017   1.295   3.334
 2025SOL    HW2 6975   3.037   1.153   3.413
 2026SOL     OW 6976   6.890   3.024   5.400
 2026SOL    HW1 6977   6.924   3.111   5.365
 2026SOL    HW2 6978   6.791   3.031   5.416
 2027SOL     OW 6979   1.359   0.028   0.590
 2027SOL    HW1 6980   1.377   0.127   0.581
 2027SOL    HW2 6981   1.280   0.014   0.649
 2028SOL     OW 6982   2.900   6.037   5.026
 2028SOL    HW1 6983   2.813   6.010   4.983
 2028SOL    HW2 6984   2.903   6.136   5.035
 2029SOL     OW 6985   6.711   0.952   0.294
 2029SOL    HW1 6986   6.759   0.911   0.372
 2029SOL    HW2 6987   6.722   0.893   0.214
 2030SOL     OW 6988   2.905   0.790   3.305
 2030SOL    HW1 6989   2.952   0.703   3.296
 2030SOL    HW2 6990   2.821   0.778   3.358
 2031SOL     OW 6991   6.496   5.959   1.139
 2031SOL    HW1 6992   6.443   5.937   1.221
 2031SOL    HW2 6993   6.435   5.961   1.060
 2032SOL     OW 6994   4.875   0.723   2.277
 2032SOL    HW1 6995   4.803   0.738   2.345
 2032SOL    HW2 6996   4.910   0.812   2.246
 2033SOL     OW 6997   3.274   3.273   5.562
 2033SOL    HW1 6998   3.362   3.265   5.514
 2033SOL    HW2 6999   3.232   3.361   5.539
 2034SOL     OW 7000   2.510   5.551   5.861
 2034SOL    HW1 7001   2.477   5.645   5.872
 2034SOL    HW2 7002   2.445   5.499   5.807
 2035SOL     OW 7003   6.841   6.252   3.990
 2035SOL    HW1 7004   6.840   6.293   4.081
 2035SOL    HW2 7005   6.787   6.308   3.927
 2036SOL     OW 7006   1.289   4.427   2.838
 2036SOL    HW1 7007   1.267   4.330   2.841
 2036SOL    HW2 7008   1.385   4.440   2.864
 2037SOL     OW 7009   6.482   3.125   5.708
 2037SOL    HW1 7010   6.471   3.147   5.611
 2037SOL    HW2 7011   6.444   3.034   5.726
 2038SOL     OW 7012   1.759   2.224   0.059
 2038SOL    HW1 7013   1.677   2.250   0.111
 2038SOL    HW2 7014   1.762   2.276   6.998
 2039SOL     OW 7015   0.087   5.309   4.119
 2039SOL    HW1 7016   0.109   5.406   4.131
 2039SOL    HW2 7017   0.133   5.274   4.037
 2040SOL     OW 7018   2.911   3.270   5.448
 2040SOL    HW1 7019   2.823   3.297   5.411
 2040SOL    HW2 7020   2.977   3.345   5.436
 2041SOL     OW 7021   1.109   6.172   5.995
 2041SOL    HW1 7022   1.184   6.122   5.952
 2041SOL    HW2 7023   1.046   6.205   5.925
 2042SOL     OW 7024   4.476   6.364   6.967
 2042SOL    HW1 7025   4.396   6.405   7.012
 2042SOL    HW2 7026   4.554   6.366   0.005
 2043SOL     OW 7027   6.124   3.927   3.100
 2043SOL    HW1 7028   6.169   3.961   3.017
 2043SOL    HW2 7029   6.071   3.845   3.078
 2044SOL     OW 7030   6.702   0.364   2.231
 2044SOL    HW1 7031   6.737   0.433   2.167
 2044SOL    HW2 7032   6.738   0.275   2.206
 2045SOL     OW 7033   1.327   5.232   4.066
 2045SOL    HW1 7034   1.303   5.144   4.024
 2045SOL    HW2 7035   1.331   5.221   4.165
 2046SOL     OW 7036   6.995   2.242   3.976
 2046SOL    HW1 7037   6.970   2.284   4.063
 2046SOL    HW2 7038   0.010   2.311   3.915
 2047SOL     OW 7039   6.967   2.639   6.987
 2047SOL    HW1 7040   6.913   2.639   0.047
 2047SOL    HW2 7041   0.005   2.717   6.987
 2048SOL     OW 7042   1.998   6.716   5.926
 2048SOL    HW1 7043   2.034   6.808   5.917
 2048SOL    HW2 7044   1.980   6.677   5.835
 2049SOL     OW 7045   5.830   1.919   4.938
 2049SOL    HW1 7046   5.765   1.989   4.911
 2049SOL    HW2 7047   5.916   1.931   4.887
 2050SOL     OW 7048   6.446   2.402   3.916
 2050SOL    HW1 7049   6.540   2.370   3.903
 2050SOL    HW2 7050   6.410   2.432   3.827
 2051SOL     OW 7051   0.696   6.010   0.017
 2051SOL    HW1 7052   0.647   5.989   6.956
 2051SOL    HW2 7053   0.642   6.074   0.071
 2052SOL     OW 7054   1.331   3.369   1.004
 2052SOL    HW1 7055   1.348   3.362   1.102
 2052SOL    HW2 7056   1.285   3.287   0.971
 2053SOL     OW 7057   6.464   6.162   4.136
 2053SOL    HW1 7058   6.486   6.076   4.090
 2053SOL    HW2 7059   6.498   6.239   4.082
 2054SOL     OW 7060   3.213   4.015   3.179
 2054SOL    HW1 7061   3.198   4.097   3.234
 2054SOL    HW2 7062   3.304   4.020   3.136
 2055SOL     OW 7063   5.574   3.809   4.180
 2055SOL    HW1 7064   5.492   3.819   4.237
 2055SOL    HW2 7065   5.564   3.730   4.121
 2056SOL     OW 7066   4.435   5.540   2.206
 2056SOL    HW1 7067   4.389   5.455   2.230
 2056SOL    HW2 7068   4.368   5.615   2.207
 2057SOL     OW 7069   5.125   4.409   6.065
 2057SOL    HW1 7070   5.148   4.316   6.037
 2057SOL    HW2 7071   5.030   4.413   6.094
 2058SOL     OW 7072   0.382   0.800   3.005
 2058SOL    HW1 7073   0.416   0.840   3.090
 2058SOL    HW2 7074   0.314   0.862   2.965
 2059SOL     OW 7075   1.857   5.843   6.849
 2059SOL    HW1 7076   1.916   5.817   6.773
 2059SOL    HW2 7077   1.780   5.896   6.814
 2060SOL     OW 7078   0.454   4.210   1.375
 2060SOL    HW1 7079   0.384   4.196   1.445
 2060SOL    HW2 7080   0.542   4.176   1.409
 2061SOL     OW 7081   1.469   1.852   2.516
 2061SOL    HW1 7082   1.409   1.905   2.456
 2061SOL    HW2 7083   1.416   1.811   2.590
 2062SOL     OW 7084   6.526   5.730   4.864
 2062SOL    HW1 7085   6.509   5.708   4.768
 2062SOL    HW2 7086   6.592   5.806   4.870
 2063SOL     OW 7087   1.358   6.581   5.690
 2063SOL    HW1 7088   1.380   6.501   5.747
 2063SOL    HW2 7089   1.310   6.649   5.746
 2064SOL     OW 7090   0.654   2.706   5.239
 2064SOL    HW1 7091   0.662   2.787   5.296
 2064SOL    HW2 7092   0.594   2.726   5.161
 2065SOL     OW 7093   5.747   2.413   5.777
 2065SOL    HW1 7094   5.798   2.365   5.706
 2065SOL    HW2 7095   5.801   2.416   5.861
 2066SOL     OW 7096   0.422   4.654   4.078
 2066SOL    HW1 7097   0.416   4.709   4.162
 2066SOL    HW2 7098   0.513   4.613   4.072
 2067SOL     OW 7099   6.691   5.738   1.132
 2067SOL    HW1 7100   6.622   5.806   1.154
 2067SOL    HW2 7101   6.650   5.646   1.137
 2068SOL     OW 7102   2.378   0.284   4.369
 2068SOL    HW1 7103   2.410   0.326   4.284
 2068SOL    HW2 7104   2.308   0.343   4.411
 2069SOL     OW 7105   6.282   2.604   3.770
 2069SOL    HW1 7106   6.266   2.681   3.832
 2069SOL    HW2 7107   6.369   2.616   3.722
 2070SOL     OW 7108   1.227   0.846   1.124
 2070SOL    HW1 7109   1.158   0.840   1.196
 2070SOL    HW2 7110   1.268   0.756   1.110
 2071SOL     OW 7111   6.113   0.225   6.014
 2071SOL    HW1 7112   6.065   0.154   5.963
 2071SOL    HW2 7113   6.076   0.231   6.107
 2072SOL     OW 7114   4.233   5.007   3.938
 2072SOL    HW1 7115   4.247   5.079   4.005
 2072SOL    HW2 7116   4.297   5.019   3.862
 2073SOL     OW 7117   4.554   6.505   5.001
 2073SOL    HW1 7118   4.628   6.569   5.022
 2073SOL    HW2 7119   4.572   6.460   4.914
 2074SOL     OW 7120   1.863   2.331   6.374
 2074SOL    HW1 7121   1.801   2.361   6.301
 2074SOL    HW2 7122   1.948   2.297   6.334
 2075SOL     OW 7123   6.717   2.746   3.269
 2075SOL    HW1 7124   6.693   2.668   3.211
 2075SOL    HW2 7125   6.801   2.788   3.235
 2076SOL     OW 7126   5.640   0.029   6.055
 2076SOL    HW1 7127   5.679   0.098   6.116
 2076SOL    HW2 7128   5.543   0.017   6.075
 2077SOL     OW 7129   6.149   1.980   3.394
 2077SOL    HW1 7130   6.173   1.893   3.436
 2077SOL    HW2 7131   6.061   1.971   3.347
 2078SOL     OW 7132   1.425   5.742   6.081
 2078SOL    HW1 7133   1.358   5.741   6.007
 2078SOL    HW2 7134   1.406   5.820   6.141
 2079SOL     OW 7135   6.165   2.045   3.028
 2079SOL    HW1 7136   6.239   2.010   3.086
 2079SOL    HW2 7137   6.077   2.018   3.066
 2080SOL     OW 7138   1.906   0.340   4.754
 2080SOL    HW1 7139   1.937   0.288   4.834
 2080SOL    HW2 7140   1.870   0.276   4.685
 2081SOL     OW 7141   0.862   6.336   4.596
 2081SOL    HW1 7142   0.872   6.287   4.683
 2081SOL    HW2 7143   0.952   6.354   4.557
 2082SOL     OW 7144   0.504   6.650   3.220
 2082SOL    HW1 7145   0.470   6.737   3.182
 2082SOL    HW2 7146   0.442   6.619   3.292
 2083SOL     OW 7147   0.607   5.013   5.702
 2083SOL    HW1 7148   0.607   4.927   5.753
 2083SOL    HW2 7149   0.701   5.036   5.675
 2084SOL     OW 7150   0.607   4.563   3.256
 2084SOL    HW1 7151   0.657   4.590   3.174
 2084SOL    HW2 7152   0.565   4.644   3.298
 2085SOL     OW 7153   5.066   0.822   0.466
 2085SOL    HW1 7154   5.089   0.786   0.556
 2085SOL    HW2 7155   4.968   0.842   0.462
 2086SOL     OW 7156   3.933   0.276   6.421
 2086SOL    HW1 7157   3.851   0.309   6.374
 2086SOL    HW2 7158   3.966   0.193   6.376
 2087SOL     OW 7159   4.818   1.207   1.495
 2087SOL    HW1 7160   4.913   1.191   1.467
 2087SOL    HW2 7161   4.783   1.288   1.448
 2088SOL     OW 7162   0.982   5.885   6.890
 2088SOL    HW1 7163   0.888   5.916   6.904
 2088SOL    HW2 7164   1.000   5.805   6.948
 2089SOL     OW 7165   5.027   2.934   6.051
 2089SOL    HW1 7166   5.064   2.922   6.143
 2089SOL    HW2 7167   4.937   2.889   6.046
 2090SOL     OW 7168   4.304   3.506   6.216
 2090SOL    HW1 7169   4.205   3.499   6.231
 2090SOL    HW2 7170   4.328   3.458   6.132
 2091SOL     OW 7171   6.966   5.174   0.573
 2091SOL    HW1 7172   6.980   5.143   0.479
 2091SOL    HW2 7173   0.031   5.191   0.616
 2092SOL     OW 7174   5.054   3.610   0.334
 2092SOL    HW1 7175   4.982   3.631   0.401
 2092SOL    HW2 7176   5.014   3.558   0.258
 2093SOL     OW 7177   3.002   1.981   1.215
 2093SOL    HW1 7178   3.008   1.903   1.277
 2093SOL    HW2 7179   3.089   1.993   1.167
 2094SOL     OW 7180   5.724   1.789   2.016
 2094SOL    HW1 7181   5.808   1.816   2.062
 2094SOL    HW2 7182   5.666   1.737   2.079
 2095SOL     OW 7183   6.835   6.749   4.868
 2095SOL    HW1 7184   6.911   6.785   4.813
 2095SOL    HW2 7185   6.855   6.765   4.965
 2096SOL     OW 7186   4.892   4.365   2.976
 2096SOL    HW1 7187   4.829   4.415   3.034
 2096SOL    HW2 7188   4.887   4.267   2.998
 2097SOL     OW 7189   3.075   2.727   6.328
 2097SOL    HW1 7190   3.050   2.819   6.299
 2097SOL    HW2 7191   2.994   2.669   6.329
 2098SOL     OW 7192   4.608   5.871   1.910
 2098SOL    HW1 7193   4.544   5.797   1.888
 2098SOL    HW2 7194   4.561   5.939   1.966
 2099SOL     OW 7195   3.421   1.758   6.197
 2099SOL    HW1 7196   3.516   1.735   6.179
 2099SOL    HW2 7197   3.367   1.745   6.114
 2100SOL     OW 7198   5.038   2.004   0.343
 2100SOL    HW1 7199   5.106   1.973   0.410
 2100SOL    HW2 7200   5.085   2.052   0.268
 2101SOL     OW 7201   0.405   6.527   1.545
 2101SOL    HW1 7202   0.456   6.546   1.461
 2101SOL    HW2 7203   0.386   6.429   1.551
 2102SOL     OW 7204   5.065   4.312   2.512
 2102SOL    HW1 7205   5.148   4.290   2.563
 2102SOL    HW2 7206   5.066   4.264   2.424
 2103SOL     OW 7207   3.591   3.846   6.807
 2103SOL    HW1 7208   3.544   3.775   6.755
 2103SOL    HW2 7209   3.579   3.934   6.762
 2104SOL     OW 7210   1.744   4.353   2.417
 2104SOL    HW1 7211   1.719   4.319   2.507
 2104SOL    HW2 7212   1.693   4.437   2.398
 2105SOL     OW 7213   4.953   4.665   6.993
 2105SOL    HW1 7214   5.012   4.592   6.958
 2105SOL    HW2 7215   4.865   4.662   6.946
 2106SOL     OW 7216   5.676   3.446   1.128
 2106SOL    HW1 7217   5.764   3.491   1.142
 2106SOL    HW2 7218   5.605   3.515   1.117
 2107SOL     OW 7219   6.692   2.285   5.491
 2107SOL    HW1 7220   6.743   2.298   5.406
 2107SOL    HW2 7221   6.718   2.198   5.533
 2108SOL     OW 7222   6.036   5.430   5.105
 2108SOL    HW1 7223   6.033   5.459   5.009
 2108SOL    HW2 7224   6.094   5.492   5.157
 2109SOL     OW 7225   4.180   5.958   2.395
 2109SOL    HW1 7226   4.204   5.935   2.489
 2109SOL    HW2 7227   4.098   6.016   2.395
 2110SOL     OW 7228   2.927   0.545   0.350
 2110SOL    HW1 7229   2.971   0.507   0.269
 2110SOL    HW2 7230   2.904   0.641   0.335
 2111SOL     OW 7231   2.051   3.050   0.128
 2111SOL    HW1 7232   2.111   3.124   0.158
 2111SOL    HW2 7233   1.956   3.084   0.124
 2112SOL     OW 7234   5.253   2.185   0.935
 2112SOL    HW1 7235   5.175   2.205   0.994
 2112SOL    HW2 7236   5.338   2.211   0.981
 2113SOL     OW 7237   2.473   1.326   4.677
 2113SOL    HW1 7238   2.549   1.330   4.612
 2113SOL    HW2 7239   2.387   1.338   4.629
 2114SOL     OW 7240   2.497   1.881   6.620
 2114SOL    HW1 7241   2.574   1.823   6.592
 2114SOL    HW2 7242   2.450   1.838   6.697
 2115SOL     OW 7243   0.598   4.450   2.603
 2115SOL    HW1 7244   0.647   4.407   2.678
 2115SOL    HW2 7245   0.576   4.545   2.626
 2116SOL     OW 7246   0.982   3.911   2.721
 2116SOL    HW1 7247   0.961   3.862   2.636
 2116SOL    HW2 7248   0.934   3.867   2.797
 2117SOL     OW 7249   6.450   4.612   1.390
 2117SOL    HW1 7250   6.506   4.530   1.376
 2117SOL    HW2 7251   6.447   4.665   1.305
 2118SOL     OW 7252   5.886   3.131   3.048
 2118SOL    HW1 7253   5.966   3.107   2.992
 2118SOL    HW2 7254   5.884   3.073   3.129
 2119SOL     OW 7255   1.339   0.421   1.568
 2119SOL    HW1 7256   1.249   0.390   1.538
 2119SOL    HW2 7257   1.370   0.366   1.645
 2120SOL     OW 7258   0.586   4.308   3.215
 2120SOL    HW1 7259   0.599   4.403   3.244
 2120SOL    HW2 7260   0.491   4.294   3.186
 2121SOL     OW 7261   1.638   3.214   5.463
 2121SOL    HW1 7262   1.678   3.242   5.550
 2121SOL    HW2 7263   1.708   3.174   5.405
 2122SOL     OW 7264   5.917   5.505   6.631
 2122SOL    HW1 7265   5.820   5.485   6.641
 2122SOL    HW2 7266   5.963   5.426   6.589
 2123SOL     OW 7267   6.536   5.184   2.175
 2123SOL    HW1 7268   6.594   5.261   2.147
 2123SOL    HW2 7269   6.452   5.219   2.216
 2124SOL     OW 7270   3.052   1.711   0.977
 2124SOL    HW1 7271   3.092   1.752   0.895
 2124SOL    HW2 7272   3.106   1.738   1.057
 2125SOL     OW 7273   1.831   6.553   1.979
 2125SOL    HW1 7274   1.867   6.501   2.056
 2125SOL    HW2 7275   1.790   6.638   2.011
 2126SOL     OW 7276   3.964   2.941   6.261
 2126SOL    HW1 7277   3.922   2.922   6.172
 2126SOL    HW2 7278   4.023   2.864   6.287
 2127SOL     OW 7279   1.072   1.908   6.198
 2127SOL    HW1 7280   1.132   1.842   6.153
 2127SOL    HW2 7281   1.068   1.889   6.296
 2128SOL     OW 7282   6.328   2.693   3.087
 2128SOL    HW1 7283   6.391   2.764   3.055
 2128SOL    HW2 7284   6.361   2.657   3.175
 2129SOL     OW 7285   5.016   3.492   5.139
 2129SOL    HW1 7286   4.972   3.402   5.134
 2129SOL    HW2 7287   4.955   3.562   5.102
 2130SOL     OW 7288   3.246   6.946   3.122
 2130SOL    HW1 7289   3.345   6.954   3.107
 2130SOL    HW2 7290   3.201   6.921   3.036
 2131SOL     OW 7291   4.747   1.841   0.704
 2131SOL    HW1 7292   4.712   1.913   0.764
 2131SOL    HW2 7293   4.715   1.856   0.611
 2132SOL     OW 7294   3.272   1.176   0.481
 2132SOL    HW1 7295   3.175   1.195   0.470
 2132SOL    HW2 7296   3.290   1.079   0.462
 2133SOL     OW 7297   3.431   2.416   1.303
 2133SOL    HW1 7298   3.364   2.342   1.297
 2133SOL    HW2 7299   3.446   2.440   1.399
 2134SOL     OW 7300   0.963   0.811   4.147
 2134SOL    HW1 7301   1.058   0.839   4.161
 2134SOL    HW2 7302   0.927   0.774   4.233
 2135SOL     OW 7303   0.702   2.025   4.043
 2135SOL    HW1 7304   0.784   2.077   4.068
 2135SOL    HW2 7305   0.623   2.086   4.039
 2136SOL     OW 7306   1.053   4.424   4.337
 2136SOL    HW1 7307   1.112   4.458   4.410
 2136SOL    HW2 7308   1.089   4.337   4.303
 2137SOL     OW 7309   7.008   6.018   4.302
 2137SOL    HW1 7310   0.007   5.921   4.298
 2137SOL    HW2 7311   0.003   6.061   4.214
 2138SOL     OW 7312   6.736   1.106   1.541
 2138SOL    HW1 7313   6.799   1.029   1.549
 2138SOL    HW2 7314   6.645   1.079   1.570
 2139SOL     OW 7315   3.563   0.801   2.835
 2139SOL    HW1 7316   3.599   0.822   2.744
 2139SOL    HW2 7317   3.585   0.877   2.897
 2140SOL     OW 7318   3.425   5.959   3.457
 2140SOL    HW1 7319   3.452   6.055   3.453
 2140SOL    HW2 7320   3.361   5.940   3.382
 2141SOL     OW 7321   6.479   4.654   1.126
 2141SOL    HW1 7322   6.423   4.579   1.090
 2141SOL    HW2 7323   6.554   4.672   1.063
 2142SOL     OW 7324   1.488   1.981   3.076
 2142SOL    HW1 7325   1.496   1.921   2.996
 2142SOL    HW2 7326   1.413   1.950   3.134
 2143SOL     OW 7327   3.225   4.693   1.248
 2143SOL    HW1 7328   3.243   4.789   1.228
 2143SOL    HW2 7329   3.151   4.660   1.190
 2144SOL     OW 7330   1.511   5.608   2.971
 2144SOL    HW1 7331   1.413   5.612   2.986
 2144SOL    HW2 7332   1.557   5.576   3.054
 2145SOL     OW 7333   3.494   6.178   4.247
 2145SOL    HW1 7334   3.408   6.217   4.280
 2145SOL    HW2 7335   3.516   6.216   4.156
 2146SOL     OW 7336   2.573   3.582   1.668
 2146SOL    HW1 7337   2.542   3.677   1.665
 2146SOL    HW2 7338   2.519   3.532   1.737
 2147SOL     OW 7339   0.539   1.028   6.530
 2147SOL    HW1 7340   0.448   1.060   6.559
 2147SOL    HW2 7341   0.565   1.073   6.445
 2148SOL     OW 7342   5.332   2.399   4.538
 2148SOL    HW1 7343   5.234   2.404   4.554
 2148SOL    HW2 7344   5.368   2.491   4.521
 2149SOL     OW 7345   3.710   1.415   1.214
 2149SOL    HW1 7346   3.756   1.485   1.159
 2149SOL    HW2 7347   3.756   1.407   1.302
 2150SOL     OW 7348   2.409   2.245   2.305
 2150SOL    HW1 7349   2.418   2.330   2.358
 2150SOL    HW2 7350   2.391   2.169   2.368
 2151SOL     OW 7351   1.814   1.149   3.880
 2151SOL    HW1 7352   1.752   1.075   3.905
 2151SOL    HW2 7353   1.791   1.231   3.933
 2152SOL     OW 7354   3.849   6.707   1.167
 2152SOL    HW1 7355   3.796   6.628   1.135
 2152SOL    HW2 7356   3.851   6.777   1.095
 2153SOL     OW 7357   3.763   0.094   3.055
 2153SOL    HW1 7358   3.814   0.162   3.002
 2153SOL    HW2 7359   3.784   0.003   3.022
 2154SOL     OW 7360   5.007   0.482   4.793
 2154SOL    HW1 7361   5.087   0.506   4.849
 2154SOL    HW2 7362   5.010   0.534   4.708
 2155SOL     OW 7363   1.919   5.297   0.102
 2155SOL    HW1 7364   1.896   5.201   0.116
 2155SOL    HW2 7365   1.923   5.316   0.004
 2156SOL     OW 7366   2.634   0.806   2.798
 2156SOL    HW1 7367   2.570   0.880   2.779
 2156SOL    HW2 7368   2.659   0.808   2.895
 2157SOL     OW 7369   5.822   0.747   3.219
 2157SOL    HW1 7370   5.847   0.843   3.226
 2157SOL    HW2 7371   5.729   0.738   3.182
 2158SOL     OW 7372   3.882   6.527   0.895
 2158SOL    HW1 7373   3.903   6.449   0.836
 2158SOL    HW2 7374   3.910   6.612   0.851
 2159SOL     OW 7375   2.599   6.247   5.562
 2159SOL    HW1 7376   2.649   6.162   5.579
 2159SOL    HW2 7377   2.664   6.320   5.540
 2160SOL     OW 7378   4.533   3.429   1.306
 2160SOL    HW1 7379   4.520   3.395   1.399
 2160SOL    HW2 7380   4.545   3.352   1.244
 2161SOL     OW 7381   5.327   3.871   3.616
 2161SOL    HW1 7382   5.298   3.965   3.600
 2161SOL    HW2 7383   5.353   3.828   3.530
 2162SOL     OW 7384   2.825   0.849   0.410
 2162SOL    HW1 7385   2.797   0.945   0.414
 2162SOL    HW2 7386   2.765   0.794   0.467
 2163SOL     OW 7387   6.784   4.516   6.399
 2163SOL    HW1 7388   6.860   4.580   6.397
 2163SOL    HW2 7389   6.698   4.565   6.385
 2164SOL     OW 7390   1.549   2.551   0.236
 2164SOL    HW1 7391   1.478   2.489   0.270
 2164SOL    HW2 7392   1.538   2.641   0.278
 2165SOL     OW 7393   1.271   1.736   2.676
 2165SOL    HW1 7394   1.210   1.750   2.598
 2165SOL    HW2 7395   1.226   1.678   2.744
 2166SOL     OW 7396   1.745   2.658   5.390
 2166SOL    HW1 7397   1.819   2.678   5.454
 2166SOL    HW2 7398   1.749   2.722   5.313
 2167SOL     OW 7399   1.641   0.767   3.435
 2167SOL    HW1 7400   1.549   0.768   3.475
 2167SOL    HW2 7401   1.637   0.796   3.340
 2168SOL     OW 7402   0.660   1.634   3.447
 2168SOL    HW1 7403   0.714   1.555   3.418
 2168SOL    HW2 7404   0.565   1.621   3.418
 2169SOL     OW 7405   5.364   2.238   5.696
 2169SOL    HW1 7406   5.364   2.138   5.693
 2169SOL    HW2 7407   5.301   2.274   5.628
 2170SOL     OW 7408   6.019   4.943   5.711
 2170SOL    HW1 7409   6.026   4.843   5.700
 2170SOL    HW2 7410   5.940   4.976   5.660
 2171SOL     OW 7411   6.434   3.211   2.000
 2171SOL    HW1 7412   6.431   3.270   2.081
 2171SOL    HW2 7413   6.379   3.253   1.927
 2172SOL     OW 7414   2.754   1.945   0.323
 2172SOL    HW1 7415   2.781   2.041   0.310
 2172SOL    HW2 7416   2.707   1.912   0.241
 2173SOL     OW 7417   4.284   0.076   5.680
 2173SOL    HW1 7418   4.266   0.101   5.775
 2173SOL    HW2 7419   4.375   0.109   5.654
 2174SOL     OW 7420   5.740   5.383   5.798
 2174SOL    HW1 7421   5.706   5.468   5.758
 2174SOL    HW2 7422   5.795   5.403   5.879
 2175SOL     OW 7423   3.092   2.105   3.729
 2175SOL    HW1 7424   3.032   2.141   3.658
 2175SOL    HW2 7425   3.065   2.010   3.749
 2176SOL     OW 7426   0.507   3.117   0.007
 2176SOL    HW1 7427   0.479   3.080   6.943
 2176SOL    HW2 7428   0.598   3.157   7.023
 2177SOL     OW 7429   6.835   0.885   3.544
 2177SOL    HW1 7430   6.876   0.797   3.521
 2177SOL    HW2 7431   6.875   0.919   3.630
 2178SOL     OW 7432   1.335   4.060   0.157
 2178SOL    HW1 7433   1.384   4.026   0.237
 2178SOL    HW2 7434   1.318   3.985   0.093
 2179SOL     OW 7435   1.487   5.575   4.835
 2179SOL    HW1 7436   1.526   5.548   4.747
 2179SOL    HW2 7437   1.403   5.524   4.852
 2180SOL     OW 7438   2.791   3.605   1.854
 2180SOL    HW1 7439   2.825   3.549   1.779
 2180SOL    HW2 7440   2.697   3.635   1.834
 2181SOL     OW 7441   5.040   4.282   5.658
 2181SOL    HW1 7442   4.968   4.213   5.647
 2181SOL    HW2 7443   5.092   4.289   5.573
 2182SOL     OW 7444   6.639   2.775   4.741
 2182SOL    HW1 7445   6.700   2.828   4.682
 2182SOL    HW2 7446   6.690   2.701   4.785
 2183SOL     OW 7447   3.549   3.348   6.575
 2183SOL    HW1 7448   3.572   3.445   6.582
 2183SOL    HW2 7449   3.598   3.296   6.645
 2184SOL     OW 7450   4.217   1.484   5.648
 2184SOL    HW1 7451   4.190   1.398   5.693
 2184SOL    HW2 7452   4.136   1.531   5.615
 2185SOL     OW 7453   1.481   2.187   0.519
 2185SOL    HW1 7454   1.531   2.234   0.592
 2185SOL    HW2 7455   1.419   2.120   0.559
 2186SOL     OW 7456   6.814   4.590   2.406
 2186SOL    HW1 7457   6.862   4.625   2.326
 2186SOL    HW2 7458   6.856   4.626   2.489
 2187SOL     OW 7459   0.458   1.916   2.054
 2187SOL    HW1 7460   0.408   1.960   2.129
 2187SOL    HW2 7461   0.500   1.831   2.087
 2188SOL     OW 7462   5.257   6.486   4.116
 2188SOL    HW1 7463   5.313   6.410   4.149
 2188SOL    HW2 7464   5.169   6.484   4.163
 2189SOL     OW 7465   1.683   6.532   7.014
 2189SOL    HW1 7466   1.605   6.553   0.048
 2189SOL    HW2 7467   1.762   6.507   0.046
 2190SOL     OW 7468   0.530   3.049   2.141
 2190SOL    HW1 7469   0.565   3.126   2.193
 2190SOL    HW2 7470   0.606   2.993   2.109
 2191SOL     OW 7471   2.982   1.461   6.667
 2191SOL    HW1 7472   2.993   1.420   6.577
 2191SOL    HW2 7473   3.070   1.465   6.713
 2192SOL     OW 7474   3.844   6.951   3.410
 2192SOL    HW1 7475   3.874   0.021   3.417
 2192SOL    HW2 7476   3.772   6.934   3.477
 2193SOL     OW 7477   0.357   6.125   6.494
 2193SOL    HW1 7478   0.439   6.146   6.442
 2193SOL    HW2 7479   0.280   6.111   6.431
 2194SOL     OW 7480   2.377   4.749   6.871
 2194SOL    HW1 7481   2.458   4.802   6.895
 2194SOL    HW2 7482   2.314   4.749   6.948
 2195SOL     OW 7483   6.950   6.942   3.735
 2195SOL    HW1 7484   6.913   6.892   3.814
 2195SOL    HW2 7485   6.957   6.879   3.658
 2196SOL     OW 7486   3.681   0.011   5.492
 2196SOL    HW1 7487   3.627   7.017   5.574
 2196SOL    HW2 7488   3.675   0.108   5.469
 2197SOL     OW 7489   3.754   3.704   1.513
 2197SOL    HW1 7490   3.682   3.655   1.464
 2197SOL    HW2 7491   3.815   3.749   1.448
 2198SOL     OW 7492   6.572   1.353   6.722
 2198SOL    HW1 7493   6.666   1.375   6.748
 2198SOL    HW2 7494   6.571   1.269   6.668
 2199SOL     OW 7495   4.746   0.779   2.726
 2199SOL    HW1 7496   4.754   0.742   2.633
 2199SOL    HW2 7497   4.837   0.799   2.762
 2200SOL     OW 7498   3.782   0.106   4.745
 2200SOL    HW1 7499   3.842   0.089   4.823
 2200SOL    HW2 7500   3.834   0.094   4.660
 2201SOL     OW 7501   6.627   2.750   2.533
 2201SOL    HW1 7502   6.637   2.710   2.624
 2201SOL    HW2 7503   6.555   2.820   2.535
 2202SOL     OW 7504   3.358   4.960   3.374
 2202SOL    HW1 7505   3.290   4.922   3.437
 2202SOL    HW2 7506   3.445   4.972   3.422
 2203SOL     OW 7507   2.142   2.742   1.419
 2203SOL    HW1 7508   2.202   2.760   1.341
 2203SOL    HW2 7509   2.058   2.697   1.386
 2204SOL     OW 7510   3.561   1.697   6.790
 2204SOL    HW1 7511   3.465   1.704   6.763
 2204SOL    HW2 7512   3.617   1.681   6.709
 2205SOL     OW 7513   1.746   6.945   6.479
 2205SOL    HW1 7514   1.800   6.999   6.544
 2205SOL    HW2 7515   1.683   7.005   6.430
 2206SOL     OW 7516   2.523   3.939   5.580
 2206SOL    HW1 7517   2.539   3.876   5.503
 2206SOL    HW2 7518   2.498   4.029   5.544
 2207SOL     OW 7519   2.202   4.045   0.121
 2207SOL    HW1 7520   2.233   3.991   0.043
 2207SOL    HW2 7521   2.102   4.042   0.126
 2208SOL     OW 7522   1.769   5.340   2.474
 2208SOL    HW1 7523   1.793   5.402   2.549
 2208SOL    HW2 7524   1.673   5.354   2.449
 2209SOL     OW 7525   1.477   5.470   5.804
 2209SOL    HW1 7526   1.430   5.464   5.892
 2209SOL    HW2 7527   1.411   5.456   5.730
 2210SOL     OW 7528   6.867   4.513   3.825
 2210SOL    HW1 7529   6.819   4.582   3.772
 2210SOL    HW2 7530   6.803   4.468   3.887
 2211SOL     OW 7531   5.170   0.667   6.894
 2211SOL    HW1 7532   5.120   0.622   6.969
 2211SOL    HW2 7533   5.267   0.671   6.918
 2212SOL     OW 7534   1.934   6.455   0.110
 2212SOL    HW1 7535   1.993   6.506   0.172
 2212SOL    HW2 7536   1.977   6.368   0.087
 2213SOL     OW 7537   4.086   2.738   5.344
 2213SOL    HW1 7538   4.097   2.659   5.284
 2213SOL    HW2 7539   3.994   2.776   5.334
 2214SOL     OW 7540   4.545   2.250   5.615
 2214SOL    HW1 7541   4.594   2.286   5.694
 2214SOL    HW2 7542   4.447   2.265   5.626
 2215SOL     OW 7543   6.390   1.763   0.250
 2215SOL    HW1 7544   6.424   1.678   0.291
 2215SOL    HW2 7545   6.380   1.832   0.322
 2216SOL     OW 7546   1.771   0.806   6.273
 2216SOL    HW1 7547   1.734   0.875   6.210
 2216SOL    HW2 7548   1.728   0.718   6.254
 2217SOL     OW 7549   3.464   0.313   1.295
 2217SOL    HW1 7550   3.498   0.368   1.371
 2217SOL    HW2 7551   3.530   0.241   1.273
 2218SOL     OW 7552   0.802   6.575   0.792
 2218SOL    HW1 7553   0.738   6.648   0.770
 2218SOL    HW2 7554   0.851   6.597   0.876
 2219SOL     OW 7555   0.697   3.299   2.492
 2219SOL    HW1 7556   0.777   3.354   2.515
 2219SOL    HW2 7557   0.652   3.269   2.576
 2220SOL     OW 7558   0.183   0.941   4.854
 2220SOL    HW1 7559   0.239   0.955   4.935
 2220SOL    HW2 7560   0.242   0.925   4.775
 2221SOL     OW 7561   6.404   1.001   6.123
 2221SOL    HW1 7562   6.385   0.922   6.064
 2221SOL    HW2 7563   6.352   1.080   6.090
 2222SOL     OW 7564   3.719   0.862   1.001
 2222SOL    HW1 7565   3.811   0.849   0.963
 2222SOL    HW2 7566   3.678   0.772   1.019
 2223SOL     OW 7567   6.219   6.924   4.042
 2223SOL    HW1 7568   6.314   6.896   4.059
 2223SOL    HW2 7569   6.186   6.881   3.958
 2224SOL     OW 7570   2.194   4.596   2.034
 2224SOL    HW1 7571   2.122   4.554   1.979
 2224SOL    HW2 7572   2.244   4.663   1.979
 2225SOL     OW 7573   6.312   5.662   3.128
 2225SOL    HW1 7574   6.314   5.578   3.182
 2225SOL    HW2 7575   6.225   5.709   3.142
 2226SOL     OW 7576   4.238   4.087   0.366
 2226SOL    HW1 7577   4.301   4.086   0.289
 2226SOL    HW2 7578   4.286   4.058   0.449
 2227SOL     OW 7579   5.140   3.383   0.146
 2227SOL    HW1 7580   5.186   3.470   0.129
 2227SOL    HW2 7581   5.207   3.310   0.152
 2228SOL     OW 7582   2.747   5.523   1.280
 2228SOL    HW1 7583   2.762   5.611   1.326
 2228SOL    HW2 7584   2.741   5.450   1.348
 2229SOL     OW 7585   3.983   1.497   4.724
 2229SOL    HW1 7586   4.031   1.474   4.639
 2229SOL    HW2 7587   3.963   1.595   4.726
 2230SOL     OW 7588   0.000   5.611   5.801
 2230SOL    HW1 7589   0.067   5.635   5.871
 2230SOL    HW2 7590   0.039   5.542   5.740
 2231SOL     OW 7591   1.705   0.870   1.358
 2231SOL    HW1 7592   1.715   0.959   1.313
 2231SOL    HW2 7593   1.607   0.850   1.369
 2232SOL     OW 7594   1.506   2.110   4.002
 2232SOL    HW1 7595   1.420   2.099   4.051
 2232SOL    HW2 7596   1.520   2.032   3.941
 2233SOL     OW 7597   2.493   4.414   1.351
 2233SOL    HW1 7598   2.501   4.473   1.271
 2233SOL    HW2 7599   2.421   4.449   1.411
 2234SOL     OW 7600   4.925   2.215   2.117
 2234SOL    HW1 7601   4.855   2.150   2.088
 2234SOL    HW2 7602   4.882   2.299   2.149
 2235SOL     OW 7603   1.859   0.213   0.956
 2235SOL    HW1 7604   1.804   0.129   0.952
 2235SOL    HW2 7605   1.956   0.189   0.958
 2236SOL     OW 7606   0.597   4.223   6.737
 2236SOL    HW1 7607   0.602   4.225   6.837
 2236SOL    HW2 7608   0.505   4.197   6.709
 2237SOL     OW 7609   5.454   4.321   4.805
 2237SOL    HW1 7610   5.494   4.307   4.895
 2237SOL    HW2 7611   5.519   4.292   4.735
 2238SOL     OW 7612   5.650   5.452   1.776
 2238SOL    HW1 7613   5.713   5.455   1.853
 2238SOL    HW2 7614   5.609   5.542   1.762
 2239SOL     OW 7615   3.606   5.264   3.649
 2239SOL    HW1 7616   3.508   5.276   3.631
 2239SOL    HW2 7617   3.625   5.287   3.745
 2240SOL     OW 7618   5.512   5.912   3.934
 2240SOL    HW1 7619   5.572   5.954   3.866
 2240SOL    HW2 7620   5.427   5.883   3.891
 2241SOL     OW 7621   0.332   6.880   2.496
 2241SOL    HW1 7622   0.328   6.794   2.444
 2241SOL    HW2 7623   0.297   6.864   2.589
 2242SOL     OW 7624   4.922   2.542   2.833
 2242SOL    HW1 7625   4.823   2.557   2.827
 2242SOL    HW2 7626   4.959   2.527   2.741
 2243SOL     OW 7627   2.865   6.225   5.254
 2243SOL    HW1 7628   2.941   6.166   5.281
 2243SOL    HW2 7629   2.845   6.290   5.327
 2244SOL     OW 7630   3.227   0.559   3.071
 2244SOL    HW1 7631   3.189   0.480   3.023
 2244SOL    HW2 7632   3.299   0.529   3.133
 2245SOL     OW 7633   0.699   2.048   1.982
 2245SOL    HW1 7634   0.752   2.043   1.897
 2245SOL    HW2 7635   0.626   1.980   1.981
 2246SOL     OW 7636   1.169   1.380   4.988
 2246SOL    HW1 7637   1.082   1.333   5.004
 2246SOL    HW2 7638   1.158   1.446   4.913
 2247SOL     OW 7639   2.950   2.959   5.713
 2247SOL    HW1 7640   2.992   3.048   5.729
 2247SOL    HW2 7641   2.930   2.948   5.616
 2248SOL     OW 7642   4.020   4.070   6.412
 2248SOL    HW1 7643   4.101   4.092   6.466
 2248SOL    HW2 7644   3.997   3.974   6.425
 2249SOL     OW 7645   6.678   6.068   2.484
 2249SOL    HW1 7646   6.685   6.059   2.584
 2249SOL    HW2 7647   6.585   6.045   2.455
 2250SOL     OW 7648   5.173   3.537   0.652
 2250SOL    HW1 7649   5.172   3.478   0.572
 2250SOL    HW2 7650   5.096   3.601   0.648
 2251SOL     OW 7651   5.227   1.635   0.082
 2251SOL    HW1 7652   5.178   1.611   7.023
 2251SOL    HW2 7653   5.228   1.556   0.144
 2252SOL     OW 7654   6.511   2.166   3.559
 2252SOL    HW1 7655   6.583   2.223   3.600
 2252SOL    HW2 7656   6.429   2.222   3.543
 2253SOL     OW 7657   0.640   3.392   6.996
 2253SOL    HW1 7658   0.731   3.391   0.013
 2253SOL    HW2 7659   0.632   3.469   6.933
 2254SOL     OW 7660   2.046   2.902   5.935
 2254SOL    HW1 7661   1.955   2.902   5.895
 2254SOL    HW2 7662   2.077   2.807   5.946
 2255SOL     OW 7663   4.950   2.565   0.499
 2255SOL    HW1 7664   5.019   2.506   0.541
 2255SOL    HW2 7665   4.979   2.590   0.407
 2256SOL     OW 7666   4.126   6.571   1.716
 2256SOL    HW1 7667   4.082   6.484   1.740
 2256SOL    HW2 7668   4.061   6.630   1.668
 2257SOL     OW 7669   0.151   2.823   3.866
 2257SOL    HW1 7670   0.240   2.800   3.905
 2257SOL    HW2 7671   0.147   2.922   3.848
 2258SOL     OW 7672   0.987   5.425   5.284
 2258SOL    HW1 7673   0.894   5.391   5.299
 2258SOL    HW2 7674   1.052   5.364   5.330
 2259SOL     OW 7675   4.611   3.908   6.932
 2259SOL    HW1 7676   4.618   3.975   7.006
 2259SOL    HW2 7677   4.613   3.816   6.971
 2260SOL     OW 7678   5.495   4.610   2.812
 2260SOL    HW1 7679   5.419   4.659   2.855
 2260SOL    HW2 7680   5.535   4.547   2.878
 2261SOL     OW 7681   6.318   6.640   0.965
 2261SOL    HW1 7682   6.371   6.702   0.907
 2261SOL    HW2 7683   6.222   6.668   0.964
 2262SOL     OW 7684   5.729   2.588   2.529
 2262SOL    HW1 7685   5.694   2.496   2.510
 2262SOL    HW2 7686   5.757   2.631   2.443
 2263SOL     OW 7687   2.787   5.760   6.227
 2263SOL    HW1 7688   2.871   5.801   6.190
 2263SOL    HW2 7689   2.736   5.830   6.276
 2264SOL     OW 7690   3.221   3.374   1.507
 2264SOL    HW1 7691   3.288   3.371   1.581
 2264SOL    HW2 7692   3.160   3.296   1.513
 2265SOL     OW 7693   0.419   0.415   4.152
 2265SOL    HW1 7694   0.394   0.508   4.181
 2265SOL    HW2 7695   0.408   0.408   4.053
 2266SOL     OW 7696   5.962   1.757   1.126
 2266SOL    HW1 7697   5.948   1.659   1.117
 2266SOL    HW2 7698   5.935   1.802   1.040
 2267SOL     OW 7699   5.196   2.365   5.163
 2267SOL    HW1 7700   5.245   2.407   5.086
 2267SOL    HW2 7701   5.138   2.292   5.129
 2268SOL     OW 7702   6.387   3.729   6.444
 2268SOL    HW1 7703   6.380   3.826   6.422
 2268SOL    HW2 7704   6.320   3.705   6.515
 2269SOL     OW 7705   5.780   5.862   4.875
 2269SOL    HW1 7706   5.755   5.883   4.970
 2269SOL    HW2 7707   5.732   5.779   4.845
 2270SOL     OW 7708   3.558   2.975   6.792
 2270SOL    HW1 7709   3.498   2.968   6.871
 2270SOL    HW2 7710   3.507   2.951   6.709
 2271SOL     OW 7711   5.989   4.044   0.450
 2271SOL    HW1 7712   6.015   3.977   0.520
 2271SOL    HW2 7713   5.889   4.053   0.448
 2272SOL     OW 7714   5.737   2.045   5.464
 2272SOL    HW1 7715   5.642   2.018   5.449
 2272SOL    HW2 7716   5.783   2.057   5.376
 2273SOL     OW 7717   1.427   0.825   1.922
 2273SOL    HW1 7718   1.406   0.740   1.873
 2273SOL    HW2 7719   1.526   0.831   1.937
 2274SOL     OW 7720   1.324   2.512   5.954
 2274SOL    HW1 7721   1.369   2.533   6.041
 2274SOL    HW2 7722   1.297   2.415   5.953
 2275SOL     OW 7723   5.583   0.426   4.607
 2275SOL    HW1 7724   5.649   0.491   4.569
 2275SOL    HW2 7725   5.629   0.367   4.673
 2276SOL     OW 7726   3.133   4.927   1.144
 2276SOL    HW1 7727   3.176   4.996   1.085
 2276SOL    HW2 7728   3.071   4.871   1.089
 2277SOL     OW 7729   3.440   4.101   4.484
 2277SOL    HW1 7730   3.525   4.052   4.471
 2277SOL    HW2 7731   3.422   4.113   4.582
 2278SOL     OW 7732   5.556   6.183   4.577
 2278SOL    HW1 7733   5.641   6.154   4.532
 2278SOL    HW2 7734   5.523   6.267   4.534
 2279SOL     OW 7735   4.831   5.603   4.607
 2279SOL    HW1 7736   4.769   5.642   4.676
 2279SOL    HW2 7737   4.926   5.621   4.634
 2280SOL     OW 7738   6.869   6.305   4.749
 2280SOL    HW1 7739   6.790   6.365   4.740
 2280SOL    HW2 7740   6.847   6.214   4.713
 2281SOL     OW 7741   3.312   0.976   1.743
 2281SOL    HW1 7742   3.253   1.025   1.679
 2281SOL    HW2 7743   3.257   0.939   1.817
 2282SOL     OW 7744   5.337   0.344   4.718
 2282SOL    HW1 7745   5.300   0.407   4.787
 2282SOL    HW2 7746   5.417   0.386   4.674
 2283SOL     OW 7747   6.715   4.292   1.077
 2283SOL    HW1 7748   6.654   4.287   0.998
 2283SOL    HW2 7749   6.767   4.378   1.073
 2284SOL     OW 7750   2.182   1.980   0.320
 2284SOL    HW1 7751   2.103   1.923   0.343
 2284SOL    HW2 7752   2.176   2.066   0.370
 2285SOL     OW 7753   1.464   2.940   0.062
 2285SOL    HW1 7754   1.564   2.933   0.071
 2285SOL    HW2 7755   1.427   2.991   0.140
 2286SOL     OW 7756   0.159   6.908   4.210
 2286SOL    HW1 7757   0.222   6.982   4.230
 2286SOL    HW2 7758   0.087   6.904   4.280
 2287SOL     OW 7759   2.214   2.871   1.894
 2287SOL    HW1 7760   2.295   2.814   1.877
 2287SOL    HW2 7761   2.167   2.888   1.808
 2288SOL     OW 7762   6.814   4.475   4.483
 2288SOL    HW1 7763   6.720   4.452   4.460
 2288SOL    HW2 7764   6.835   4.445   4.576
 2289SOL     OW 7765   6.280   4.279   2.776
 2289SOL    HW1 7766   6.250   4.242   2.864
 2289SOL    HW2 7767   6.255   4.215   2.703
 2290SOL     OW 7768   2.097   3.947   2.061
 2290SOL    HW1 7769   2.103   3.849   2.076
 2290SOL    HW2 7770   2.170   3.977   1.999
 2291SOL     OW 7771   2.066   2.381   0.236
 2291SOL    HW1 7772   1.978   2.374   0.283
 2291SOL    HW2 7773   2.071   2.311   0.165
 2292SOL     OW 7774   5.195   2.185   3.006
 2292SOL    HW1 7775   5.156   2.181   3.098
 2292SOL    HW2 7776   5.238   2.274   2.992
 2293SOL     OW 7777   6.789   0.104   0.908
 2293SOL    HW1 7778   6.862   0.151   0.858
 2293SOL    HW2 7779   6.808   0.006   0.911
 2294SOL     OW 7780   3.208   1.429   6.193
 2294SOL    HW1 7781   3.301   1.419   6.228
 2294SOL    HW2 7782   3.205   1.501   6.124
 2295SOL     OW 7783   0.584   1.426   2.818
 2295SOL    HW1 7784   0.596   1.459   2.911
 2295SOL    HW2 7785   0.594   1.327   2.815
 2296SOL     OW 7786   3.683   5.390   2.389
 2296SOL    HW1 7787   3.673   5.301   2.434
 2296SOL    HW2 7788   3.705   5.377   2.293
 2297SOL     OW 7789   4.771   4.658   5.783
 2297SOL    HW1 7790   4.812   4.573   5.816
 2297SOL    HW2 7791   4.684   4.673   5.829
 2298SOL     OW 7792   4.128   3.508   2.735
 2298SOL    HW1 7793   4.195   3.491   2.807
 2298SOL    HW2 7794   4.125   3.606   2.714
 2299SOL     OW 7795   4.754   4.412   5.237
 2299SOL    HW1 7796   4.734   4.334   5.178
 2299SOL    HW2 7797   4.735   4.389   5.332
 2300SOL     OW 7798   2.950   6.473   3.319
 2300SOL    HW1 7799   3.000   6.558   3.335
 2300SOL    HW2 7800   2.885   6.458   3.393
 2301SOL     OW 7801   3.953   3.040   3.356
 2301SOL    HW1 7802   4.029   3.104   3.365
 2301SOL    HW2 7803   3.932   3.001   3.446
 2302SOL     OW 7804   3.669   0.613   1.120
 2302SOL    HW1 7805   3.729   0.534   1.130
 2302SOL    HW2 7806   3.637   0.642   1.210
 2303SOL     OW 7807   2.601   3.204   1.030
 2303SOL    HW1 7808   2.555   3.242   1.111
 2303SOL    HW2 7809   2.540   3.208   0.952
 2304SOL     OW 7810   5.684   6.084   4.341
 2304SOL    HW1 7811   5.644   6.009   4.289
 2304SOL    HW2 7812   5.773   6.057   4.378
 2305SOL     OW 7813   2.308   0.308   2.960
 2305SOL    HW1 7814   2.317   0.408   2.962
 2305SOL    HW2 7815   2.302   0.277   2.865
 2306SOL     OW 7816   2.195   5.197   1.689
 2306SOL    HW1 7817   2.149   5.194   1.778
 2306SOL    HW2 7818   2.189   5.289   1.651
 2307SOL     OW 7819   0.287   3.065   5.540
 2307SOL    HW1 7820   0.219   3.006   5.496
 2307SOL    HW2 7821   0.303   3.146   5.483
 2308SOL     OW 7822   2.942   4.742   1.031
 2308SOL    HW1 7823   2.930   4.712   0.936
 2308SOL    HW2 7824   2.942   4.662   1.092
 2309SOL     OW 7825   1.945   0.927   5.245
 2309SOL    HW1 7826   1.883   0.947   5.168
 2309SOL    HW2 7827   1.892   0.912   5.328
 2310SOL     OW 7828   6.048   5.673   1.874
 2310SOL    HW1 7829   6.091   5.583   1.883
 2310SOL    HW2 7830   6.046   5.699   1.777
 2311SOL     OW 7831   2.084   6.548   0.760
 2311SOL    HW1 7832   2.013   6.485   0.791
 2311SOL    HW2 7833   2.118   6.518   0.671
 2312SOL     OW 7834   4.675   5.430   3.269
 2312SOL    HW1 7835   4.766   5.456   3.300
 2312SOL    HW2 7836   4.659   5.333   3.287
 2313SOL     OW 7837   4.713   5.823   2.562
 2313SOL    HW1 7838   4.755   5.911   2.540
 2313SOL    HW2 7839   4.614   5.835   2.569
 2314SOL     OW 7840   4.974   6.132   2.987
 2314SOL    HW1 7841   4.913   6.056   3.008
 2314SOL    HW2 7842   4.923   6.204   2.940
 2315SOL     OW 7843   5.094   2.867   6.304
 2315SOL    HW1 7844   5.090   2.769   6.327
 2315SOL    HW2 7845   5.136   2.917   6.380
 2316SOL     OW 7846   4.485   1.801   3.842
 2316SOL    HW1 7847   4.459   1.708   3.866
 2316SOL    HW2 7848   4.565   1.799   3.783
 2317SOL     OW 7849   0.263   5.973   3.051
 2317SOL    HW1 7850   0.258   6.055   2.994
 2317SOL    HW2 7851   0.286   5.894   2.994
 2318SOL     OW 7852   0.901   2.752   3.312
 2318SOL    HW1 7853   0.844   2.673   3.332
 2318SOL    HW2 7854   0.937   2.791   3.397
 2319SOL     OW 7855   1.563   5.349   3.984
 2319SOL    HW1 7856   1.545   5.434   4.033
 2319SOL    HW2 7857   1.476   5.305   3.962
 2320SOL     OW 7858   0.785   2.515   3.663
 2320SOL    HW1 7859   0.782   2.424   3.704
 2320SOL    HW2 7860   0.717   2.522   3.591
 2321SOL     OW 7861   3.355   0.786   5.598
 2321SOL    HW1 7862   3.399   0.827   5.518
 2321SOL    HW2 7863   3.425   0.749   5.659
 2322SOL     OW 7864   2.302   1.813   5.150
 2322SOL    HW1 7865   2.386   1.785   5.103
 2322SOL    HW2 7866   2.300   1.913   5.158
 2323SOL     OW 7867   3.123   4.874   2.161
 2323SOL    HW1 7868   3.191   4.842   2.095
 2323SOL    HW2 7869   3.031   4.859   2.124
 2324SOL     OW 7870   0.599   6.333   2.857
 2324SOL    HW1 7871   0.590   6.290   2.947
 2324SOL    HW2 7872   0.571   6.269   2.786
 2325SOL     OW 7873   0.390   4.507   1.328
 2325SOL    HW1 7874   0.465   4.441   1.326
 2325SOL    HW2 7875   0.422   4.594   1.290
 2326SOL     OW 7876   3.434   4.121   5.951
 2326SOL    HW1 7877   3.465   4.216   5.946
 2326SOL    HW2 7878   3.509   4.063   5.985
 2327SOL     OW 7879   5.831   2.703   4.620
 2327SOL    HW1 7880   5.849   2.624   4.678
 2327SOL    HW2 7881   5.751   2.753   4.655
 2328SOL     OW 7882   4.484   1.906   3.468
 2328SOL    HW1 7883   4.502   1.984   3.528
 2328SOL    HW2 7884   4.563   1.844   3.469
 2329SOL     OW 7885   1.820   5.249   4.844
 2329SOL    HW1 7886   1.767   5.238   4.760
 2329SOL    HW2 7887   1.797   5.335   4.888
 2330SOL     OW 7888   6.977   4.168   2.438
 2330SOL    HW1 7889   6.963   4.097   2.507
 2330SOL    HW2 7890   6.973   4.258   2.481
 2331SOL     OW 7891   6.274   4.746   6.788
 2331SOL    HW1 7892   6.180   4.778   6.775
 2331SOL    HW2 7893   6.326   4.816   6.838
 2332SOL     OW 7894   4.034   1.828   5.213
 2332SOL    HW1 7895   4.108   1.764   5.233
 2332SOL    HW2 7896   4.062   1.889   5.138
 2333SOL     OW 7897   6.488   4.938   3.041
 2333SOL    HW1 7898   6.579   4.900   3.022
 2333SOL    HW2 7899   6.442   4.881   3.110
 2334SOL     OW 7900   2.668   0.596   0.179
 2334SOL    HW1 7901   2.721   0.652   0.116
 2334SOL    HW2 7902   2.731   0.546   0.240
 2335SOL     OW 7903   5.840   1.017   3.199
 2335SOL    HW1 7904   5.801   1.107   3.220
 2335SOL    HW2 7905   5.908   1.026   3.126
 2336SOL     OW 7906   4.408   2.004   5.443
 2336SOL    HW1 7907   4.411   1.914   5.485
 2336SOL    HW2 7908   4.375   2.071   5.510
 2337SOL     OW 7909   4.721   1.342   3.555
 2337SOL    HW1 7910   4.642   1.293   3.592
 2337SOL    HW2 7911   4.766   1.285   3.486
 2338SOL     OW 7912   0.784   0.306   0.298
 2338SOL    HW1 7913   0.746   0.242   0.231
 2338SOL    HW2 7914   0.854   0.363   0.254
 2339SOL     OW 7915   3.654   3.786   5.102
 2339SOL    HW1 7916   3.657   3.825   5.010
 2339SOL    HW2 7917   3.572   3.730   5.113
 2340SOL     OW 7918   5.008   6.589   5.791
 2340SOL    HW1 7919   5.068   6.511   5.772
 2340SOL    HW2 7920   4.915   6.557   5.808
 2341SOL     OW 7921   4.937   3.358   0.874
 2341SOL    HW1 7922   4.876   3.321   0.944
 2341SOL    HW2 7923   4.898   3.340   0.784
 2342SOL     OW 7924   0.954   6.203   5.772
 2342SOL    HW1 7925   0.930   6.115   5.730
 2342SOL    HW2 7926   0.874   6.241   5.819
 2343SOL     OW 7927   1.938   6.495   1.414
 2343SOL    HW1 7928   1.881   6.572   1.386
 2343SOL    HW2 7929   1.989   6.519   1.496
 2344SOL     OW 7930   1.544   1.017   1.110
 2344SOL    HW1 7931   1.447   1.028   1.090
 2344SOL    HW2 7932   1.585   0.954   1.044
 2345SOL     OW 7933   2.031   6.305   5.570
 2345SOL    HW1 7934   2.098   6.263   5.632
 2345SOL    HW2 7935   2.077   6.366   5.506
 2346SOL     OW 7936   4.906   3.152   4.893
 2346SOL    HW1 7937   4.882   3.203   4.976
 2346SOL    HW2 7938   4.852   3.069   4.888
 2347SOL     OW 7939   2.181   4.268   1.716
 2347SOL    HW1 7940   2.128   4.291   1.798
 2347SOL    HW2 7941   2.254   4.204   1.740
 2348SOL     OW 7942   2.960   5.904   3.605
 2348SOL    HW1 7943   2.958   5.894   3.506
 2348SOL    HW2 7944   2.881   5.956   3.636
 2349SOL     OW 7945   0.473   6.163   0.129
 2349SOL    HW1 7946   0.429   6.193   0.045
 2349SOL    HW2 7947   0.416   6.095   0.174
 2350SOL     OW 7948   4.678   6.816   6.053
 2350SOL    HW1 7949   4.721   6.905   6.066
 2350SOL    HW2 7950   4.689   6.761   6.135
 2351SOL     OW 7951   3.084   5.382   3.342
 2351SOL    HW1 7952   3.142   5.426   3.411
 2351SOL    HW2 7953   3.029   5.311   3.385
 2352SOL     OW 7954   0.553   4.719   2.706
 2352SOL    HW1 7955   0.647   4.748   2.690
 2352SOL    HW2 7956   0.513   4.772   2.781
 2353SOL     OW 7957   2.518   4.613   4.454
 2353SOL    HW1 7958   2.510   4.588   4.550
 2353SOL    HW2 7959   2.476   4.542   4.397
 2354SOL     OW 7960   3.894   2.797   6.038
 2354SOL    HW1 7961   3.960   2.727   6.011
 2354SOL    HW2 7962   3.802   2.767   6.014
 2355SOL     OW 7963   0.406   5.476   0.293
 2355SOL    HW1 7964   0.414   5.574   0.276
 2355SOL    HW2 7965   0.310   5.448   0.288
 2356SOL     OW 7966   2.409   4.208   1.177
 2356SOL    HW1 7967   2.503   4.189   1.206
 2356SOL    HW2 7968   2.391   4.306   1.184
 2357SOL     OW 7969   3.663   5.048   4.149
 2357SOL    HW1 7970   3.725   5.125   4.141
 2357SOL    HW2 7971   3.711   4.963   4.129
 2358SOL     OW 7972   2.792   5.896   4.545
 2358SOL    HW1 7973   2.756   5.827   4.607
 2358SOL    HW2 7974   2.748   5.887   4.456
 2359SOL     OW 7975   1.955   0.927   6.045
 2359SOL    HW1 7976   1.991   1.003   6.099
 2359SOL    HW2 7977   1.992   0.841   6.080
 2360SOL     OW 7978   4.814   5.810   5.425
 2360SOL    HW1 7979   4.754   5.856   5.490
 2360SOL    HW2 7980   4.902   5.856   5.421
 2361SOL     OW 7981   2.673   0.215   3.973
 2361SOL    HW1 7982   2.605   0.273   4.017
 2361SOL    HW2 7983   2.635   0.175   3.890
 2362SOL     OW 7984   4.730   6.711   5.015
 2362SOL    HW1 7985   4.698   6.741   4.925
 2362SOL    HW2 7986   4.730   6.789   5.077
 2363SOL     OW 7987   4.801   2.560   5.484
 2363SOL    HW1 7988   4.866   2.532   5.413
 2363SOL    HW2 7989   4.711   2.520   5.463
 2364SOL     OW 7990   5.991   1.809   2.161
 2364SOL    HW1 7991   6.088   1.832   2.152
 2364SOL    HW2 7992   5.980   1.737   2.229
 2365SOL     OW 7993   5.616   3.684   5.690
 2365SOL    HW1 7994   5.627   3.783   5.680
 2365SOL    HW2 7995   5.703   3.639   5.674
 2366SOL     OW 7996   1.149   4.025   5.312
 2366SOL    HW1 7997   1.189   3.984   5.230
 2366SOL    HW2 7998   1.127   3.954   5.378
 2367SOL     OW 7999   1.844   3.798   6.487
 2367SOL    HW1 8000   1.883   3.805   6.395
 2367SOL    HW2 8001   1.887   3.866   6.546
 2368SOL     OW 8002   4.846   1.075   4.886
 2368SOL    HW1 8003   4.891   1.163   4.871
 2368SOL    HW2 8004   4.841   1.025   4.800
 2369SOL     OW 8005   2.450   2.353   4.224
 2369SOL    HW1 8006   2.494   2.380   4.310
 2369SOL    HW2 8007   2.519   2.314   4.163
 2370SOL     OW 8008   4.347   3.866   6.850
 2370SOL    HW1 8009   4.326   3.783   6.902
 2370SOL    HW2 8010   4.434   3.903   6.879
 2371SOL     OW 8011   1.653   5.508   2.037
 2371SOL    HW1 8012   1.647   5.419   2.082
 2371SOL    HW2 8013   1.619   5.579   2.098
 2372SOL     OW 8014   0.648   1.676   0.104
 2372SOL    HW1 8015   0.720   1.608   0.117
 2372SOL    HW2 8016   0.599   1.657   0.019
 2373SOL     OW 8017   6.250   0.969   6.799
 2373SOL    HW1 8018   6.190   0.909   6.747
 2373SOL    HW2 8019   6.327   0.997   6.741
 2374SOL     OW 8020   5.993   5.353   3.577
 2374SOL    HW1 8021   6.077   5.339   3.525
 2374SOL    HW2 8022   6.002   5.433   3.636
 2375SOL     OW 8023   0.740   6.852   4.606
 2375SOL    HW1 8024   0.789   6.899   4.533
 2375SOL    HW2 8025   0.769   6.756   4.609
 2376SOL     OW 8026   5.744   2.742   3.293
 2376SOL    HW1 8027   5.715   2.692   3.374
 2376SOL    HW2 8028   5.834   2.782   3.310
 2377SOL     OW 8029   3.397   3.520   4.360
 2377SOL    HW1 8030   3.395   3.528   4.460
 2377SOL    HW2 8031   3.377   3.425   4.334
 2378SOL     OW 8032   5.459   2.052   0.198
 2378SOL    HW1 8033   5.490   1.979   0.138
 2378SOL    HW2 8034   5.359   2.051   0.202
 2379SOL     OW 8035   6.790   2.585   0.228
 2379SOL    HW1 8036   6.869   2.626   0.274
 2379SOL    HW2 8037   6.709   2.598   0.285
 2380SOL     OW 8038   6.913   0.750   5.515
 2380SOL    HW1 8039   6.968   0.734   5.597
 2380SOL    HW2 8040   6.953   0.701   5.437
 2381SOL     OW 8041   1.604   4.353   4.682
 2381SOL    HW1 8042   1.596   4.411   4.763
 2381SOL    HW2 8043   1.687   4.378   4.631
 2382SOL     OW 8044   2.055   5.507   2.642
 2382SOL    HW1 8045   2.075   5.564   2.563
 2382SOL    HW2 8046   1.958   5.513   2.665
 2383SOL     OW 8047   5.597   6.296   6.726
 2383SOL    HW1 8048   5.528   6.357   6.687
 2383SOL    HW2 8049   5.553   6.231   6.788
 2384SOL     OW 8050   1.146   1.661   1.625
 2384SOL    HW1 8051   1.099   1.590   1.678
 2384SOL    HW2 8052   1.245   1.650   1.636
 2385SOL     OW 8053   0.025   0.313   1.182
 2385SOL    HW1 8054   0.020   0.236   1.119
 2385SOL    HW2 8055   0.121   0.335   1.200
 2386SOL     OW 8056   3.095   5.280   4.543
 2386SOL    HW1 8057   3.027   5.333   4.593
 2386SOL    HW2 8058   3.181   5.331   4.537
 2387SOL     OW 8059   6.589   2.755   4.407
 2387SOL    HW1 8060   6.505   2.807   4.427
 2387SOL    HW2 8061   6.660   2.781   4.472
 2388SOL     OW 8062   1.317   1.656   5.469
 2388SOL    HW1 8063   1.337   1.723   5.541
 2388SOL    HW2 8064   1.338   1.695   5.380
 2389SOL     OW 8065   4.400   4.718   4.232
 2389SOL    HW1 8066   4.355   4.712   4.321
 2389SOL    HW2 8067   4.476   4.653   4.228
 2390SOL     OW 8068   3.664   3.881   4.818
 2390SOL    HW1 8069   3.744   3.931   4.849
 2390SOL    HW2 8070   3.692   3.808   4.755
 2391SOL     OW 8071   3.429   4.536   6.082
 2391SOL    HW1 8072   3.396   4.473   6.152
 2391SOL    HW2 8073   3.513   4.500   6.041
 2392SOL     OW 8074   2.939   4.772   6.441
 2392SOL    HW1 8075   2.931   4.870   6.422
 2392SOL    HW2 8076   2.887   4.750   6.524
 2393SOL     OW 8077   3.866   5.149   1.317
 2393SOL    HW1 8078   3.779   5.165   1.268
 2393SOL    HW2 8079   3.889   5.052   1.311
 2394SOL     OW 8080   1.133   4.164   4.280
 2394SOL    HW1 8081   1.137   4.067   4.258
 2394SOL    HW2 8082   1.221   4.193   4.318
 2395SOL     OW 8083   6.889   2.704   6.710
 2395SOL    HW1 8084   6.877   2.729   6.806
 2395SOL    HW2 8085   6.977   2.738   6.678
 2396SOL     OW 8086   6.049   6.222   0.612
 2396SOL    HW1 8087   5.964   6.261   0.578
 2396SOL    HW2 8088   6.038   6.194   0.707
 2397SOL     OW 8089   6.665   4.884   0.143
 2397SOL    HW1 8090   6.645   4.870   0.240
 2397SOL    HW2 8091   6.695   4.798   0.102
 2398SOL     OW 8092   2.387   4.936   4.763
 2398SOL    HW1 8093   2.481   4.926   4.730
 2398SOL    HW2 8094   2.371   5.030   4.791
 2399SOL     OW 8095   4.305   1.503   3.102
 2399SOL    HW1 8096   4.328   1.600   3.097
 2399SOL    HW2 8097   4.218   1.492   3.150
 2400SOL     OW 8098   2.975   3.793   0.650
 2400SOL    HW1 8099   2.890   3.808   0.599
 2400SOL    HW2 8100   3.005   3.878   0.692
 2401SOL     OW 8101   3.126   0.362   4.760
 2401SOL    HW1 8102   3.151   0.307   4.840
 2401SOL    HW2 8103   3.049   0.421   4.783
 2402SOL     OW 8104   0.064   1.998   3.924
 2402SOL    HW1 8105   0.023   2.088   3.935
 2402SOL    HW2 8106   0.115   1.994   3.839
 2403SOL     OW 8107   3.357   3.158   0.346
 2403SOL    HW1 8108   3.329   3.251   0.323
 2403SOL    HW2 8109   3.335   3.139   0.442
 2404SOL     OW 8110   5.503   1.763   1.837
 2404SOL    HW1 8111   5.419   1.774   1.890
 2404SOL    HW2 8112   5.581   1.761   1.899
 2405SOL     OW 8113   3.566   3.878   5.376
 2405SOL    HW1 8114   3.528   3.795   5.416
 2405SOL    HW2 8115   3.571   3.869   5.277
 2406SOL     OW 8116   2.272   0.783   2.744
 2406SOL    HW1 8117   2.312   0.695   2.721
 2406SOL    HW2 8118   2.342   0.843   2.784
 2407SOL     OW 8119   4.452   2.303   2.960
 2407SOL    HW1 8120   4.475   2.377   3.024
 2407SOL    HW2 8121   4.501   2.220   2.987
 2408SOL     OW 8122   3.309   5.092   3.119
 2408SOL    HW1 8123   3.358   5.054   3.197
 2408SOL    HW2 8124   3.311   5.026   3.044
 2409SOL     OW 8125   1.824   2.484   1.657
 2409SOL    HW1 8126   1.907   2.519   1.700
 2409SOL    HW2 8127   1.744   2.523   1.702
 2410SOL     OW 8128   6.659   3.493   5.295
 2410SOL    HW1 8129   6.736   3.555   5.274
 2410SOL    HW2 8130   6.573   3.539   5.275
 2411SOL     OW 8131   3.498   4.144   5.509
 2411SOL    HW1 8132   3.528   4.059   5.465
 2411SOL    HW2 8133   3.408   4.131   5.550
 2412SOL     OW 8134   2.675   3.646   0.340
 2412SOL    HW1 8135   2.657   3.548   0.334
 2412SOL    HW2 8136   2.752   3.669   0.279
 2413SOL     OW 8137   6.230   3.411   6.662
 2413SOL    HW1 8138   6.298   3.417   6.735
 2413SOL    HW2 8139   6.275   3.384   6.577
 2414SOL     OW 8140   5.663   3.496   2.744
 2414SOL    HW1 8141   5.698   3.412   2.701
 2414SOL    HW2 8142   5.728   3.528   2.812
 2415SOL     OW 8143   2.140   0.610   1.458
 2415SOL    HW1 8144   2.180   0.536   1.404
 2415SOL    HW2 8145   2.047   0.627   1.425
 2416SOL     OW 8146   1.595   1.651   4.693
 2416SOL    HW1 8147   1.544   1.606   4.766
 2416SOL    HW2 8148   1.576   1.750   4.695
 2417SOL     OW 8149   5.571   2.137   0.435
 2417SOL    HW1 8150   5.520   2.156   0.519
 2417SOL    HW2 8151   5.507   2.121   0.360
 2418SOL     OW 8152   3.382   3.752   5.148
 2418SOL    HW1 8153   3.380   3.834   5.205
 2418SOL    HW2 8154   3.349   3.775   5.056
 2419SOL     OW 8155   0.817   7.016   5.025
 2419SOL    HW1 8156   0.833   0.080   4.983
 2419SOL    HW2 8157   0.735   6.975   4.985
 2420SOL     OW 8158   3.903   7.008   2.179
 2420SOL    HW1 8159   3.954   7.003   2.264
 2420SOL    HW2 8160   3.805   7.009   2.199
 2421SOL     OW 8161   2.866   0.480   4.827
 2421SOL    HW1 8162   2.804   0.442   4.758
 2421SOL    HW2 8163   2.813   0.520   4.901
 2422SOL     OW 8164   4.904   0.926   0.775
 2422SOL    HW1 8165   4.981   0.874   0.812
 2422SOL    HW2 8166   4.846   0.957   0.850
 2423SOL     OW 8167   2.313   5.791   2.247
 2423SOL    HW1 8168   2.288   5.807   2.342
 2423SOL    HW2 8169   2.393   5.846   2.223
 2424SOL     OW 8170   5.461   6.103   6.873
 2424SOL    HW1 8171   5.495   6.041   6.803
 2424SOL    HW2 8172   5.361   6.095   6.879
 2425SOL     OW 8173   6.580   6.817   4.732
 2425SOL    HW1 8174   6.667   6.804   4.781
 2425SOL    HW2 8175   6.586   6.773   4.643
 2426SOL     OW 8176   1.047   6.008   4.780
 2426SOL    HW1 8177   1.137   6.023   4.739
 2426SOL    HW2 8178   1.054   5.940   4.853
 2427SOL     OW 8179   5.495   5.331   6.751
 2427SOL    HW1 8180   5.396   5.334   6.739
 2427SOL    HW2 8181   5.523   5.241   6.784
 2428SOL     OW 8182   0.583   0.539   3.737
 2428SOL    HW1 8183   0.661   0.601   3.743
 2428SOL    HW2 8184   0.510   0.582   3.683
 2429SOL     OW 8185   5.776   5.328   3.176
 2429SOL    HW1 8186   5.765   5.235   3.210
 2429SOL    HW2 8187   5.841   5.377   3.235
 2430SOL     OW 8188   5.266   2.789   0.649
 2430SOL    HW1 8189   5.203   2.826   0.580
 2430SOL    HW2 8190   5.221   2.713   0.696
 2431SOL     OW 8191   4.173   0.817   1.295
 2431SOL    HW1 8192   4.226   0.749   1.244
 2431SOL    HW2 8193   4.104   0.770   1.351
 2432SOL     OW 8194   4.015   6.632   2.825
 2432SOL    HW1 8195   3.944   6.682   2.774
 2432SOL    HW2 8196   4.047   6.688   2.901
 2433SOL     OW 8197   2.585   6.947   0.133
 2433SOL    HW1 8198   2.602   6.852   0.159
 2433SOL    HW2 8199   2.514   6.951   0.062
 2434SOL     OW 8200   5.108   1.450   3.348
 2434SOL    HW1 8201   5.154   1.507   3.280
 2434SOL    HW2 8202   5.015   1.484   3.362
 2435SOL     OW 8203   5.079   4.843   0.442
 2435SOL    HW1 8204   5.012   4.777   0.475
 2435SOL    HW2 8205   5.103   4.906   0.516
 2436SOL     OW 8206   1.789   6.724   1.394
 2436SOL    HW1 8207   1.730   6.676   1.459
 2436SOL    HW2 8208   1.739   6.802   1.355
 2437SOL     OW 8209   5.230   5.679   1.303
 2437SOL    HW1 8210   5.206   5.750   1.370
 2437SOL    HW2 8211   5.191   5.703   1.214
 2438SOL     OW 8212   4.192   0.650   4.968
 2438SOL    HW1 8213   4.274   0.707   4.966
 2438SOL    HW2 8214   4.112   0.707   4.947
 2439SOL     OW 8215   0.828   3.916   0.582
 2439SOL    HW1 8216   0.802   3.958   0.495
 2439SOL    HW2 8217   0.761   3.845   0.606
 2440SOL     OW 8218   3.727   6.649   5.219
 2440SOL    HW1 8219   3.678   6.575   5.173
 2440SOL    HW2 8220   3.825   6.636   5.209
 2441SOL     OW 8221   5.488   0.634   0.251
 2441SOL    HW1 8222   5.587   0.634   0.241
 2441SOL    HW2 8223   5.457   0.543   0.279
 2442SOL     OW 8224   5.716   5.345   2.885
 2442SOL    HW1 8225   5.747   5.353   2.980
 2442SOL    HW2 8226   5.745   5.425   2.834
 2443SOL     OW 8227   2.887   0.667   6.446
 2443SOL    HW1 8228   2.931   0.661   6.356
 2443SOL    HW2 8229   2.859   0.576   6.476
 2444SOL     OW 8230   3.417   4.072   6.966
 2444SOL    HW1 8231   3.463   4.060   0.029
 2444SOL    HW2 8232   3.480   4.114   6.900
 2445SOL     OW 8233   6.739   1.559   2.246
 2445SOL    HW1 8234   6.799   1.513   2.181
 2445SOL    HW2 8235   6.719   1.497   2.323
 2446SOL     OW 8236   0.713   2.948   4.632
 2446SOL    HW1 8237   0.705   2.986   4.725
 2446SOL    HW2 8238   0.810   2.946   4.606
 2447SOL     OW 8239   2.129   1.621   0.931
 2447SOL    HW1 8240   2.180   1.650   0.850
 2447SOL    HW2 8241   2.176   1.654   1.013
 2448SOL     OW 8242   6.681   1.170   4.237
 2448SOL    HW1 8243   6.583   1.152   4.230
 2448SOL    HW2 8244   6.712   1.151   4.330
 2449SOL     OW 8245   0.195   3.609   2.663
 2449SOL    HW1 8246   0.145   3.669   2.601
 2449SOL    HW2 8247   0.274   3.570   2.615
 2450SOL     OW 8248   3.283   5.395   5.875
 2450SOL    HW1 8249   3.264   5.297   5.880
 2450SOL    HW2 8250   3.198   5.445   5.859
 2451SOL     OW 8251   1.596   0.054   3.633
 2451SOL    HW1 8252   1.512   0.078   3.682
 2451SOL    HW2 8253   1.600   6.980   3.619
 2452SOL     OW 8254   3.450   1.663   3.724
 2452SOL    HW1 8255   3.423   1.576   3.765
 2452SOL    HW2 8256   3.543   1.656   3.689
 2453SOL     OW 8257   6.975   3.481   0.486
 2453SOL    HW1 8258   6.947   3.514   0.396
 2453SOL    HW2 8259   6.976   3.381   0.486
 2454SOL     OW 8260   3.467   0.435   6.284
 2454SOL    HW1 8261   3.394   0.457   6.349
 2454SOL    HW2 8262   3.479   0.511   6.220
 2455SOL     OW 8263   4.179   0.478   0.751
 2455SOL    HW1 8264   4.216   0.400   0.699
 2455SOL    HW2 8265   4.208   0.471   0.846
 2456SOL     OW 8266   6.246   2.417   0.197
 2456SOL    HW1 8267   6.292   2.506   0.203
 2456SOL    HW2 8268   6.173   2.413   0.264
 2457SOL     OW 8269   6.165   0.268   6.939
 2457SOL    HW1 8270   6.223   0.313   7.007
 2457SOL    HW2 8271   6.083   0.323   6.922
 2458SOL     OW 8272   1.679   6.014   4.060
 2458SOL    HW1 8273   1.631   6.054   4.138
 2458SOL    HW2 8274   1.750   6.076   4.028
 2459SOL     OW 8275   2.560   6.041   6.026
 2459SOL    HW1 8276   2.581   6.045   5.928
 2459SOL    HW2 8277   2.609   6.114   6.073
 2460SOL     OW 8278   1.478   1.421   1.570
 2460SOL    HW1 8279   1.452   1.333   1.610
 2460SOL    HW2 8280   1.523   1.406   1.482
 2461SOL     OW 8281   4.597   0.838   3.297
 2461SOL    HW1 8282   4.696   0.844   3.311
 2461SOL    HW2 8283   4.578   0.826   3.199
 2462SOL     OW 8284   1.456   5.109   6.654
 2462SOL    HW1 8285   1.441   5.205   6.628
 2462SOL    HW2 8286   1.544   5.100   6.700
 2463SOL     OW 8287   6.506   1.730   6.137
 2463SOL    HW1 8288   6.568   1.801   6.171
 2463SOL    HW2 8289   6.428   1.722   6.200
 2464SOL     OW 8290   2.166   4.167   2.506
 2464SOL    HW1 8291   2.167   4.147   2.604
 2464SOL    HW2 8292   2.186   4.084   2.455
 2465SOL     OW 8293   0.614   0.265   0.714
 2465SOL    HW1 8294   0.594   0.361   0.696
 2465SOL    HW2 8295   0.638   0.219   0.628
 2466SOL     OW 8296   2.590   1.674   3.137
 2466SOL    HW1 8297   2.565   1.764   3.103
 2466SOL    HW2 8298   2.659   1.683   3.209
 2467SOL     OW 8299   4.904   1.389   5.276
 2467SOL    HW1 8300   4.894   1.448   5.357
 2467SOL    HW2 8301   4.830   1.323   5.274
 2468SOL     OW 8302   4.412   6.595   1.807
 2468SOL    HW1 8303   4.412   6.691   1.835
 2468SOL    HW2 8304   4.322   6.571   1.771
 2469SOL     OW 8305   4.353   3.642   5.906
 2469SOL    HW1 8306   4.358   3.682   5.815
 2469SOL    HW2 8307   4.363   3.713   5.975
 2470SOL     OW 8308   4.235   4.326   6.250
 2470SOL    HW1 8309   4.139   4.340   6.274
 2470SOL    HW2 8310   4.242   4.304   6.152
 2471SOL     OW 8311   2.473   5.946   0.539
 2471SOL    HW1 8312   2.536   5.974   0.467
 2471SOL    HW2 8313   2.420   6.025   0.570
 2472SOL     OW 8314   4.940   2.649   4.178
 2472SOL    HW1 8315   4.918   2.585   4.104
 2472SOL    HW2 8316   4.975   2.598   4.256
 2473SOL     OW 8317   1.617   3.885   4.891
 2473SOL    HW1 8318   1.636   3.935   4.975
 2473SOL    HW2 8319   1.698   3.833   4.864
 2474SOL     OW 8320   0.514   5.389   0.936
 2474SOL    HW1 8321   0.480   5.347   1.020
 2474SOL    HW2 8322   0.600   5.435   0.954
 2475SOL     OW 8323   4.532   0.977   2.358
 2475SOL    HW1 8324   4.439   0.947   2.379
 2475SOL    HW2 8325   4.533   1.024   2.270
 2476SOL     OW 8326   6.858   1.476   3.207
 2476SOL    HW1 8327   6.786   1.488   3.139
 2476SOL    HW2 8328   6.944   1.453   3.161
 2477SOL     OW 8329   4.433   1.263   2.139
 2477SOL    HW1 8330   4.493   1.319   2.197
 2477SOL    HW2 8331   4.375   1.323   2.083
 2478SOL     OW 8332   6.320   1.066   2.058
 2478SOL    HW1 8333   6.279   1.154   2.031
 2478SOL    HW2 8334   6.375   1.030   1.982
 2479SOL     OW 8335   1.568   3.813   1.326
 2479SOL    HW1 8336   1.667   3.817   1.314
 2479SOL    HW2 8337   1.524   3.803   1.237
 2480SOL     OW 8338   4.784   4.316   0.993
 2480SOL    HW1 8339   4.783   4.324   0.893
 2480SOL    HW2 8340   4.690   4.310   1.027
 2481SOL     OW 8341   2.322   0.650   0.613
 2481SOL    HW1 8342   2.268   0.623   0.693
 2481SOL    HW2 8343   2.322   0.749   0.605
 2482SOL     OW 8344   4.929   3.509   6.334
 2482SOL    HW1 8345   4.852   3.511   6.398
 2482SOL    HW2 8346   4.925   3.425   6.280
 2483SOL     OW 8347   2.085   1.501   0.057
 2483SOL    HW1 8348   2.003   1.498   0.114
 2483SOL    HW2 8349   2.134   1.587   0.075
 2484SOL     OW 8350   3.580   1.047   0.198
 2484SOL    HW1 8351   3.543   1.018   0.286
 2484SOL    HW2 8352   3.548   0.985   0.126
 2485SOL     OW 8353   6.329   3.856   1.412
 2485SOL    HW1 8354   6.418   3.825   1.379
 2485SOL    HW2 8355   6.329   3.956   1.420
 2486SOL     OW 8356   1.833   4.811   4.148
 2486SOL    HW1 8357   1.921   4.823   4.102
 2486SOL    HW2 8358   1.758   4.834   4.086
 2487SOL     OW 8359   4.159   5.839   0.222
 2487SOL    HW1 8360   4.168   5.849   0.123
 2487SOL    HW2 8361   4.209   5.759   0.252
 2488SOL     OW 8362   2.191   4.549   2.687
 2488SOL    HW1 8363   2.098   4.514   2.678
 2488SOL    HW2 8364   2.256   4.477   2.662
 2489SOL     OW 8365   1.196   5.623   2.517
 2489SOL    HW1 8366   1.225   5.553   2.452
 2489SOL    HW2 8367   1.098   5.642   2.503
 2490SOL     OW 8368   6.626   4.872   1.401
 2490SOL    HW1 8369   6.645   4.793   1.460
 2490SOL    HW2 8370   6.527   4.885   1.396
 2491SOL     OW 8371   2.702   5.502   0.997
 2491SOL    HW1 8372   2.670   5.595   0.981
 2491SOL    HW2 8373   2.708   5.486   1.096
 2492SOL     OW 8374   4.110   2.231   1.403
 2492SOL    HW1 8375   4.030   2.268   1.450
 2492SOL    HW2 8376   4.099   2.243   1.305
 2493SOL     OW 8377   5.902   1.129   1.631
 2493SOL    HW1 8378   5.821   1.071   1.627
 2493SOL    HW2 8379   5.969   1.089   1.693
 2494SOL     OW 8380   5.809   3.821   2.070
 2494SOL    HW1 8381   5.851   3.742   2.113
 2494SOL    HW2 8382   5.713   3.801   2.049
 2495SOL     OW 8383   5.386   0.229   4.378
 2495SOL    HW1 8384   5.442   0.302   4.338
 2495SOL    HW2 8385   5.419   0.209   4.470
 2496SOL     OW 8386   0.033   3.793   5.617
 2496SOL    HW1 8387   0.088   3.805   5.699
 2496SOL    HW2 8388   6.965   3.764   5.643
 2497SOL     OW 8389   0.580   0.535   0.776
 2497SOL    HW1 8390   0.513   0.534   0.851
 2497SOL    HW2 8391   0.573   0.621   0.726
 2498SOL     OW 8392   2.993   0.998   4.479
 2498SOL    HW1 8393   3.092   0.990   4.466
 2498SOL    HW2 8394   2.972   1.087   4.520
 2499SOL     OW 8395   5.887   2.216   3.310
 2499SOL    HW1 8396   5.920   2.157   3.236
 2499SOL    HW2 8397   5.843   2.160   3.380
 2500SOL     OW 8398   4.729   2.795   0.330
 2500SOL    HW1 8399   4.820   2.826   0.360
 2500SOL    HW2 8400   4.730   2.696   0.319
 2501SOL     OW 8401   5.898   5.230   6.845
 2501SOL    HW1 8402   5.907   5.200   6.750
 2501SOL    HW2 8403   5.838   5.167   6.894
 2502SOL     OW 8404   1.815   5.358   3.381
 2502SOL    HW1 8405   1.756   5.437   3.393
 2502SOL    HW2 8406   1.843   5.351   3.285
 2503SOL     OW 8407   3.283   5.675   4.562
 2503SOL    HW1 8408   3.184   5.681   4.563
 2503SOL    HW2 8409   3.314   5.625   4.643
 2504SOL     OW 8410   3.498   5.147   4.810
 2504SOL    HW1 8411   3.461   5.121   4.721
 2504SOL    HW2 8412   3.588   5.188   4.798
 2505SOL     OW 8413   1.555   6.200   3.771
 2505SOL    HW1 8414   1.459   6.230   3.772
 2505SOL    HW2 8415   1.614   6.277   3.795
 2506SOL     OW 8416   6.843   3.718   5.274
 2506SOL    HW1 8417   6.785   3.710   5.356
 2506SOL    HW2 8418   6.922   3.776   5.294
 2507SOL     OW 8419   0.925   4.408   1.028
 2507SOL    HW1 8420   0.989   4.331   1.022
 2507SOL    HW2 8421   0.953   4.469   1.102
 2508SOL     OW 8422   2.112   1.521   2.465
 2508SOL    HW1 8423   2.190   1.466   2.497
 2508SOL    HW2 8424   2.144   1.587   2.397
 2509SOL     OW 8425   7.016   2.526   2.166
 2509SOL    HW1 8426   6.962   2.596   2.118
 2509SOL    HW2 8427   0.088   2.535   2.140
 2510SOL     OW 8428   3.268   4.433   1.437
 2510SOL    HW1 8429   3.248   4.358   1.374
 2510SOL    HW2 8430   3.222   4.416   1.524
 2511SOL     OW 8431   2.688   1.437   3.789
 2511SOL    HW1 8432   2.740   1.414   3.871
 2511SOL    HW2 8433   2.681   1.357   3.730
 2512SOL     OW 8434   4.915   4.637   5.203
 2512SOL    HW1 8435   4.843   4.570   5.222
 2512SOL    HW2 8436   4.999   4.590   5.176
 2513SOL     OW 8437   0.904   4.075   4.419
 2513SOL    HW1 8438   0.970   4.110   4.354
 2513SOL    HW2 8439   0.878   3.981   4.394
 2514SOL     OW 8440   6.589   3.580   4.074
 2514SOL    HW1 8441   6.517   3.635   4.032
 2514SOL    HW2 8442   6.615   3.622   4.161
 2515SOL     OW 8443   1.273   6.343   0.453
 2515SOL    HW1 8444   1.229   6.414   0.508
 2515SOL    HW2 8445   1.315   6.276   0.514
 2516SOL     OW 8446   6.305   0.722   2.957
 2516SOL    HW1 8447   6.333   0.789   3.026
 2516SOL    HW2 8448   6.250   0.768   2.887
 2517SOL     OW 8449   0.830   5.668   5.982
 2517SOL    HW1 8450   0.747   5.721   5.997
 2517SOL    HW2 8451   0.819   5.609   5.902
 2518SOL     OW 8452   1.083   4.185   0.136
 2518SOL    HW1 8453   1.045   4.173   0.227
 2518SOL    HW2 8454   1.173   4.142   0.131
 2519SOL     OW 8455   5.154   6.846   3.823
 2519SOL    HW1 8456   5.059   6.853   3.853
 2519SOL    HW2 8457   5.204   6.929   3.848
 2520SOL     OW 8458   2.275   2.184   6.452
 2520SOL    HW1 8459   2.281   2.102   6.508
 2520SOL    HW2 8460   2.250   2.159   6.358
 2521SOL     OW 8461   1.160   0.124   4.927
 2521SOL    HW1 8462   1.152   0.067   4.845
 2521SOL    HW2 8463   1.163   0.067   5.008
 2522SOL     OW 8464   0.542   3.112   5.663
 2522SOL    HW1 8465   0.532   3.211   5.654
 2522SOL    HW2 8466   0.461   3.067   5.626
 2523SOL     OW 8467   0.342   2.817   1.846
 2523SOL    HW1 8468   0.433   2.778   1.840
 2523SOL    HW2 8469   0.298   2.813   1.756
 2524SOL     OW 8470   0.744   5.985   5.564
 2524SOL    HW1 8471   0.765   5.961   5.659
 2524SOL    HW2 8472   0.646   5.973   5.549
 2525SOL     OW 8473   0.827   2.270   4.637
 2525SOL    HW1 8474   0.809   2.174   4.615
 2525SOL    HW2 8475   0.756   2.327   4.595
 2526SOL     OW 8476   1.484   4.422   5.335
 2526SOL    HW1 8477   1.464   4.408   5.432
 2526SOL    HW2 8478   1.577   4.391   5.316
 2527SOL     OW 8479   5.226   5.868   4.823
 2527SOL    HW1 8480   5.288   5.879   4.745
 2527SOL    HW2 8481   5.279   5.845   4.905
 2528SOL     OW 8482   5.573   4.710   1.196
 2528SOL    HW1 8483   5.625   4.727   1.280
 2528SOL    HW2 8484   5.603   4.625   1.155
 2529SOL     OW 8485   6.788   6.795   6.466
 2529SOL    HW1 8486   6.788   6.893   6.489
 2529SOL    HW2 8487   6.863   6.776   6.403
 2530SOL     OW 8488   2.286   6.993   4.690
 2530SOL    HW1 8489   2.283   6.998   4.590
 2530SOL    HW2 8490   2.210   0.021   4.728
 2531SOL     OW 8491   4.906   6.059   4.301
 2531SOL    HW1 8492   4.871   5.966   4.305
 2531SOL    HW2 8493   4.992   6.064   4.351
 2532SOL     OW 8494   0.670   6.634   0.339
 2532SOL    HW1 8495   0.744   6.603   0.279
 2532SOL    HW2 8496   0.592   6.661   0.283
 2533SOL     OW 8497   2.805   0.258   2.947
 2533SOL    HW1 8498   2.790   0.357   2.947
 2533SOL    HW2 8499   2.892   0.237   2.902
 2534SOL     OW 8500   3.236   1.024   2.909
 2534SOL    HW1 8501   3.265   0.929   2.908
 2534SOL    HW2 8502   3.193   1.045   2.996
 2535SOL     OW 8503   3.269   2.779   5.969
 2535SOL    HW1 8504   3.289   2.699   6.025
 2535SOL    HW2 8505   3.179   2.815   5.992
 2536SOL     OW 8506   0.178   1.991   4.702
 2536SOL    HW1 8507   0.150   2.049   4.779
 2536SOL    HW2 8508   0.179   2.045   4.618
 2537SOL     OW 8509   4.605   0.089   6.239
 2537SOL    HW1 8510   4.546   0.166   6.213
 2537SOL    HW2 8511   4.548   0.010   6.260
 2538SOL     OW 8512   1.432   5.190   4.731
 2538SOL    HW1 8513   1.418   5.263   4.665
 2538SOL    HW2 8514   1.353   5.183   4.791
 2539SOL     OW 8515   5.034   1.007   5.578
 2539SOL    HW1 8516   4.965   1.014   5.650
 2539SOL    HW2 8517   4.990   0.976   5.493
 2540SOL     OW 8518   3.935   1.185   2.470
 2540SOL    HW1 8519   3.937   1.243   2.551
 2540SOL    HW2 8520   4.021   1.135   2.463
 2541SOL     OW 8521   2.006   6.838   5.297
 2541SOL    HW1 8522   1.989   6.740   5.286
 2541SOL    HW2 8523   2.017   6.859   5.394
 2542SOL     OW 8524   4.608   1.133   6.006
 2542SOL    HW1 8525   4.573   1.167   5.919
 2542SOL    HW2 8526   4.695   1.177   6.027
 2543SOL     OW 8527   1.706   1.725   2.786
 2543SOL    HW1 8528   1.752   1.754   2.702
 2543SOL    HW2 8529   1.743   1.638   2.816
 2544SOL     OW 8530   0.202   5.569   1.259
 2544SOL    HW1 8531   0.133   5.550   1.189
 2544SOL    HW2 8532   0.160   5.569   1.349
 2545SOL     OW 8533   1.963   0.655   1.686
 2545SOL    HW1 8534   1.923   0.744   1.664
 2545SOL    HW2 8535   2.027   0.629   1.613
 2546SOL     OW 8536   0.579   1.916   1.678
 2546SOL    HW1 8537   0.506   1.975   1.711
 2546SOL    HW2 8538   0.661   1.971   1.660
 2547SOL     OW 8539   5.913   3.524   0.256
 2547SOL    HW1 8540   5.933   3.513   0.353
 2547SOL    HW2 8541   5.886   3.618   0.237
 2548SOL     OW 8542   2.699   6.507   5.827
 2548SOL    HW1 8543   2.623   6.442   5.832
 2548SOL    HW2 8544   2.686   6.566   5.747
 2549SOL     OW 8545   1.904   0.309   1.233
 2549SOL    HW1 8546   1.913   0.252   1.151
 2549SOL    HW2 8547   1.933   0.402   1.212
 2550SOL     OW 8548   6.627   0.828   6.129
 2550SOL    HW1 8549   6.559   0.806   6.199
 2550SOL    HW2 8550   6.595   0.907   6.076
 2551SOL     OW 8551   3.521   5.365   0.098
 2551SOL    HW1 8552   3.566   5.452   0.077
 2551SOL    HW2 8553   3.546   5.336   0.190
 2552SOL     OW 8554   1.774   5.386   6.559
 2552SOL    HW1 8555   1.844   5.383   6.630
 2552SOL    HW2 8556   1.792   5.314   6.492
 2553SOL     OW 8557   4.235   3.144   6.886
 2553SOL    HW1 8558   4.222   3.109   6.978
 2553SOL    HW2 8559   4.306   3.091   6.840
 2554SOL     OW 8560   1.725   6.357   6.798
 2554SOL    HW1 8561   1.730   6.412   6.715
 2554SOL    HW2 8562   1.696   6.414   6.875
 2555SOL     OW 8563   6.096   6.491   6.805
 2555SOL    HW1 8564   6.090   6.393   6.785
 2555SOL    HW2 8565   6.115   6.541   6.721
 2556SOL     OW 8566   4.552   5.206   0.148
 2556SOL    HW1 8567   4.494   5.135   0.109
 2556SOL    HW2 8568   4.640   5.166   0.175
 2557SOL     OW 8569   2.755   2.766   6.446
 2557SOL    HW1 8570   2.816   2.845   6.443
 2557SOL    HW2 8571   2.808   2.683   6.458
 2558SOL     OW 8572   4.367   2.971   5.606
 2558SOL    HW1 8573   4.319   2.964   5.518
 2558SOL    HW2 8574   4.327   2.906   5.671
 2559SOL     OW 8575   6.473   3.389   4.239
 2559SOL    HW1 8576   6.384   3.344   4.243
 2559SOL    HW2 8577   6.484   3.432   4.149
 2560SOL     OW 8578   5.860   3.368   4.170
 2560SOL    HW1 8579   5.877   3.274   4.143
 2560SOL    HW2 8580   5.764   3.380   4.194
 2561SOL     OW 8581   2.515   6.987   4.019
 2561SOL    HW1 8582   2.518   6.931   4.101
 2561SOL    HW2 8583   2.513   0.059   4.044
 2562SOL     OW 8584   1.558   5.963   2.432
 2562SOL    HW1 8585   1.591   5.926   2.345
 2562SOL    HW2 8586   1.628   6.022   2.472
 2563SOL     OW 8587   4.065   2.089   6.627
 2563SOL    HW1 8588   4.089   2.108   6.722
 2563SOL    HW2 8589   4.141   2.115   6.567
 2564SOL     OW 8590   1.518   6.581   6.269
 2564SOL    HW1 8591   1.436   6.599   6.215
 2564SOL    HW2 8592   1.538   6.483   6.269
 2565SOL     OW 8593   6.952   0.643   0.618
 2565SOL    HW1 8594   6.935   0.555   0.574
 2565SOL    HW2 8595   0.021   0.645   0.655
 2566SOL     OW 8596   1.259   7.005   1.238
 2566SOL    HW1 8597   1.288   0.005   1.331
 2566SOL    HW2 8598   1.224   6.911   1.238
 2567SOL     OW 8599   0.910   1.136   1.781
 2567SOL    HW1 8600   0.970   1.214   1.765
 2567SOL    HW2 8601   0.868   1.145   1.872
 2568SOL     OW 8602   3.472   6.788   6.968
 2568SOL    HW1 8603   3.395   6.825   7.020
 2568SOL    HW2 8604   3.475   6.831   6.877
 2569SOL     OW 8605   2.647   1.158   1.947
 2569SOL    HW1 8606   2.557   1.118   1.929
 2569SOL    HW2 8607   2.643   1.257   1.931
 2570SOL     OW 8608   5.613   0.864   6.861
 2570SOL    HW1 8609   5.671   0.935   6.821
 2570SOL    HW2 8610   5.663   0.777   6.864
 2571SOL     OW 8611   2.074   4.312   5.535
 2571SOL    HW1 8612   2.022   4.397   5.539
 2571SOL    HW2 8613   2.035   4.252   5.465
 2572SOL     OW 8614   2.101   5.421   0.252
 2572SOL    HW1 8615   2.162   5.471   0.191
 2572SOL    HW2 8616   2.030   5.375   0.199
 2573SOL     OW 8617   6.603   1.752   1.827
 2573SOL    HW1 8618   6.530   1.812   1.796
 2573SOL    HW2 8619   6.687   1.804   1.838
 2574SOL     OW 8620   6.267   3.495   0.191
 2574SOL    HW1 8621   6.235   3.590   0.190
 2574SOL    HW2 8622   6.200   3.436   0.148
 2575SOL     OW 8623   4.717   5.250   6.912
 2575SOL    HW1 8624   4.714   5.150   6.914
 2575SOL    HW2 8625   4.628   5.285   6.882
 2576SOL     OW 8626   3.817   6.724   4.521
 2576SOL    HW1 8627   3.826   6.625   4.533
 2576SOL    HW2 8628   3.777   6.764   4.604
 2577SOL     OW 8629   3.911   6.787   1.672
 2577SOL    HW1 8630   3.955   6.876   1.683
 2577SOL    HW2 8631   3.821   6.789   1.715
 2578SOL     OW 8632   4.919   2.077   3.902
 2578SOL    HW1 8633   5.016   2.082   3.925
 2578SOL    HW2 8634   4.878   1.996   3.946
 2579SOL     OW 8635   1.650   6.343   2.802
 2579SOL    HW1 8636   1.614   6.260   2.760
 2579SOL    HW2 8637   1.587   6.419   2.786
 2580SOL     OW 8638   2.933   3.031   6.734
 2580SOL    HW1 8639   2.952   3.056   6.829
 2580SOL    HW2 8640   2.840   3.056   6.710
 2581SOL     OW 8641   0.291   4.143   0.883
 2581SOL    HW1 8642   0.387   4.168   0.877
 2581SOL    HW2 8643   0.276   4.055   0.838
 2582SOL     OW 8644   0.713   4.361   2.133
 2582SOL    HW1 8645   0.711   4.296   2.057
 2582SOL    HW2 8646   0.717   4.310   2.219
 2583SOL     OW 8647   0.537   1.595   0.981
 2583SOL    HW1 8648   0.562   1.563   1.073
 2583SOL    HW2 8649   0.438   1.587   0.969
 2584SOL     OW 8650   4.329   5.594   0.295
 2584SOL    HW1 8651   4.255   5.541   0.339
 2584SOL    HW2 8652   4.337   5.567   0.200
 2585SOL     OW 8653   4.986   2.493   1.134
 2585SOL    HW1 8654   5.064   2.528   1.083
 2585SOL    HW2 8655   5.002   2.504   1.232
 2586SOL     OW 8656   3.517   1.239   3.595
 2586SOL    HW1 8657   3.592   1.301   3.617
 2586SOL    HW2 8658   3.502   1.239   3.496
 2587SOL     OW 8659   0.560   0.911   3.383
 2587SOL    HW1 8660   0.612   0.833   3.348
 2587SOL    HW2 8661   0.579   0.923   3.480
 2588SOL     OW 8662   4.388   0.688   5.976
 2588SOL    HW1 8663   4.465   0.741   6.011
 2588SOL    HW2 8664   4.313   0.749   5.952
 2589SOL     OW 8665   0.053   6.220   6.709
 2589SOL    HW1 8666   7.022   6.205   6.791
 2589SOL    HW2 8667   0.124   6.151   6.703
 2590SOL     OW 8668   3.318   6.049   0.844
 2590SOL    HW1 8669   3.284   6.143   0.849
 2590SOL    HW2 8670   3.418   6.049   0.840
 2591SOL     OW 8671   6.936   5.780   2.558
 2591SOL    HW1 8672   6.918   5.830   2.474
 2591SOL    HW2 8673   6.852   5.737   2.591
 2592SOL     OW 8674   3.704   6.489   1.080
 2592SOL    HW1 8675   3.749   6.406   1.113
 2592SOL    HW2 8676   3.754   6.525   1.002
 2593SOL     OW 8677   3.057   5.909   0.936
 2593SOL    HW1 8678   3.025   5.847   0.864
 2593SOL    HW2 8679   3.155   5.924   0.925
 2594SOL     OW 8680   0.947   4.958   6.123
 2594SOL    HW1 8681   1.018   5.002   6.179
 2594SOL    HW2 8682   0.860   5.005   6.139
 2595SOL     OW 8683   6.443   1.815   3.967
 2595SOL    HW1 8684   6.437   1.868   4.051
 2595SOL    HW2 8685   6.470   1.875   3.892
 2596SOL     OW 8686   4.018   1.919   1.973
 2596SOL    HW1 8687   3.998   1.958   1.883
 2596SOL    HW2 8688   4.026   1.820   1.965
 2597SOL     OW 8689   1.432   4.208   5.973
 2597SOL    HW1 8690   1.489   4.228   6.053
 2597SOL    HW2 8691   1.409   4.293   5.926
 2598SOL     OW 8692   6.171   1.255   3.698
 2598SOL    HW1 8693   6.264   1.232   3.672
 2598SOL    HW2 8694   6.112   1.175   3.683
 2599SOL     OW 8695   1.849   6.813   1.027
 2599SOL    HW1 8696   1.809   6.881   1.088
 2599SOL    HW2 8697   1.781   6.741   1.008
 2600SOL     OW 8698   5.254   3.576   4.473
 2600SOL    HW1 8699   5.336   3.520   4.459
 2600SOL    HW2 8700   5.237   3.586   4.571
 2601SOL     OW 8701   1.665   2.061   0.709
 2601SOL    HW1 8702   1.640   2.156   0.730
 2601SOL    HW2 8703   1.750   2.061   0.655
 2602SOL     OW 8704   0.595   4.145   4.191
 2602SOL    HW1 8705   0.628   4.052   4.172
 2602SOL    HW2 8706   0.673   4.208   4.193
 2603SOL     OW 8707   2.718   1.359   2.867
 2603SOL    HW1 8708   2.642   1.411   2.907
 2603SOL    HW2 8709   2.697   1.262   2.871
 2604SOL     OW 8710   4.962   1.800   3.042
 2604SOL    HW1 8711   4.893   1.870   3.056
 2604SOL    HW2 8712   4.958   1.767   2.948
 2605SOL     OW 8713   1.924   4.216   2.797
 2605SOL    HW1 8714   1.890   4.124   2.777
 2605SOL    HW2 8715   1.915   4.234   2.895
 2606SOL     OW 8716   6.171   4.413   2.088
 2606SOL    HW1 8717   6.183   4.322   2.049
 2606SOL    HW2 8718   6.255   4.441   2.135
 2607SOL     OW 8719   1.302   1.021   0.946
 2607SOL    HW1 8720   1.258   0.963   1.014
 2607SOL    HW2 8721   1.333   0.965   0.869
 2608SOL     OW 8722   4.834   4.649   1.481
 2608SOL    HW1 8723   4.751   4.600   1.507
 2608SOL    HW2 8724   4.875   4.692   1.561
 2609SOL     OW 8725   6.783   1.728   0.910
 2609SOL    HW1 8726   6.732   1.643   0.895
 2609SOL    HW2 8727   6.828   1.724   0.999
 2610SOL     OW 8728   0.810   4.532   4.618
 2610SOL    HW1 8729   0.759   4.449   4.640
 2610SOL    HW2 8730   0.760   4.612   4.652
 2611SOL     OW 8731   4.716   6.546   1.177
 2611SOL    HW1 8732   4.704   6.545   1.276
 2611SOL    HW2 8733   4.653   6.481   1.135
 2612SOL     OW 8734   6.969   0.012   6.048
 2612SOL    HW1 8735   6.999   6.941   6.054
 2612SOL    HW2 8736   6.914   0.025   5.966
 2613SOL     OW 8737   2.507   6.122   6.525
 2613SOL    HW1 8738   2.513   6.172   6.611
 2613SOL    HW2 8739   2.450   6.172   6.461
 2614SOL     OW 8740   6.848   0.939   5.824
 2614SOL    HW1 8741   6.937   0.900   5.800
 2614SOL    HW2 8742   6.817   1.000   5.751
 2615SOL     OW 8743   0.067   2.662   3.125
 2615SOL    HW1 8744   0.163   2.673   3.102
 2615SOL    HW2 8745   0.057   2.649   3.223
 2616SOL     OW 8746   3.123   3.669   5.302
 2616SOL    HW1 8747   3.206   3.702   5.258
 2616SOL    HW2 8748   3.146   3.614   5.382
 2617SOL     OW 8749   3.544   6.426   0.419
 2617SOL    HW1 8750   3.514   6.381   0.335
 2617SOL    HW2 8751   3.518   6.522   0.416
 2618SOL     OW 8752   6.980   0.508   4.422
 2618SOL    HW1 8753   6.920   0.584   4.399
 2618SOL    HW2 8754   6.983   0.444   4.345
 2619SOL     OW 8755   4.329   1.923   3.235
 2619SOL    HW1 8756   4.381   1.907   3.319
 2619SOL    HW2 8757   4.281   2.010   3.242
 2620SOL     OW 8758   6.733   0.243   3.225
 2620SOL    HW1 8759   6.707   0.188   3.304
 2620SOL    HW2 8760   6.733   0.340   3.250
 2621SOL     OW 8761   1.568   5.927   2.996
 2621SOL    HW1 8762   1.499   5.909   2.926
 2621SOL    HW2 8763   1.650   5.874   2.977
 2622SOL     OW 8764   1.653   3.409   5.279
 2622SOL    HW1 8765   1.609   3.343   5.340
 2622SOL    HW2 8766   1.744   3.431   5.315
 2623SOL     OW 8767   1.554   0.852   5.504
 2623SOL    HW1 8768   1.493   0.931   5.504
 2623SOL    HW2 8769   1.564   0.817   5.597
 2624SOL     OW 8770   6.658   1.388   5.509
 2624SOL    HW1 8771   6.576   1.389   5.451
 2624SOL    HW2 8772   6.641   1.443   5.590
 2625SOL     OW 8773   1.944   3.144   5.086
 2625SOL    HW1 8774   2.026   3.195   5.113
 2625SOL    HW2 8775   1.971   3.058   5.043
 2626SOL     OW 8776   0.718   0.522   5.679
 2626SOL    HW1 8777   0.708   0.426   5.652
 2626SOL    HW2 8778   0.694   0.580   5.601
 2627SOL     OW 8779   1.443   0.928   5.925
 2627SOL    HW1 8780   1.420   1.010   5.872
 2627SOL    HW2 8781   1.358   0.885   5.958
 2628SOL     OW 8782   1.914   4.580   5.637
 2628SOL    HW1 8783   2.005   4.612   5.611
 2628SOL    HW2 8784   1.845   4.628   5.582
 2629SOL     OW 8785   3.004   3.161   1.513
 2629SOL    HW1 8786   2.959   3.093   1.570
 2629SOL    HW2 8787   2.979   3.147   1.417
 2630SOL     OW 8788   3.248   2.088   2.616
 2630SOL    HW1 8789   3.160   2.099   2.569
 2630SOL    HW2 8790   3.299   2.174   2.612
 2631SOL     OW 8791   5.743   0.937   5.499
 2631SOL    HW1 8792   5.808   0.997   5.452
 2631SOL    HW2 8793   5.651   0.952   5.461
 2632SOL     OW 8794   4.672   2.892   6.621
 2632SOL    HW1 8795   4.759   2.856   6.586
 2632SOL    HW2 8796   4.619   2.930   6.545
 2633SOL     OW 8797   0.475   2.265   4.716
 2633SOL    HW1 8798   0.393   2.215   4.743
 2633SOL    HW2 8799   0.539   2.203   4.672
 2634SOL     OW 8800   0.520   4.781   3.396
 2634SOL    HW1 8801   0.542   4.865   3.447
 2634SOL    HW2 8802   0.448   4.731   3.443
 2635SOL     OW 8803   6.874   5.453   5.475
 2635SOL    HW1 8804   6.946   5.407   5.526
 2635SOL    HW2 8805   6.787   5.406   5.492
 2636SOL     OW 8806   4.062   0.716   5.384
 2636SOL    HW1 8807   4.048   0.792   5.321
 2636SOL    HW2 8808   3.985   0.653   5.379
 2637SOL     OW 8809   4.995   1.823   3.570
 2637SOL    HW1 8810   5.022   1.792   3.662
 2637SOL    HW2 8811   4.989   1.745   3.509
 2638SOL     OW 8812   6.879   0.177   3.697
 2638SOL    HW1 8813   6.915   0.084   3.704
 2638SOL    HW2 8814   6.893   0.211   3.603
 2639SOL     OW 8815   0.362   5.607   0.739
 2639SOL    HW1 8816   0.378   5.509   0.742
 2639SOL    HW2 8817   0.434   5.655   0.790
 2640SOL     OW 8818   0.640   6.305   5.585
 2640SOL    HW1 8819   0.679   6.301   5.677
 2640SOL    HW2 8820   0.713   6.307   5.517
 2641SOL     OW 8821   5.562   3.198   2.435
 2641SOL    HW1 8822   5.622   3.131   2.477
 2641SOL    HW2 8823   5.569   3.191   2.335
 2642SOL     OW 8824   4.744   6.478   3.767
 2642SOL    HW1 8825   4.787   6.394   3.734
 2642SOL    HW2 8826   4.811   6.551   3.769
 2643SOL     OW 8827   0.222   3.677   3.567
 2643SOL    HW1 8828   0.271   3.697   3.482
 2643SOL    HW2 8829   0.125   3.661   3.547
 2644SOL     OW 8830   5.843   6.555   5.794
 2644SOL    HW1 8831   5.792   6.608   5.726
 2644SOL    HW2 8832   5.927   6.603   5.818
 2645SOL     OW 8833   4.276   5.872   4.345
 2645SOL    HW1 8834   4.357   5.882   4.287
 2645SOL    HW2 8835   4.195   5.902   4.294
 2646SOL     OW 8836   6.232   0.738   6.655
 2646SOL    HW1 8837   6.315   0.754   6.603
 2646SOL    HW2 8838   6.238   0.650   6.703
 2647SOL     OW 8839   6.156   0.112   1.878
 2647SOL    HW1 8840   6.222   0.126   1.803
 2647SOL    HW2 8841   6.171   0.182   1.948
 2648SOL     OW 8842   0.419   0.261   4.413
 2648SOL    HW1 8843   0.350   0.333   4.416
 2648SOL    HW2 8844   0.508   0.301   4.390
 2649SOL     OW 8845   5.723   3.001   6.958
 2649SOL    HW1 8846   5.779   2.920   6.976
 2649SOL    HW2 8847   5.746   3.038   6.868
 2650SOL     OW 8848   1.464   4.599   4.143
 2650SOL    HW1 8849   1.412   4.664   4.199
 2650SOL    HW2 8850   1.410   4.516   4.130
 2651SOL     OW 8851   1.506   1.374   1.034
 2651SOL    HW1 8852   1.407   1.365   1.049
 2651SOL    HW2 8853   1.538   1.458   1.078
 2652SOL     OW 8854   4.075   3.586   4.716
 2652SOL    HW1 8855   4.104   3.571   4.621
 2652SOL    HW2 8856   4.079   3.500   4.766
 2653SOL     OW 8857   5.177   6.499   4.998
 2653SOL    HW1 8858   5.138   6.580   5.043
 2653SOL    HW2 8859   5.276   6.506   4.998
 2654SOL     OW 8860   4.291   6.277   2.391
 2654SOL    HW1 8861   4.355   6.202   2.411
 2654SOL    HW2 8862   4.330   6.363   2.424
 2655SOL     OW 8863   4.553   6.025   4.469
 2655SOL    HW1 8864   4.512   6.116   4.480
 2655SOL    HW2 8865   4.575   6.010   4.372
 2656SOL     OW 8866   3.954   5.171   4.977
 2656SOL    HW1 8867   3.914   5.081   4.960
 2656SOL    HW2 8868   3.978   5.180   5.073
 2657SOL     OW 8869   1.071   4.056   6.500
 2657SOL    HW1 8870   1.035   3.975   6.454
 2657SOL    HW2 8871   1.023   4.137   6.466
 2658SOL     OW 8872   4.965   4.525   1.186
 2658SOL    HW1 8873   5.065   4.514   1.184
 2658SOL    HW2 8874   4.923   4.439   1.213
 2659SOL     OW 8875   5.325   3.016   4.433
 2659SOL    HW1 8876   5.227   3.021   4.414
 2659SOL    HW2 8877   5.340   3.026   4.531
 2660SOL     OW 8878   1.819   0.215   1.680
 2660SOL    HW1 8879   1.916   0.217   1.707
 2660SOL    HW2 8880   1.779   0.305   1.695
 2661SOL     OW 8881   2.557   0.313   1.134
 2661SOL    HW1 8882   2.484   0.263   1.180
 2661SOL    HW2 8883   2.517   0.372   1.063
 2662SOL     OW 8884   5.157   6.685   4.745
 2662SOL    HW1 8885   5.172   6.659   4.840
 2662SOL    HW2 8886   5.066   6.726   4.735
 2663SOL     OW 8887   2.773   3.837   6.780
 2663SOL    HW1 8888   2.804   3.887   6.860
 2663SOL    HW2 8889   2.686   3.792   6.800
 2664SOL     OW 8890   4.314   3.680   5.298
 2664SOL    HW1 8891   4.312   3.581   5.286
 2664SOL    HW2 8892   4.408   3.712   5.300
 2665SOL     OW 8893   2.607   2.829   5.352
 2665SOL    HW1 8894   2.602   2.734   5.319
 2665SOL    HW2 8895   2.553   2.888   5.292
 2666SOL     OW 8896   5.955   4.775   1.255
 2666SOL    HW1 8897   6.053   4.762   1.237
 2666SOL    HW2 8898   5.922   4.702   1.314
 2667SOL     OW 8899   0.206   6.065   4.476
 2667SOL    HW1 8900   0.120   6.076   4.426
 2667SOL    HW2 8901   0.229   5.968   4.483
 2668SOL     OW 8902   6.901   3.139   4.927
 2668SOL    HW1 8903   6.826   3.079   4.956
 2668SOL    HW2 8904   6.882   3.171   4.834
 2669SOL     OW 8905   2.680   4.410   5.338
 2669SOL    HW1 8906   2.734   4.463   5.273
 2669SOL    HW2 8907   2.706   4.314   5.334
 2670SOL     OW 8908   5.410   3.169   6.074
 2670SOL    HW1 8909   5.360   3.243   6.029
 2670SOL    HW2 8910   5.438   3.101   6.006
 2671SOL     OW 8911   4.171   5.539   6.064
 2671SOL    HW1 8912   4.199   5.601   6.136
 2671SOL    HW2 8913   4.232   5.460   6.062
 2672SOL     OW 8914   1.792   5.196   0.623
 2672SOL    HW1 8915   1.867   5.198   0.690
 2672SOL    HW2 8916   1.791   5.107   0.578
 2673SOL     OW 8917   5.940   1.210   2.485
 2673SOL    HW1 8918   5.893   1.279   2.429
 2673SOL    HW2 8919   5.926   1.120   2.444
 2674SOL     OW 8920   1.245   4.260   3.750
 2674SOL    HW1 8921   1.252   4.193   3.824
 2674SOL    HW2 8922   1.318   4.243   3.683
 2675SOL     OW 8923   6.207   4.940   3.951
 2675SOL    HW1 8924   6.257   4.916   4.034
 2675SOL    HW2 8925   6.134   5.005   3.973
 2676SOL     OW 8926   3.616   2.277   0.865
 2676SOL    HW1 8927   3.644   2.271   0.769
 2676SOL    HW2 8928   3.677   2.339   0.914
 2677SOL     OW 8929   2.699   3.878   0.475
 2677SOL    HW1 8930   2.692   3.779   0.458
 2677SOL    HW2 8931   2.607   3.918   0.475
 2678SOL     OW 8932   0.246   2.871   1.583
 2678SOL    HW1 8933   0.173   2.906   1.641
 2678SOL    HW2 8934   0.271   2.940   1.515
 2679SOL     OW 8935   2.360   4.086   1.464
 2679SOL    HW1 8936   2.395   4.165   1.513
 2679SOL    HW2 8937   2.328   4.115   1.373
 2680SOL     OW 8938   1.169   1.459   0.205
 2680SOL    HW1 8939   1.132   1.367   0.210
 2680SOL    HW2 8940   1.197   1.489   0.296
 2681SOL     OW 8941   1.183   2.912   4.182
 2681SOL    HW1 8942   1.085   2.894   4.186
 2681SOL    HW2 8943   1.224   2.895   4.272
 2682SOL     OW 8944   4.831   4.090   3.056
 2682SOL    HW1 8945   4.868   3.998   3.047
 2682SOL    HW2 8946   4.801   4.105   3.150
 2683SOL     OW 8947   2.766   5.331   1.488
 2683SOL    HW1 8948   2.733   5.249   1.441
 2683SOL    HW2 8949   2.701   5.356   1.560
 2684SOL     OW 8950   4.472   5.410   1.676
 2684SOL    HW1 8951   4.524   5.442   1.756
 2684SOL    HW2 8952   4.479   5.310   1.669
 2685SOL     OW 8953   5.788   6.345   6.496
 2685SOL    HW1 8954   5.781   6.440   6.526
 2685SOL    HW2 8955   5.727   6.288   6.552
 2686SOL     OW 8956   1.886   1.788   5.633
 2686SOL    HW1 8957   1.806   1.743   5.593
 2686SOL    HW2 8958   1.969   1.748   5.593
 2687SOL     OW 8959   4.965   5.023   1.338
 2687SOL    HW1 8960   4.938   4.950   1.275
 2687SOL    HW2 8961   4.892   5.091   1.343
 2688SOL     OW 8962   3.695   3.730   0.272
 2688SOL    HW1 8963   3.756   3.696   0.200
 2688SOL    HW2 8964   3.738   3.716   0.361
 2689SOL     OW 8965   1.413   4.186   3.563
 2689SOL    HW1 8966   1.366   4.201   3.476
 2689SOL    HW2 8967   1.464   4.100   3.559
 2690SOL     OW 8968   3.717   3.025   4.470
 2690SOL    HW1 8969   3.724   2.983   4.560
 2690SOL    HW2 8970   3.656   2.970   4.412
 2691SOL     OW 8971   1.791   5.488   2.768
 2691SOL    HW1 8972   1.786   5.429   2.848
 2691SOL    HW2 8973   1.703   5.534   2.755
 2692SOL     OW 8974   3.132   5.258   2.790
 2692SOL    HW1 8975   3.065   5.328   2.764
 2692SOL    HW2 8976   3.122   5.179   2.730
 2693SOL     OW 8977   2.218   5.270   3.498
 2693SOL    HW1 8978   2.169   5.210   3.434
 2693SOL    HW2 8979   2.166   5.355   3.510
 2694SOL     OW 8980   3.613   5.941   3.000
 2694SOL    HW1 8981   3.705   5.905   3.016
 2694SOL    HW2 8982   3.546   5.869   3.016
 2695SOL     OW 8983   5.517   0.318   1.934
 2695SOL    HW1 8984   5.501   0.382   2.008
 2695SOL    HW2 8985   5.605   0.272   1.947
 2696SOL     OW 8986   3.968   3.268   5.747
 2696SOL    HW1 8987   4.037   3.340   5.735
 2696SOL    HW2 8988   3.888   3.288   5.690
 2697SOL     OW 8989   3.445   1.395   2.781
 2697SOL    HW1 8990   3.405   1.414   2.871
 2697SOL    HW2 8991   3.454   1.480   2.730
 2698SOL     OW 8992   1.800   6.108   0.395
 2698SOL    HW1 8993   1.806   6.053   0.312
 2698SOL    HW2 8994   1.793   6.048   0.475
 2699SOL     OW 8995   2.311   6.138   0.325
 2699SOL    HW1 8996   2.220   6.095   0.333
 2699SOL    HW2 8997   2.339   6.172   0.415
 2700SOL     OW 8998   2.515   3.238   0.070
 2700SOL    HW1 8999   2.559   3.174   0.006
 2700SOL    HW2 9000   2.529   3.332   0.038
 2701SOL     OW 9001   5.600   1.402   5.708
 2701SOL    HW1 9002   5.649   1.480   5.746
 2701SOL    HW2 9003   5.572   1.341   5.782
 2702SOL     OW 9004   0.657   2.996   3.202
 2702SOL    HW1 9005   0.613   2.953   3.281
 2702SOL    HW2 9006   0.746   3.032   3.228
 2703SOL     OW 9007   0.958   6.698   1.323
 2703SOL    HW1 9008   0.938   6.779   1.379
 2703SOL    HW2 9009   0.916   6.617   1.365
 2704SOL     OW 9010   6.714   5.350   1.732
 2704SOL    HW1 9011   6.774   5.305   1.798
 2704SOL    HW2 9012   6.763   5.361   1.645
 2705SOL     OW 9013   0.115   5.632   4.976
 2705SOL    HW1 9014   0.195   5.581   4.943
 2705SOL    HW2 9015   0.035   5.573   4.975
 2706SOL     OW 9016   6.763   5.237   2.487
 2706SOL    HW1 9017   6.739   5.251   2.391
 2706SOL    HW2 9018   6.756   5.140   2.510
 2707SOL     OW 9019   4.033   6.993   3.947
 2707SOL    HW1 9020   3.967   0.040   3.925
 2707SOL    HW2 9021   4.064   6.949   3.863
 2708SOL     OW 9022   0.499   2.498   0.474
 2708SOL    HW1 9023   0.511   2.576   0.537
 2708SOL    HW2 9024   0.548   2.419   0.511
 2709SOL     OW 9025   5.419   0.051   6.863
 2709SOL    HW1 9026   5.439   0.073   6.958
 2709SOL    HW2 9027   5.488   7.012   6.828
 2710SOL     OW 9028   0.678   3.823   3.783
 2710SOL    HW1 9029   0.675   3.780   3.693
 2710SOL    HW2 9030   0.624   3.908   3.782
 2711SOL     OW 9031   2.262   0.781   3.455
 2711SOL    HW1 9032   2.251   0.862   3.512
 2711SOL    HW2 9033   2.324   0.717   3.501
 2712SOL     OW 9034   2.981   4.524   1.192
 2712SOL    HW1 9035   2.995   4.432   1.155
 2712SOL    HW2 9036   2.978   4.520   1.292
 2713SOL     OW 9037   2.519   2.561   4.725
 2713SOL    HW1 9038   2.556   2.627   4.659
 2713SOL    HW2 9039   2.587   2.490   4.744
 2714SOL     OW 9040   3.515   2.735   0.154
 2714SOL    HW1 9041   3.535   2.715   0.058
 2714SOL    HW2 9042   3.421   2.707   0.175
 2715SOL     OW 9043   4.956   1.729   1.166
 2715SOL    HW1 9044   4.883   1.720   1.099
 2715SOL    HW2 9045   4.917   1.752   1.255
 2716SOL     OW 9046   5.217   3.831   2.297
 2716SOL    HW1 9047   5.132   3.884   2.296
 2716SOL    HW2 9048   5.203   3.745   2.345
 2717SOL     OW 9049   0.899   6.642   2.673
 2717SOL    HW1 9050   0.985   6.650   2.623
 2717SOL    HW2 9051   0.893   6.551   2.714
 2718SOL     OW 9052   1.393   1.679   5.198
 2718SOL    HW1 9053   1.400   1.687   5.098
 2718SOL    HW2 9054   1.345   1.595   5.221
 2719SOL     OW 9055   0.417   5.065   1.573
 2719SOL    HW1 9056   0.451   5.109   1.657
 2719SOL    HW2 9057   0.325   5.099   1.553
 2720SOL     OW 9058   1.944   5.518   2.026
 2720SOL    HW1 9059   1.850   5.548   2.010
 2720SOL    HW2 9060   2.003   5.599   2.031
 2721SOL     OW 9061   2.698   0.209   3.468
 2721SOL    HW1 9062   2.756   0.197   3.387
 2721SOL    HW2 9063   2.736   0.282   3.525
 2722SOL     OW 9064   6.750   5.322   0.631
 2722SOL    HW1 9065   6.732   5.369   0.545
 2722SOL    HW2 9066   6.823   5.255   0.618
 2723SOL     OW 9067   0.552   0.184   6.581
 2723SOL    HW1 9068   0.514   0.099   6.544
 2723SOL    HW2 9069   0.613   0.226   6.514
 2724SOL     OW 9070   1.955   6.773   0.070
 2724SOL    HW1 9071   1.901   6.851   0.036
 2724SOL    HW2 9072   2.003   6.730   7.018
 2725SOL     OW 9073   5.118   4.333   4.485
 2725SOL    HW1 9074   5.074   4.353   4.573
 2725SOL    HW2 9075   5.069   4.382   4.413
 2726SOL     OW 9076   0.545   2.247   0.865
 2726SOL    HW1 9077   0.508   2.211   0.780
 2726SOL    HW2 9078   0.604   2.179   0.908
 2727SOL     OW 9079   0.096   5.209   3.024
 2727SOL    HW1 9080   0.149   5.294   3.029
 2727SOL    HW2 9081   0.002   5.230   2.996
 2728SOL     OW 9082   4.722   6.600   5.891
 2728SOL    HW1 9083   4.656   6.607   5.817
 2728SOL    HW2 9084   4.718   6.682   5.948
 2729SOL     OW 9085   0.044   6.241   0.595
 2729SOL    HW1 9086   7.014   6.198   0.522
 2729SOL    HW2 9087   0.098   6.316   0.556
 2730SOL     OW 9088   1.764   5.900   1.487
 2730SOL    HW1 9089   1.671   5.899   1.525
 2730SOL    HW2 9090   1.827   5.863   1.555
 2731SOL     OW 9091   3.435   4.119   3.044
 2731SOL    HW1 9092   3.524   4.075   3.055
 2731SOL    HW2 9093   3.448   4.217   3.029
 2732SOL     OW 9094   5.432   2.722   1.555
 2732SOL    HW1 9095   5.486   2.788   1.607
 2732SOL    HW2 9096   5.335   2.733   1.577
 2733SOL     OW 9097   6.614   1.542   4.500
 2733SOL    HW1 9098   6.628   1.488   4.417
 2733SOL    HW2 9099   6.565   1.626   4.477
 2734SOL     OW 9100   3.047   5.766   1.160
 2734SOL    HW1 9101   3.026   5.821   1.080
 2734SOL    HW2 9102   2.974   5.776   1.228
 2735SOL     OW 9103   1.094   3.709   1.663
 2735SOL    HW1 9104   1.111   3.778   1.593
 2735SOL    HW2 9105   1.169   3.644   1.665
 2736SOL     OW 9106   5.885   6.731   4.742
 2736SOL    HW1 9107   5.968   6.784   4.726
 2736SOL    HW2 9108   5.901   6.663   4.813
 2737SOL     OW 9109   3.109   3.452   5.969
 2737SOL    HW1 9110   3.059   3.531   6.005
 2737SOL    HW2 9111   3.051   3.404   5.903
 2738SOL     OW 9112   5.025   6.574   2.068
 2738SOL    HW1 9113   4.962   6.500   2.044
 2738SOL    HW2 9114   5.046   6.627   1.986
 2739SOL     OW 9115   0.683   4.229   1.560
 2739SOL    HW1 9116   0.641   4.318   1.574
 2739SOL    HW2 9117   0.776   4.229   1.597
 2740SOL     OW 9118   0.195   3.781   2.451
 2740SOL    HW1 9119   0.290   3.802   2.477
 2740SOL    HW2 9120   0.179   3.813   2.358
 2741SOL     OW 9121   6.118   0.653   4.840
 2741SOL    HW1 9122   6.049   0.695   4.780
 2741SOL    HW2 9123   6.186   0.607   4.783
 2742SOL     OW 9124   2.349   5.169   0.247
 2742SOL    HW1 9125   2.295   5.229   0.305
 2742SOL    HW2 9126   2.293   5.137   0.171
 2743SOL     OW 9127   6.350   4.689   2.588
 2743SOL    HW1 9128   6.304   4.603   2.566
 2743SOL    HW2 9129   6.285   4.752   2.631
 2744SOL     OW 9130   4.873   2.091   6.809
 2744SOL    HW1 9131   4.942   2.084   6.737
 2744SOL    HW2 9132   4.785   2.113   6.768
 2745SOL     OW 9133   6.954   0.333   5.536
 2745SOL    HW1 9134   6.911   0.391   5.605
 2745SOL    HW2 9135   0.025   0.317   5.560
 2746SOL     OW 9136   2.551   1.373   4.284
 2746SOL    HW1 9137   2.521   1.387   4.190
 2746SOL    HW2 9138   2.618   1.298   4.286
 2747SOL     OW 9139   5.799   3.707   6.631
 2747SOL    HW1 9140   5.880   3.708   6.691
 2747SOL    HW2 9141   5.790   3.616   6.591
 2748SOL     OW 9142   4.945   1.491   1.773
 2748SOL    HW1 9143   5.041   1.493   1.744
 2748SOL    HW2 9144   4.892   1.553   1.715
 2749SOL     OW 9145   0.168   4.589   2.338
 2749SOL    HW1 9146   0.251   4.551   2.379
 2749SOL    HW2 9147   0.151   4.680   2.375
 2750SOL     OW 9148   0.772   4.944   1.377
 2750SOL    HW1 9149   0.855   4.888   1.385
 2750SOL    HW2 9150   0.701   4.907   1.438
 2751SOL     OW 9151   0.996   4.798   1.402
 2751SOL    HW1 9152   1.008   4.708   1.445
 2751SOL    HW2 9153   1.019   4.870   1.467
 2752SOL     OW 9154   3.980   5.488   5.548
 2752SOL    HW1 9155   3.924   5.565   5.518
 2752SOL    HW2 9156   3.972   5.478   5.647
 2753SOL     OW 9157   0.553   6.617   5.564
 2753SOL    HW1 9158   0.578   6.556   5.639
 2753SOL    HW2 9159   0.459   6.648   5.576
 2754SOL     OW 9160   0.465   0.208   1.972
 2754SOL    HW1 9161   0.412   0.266   1.911
 2754SOL    HW2 9162   0.542   0.259   2.009
 2755SOL     OW 9163   2.363   6.744   2.786
 2755SOL    HW1 9164   2.393   6.839   2.787
 2755SOL    HW2 9165   2.424   6.689   2.729
 2756SOL     OW 9166   5.901   4.931   6.309
 2756SOL    HW1 9167   5.890   4.886   6.397
 2756SOL    HW2 9168   5.872   5.026   6.316
 2757SOL     OW 9169   2.949   0.368   7.022
 2757SOL    HW1 9170   2.874   0.370   0.064
 2757SOL    HW2 9171   2.916   0.398   6.932
 2758SOL     OW 9172   3.937   6.216   3.871
 2758SOL    HW1 9173   4.015   6.267   3.904
 2758SOL    HW2 9174   3.872   6.278   3.827
 2759SOL     OW 9175   5.921   6.650   5.332
 2759SOL    HW1 9176   5.835   6.615   5.295
 2759SOL    HW2 9177   5.982   6.676   5.258
 2760SOL     OW 9178   0.986   5.887   2.037
 2760SOL    HW1 9179   1.016   5.881   2.133
 2760SOL    HW2 9180   0.914   5.820   2.020
 2761SOL     OW 9181   1.872   5.254   5.278
 2761SOL    HW1 9182   1.910   5.166   5.247
 2761SOL    HW2 9183   1.928   5.328   5.242
 2762SOL     OW 9184   1.472   0.682   4.832
 2762SOL    HW1 9185   1.466   0.685   4.932
 2762SOL    HW2 9186   1.510   0.769   4.799
 2763SOL     OW 9187   4.532   2.093   3.655
 2763SOL    HW1 9188   4.613   2.147   3.633
 2763SOL    HW2 9189   4.525   2.083   3.754
 2764SOL     OW 9190   5.897   1.030   1.355
 2764SOL    HW1 9191   5.984   0.999   1.317
 2764SOL    HW2 9192   5.913   1.069   1.446
 2765SOL     OW 9193   6.047   0.204   0.534
 2765SOL    HW1 9194   5.980   0.144   0.578
 2765SOL    HW2 9195   6.047   0.187   0.436
 2766SOL     OW 9196   4.969   3.014   0.928
 2766SOL    HW1 9197   4.906   2.940   0.904
 2766SOL    HW2 9198   5.063   2.981   0.919
 2767SOL     OW 9199   6.861   5.428   6.773
 2767SOL    HW1 9200   6.855   5.519   6.814
 2767SOL    HW2 9201   6.785   5.371   6.806
 2768SOL     OW 9202   4.298   0.618   1.181
 2768SOL    HW1 9203   4.344   0.640   1.095
 2768SOL    HW2 9204   4.344   0.540   1.224
 2769SOL     OW 9205   2.175   4.731   4.744
 2769SOL    HW1 9206   2.187   4.680   4.659
 2769SOL    HW2 9207   2.259   4.782   4.763
 2770SOL     OW 9208   4.005   5.975   6.253
 2770SOL    HW1 9209   3.923   6.025   6.225
 2770SOL    HW2 9210   4.014   5.892   6.198
 2771SOL     OW 9211   6.308   0.897   3.553
 2771SOL    HW1 9212   6.401   0.890   3.588
 2771SOL    HW2 9213   6.244   0.862   3.622
 2772SOL     OW 9214   3.696   1.863   1.063
 2772SOL    HW1 9215   3.618   1.811   1.031
 2772SOL    HW2 9216   3.665   1.935   1.125
 2773SOL     OW 9217   6.241   2.112   5.267
 2773SOL    HW1 9218   6.284   2.144   5.352
 2773SOL    HW2 9219   6.142   2.128   5.271
 2774SOL     OW 9220   5.815   2.634   2.940
 2774SOL    HW1 9221   5.881   2.695   2.984
 2774SOL    HW2 9222   5.742   2.688   2.899
 2775SOL     OW 9223   6.332   4.779   5.705
 2775SOL    HW1 9224   6.311   4.726   5.623
 2775SOL    HW2 9225   6.265   4.758   5.776
 2776SOL     OW 9226   4.491   4.889   5.882
 2776SOL    HW1 9227   4.458   4.816   5.822
 2776SOL    HW2 9228   4.523   4.966   5.826
 2777SOL     OW 9229   2.951   1.783   1.389
 2777SOL    HW1 9230   2.944   1.827   1.479
 2777SOL    HW2 9231   2.862   1.747   1.362
 2778SOL     OW 9232   1.784   0.052   5.400
 2778SOL    HW1 9233   1.791   0.012   5.491
 2778SOL    HW2 9234   1.844   0.132   5.394
 2779SOL     OW 9235   5.068   6.726   1.815
 2779SOL    HW1 9236   4.969   6.727   1.800
 2779SOL    HW2 9237   5.114   6.769   1.738
 2780SOL     OW 9238   7.016   6.838   6.906
 2780SOL    HW1 9239   0.023   6.848   6.812
 2780SOL    HW2 9240   0.020   6.749   6.942
 2781SOL     OW 9241   5.376   6.743   1.751
 2781SOL    HW1 9242   5.425   6.663   1.786
 2781SOL    HW2 9243   5.372   6.813   1.822
 2782SOL     OW 9244   5.021   2.088   5.847
 2782SOL    HW1 9245   5.013   2.086   5.946
 2782SOL    HW2 9246   5.071   2.170   5.819
 2783SOL     OW 9247   5.153   4.429   2.875
 2783SOL    HW1 9248   5.208   4.349   2.898
 2783SOL    HW2 9249   5.057   4.409   2.893
 2784SOL     OW 9250   3.242   1.507   2.293
 2784SOL    HW1 9251   3.286   1.418   2.296
 2784SOL    HW2 9252   3.232   1.543   2.386
 2785SOL     OW 9253   5.269   2.646   1.054
 2785SOL    HW1 9254   5.209   2.724   1.034
 2785SOL    HW2 9255   5.289   2.597   0.970
 2786SOL     OW 9256   4.963   0.109   2.731
 2786SOL    HW1 9257   5.028   0.154   2.670
 2786SOL    HW2 9258   4.944   0.017   2.696
 2787SOL     OW 9259   5.201   0.823   5.971
 2787SOL    HW1 9260   5.140   0.887   6.017
 2787SOL    HW2 9261   5.215   0.854   5.877
 2788SOL     OW 9262   2.157   5.299   6.050
 2788SOL    HW1 9263   2.223   5.246   6.103
 2788SOL    HW2 9264   2.069   5.301   6.097
 2789SOL     OW 9265   1.595   2.494   3.535
 2789SOL    HW1 9266   1.532   2.570   3.518
 2789SOL    HW2 9267   1.667   2.494   3.466
 2790SOL     OW 9268   3.645   5.938   2.226
 2790SOL    HW1 9269   3.710   5.986   2.166
 2790SOL    HW2 9270   3.577   5.891   2.171
 2791SOL     OW 9271   0.273   3.058   3.251
 2791SOL    HW1 9272   0.306   3.151   3.262
 2791SOL    HW2 9273   0.350   2.994   3.258
 2792SOL     OW 9274   1.449   6.900   4.019
 2792SOL    HW1 9275   1.504   6.981   3.998
 2792SOL    HW2 9276   1.504   6.837   4.074
 2793SOL     OW 9277   5.965   4.145   1.538
 2793SOL    HW1 9278   5.932   4.055   1.567
 2793SOL    HW2 9279   5.905   4.216   1.574
 2794SOL     OW 9280   0.140   2.729   6.598
 2794SOL    HW1 9281   0.162   2.704   6.692
 2794SOL    HW2 9282   0.126   2.828   6.592
 2795SOL     OW 9283   0.816   2.856   0.755
 2795SOL    HW1 9284   0.730   2.850   0.806
 2795SOL    HW2 9285   0.867   2.937   0.786
 2796SOL     OW 9286   0.189   6.185   3.536
 2796SOL    HW1 9287   0.145   6.234   3.610
 2796SOL    HW2 9288   0.119   6.149   3.474
 2797SOL     OW 9289   4.705   5.277   5.209
 2797SOL    HW1 9290   4.627   5.219   5.234
 2797SOL    HW2 9291   4.674   5.372   5.200
 2798SOL     OW 9292   0.455   5.355   2.067
 2798SOL    HW1 9293   0.482   5.344   2.163
 2798SOL    HW2 9294   0.355   5.357   2.061
 2799SOL     OW 9295   5.867   5.509   6.289
 2799SOL    HW1 9296   5.858   5.609   6.284
 2799SOL    HW2 9297   5.877   5.481   6.385
 2800SOL     OW 9298   4.660   6.463   0.326
 2800SOL    HW1 9299   4.722   6.406   0.379
 2800SOL    HW2 9300   4.639   6.419   0.239
 2801SOL     OW 9301   6.718   5.761   5.707
 2801SOL    HW1 9302   6.663   5.686   5.670
 2801SOL    HW2 9303   6.814   5.734   5.709
 2802SOL     OW 9304   5.247   0.499   4.934
 2802SOL    HW1 9305   5.202   0.446   5.006
 2802SOL    HW2 9306   5.331   0.540   4.969
 2803SOL     OW 9307   4.291   5.939   6.021
 2803SOL    HW1 9308   4.305   5.879   6.100
 2803SOL    HW2 9309   4.211   5.996   6.037
 2804SOL     OW 9310   0.152   4.532   5.429
 2804SOL    HW1 9311   0.184   4.533   5.334
 2804SOL    HW2 9312   0.226   4.500   5.489
 2805SOL     OW 9313   6.031   3.104   2.220
 2805SOL    HW1 9314   6.011   3.025   2.277
 2805SOL    HW2 9315   6.102   3.159   2.264
 2806SOL     OW 9316   0.314   3.935   5.962
 2806SOL    HW1 9317   0.291   3.991   6.041
 2806SOL    HW2 9318   0.391   3.976   5.913
 2807SOL     OW 9319   3.719   6.566   3.929
 2807SOL    HW1 9320   3.784   6.641   3.936
 2807SOL    HW2 9321   3.752   6.498   3.865
 2808SOL     OW 9322   6.479   4.697   2.051
 2808SOL    HW1 9323   6.499   4.788   2.087
 2808SOL    HW2 9324   6.444   4.638   2.124
 2809SOL     OW 9325   5.749   3.122   1.029
 2809SOL    HW1 9326   5.804   3.039   1.024
 2809SOL    HW2 9327   5.712   3.142   0.938
 2810SOL     OW 9328   3.012   5.587   3.676
 2810SOL    HW1 9329   3.036   5.617   3.769
 2810SOL    HW2 9330   3.095   5.585   3.620
 2811SOL     OW 9331   1.098   1.914   3.695
 2811SOL    HW1 9332   1.024   1.907   3.762
 2811SOL    HW2 9333   1.156   1.992   3.718
 2812SOL     OW 9334   5.533   2.700   6.878
 2812SOL    HW1 9335   5.516   2.713   6.780
 2812SOL    HW2 9336   5.474   2.628   6.913
 2813SOL     OW 9337   0.295   0.309   6.557
 2813SOL    HW1 9338   0.380   0.264   6.583
 2813SOL    HW2 9339   0.238   0.323   6.639
 2814SOL     OW 9340   3.809   3.721   5.334
 2814SOL    HW1 9341   3.732   3.711   5.272
 2814SOL    HW2 9342   3.891   3.746   5.283
 2815SOL     OW 9343   6.492   6.536   6.166
 2815SOL    HW1 9344   6.553   6.457   6.164
 2815SOL    HW2 9345   6.476   6.563   6.261
 2816SOL     OW 9346   6.270   4.827   3.692
 2816SOL    HW1 9347   6.229   4.890   3.758
 2816SOL    HW2 9348   6.364   4.856   3.673
 2817SOL     OW 9349   3.301   0.083   1.915
 2817SOL    HW1 9350   3.235   0.108   1.986
 2817SOL    HW2 9351   3.253   0.065   1.829
 2818SOL     OW 9352   0.406   0.576   1.870
 2818SOL    HW1 9353   0.315   0.547   1.839
 2818SOL    HW2 9354   0.404   0.673   1.895
 2819SOL     OW 9355   1.308   0.625   1.788
 2819SOL    HW1 9356   1.289   0.530   1.814
 2819SOL    HW2 9357   1.272   0.642   1.697
 2820SOL     OW 9358   0.714   2.543   3.045
 2820SOL    HW1 9359   0.784   2.614   3.051
 2820SOL    HW2 9360   0.703   2.516   2.949
 2821SOL     OW 9361   4.069   4.108   6.124
 2821SOL    HW1 9362   4.169   4.105   6.113
 2821SOL    HW2 9363   4.047   4.126   6.220
 2822SOL     OW 9364   4.216   2.523   0.839
 2822SOL    HW1 9365   4.179   2.545   0.929
 2822SOL    HW2 9366   4.144   2.485   0.781
 2823SOL     OW 9367   4.427   0.687   0.952
 2823SOL    HW1 9368   4.420   0.604   0.896
 2823SOL    HW2 9369   4.518   0.727   0.940
 2824SOL     OW 9370   1.961   1.562   3.342
 2824SOL    HW1 9371   1.925   1.628   3.408
 2824SOL    HW2 9372   1.920   1.472   3.359
 2825SOL     OW 9373   5.332   6.722   6.821
 2825SOL    HW1 9374   5.275   6.798   6.791
 2825SOL    HW2 9375   5.362   6.669   6.742
 2826SOL     OW 9376   4.959   1.227   0.163
 2826SOL    HW1 9377   4.993   1.155   0.223
 2826SOL    HW2 9378   4.861   1.240   0.179
 2827SOL     OW 9379   0.693   1.563   6.271
 2827SOL    HW1 9380   0.703   1.662   6.269
 2827SOL    HW2 9381   0.750   1.525   6.344
 2828SOL     OW 9382   2.521   1.782   0.729
 2828SOL    HW1 9383   2.477   1.782   0.639
 2828SOL    HW2 9384   2.541   1.877   0.756
 2829SOL     OW 9385   3.069   3.416   4.705
 2829SOL    HW1 9386   3.027   3.498   4.666
 2829SOL    HW2 9387   3.015   3.386   4.784
 2830SOL     OW 9388   2.233   3.689   6.012
 2830SOL    HW1 9389   2.267   3.612   5.957
 2830SOL    HW2 9390   2.227   3.771   5.956
 2831SOL     OW 9391   0.721   4.586   3.636
 2831SOL    HW1 9392   0.629   4.548   3.622
 2831SOL    HW2 9393   0.727   4.675   3.591
 2832SOL     OW 9394   1.318   3.492   2.073
 2832SOL    HW1 9395   1.363   3.422   2.128
 2832SOL    HW2 9396   1.259   3.448   2.006
 2833SOL     OW 9397   2.838   1.930   2.341
 2833SOL    HW1 9398   2.857   1.982   2.424
 2833SOL    HW2 9399   2.862   1.985   2.261
 2834SOL     OW 9400   4.427   5.991   5.782
 2834SOL    HW1 9401   4.380   5.962   5.866
 2834SOL    HW2 9402   4.440   5.913   5.722
 2835SOL     OW 9403   0.726   5.946   1.464
 2835SOL    HW1 9404   0.640   5.920   1.419
 2835SOL    HW2 9405   0.800   5.944   1.397
 2836SOL     OW 9406   0.295   6.268   2.623
 2836SOL    HW1 9407   0.369   6.306   2.566
 2836SOL    HW2 9408   0.247   6.343   2.668
 2837SOL     OW 9409   4.554   4.902   2.242
 2837SOL    HW1 9410   4.476   4.936   2.295
 2837SOL    HW2 9411   4.582   4.813   2.278
 2838SOL     OW 9412   3.788   3.562   0.487
 2838SOL    HW1 9413   3.746   3.508   0.560
 2838SOL    HW2 9414   3.886   3.573   0.507
 2839SOL     OW 9415   6.702   2.356   3.242
 2839SOL    HW1 9416   6.740   2.273   3.202
 2839SOL    HW2 9417   6.604   2.361   3.222
 2840SOL     OW 9418   1.443   0.426   2.836
 2840SOL    HW1 9419   1.528   0.431   2.889
 2840SOL    HW2 9420   1.463   0.386   2.746
 2841SOL     OW 9421   0.015   1.419   6.115
 2841SOL    HW1 9422   0.106   1.383   6.094
 2841SOL    HW2 9423   6.971   1.373   6.059
 2842SOL     OW 9424   0.193   4.220   3.614
 2842SOL    HW1 9425   0.223   4.241   3.521
 2842SOL    HW2 9426   0.205   4.122   3.631
 2843SOL     OW 9427   2.161   2.153   2.859
 2843SOL    HW1 9428   2.125   2.234   2.905
 2843SOL    HW2 9429   2.257   2.170   2.833
 2844SOL     OW 9430   6.636   5.277   6.786
 2844SOL    HW1 9431   6.613   5.182   6.805
 2844SOL    HW2 9432   6.554   5.326   6.756
 2845SOL     OW 9433   5.778   3.571   1.837
 2845SOL    HW1 9434   5.721   3.498   1.876
 2845SOL    HW2 9435   5.850   3.595   1.902
 2846SOL     OW 9436   4.296   1.350   0.212
 2846SOL    HW1 9437   4.234   1.271   0.219
 2846SOL    HW2 9438   4.298   1.399   0.300
 2847SOL     OW 9439   5.245   4.124   3.513
 2847SOL    HW1 9440   5.173   4.147   3.447
 2847SOL    HW2 9441   5.323   4.185   3.500
 2848SOL     OW 9442   1.796   3.086   5.303
 2848SOL    HW1 9443   1.832   3.011   5.358
 2848SOL    HW2 9444   1.869   3.125   5.247
 2849SOL     OW 9445   4.276   0.288   0.544
 2849SOL    HW1 9446   4.364   0.242   0.538
 2849SOL    HW2 9447   4.237   0.298   0.453
 2850SOL     OW 9448   1.883   7.012   2.607
 2850SOL    HW1 9449   1.846   0.004   2.516
 2850SOL    HW2 9450   1.935   6.927   2.607
 2851SOL     OW 9451   5.729   1.612   5.951
 2851SOL    HW1 9452   5.763   1.614   5.857
 2851SOL    HW2 9453   5.805   1.626   6.014
 2852SOL     OW 9454   6.266   3.736   6.928
 2852SOL    HW1 9455   6.177   3.717   6.889
 2852SOL    HW2 9456   6.316   3.651   6.942
 2853SOL     OW 9457   2.390   1.192   6.523
 2853SOL    HW1 9458   2.356   1.102   6.549
 2853SOL    HW2 9459   2.318   1.260   6.536
 2854SOL     OW 9460   4.753   0.554   5.100
 2854SOL    HW1 9461   4.685   0.601   5.156
 2854SOL    HW2 9462   4.842   0.600   5.110
 2855SOL     OW 9463   1.910   2.132   6.092
 2855SOL    HW1 9464   1.988   2.180   6.131
 2855SOL    HW2 9465   1.845   2.198   6.054
 2856SOL     OW 9466   0.395   3.564   5.352
 2856SOL    HW1 9467   0.473   3.626   5.358
 2856SOL    HW2 9468   0.312   3.617   5.338
 2857SOL     OW 9469   2.125   3.120   1.969
 2857SOL    HW1 9470   2.167   3.030   1.977
 2857SOL    HW2 9471   2.125   3.165   2.059
 2858SOL     OW 9472   4.694   4.466   1.838
 2858SOL    HW1 9473   4.703   4.402   1.915
 2858SOL    HW2 9474   4.625   4.535   1.860
 2859SOL     OW 9475   5.365   0.790   6.641
 2859SOL    HW1 9476   5.361   0.875   6.692
 2859SOL    HW2 9477   5.394   0.716   6.702
 2860SOL     OW 9478   2.278   2.407   1.778
 2860SOL    HW1 9479   2.335   2.379   1.856
 2860SOL    HW2 9480   2.334   2.409   1.695
 2861SOL     OW 9481   3.541   5.253   5.508
 2861SOL    HW1 9482   3.581   5.238   5.418
 2861SOL    HW2 9483   3.448   5.216   5.509
 2862SOL     OW 9484   5.075   1.794   2.462
 2862SOL    HW1 9485   5.088   1.771   2.558
 2862SOL    HW2 9486   4.986   1.760   2.431
 2863SOL     OW 9487   4.428   1.639   6.979
 2863SOL    HW1 9488   4.514   1.609   6.939
 2863SOL    HW2 9489   4.372   1.684   6.910
 2864SOL     OW 9490   4.237   1.641   2.138
 2864SOL    HW1 9491   4.146   1.629   2.098
 2864SOL    HW2 9492   4.258   1.738   2.146
 2865SOL     OW 9493   3.809   6.269   5.642
 2865SOL    HW1 9494   3.780   6.260   5.547
 2865SOL    HW2 9495   3.780   6.188   5.693
 2866SOL     OW 9496   6.426   5.434   6.701
 2866SOL    HW1 9497   6.445   5.494   6.623
 2866SOL    HW2 9498   6.370   5.482   6.768
 2867SOL     OW 9499   6.762   6.222   3.451
 2867SOL    HW1 9500   6.673   6.203   3.411
 2867SOL    HW2 9501   6.758   6.307   3.503
 2868SOL     OW 9502   1.754   1.149   5.231
 2868SOL    HW1 9503   1.778   1.091   5.308
 2868SOL    HW2 9504   1.678   1.209   5.256
 2869SOL     OW 9505   6.935   1.114   3.411
 2869SOL    HW1 9506   6.882   1.038   3.449
 2869SOL    HW2 9507   6.877   1.195   3.406
 2870SOL     OW 9508   0.720   1.658   5.116
 2870SOL    HW1 9509   0.752   1.701   5.201
 2870SOL    HW2 9510   0.620   1.661   5.113
 2871SOL     OW 9511   0.078   1.567   6.413
 2871SOL    HW1 9512   0.069   1.527   6.322
 2871SOL    HW2 9513   7.012   1.594   6.447
 2872SOL     OW 9514   2.474   2.150   2.047
 2872SOL    HW1 9515   2.451   2.210   2.124
 2872SOL    HW2 9516   2.396   2.091   2.027
 2873SOL     OW 9517   6.794   5.561   3.323
 2873SOL    HW1 9518   6.872   5.499   3.321
 2873SOL    HW2 9519   6.827   5.656   3.322
 2874SOL     OW 9520   5.188   0.270   3.514
 2874SOL    HW1 9521   5.115   0.203   3.502
 2874SOL    HW2 9522   5.165   0.332   3.589
 2875SOL     OW 9523   4.994   0.539   1.319
 2875SOL    HW1 9524   5.072   0.593   1.288
 2875SOL    HW2 9525   5.023   0.444   1.334
 2876SOL     OW 9526   2.242   6.940   1.970
 2876SOL    HW1 9527   2.275   7.023   2.014
 2876SOL    HW2 9528   2.144   6.948   1.952
 2877SOL     OW 9529   2.537   1.734   5.641
 2877SOL    HW1 9530   2.521   1.695   5.550
 2877SOL    HW2 9531   2.531   1.834   5.636
 2878SOL     OW 9532   3.838   4.302   5.397
 2878SOL    HW1 9533   3.827   4.211   5.437
 2878SOL    HW2 9534   3.935   4.320   5.382
 2879SOL     OW 9535   5.059   5.019   0.213
 2879SOL    HW1 9536   4.970   5.063   0.213
 2879SOL    HW2 9537   5.061   4.945   0.281
 2880SOL     OW 9538   0.189   0.965   2.454
 2880SOL    HW1 9539   0.260   1.001   2.514
 2880SOL    HW2 9540   0.123   1.037   2.432
 2881SOL     OW 9541   4.205   5.435   6.699
 2881SOL    HW1 9542   4.212   5.526   6.657
 2881SOL    HW2 9543   4.280   5.378   6.667
 2882SOL     OW 9544   6.914   5.436   2.654
 2882SOL    HW1 9545   6.868   5.504   2.711
 2882SOL    HW2 9546   6.847   5.390   2.596
 2883SOL     OW 9547   5.988   0.251   3.188
 2883SOL    HW1 9548   6.051   0.176   3.169
 2883SOL    HW2 9549   5.966   0.299   3.103
 2884SOL     OW 9550   1.250   6.982   2.989
 2884SOL    HW1 9551   1.180   6.941   2.929
 2884SOL    HW2 9552   1.220   6.976   3.084
 2885SOL     OW 9553   1.428   3.807   3.698
 2885SOL    HW1 9554   1.464   3.854   3.617
 2885SOL    HW2 9555   1.500   3.798   3.767
 2886SOL     OW 9556   0.768   3.523   5.954
 2886SOL    HW1 9557   0.710   3.514   6.035
 2886SOL    HW2 9558   0.858   3.484   5.973
 2887SOL     OW 9559   0.575   1.101   5.472
 2887SOL    HW1 9560   0.664   1.103   5.426
 2887SOL    HW2 9561   0.588   1.091   5.570
 2888SOL     OW 9562   0.042   4.156   6.778
 2888SOL    HW1 9563   0.016   4.208   6.697
 2888SOL    HW2 9564   6.985   4.117   6.820
 2889SOL     OW 9565   3.120   6.481   2.384
 2889SOL    HW1 9566   3.083   6.533   2.307
 2889SOL    HW2 9567   3.170   6.402   2.351
 2890SOL     OW 9568   1.132   6.540   6.973
 2890SOL    HW1 9569   1.196   6.512   6.902
 2890SOL    HW2 9570   1.068   6.465   6.991
 2891SOL     OW 9571   1.204   4.903   3.388
 2891SOL    HW1 9572   1.257   4.851   3.322
 2891SOL    HW2 9573   1.261   4.975   3.428
 2892SOL     OW 9574   5.832   3.795   0.573
 2892SOL    HW1 9575   5.792   3.775   0.662
 2892SOL    HW2 9576   5.884   3.716   0.541
 2893SOL     OW 9577   6.786   5.163   4.136
 2893SOL    HW1 9578   6.804   5.123   4.226
 2893SOL    HW2 9579   6.687   5.173   4.123
 2894SOL     OW 9580   0.819   3.788   2.016
 2894SOL    HW1 9581   0.730   3.748   1.993
 2894SOL    HW2 9582   0.891   3.723   1.992
 2895SOL     OW 9583   5.105   2.359   5.823
 2895SOL    HW1 9584   5.110   2.335   5.726
 2895SOL    HW2 9585   5.127   2.456   5.834
 2896SOL     OW 9586   4.615   5.902   5.254
 2896SOL    HW1 9587   4.687   5.861   5.310
 2896SOL    HW2 9588   4.543   5.938   5.314
 2897SOL     OW 9589   3.703   5.089   3.285
 2897SOL    HW1 9590   3.663   5.047   3.366
 2897SOL    HW2 9591   3.773   5.028   3.247
 2898SOL     OW 9592   4.303   4.707   4.481
 2898SOL    HW1 9593   4.215   4.748   4.457
 2898SOL    HW2 9594   4.317   4.715   4.580
 2899SOL     OW 9595   0.985   2.069   0.203
 2899SOL    HW1 9596   0.893   2.084   0.165
 2899SOL    HW2 9597   1.026   1.989   0.160
 2900SOL     OW 9598   1.977   3.539   6.011
 2900SOL    HW1 9599   1.927   3.546   5.925
 2900SOL    HW2 9600   2.061   3.593   6.006
 2901SOL     OW 9601   2.763   5.250   3.180
 2901SOL    HW1 9602   2.848   5.198   3.192
 2901SOL    HW2 9603   2.772   5.339   3.224
 2902SOL     OW 9604   5.678   5.805   3.186
 2902SOL    HW1 9605   5.726   5.880   3.141
 2902SOL    HW2 9606   5.582   5.831   3.200
 2903SOL     OW 9607   3.030   0.182   0.547
 2903SOL    HW1 9608   2.955   0.225   0.497
 2903SOL    HW2 9609   3.047   0.232   0.632
 2904SOL     OW 9610   2.237   4.789   4.370
 2904SOL    HW1 9611   2.306   4.816   4.304
 2904SOL    HW2 9612   2.193   4.871   4.407
 2905SOL     OW 9613   1.118   2.285   4.688
 2905SOL    HW1 9614   1.037   2.270   4.631
 2905SOL    HW2 9615   1.097   2.353   4.758
 2906SOL     OW 9616   4.706   5.232   1.940
 2906SOL    HW1 9617   4.767   5.247   2.018
 2906SOL    HW2 9618   4.629   5.175   1.969
 2907SOL     OW 9619   0.947   0.988   3.218
 2907SOL    HW1 9620   0.943   0.986   3.119
 2907SOL    HW2 9621   0.885   1.059   3.252
 2908SOL     OW 9622   5.601   6.719   3.536
 2908SOL    HW1 9623   5.634   6.634   3.495
 2908SOL    HW2 9624   5.677   6.768   3.577
 2909SOL     OW 9625   1.504   5.620   3.695
 2909SOL    HW1 9626   1.461   5.530   3.707
 2909SOL    HW2 9627   1.583   5.628   3.755
 2910SOL     OW 9628   4.574   0.946   4.506
 2910SOL    HW1 9629   4.542   0.860   4.466
 2910SOL    HW2 9630   4.630   0.927   4.586
 2911SOL     OW 9631   0.821   5.780   3.493
 2911SOL    HW1 9632   0.740   5.807   3.441
 2911SOL    HW2 9633   0.886   5.734   3.433
 2912SOL     OW 9634   5.424   0.337   6.550
 2912SOL    HW1 9635   5.332   0.327   6.513
 2912SOL    HW2 9636   5.420   0.337   6.650
 2913SOL     OW 9637   2.949   5.137   1.971
 2913SOL    HW1 9638   2.943   5.043   2.005
 2913SOL    HW2 9639   3.045   5.166   1.970
 2914SOL     OW 9640   6.688   6.224   6.437
 2914SOL    HW1 9641   6.773   6.271   6.460
 2914SOL    HW2 9642   6.677   6.222   6.337
 2915SOL     OW 9643   4.198   1.926   3.655
 2915SOL    HW1 9644   4.260   1.932   3.577
 2915SOL    HW2 9645   4.248   1.893   3.736
 2916SOL     OW 9646   0.696   6.423   1.150
 2916SOL    HW1 9647   0.792   6.440   1.176
 2916SOL    HW2 9648   0.687   6.330   1.115
 2917SOL     OW 9649   2.482   0.847   3.236
 2917SOL    HW1 9650   2.472   0.919   3.167
 2917SOL    HW2 9651   2.393   0.822   3.272
 2918SOL     OW 9652   5.878   4.857   4.938
 2918SOL    HW1 9653   5.787   4.818   4.926
 2918SOL    HW2 9654   5.935   4.792   4.988
 2919SOL     OW 9655   5.590   0.876   2.570
 2919SOL    HW1 9656   5.643   0.791   2.577
 2919SOL    HW2 9657   5.538   0.875   2.484
 2920SOL     OW 9658   2.934   1.511   1.534
 2920SOL    HW1 9659   2.962   1.421   1.567
 2920SOL    HW2 9660   2.869   1.501   1.459
 2921SOL     OW 9661   0.911   0.119   4.709
 2921SOL    HW1 9662   0.850   0.127   4.630
 2921SOL    HW2 9663   0.975   0.044   4.694
 2922SOL     OW 9664   4.672   0.809   1.000
 2922SOL    HW1 9665   4.711   0.768   1.083
 2922SOL    HW2 9666   4.676   0.909   1.007
 2923SOL     OW 9667   6.198   4.910   2.667
 2923SOL    HW1 9668   6.284   4.952   2.697
 2923SOL    HW2 9669   6.138   4.980   2.628
 2924SOL     OW 9670   6.905   2.254   6.123
 2924SOL    HW1 9671   6.927   2.235   6.028
 2924SOL    HW2 9672   6.947   2.340   6.150
 2925SOL     OW 9673   4.972   0.976   2.281
 2925SOL    HW1 9674   5.024   0.952   2.199
 2925SOL    HW2 9675   4.885   1.018   2.254
 2926SOL     OW 9676   6.749   1.799   4.367
 2926SOL    HW1 9677   6.766   1.717   4.312
 2926SOL    HW2 9678   6.651   1.811   4.380
 2927SOL     OW 9679   1.494   4.155   1.061
 2927SOL    HW1 9680   1.522   4.213   1.138
 2927SOL    HW2 9681   1.560   4.081   1.050
 2928SOL     OW 9682   7.023   0.894   6.804
 2928SOL    HW1 9683   6.986   0.861   6.717
 2928SOL    HW2 9684   0.013   0.817   6.865
 2929SOL     OW 9685   0.821   2.383   6.774
 2929SOL    HW1 9686   0.883   2.376   6.852
 2929SOL    HW2 9687   0.763   2.464   6.785
 2930SOL     OW 9688   4.773   0.386   4.891
 2930SOL    HW1 9689   4.739   0.459   4.949
 2930SOL    HW2 9690   4.861   0.413   4.852
 2931SOL     OW 9691   5.441   4.652   6.865
 2931SOL    HW1 9692   5.428   4.729   6.927
 2931SOL    HW2 9693   5.532   4.659   6.823
 2932SOL     OW 9694   1.080   5.332   1.857
 2932SOL    HW1 9695   1.150   5.360   1.922
 2932SOL    HW2 9696   1.047   5.412   1.807
 2933SOL     OW 9697   0.322   5.388   3.203
 2933SOL    HW1 9698   0.297   5.421   3.112
 2933SOL    HW2 9699   0.421   5.387   3.213
 2934SOL     OW 9700   4.628   1.878   0.453
 2934SOL    HW1 9701   4.563   1.801   0.456
 2934SOL    HW2 9702   4.680   1.874   0.368
 2935SOL     OW 9703   6.534   2.964   7.010
 2935SOL    HW1 9704   6.504   3.053   0.020
 2935SOL    HW2 9705   6.457   2.901   7.009
 2936SOL     OW 9706   4.234   6.783   0.484
 2936SOL    HW1 9707   4.320   6.734   0.469
 2936SOL    HW2 9708   4.182   6.738   0.557
 2937SOL     OW 9709   5.078   4.710   0.906
 2937SOL    HW1 9710   5.164   4.698   0.954
 2937SOL    HW2 9711   5.013   4.639   0.935
 2938SOL     OW 9712   4.666   5.053   6.272
 2938SOL    HW1 9713   4.635   5.039   6.366
 2938SOL    HW2 9714   4.641   4.975   6.216
 2939SOL     OW 9715   1.865   0.659   2.597
 2939SOL    HW1 9716   1.907   0.579   2.641
 2939SOL    HW2 9717   1.770   0.667   2.627
 2940SOL     OW 9718   5.713   5.027   5.929
 2940SOL    HW1 9719   5.656   5.092   5.979
 2940SOL    HW2 9720   5.806   5.029   5.965
 2941SOL     OW 9721   1.753   1.995   4.398
 2941SOL    HW1 9722   1.826   2.046   4.353
 2941SOL    HW2 9723   1.664   2.027   4.364
 2942SOL     OW 9724   2.654   2.428   0.448
 2942SOL    HW1 9725   2.663   2.527   0.437
 2942SOL    HW2 9726   2.709   2.397   0.526
 2943SOL     OW 9727   4.684   4.456   3.548
 2943SOL    HW1 9728   4.689   4.456   3.448
 2943SOL    HW2 9729   4.606   4.511   3.578
 2944SOL     OW 9730   2.785   6.156   4.442
 2944SOL    HW1 9731   2.807   6.210   4.523
 2944SOL    HW2 9732   2.768   6.061   4.468
 2945SOL     OW 9733   2.987   3.745   3.693
 2945SOL    HW1 9734   2.993   3.678   3.618
 2945SOL    HW2 9735   2.992   3.838   3.655
 2946SOL     OW 9736   0.866   4.766   5.796
 2946SOL    HW1 9737   0.926   4.713   5.737
 2946SOL    HW2 9738   0.880   4.739   5.891
 2947SOL     OW 9739   0.511   3.641   0.851
 2947SOL    HW1 9740   0.594   3.617   0.900
 2947SOL    HW2 9741   0.486   3.567   0.788
 2948SOL     OW 9742   0.896   4.128   5.271
 2948SOL    HW1 9743   0.903   4.227   5.265
 2948SOL    HW2 9744   0.982   4.089   5.303
 2949SOL     OW 9745   2.543   5.832   0.780
 2949SOL    HW1 9746   2.463   5.773   0.786
 2949SOL    HW2 9747   2.558   5.858   0.685
 2950SOL     OW 9748   5.165   4.661   4.202
 2950SOL    HW1 9749   5.130   4.754   4.211
 2950SOL    HW2 9750   5.251   4.652   4.252
 2951SOL     OW 9751   5.667   1.163   0.860
 2951SOL    HW1 9752   5.637   1.232   0.795
 2951SOL    HW2 9753   5.595   1.147   0.928
 2952SOL     OW 9754   6.832   4.381   4.741
 2952SOL    HW1 9755   6.870   4.292   4.767
 2952SOL    HW2 9756   6.774   4.415   4.814
 2953SOL     OW 9757   5.066   3.266   2.228
 2953SOL    HW1 9758   5.015   3.218   2.157
 2953SOL    HW2 9759   5.066   3.213   2.312
 2954SOL     OW 9760   0.971   5.553   1.741
 2954SOL    HW1 9761   0.945   5.577   1.648
 2954SOL    HW2 9762   0.909   5.598   1.805
 2955SOL     OW 9763   1.030   3.833   2.169
 2955SOL    HW1 9764   0.941   3.843   2.125
 2955SOL    HW2 9765   1.092   3.783   2.108
 2956SOL     OW 9766   5.101   5.870   3.186
 2956SOL    HW1 9767   5.052   5.912   3.110
 2956SOL    HW2 9768   5.131   5.779   3.160
 2957SOL     OW 9769   6.087   3.503   2.325
 2957SOL    HW1 9770   6.133   3.560   2.394
 2957SOL    HW2 9771   5.988   3.512   2.334
 2958SOL     OW 9772   2.625   4.690   4.219
 2958SOL    HW1 9773   2.617   4.601   4.175
 2958SOL    HW2 9774   2.601   4.683   4.315
 2959SOL     OW 9775   4.669   3.857   0.353
 2959SOL    HW1 9776   4.649   3.954   0.360
 2959SOL    HW2 9777   4.587   3.808   0.322
 2960SOL     OW 9778   3.361   1.148   7.015
 2960SOL    HW1 9779   3.366   1.049   0.002
 2960SOL    HW2 9780   3.301   1.187   0.061
 2961SOL     OW 9781   5.213   3.218   2.715
 2961SOL    HW1 9782   5.143   3.288   2.700
 2961SOL    HW2 9783   5.302   3.262   2.728
 2962SOL     OW 9784   5.032   0.022   3.068
 2962SOL    HW1 9785   4.973   0.034   2.989
 2962SOL    HW2 9786   5.036   6.950   3.093
 2963SOL     OW 9787   2.186   1.195   5.960
 2963SOL    HW1 9788   2.139   1.226   5.878
 2963SOL    HW2 9789   2.119   1.178   6.032
 2964SOL     OW 9790   0.694   0.359   3.549
 2964SOL    HW1 9791   0.664   0.442   3.598
 2964SOL    HW2 9792   0.784   0.332   3.582
 2965SOL     OW 9793   7.013   1.387   4.110
 2965SOL    HW1 9794   0.036   1.462   4.065
 2965SOL    HW2 9795   0.014   1.384   4.206
 2966SOL     OW 9796   4.810   5.893   3.307
 2966SOL    HW1 9797   4.880   5.822   3.315
 2966SOL    HW2 9798   4.720   5.853   3.326
 2967SOL     OW 9799   6.875   0.813   4.716
 2967SOL    HW1 9800   6.937   0.735   4.718
 2967SOL    HW2 9801   6.792   0.790   4.665
 2968SOL     OW 9802   1.024   2.911   6.667
 2968SOL    HW1 9803   0.936   2.919   6.713
 2968SOL    HW2 9804   1.097   2.935   6.731
 2969SOL     OW 9805   5.091   1.670   4.145
 2969SOL    HW1 9806   5.047   1.582   4.164
 2969SOL    HW2 9807   5.162   1.658   4.076
 2970SOL     OW 9808   1.616   3.993   5.917
 2970SOL    HW1 9809   1.584   4.080   5.953
 2970SOL    HW2 9810   1.539   3.929   5.911
 2971SOL     OW 9811   4.953   4.410   0.682
 2971SOL    HW1 9812   4.943   4.504   0.650
 2971SOL    HW2 9813   5.006   4.408   0.767
 2972SOL     OW 9814   6.261   4.592   6.373
 2972SOL    HW1 9815   6.301   4.529   6.306
 2972SOL    HW2 9816   6.231   4.675   6.327
 2973SOL     OW 9817   5.483   6.212   2.436
 2973SOL    HW1 9818   5.480   6.209   2.536
 2973SOL    HW2 9819   5.578   6.223   2.407
 2974SOL     OW 9820   1.055   4.720   3.531
 2974SOL    HW1 9821   1.106   4.796   3.490
 2974SOL    HW2 9822   0.957   4.735   3.518
 2975SOL     OW 9823   5.556   3.430   4.222
 2975SOL    HW1 9824   5.558   3.470   4.314
 2975SOL    HW2 9825   5.484   3.360   4.218
 2976SOL     OW 9826   4.505   1.799   3.013
 2976SOL    HW1 9827   4.509   1.886   3.062
 2976SOL    HW2 9828   4.422   1.795   2.958
 2977SOL     OW 9829   2.722   6.454   2.327
 2977SOL    HW1 9830   2.812   6.411   2.330
 2977SOL    HW2 9831   2.653   6.391   2.363
 2978SOL     OW 9832   5.175   4.367   0.490
 2978SOL    HW1 9833   5.093   4.347   0.543
 2978SOL    HW2 9834   5.170   4.461   0.454
 2979SOL     OW 9835   3.632   0.857   4.305
 2979SOL    HW1 9836   3.548   0.840   4.254
 2979SOL    HW2 9837   3.680   0.770   4.321
 2980SOL     OW 9838   1.479   5.845   4.875
 2980SOL    HW1 9839   1.486   5.746   4.873
 2980SOL    HW2 9840   1.425   5.876   4.797
 2981SOL     OW 9841   2.625   1.352   5.708
 2981SOL    HW1 9842   2.720   1.383   5.708
 2981SOL    HW2 9843   2.567   1.418   5.755
 2982SOL     OW 9844   3.371   4.909   2.940
 2982SOL    HW1 9845   3.343   4.858   2.859
 2982SOL    HW2 9846   3.461   4.949   2.924
 2983SOL     OW 9847   0.342   1.407   2.691
 2983SOL    HW1 9848   0.341   1.461   2.607
 2983SOL    HW2 9849   0.430   1.418   2.736
 2984SOL     OW 9850   5.403   5.110   1.243
 2984SOL    HW1 9851   5.392   5.011   1.231
 2984SOL    HW2 9852   5.379   5.156   1.157
 2985SOL     OW 9853   1.833   2.992   5.577
 2985SOL    HW1 9854   1.738   2.992   5.609
 2985SOL    HW2 9855   1.867   2.898   5.574
 2986SOL     OW 9856   3.504   4.183   3.660
 2986SOL    HW1 9857   3.601   4.160   3.652
 2986SOL    HW2 9858   3.478   4.180   3.757
 2987SOL     OW 9859   0.111   1.570   4.419
 2987SOL    HW1 9860   0.017   1.539   4.429
 2987SOL    HW2 9861   0.173   1.493   4.433
 2988SOL     OW 9862   1.504   5.405   2.527
 2988SOL    HW1 9863   1.535   5.474   2.593
 2988SOL    HW2 9864   1.442   5.447   2.461
 2989SOL     OW 9865   6.118   5.994   5.941
 2989SOL    HW1 9866   6.132   5.963   5.847
 2989SOL    HW2 9867   6.200   6.042   5.972
 2990SOL     OW 9868   3.537   1.623   4.818
 2990SOL    HW1 9869   3.494   1.685   4.884
 2990SOL    HW2 9870   3.612   1.574   4.862
 2991SOL     OW 9871   6.710   4.045   5.021
 2991SOL    HW1 9872   6.691   3.947   5.026
 2991SOL    HW2 9873   6.631   4.093   4.984
 2992SOL     OW 9874   2.601   6.295   4.909
 2992SOL    HW1 9875   2.698   6.323   4.906
 2992SOL    HW2 9876   2.561   6.305   4.818
 2993SOL     OW 9877   0.567   4.849   1.553
 2993SOL    HW1 9878   0.511   4.931   1.549
 2993SOL    HW2 9879   0.563   4.809   1.645
 2994SOL     OW 9880   4.295   6.068   0.267
 2994SOL    HW1 9881   4.278   6.129   0.190
 2994SOL    HW2 9882   4.232   5.990   0.262
 2995SOL     OW 9883   3.118   1.953   5.871
 2995SOL    HW1 9884   3.059   2.032   5.855
 2995SOL    HW2 9885   3.077   1.871   5.831
 2996SOL     OW 9886   1.295   1.517   3.537
 2996SOL    HW1 9887   1.381   1.488   3.494
 2996SOL    HW2 9888   1.269   1.450   3.607
 2997SOL     OW 9889   6.243   0.100   3.039
 2997SOL    HW1 9890   6.341   0.080   3.030
 2997SOL    HW2 9891   6.208   0.136   2.952
 2998SOL     OW 9892   4.482   6.952   3.894
 2998SOL    HW1 9893   4.505   6.869   3.845
 2998SOL    HW2 9894   4.465   6.930   3.990
 2999SOL     OW 9895   2.613   4.949   5.135
 2999SOL    HW1 9896   2.593   5.047   5.128
 2999SOL    HW2 9897   2.617   4.909   5.043
 3000SOL     OW 9898   2.830   3.729   6.399
 3000SOL    HW1 9899   2.851   3.817   6.357
 3000SOL    HW2 9900   2.790   3.744   6.490
 3001SOL     OW 9901   6.093   0.450   6.223
 3001SOL    HW1 9902   6.103   0.508   6.303
 3001SOL    HW2 9903   6.088   0.354   6.251
 3002SOL     OW 9904   3.312   1.419   6.719
 3002SOL    HW1 9905   3.329   1.350   6.649
 3002SOL    HW2 9906   3.319   1.510   6.679
 3003SOL     OW 9907   1.676   6.760   0.411
 3003SOL    HW1 9908   1.743   6.705   0.462
 3003SOL    HW2 9909   1.626   6.701   0.348
 3004SOL     OW 9910   0.855   4.467   3.384
 3004SOL    HW1 9911   0.871   4.494   3.479
 3004SOL    HW2 9912   0.758   4.479   3.362
 3005SOL     OW 9913   2.133   1.977   0.658
 3005SOL    HW1 9914   2.199   2.012   0.592
 3005SOL    HW2 9915   2.157   2.010   0.750
 3006SOL     OW 9916   5.548   1.601   5.233
 3006SOL    HW1 9917   5.489   1.556   5.166
 3006SOL    HW2 9918   5.532   1.562   5.323
 3007SOL     OW 9919   5.208   4.456   1.159
 3007SOL    HW1 9920   5.253   4.534   1.115
 3007SOL    HW2 9921   5.255   4.435   1.245
 3008SOL     OW 9922   3.704   2.451   5.952
 3008SOL    HW1 9923   3.779   2.416   6.007
 3008SOL    HW2 9924   3.628   2.477   6.012
 3009SOL     OW 9925   0.133   1.574   2.769
 3009SOL    HW1 9926   0.205   1.505   2.769
 3009SOL    HW2 9927   0.175   1.665   2.765
 3010SOL     OW 9928   3.756   5.883   3.344
 3010SOL    HW1 9929   3.688   5.957   3.348
 3010SOL    HW2 9930   3.816   5.899   3.266
 3011SOL     OW 9931   5.791   1.405   2.292
 3011SOL    HW1 9932   5.826   1.343   2.222
 3011SOL    HW2 9933   5.710   1.452   2.258
 3012SOL     OW 9934   1.944   3.791   6.200
 3012SOL    HW1 9935   2.002   3.721   6.243
 3012SOL    HW2 9936   2.001   3.860   6.157
 3013SOL     OW 9937   5.807   5.797   4.240
 3013SOL    HW1 9938   5.714   5.832   4.249
 3013SOL    HW2 9939   5.808   5.720   4.176
 3014SOL     OW 9940   4.483   2.347   4.589
 3014SOL    HW1 9941   4.484   2.396   4.677
 3014SOL    HW2 9942   4.469   2.249   4.606
 3015SOL     OW 9943   3.090   1.842   0.328
 3015SOL    HW1 9944   3.079   1.923   0.386
 3015SOL    HW2 9945   3.017   1.776   0.349
 3016SOL     OW 9946   2.033   6.683   3.989
 3016SOL    HW1 9947   2.081   6.595   3.997
 3016SOL    HW2 9948   1.936   6.667   3.974
 3017SOL     OW 9949   6.556   4.771   2.432
 3017SOL    HW1 9950   6.598   4.685   2.404
 3017SOL    HW2 9951   6.477   4.753   2.491
 3018SOL     OW 9952   3.131   6.637   5.923
 3018SOL    HW1 9953   3.103   6.714   5.866
 3018SOL    HW2 9954   3.231   6.636   5.932
 3019SOL     OW 9955   0.864   6.965   0.419
 3019SOL    HW1 9956   0.944   7.019   0.393
 3019SOL    HW2 9957   0.800   7.024   0.468
 3020SOL     OW 9958   3.847   2.787   1.629
 3020SOL    HW1 9959   3.828   2.816   1.722
 3020SOL    HW2 9960   3.909   2.708   1.631
 3021SOL     OW 9961   2.977   0.070   6.119
 3021SOL    HW1 9962   2.960   0.058   6.021
 3021SOL    HW2 9963   3.027   0.156   6.133
 3022SOL     OW 9964   3.347   5.356   4.537
 3022SOL    HW1 9965   3.445   5.369   4.521
 3022SOL    HW2 9966   3.327   5.371   4.634
 3023SOL     OW 9967   3.595   6.769   2.814
 3023SOL    HW1 9968   3.671   6.747   2.753
 3023SOL    HW2 9969   3.517   6.709   2.793
 3024SOL     OW 9970   4.830   6.993   4.919
 3024SOL    HW1 9971   4.838   0.036   4.992
 3024SOL    HW2 9972   4.918   6.984   4.872
 3025SOL     OW 9973   3.017   6.911   0.520
 3025SOL    HW1 9974   3.001   6.920   0.422
 3025SOL    HW2 9975   3.021   7.001   0.563
 3026SOL     OW 9976   1.337   0.479   6.728
 3026SOL    HW1 9977   1.391   0.397   6.745
 3026SOL    HW2 9978   1.374   0.555   6.780
 3027SOL     OW 9979   4.110   0.596   3.236
 3027SOL    HW1 9980   4.157   0.535   3.173
 3027SOL    HW2 9981   4.146   0.689   3.225
 3028SOL     OW 9982   1.132   3.578   5.943
 3028SOL    HW1 9983   1.190   3.600   6.021
 3028SOL    HW2 9984   1.086   3.491   5.959
 3029SOL     OW 9985   7.001   2.612   5.350
 3029SOL    HW1 9986   0.059   2.564   5.317
 3029SOL    HW2 9987   7.024   2.707   5.371
 3030SOL     OW 9988   6.837   3.572   0.270
 3030SOL    HW1 9989   6.807   3.480   0.245
 3030SOL    HW2 9990   6.880   3.616   0.191
 3031SOL     OW 9991   0.384   3.959   0.408
 3031SOL    HW1 9992   0.473   3.915   0.412
 3031SOL    HW2 9993   0.313   3.890   0.391
 3032SOL     OW 9994   3.099   6.759   0.725
 3032SOL    HW1 9995   3.170   6.691   0.710
 3032SOL    HW2 9996   3.095   6.821   0.646
 3033SOL     OW 9997   6.136   2.072   1.289
 3033SOL    HW1 9998   6.039   2.049   1.275
 3033SOL    HW2 9999   6.182   2.071   1.200
 3034SOL     OW10000   2.020   5.736   2.891
 3034SOL    HW110001   1.939   5.765   2.941
 3034SOL    HW210002   1.992   5.687   2.808
 3035SOL     OW10003   0.003   3.048   6.778
 3035SOL    HW110004   6.929   3.032   6.771
 3035SOL    HW210005   0.038   3.080   6.690
 3036SOL     OW10006   2.157   1.599   6.426
 3036SOL    HW110007   2.159   1.695   6.454
 3036SOL    HW210008   2.229   1.583   6.359
 3037SOL     OW10009   6.206   6.024   5.210
 3037SOL    HW110010   6.263   6.105   5.226
 3037SOL    HW210011   6.259   5.941   5.227
 3038SOL     OW10012   5.404   6.192   5.835
 3038SOL    HW110013   5.403   6.162   5.931
 3038SOL    HW210014   5.476   6.261   5.823
 3039SOL     OW10015   6.656   3.123   0.525
 3039SOL    HW110016   6.682   3.134   0.621
 3039SOL    HW210017   6.650   3.213   0.482
 3040SOL     OW10018   3.961   3.780   5.809
 3040SOL    HW110019   3.939   3.730   5.725
 3040SOL    HW210020   4.042   3.836   5.793
 3041SOL     OW10021   1.696   2.896   4.138
 3041SOL    HW110022   1.708   2.988   4.176
 3041SOL    HW210023   1.601   2.884   4.110
 3042SOL     OW10024   5.059   5.977   1.936
 3042SOL    HW110025   5.090   6.072   1.925
 3042SOL    HW210026   5.116   5.932   2.005
 3043SOL     OW10027   2.320   4.638   1.784
 3043SOL    HW110028   2.252   4.586   1.734
 3043SOL    HW210029   2.378   4.575   1.837
 3044SOL     OW10030   3.622   4.358   5.655
 3044SOL    HW110031   3.554   4.427   5.630
 3044SOL    HW210032   3.596   4.270   5.616
 3045SOL     OW10033   4.482   0.336   3.234
 3045SOL    HW110034   4.485   0.415   3.295
 3045SOL    HW210035   4.518   0.362   3.144
 3046SOL     OW10036   2.023   0.692   6.277
 3046SOL    HW110037   1.930   0.726   6.267
 3046SOL    HW210038   2.026   0.621   6.348
 3047SOL     OW10039   6.256   0.289   2.058
 3047SOL    HW110040   6.338   0.323   2.105
 3047SOL    HW210041   6.182   0.355   2.068
 3048SOL     OW10042   3.980   2.337   1.785
 3048SOL    HW110043   3.889   2.326   1.823
 3048SOL    HW210044   4.048   2.322   1.856
 3049SOL     OW10045   1.862   6.544   2.468
 3049SOL    HW110046   1.946   6.490   2.467
 3049SOL    HW210047   1.883   6.638   2.494
 3050SOL     OW10048   3.185   1.212   1.933
 3050SOL    HW110049   3.151   1.294   1.978
 3050SOL    HW210050   3.109   1.158   1.898
 3051SOL     OW10051   2.113   4.705   6.930
 3051SOL    HW110052   2.021   4.665   6.937
 3051SOL    HW210053   2.178   4.634   6.904
 3052SOL     OW10054   5.042   6.241   1.897
 3052SOL    HW110055   5.080   6.328   1.864
 3052SOL    HW210056   4.969   6.260   1.964
 3053SOL     OW10057   0.118   2.130   6.924
 3053SOL    HW110058   0.034   2.165   6.965
 3053SOL    HW210059   0.139   2.041   6.964
 3054SOL     OW10060   6.775   1.974   0.774
 3054SOL    HW110061   6.787   1.892   0.829
 3054SOL    HW210062   6.683   1.975   0.735
 3055SOL     OW10063   5.125   0.638   4.606
 3055SOL    HW110064   5.156   0.730   4.631
 3055SOL    HW210065   5.204   0.582   4.582
 3056SOL     OW10066   6.567   6.965   5.157
 3056SOL    HW110067   6.518   6.880   5.177
 3056SOL    HW210068   6.599   6.963   5.062
 3057SOL     OW10069   4.416   6.349   2.734
 3057SOL    HW110070   4.506   6.308   2.719
 3057SOL    HW210071   4.356   6.281   2.778
 3058SOL     OW10072   0.045   4.536   1.694
 3058SOL    HW110073   6.997   4.467   1.701
 3058SOL    HW210074   0.102   4.518   1.614
 3059SOL     OW10075   2.750   2.143   4.366
 3059SOL    HW110076   2.661   2.105   4.392
 3059SOL    HW210077   2.740   2.241   4.346
 3060SOL     OW10078   0.996   5.389   0.209
 3060SOL    HW110079   0.956   5.301   0.183
 3060SOL    HW210080   1.081   5.403   0.158
 3061SOL     OW10081   0.144   6.631   4.981
 3061SOL    HW110082   0.123   6.545   4.935
 3061SOL    HW210083   0.175   6.698   4.913
 3062SOL     OW10084   2.184   0.581   0.834
 3062SOL    HW110085   2.233   0.501   0.868
 3062SOL    HW210086   2.093   0.554   0.800
 3063SOL     OW10087   2.364   4.907   1.909
 3063SOL    HW110088   2.438   4.852   1.871
 3063SOL    HW210089   2.287   4.907   1.846
 3064SOL     OW10090   5.382   4.215   2.229
 3064SOL    HW110091   5.431   4.300   2.212
 3064SOL    HW210092   5.445   4.137   2.223
 3065SOL     OW10093   1.809   1.242   0.430
 3065SOL    HW110094   1.861   1.326   0.437
 3065SOL    HW210095   1.802   1.214   0.334
 3066SOL     OW10096   4.585   5.573   1.079
 3066SOL    HW110097   4.622   5.646   1.138
 3066SOL    HW210098   4.633   5.573   0.992
 3067SOL     OW10099   3.378   1.783   5.218
 3067SOL    HW110100   3.295   1.799   5.270
 3067SOL    HW210101   3.419   1.870   5.191
 3068SOL     OW10102   6.574   0.258   0.744
 3068SOL    HW110103   6.605   0.337   0.797
 3068SOL    HW210104   6.651   0.218   0.695
 3069SOL     OW10105   7.018   5.998   1.829
 3069SOL    HW110106   6.992   5.948   1.746
 3069SOL    HW210107   6.953   5.976   1.902
 3070SOL     OW10108   2.611   1.272   0.267
 3070SOL    HW110109   2.642   1.201   0.203
 3070SOL    HW210110   2.674   1.350   0.263
 3071SOL     OW10111   6.269   5.620   3.590
 3071SOL    HW110112   6.258   5.525   3.559
 3071SOL    HW210113   6.300   5.676   3.513
 3072SOL     OW10114   2.352   5.842   6.939
 3072SOL    HW110115   2.427   5.908   6.951
 3072SOL    HW210116   2.355   5.806   6.845
 3073SOL     OW10117   5.940   2.914   4.264
 3073SOL    HW110118   5.963   2.897   4.360
 3073SOL    HW210119   6.023   2.933   4.213
 3074SOL     OW10120   5.418   4.046   0.655
 3074SOL    HW110121   5.380   3.954   0.646
 3074SOL    HW210122   5.443   4.063   0.750
 3075SOL     OW10123   3.098   6.126   1.666
 3075SOL    HW110124   3.084   6.098   1.761
 3075SOL    HW210125   3.196   6.133   1.648
 3076SOL     OW10126   6.600   0.431   4.276
 3076SOL    HW110127   6.687   0.399   4.238
 3076SOL    HW210128   6.615   0.466   4.369
 3077SOL     OW10129   5.579   5.298   1.576
 3077SOL    HW110130   5.480   5.288   1.588
 3077SOL    HW210131   5.613   5.366   1.641
 3078SOL     OW10132   0.030   2.766   2.602
 3078SOL    HW110133   0.017   2.809   2.692
 3078SOL    HW210134   0.123   2.784   2.570
 3079SOL     OW10135   2.527   2.564   2.964
 3079SOL    HW110136   2.484   2.492   3.018
 3079SOL    HW210137   2.460   2.637   2.947
 3080SOL     OW10138   4.938   4.562   2.452
 3080SOL    HW110139   5.016   4.523   2.403
 3080SOL    HW210140   4.916   4.504   2.531
 3081SOL     OW10141   0.816   3.001   5.144
 3081SOL    HW110142   0.751   2.966   5.211
 3081SOL    HW210143   0.909   2.994   5.180
 3082SOL     OW10144   2.679   6.400   4.096
 3082SOL    HW110145   2.702   6.399   4.193
 3082SOL    HW210146   2.753   6.358   4.044
 3083SOL     OW10147   3.030   5.801   4.382
 3083SOL    HW110148   2.952   5.845   4.337
 3083SOL    HW210149   3.091   5.871   4.418
 3084SOL     OW10150   6.708   3.977   4.612
 3084SOL    HW110151   6.753   4.010   4.529
 3084SOL    HW210152   6.618   4.019   4.620
 3085SOL     OW10153   6.083   4.738   0.442
 3085SOL    HW110154   5.997   4.753   0.393
 3085SOL    HW210155   6.073   4.767   0.537
 3086SOL     OW10156   4.671   1.566   1.175
 3086SOL    HW110157   4.606   1.633   1.211
 3086SOL    HW210158   4.704   1.596   1.086
 3087SOL     OW10159   1.047   5.353   3.705
 3087SOL    HW110160   1.006   5.438   3.738
 3087SOL    HW210161   1.049   5.286   3.779
 3088SOL     OW10162   1.791   4.902   4.638
 3088SOL    HW110163   1.814   4.809   4.610
 3088SOL    HW210164   1.850   4.967   4.590
 3089SOL     OW10165   1.751   3.317   6.229
 3089SOL    HW110166   1.744   3.416   6.215
 3089SOL    HW210167   1.774   3.272   6.142
 3090SOL     OW10168   2.501   2.396   1.641
 3090SOL    HW110169   2.509   2.323   1.573
 3090SOL    HW210170   2.525   2.359   1.732
 3091SOL     OW10171   1.314   0.101   1.484
 3091SOL    HW110172   1.404   0.127   1.519
 3091SOL    HW210173   1.250   0.092   1.561
 3092SOL     OW10174   4.803   1.414   0.823
 3092SOL    HW110175   4.756   1.329   0.848
 3092SOL    HW210176   4.899   1.393   0.800
 3093SOL     OW10177   5.383   6.737   6.422
 3093SOL    HW110178   5.339   6.723   6.334
 3093SOL    HW210179   5.401   6.648   6.465
 3094SOL     OW10180   2.010   7.003   4.310
 3094SOL    HW110181   1.983   0.066   4.268
 3094SOL    HW210182   1.981   7.002   4.406
 3095SOL     OW10183   2.599   5.213   5.637
 3095SOL    HW110184   2.509   5.195   5.676
 3095SOL    HW210185   2.607   5.166   5.549
 3096SOL     OW10186   1.429   5.904   5.546
 3096SOL    HW110187   1.493   5.951   5.486
 3096SOL    HW210188   1.478   5.840   5.605
 3097SOL     OW10189   5.652   2.472   0.283
 3097SOL    HW110190   5.626   2.470   0.186
 3097SOL    HW210191   5.678   2.565   0.309
 3098SOL     OW10192   2.030   2.832   1.647
 3098SOL    HW110193   2.058   2.795   1.558
 3098SOL    HW210194   1.930   2.833   1.653
 3099SOL     OW10195   1.319   6.969   3.703
 3099SOL    HW110196   1.325   6.936   3.798
 3099SOL    HW210197   1.367   6.905   3.643
 3100SOL     OW10198   6.738   5.462   3.806
 3100SOL    HW110199   6.829   5.501   3.789
 3100SOL    HW210200   6.668   5.528   3.778
 3101SOL     OW10201   5.586   6.653   6.926
 3101SOL    HW110202   5.593   6.564   6.971
 3101SOL    HW210203   5.494   6.665   6.891
 3102SOL     OW10204   6.518   4.914   2.213
 3102SOL    HW110205   6.564   4.880   2.295
 3102SOL    HW210206   6.548   5.008   2.196
 3103SOL     OW10207   4.291   0.810   2.333
 3103SOL    HW110208   4.297   0.792   2.235
 3103SOL    HW210209   4.197   0.832   2.358
 3104SOL     OW10210   5.037   0.898   4.974
 3104SOL    HW110211   4.953   0.950   4.959
 3104SOL    HW210212   5.069   0.859   4.888
 3105SOL     OW10213   6.129   4.565   1.149
 3105SOL    HW110214   6.100   4.598   1.059
 3105SOL    HW210215   6.123   4.465   1.152
 3106SOL     OW10216   5.571   1.025   3.242
 3106SOL    HW110217   5.656   0.976   3.221
 3106SOL    HW210218   5.584   1.080   3.324
 3107SOL     OW10219   4.509   1.693   4.878
 3107SOL    HW110220   4.583   1.669   4.941
 3107SOL    HW210221   4.452   1.613   4.861
 3108SOL     OW10222   1.765   6.554   4.275
 3108SOL    HW110223   1.795   6.511   4.360
 3108SOL    HW210224   1.828   6.529   4.201
 3109SOL     OW10225   5.794   6.179   3.289
 3109SOL    HW110226   5.815   6.096   3.342
 3109SOL    HW210227   5.699   6.175   3.257
 3110SOL     OW10228   1.115   2.832   2.247
 3110SOL    HW110229   1.015   2.821   2.253
 3110SOL    HW210230   1.135   2.923   2.211
 3111SOL     OW10231   6.607   5.187   3.324
 3111SOL    HW110232   6.604   5.271   3.377
 3111SOL    HW210233   6.701   5.151   3.324
 3112SOL     OW10234   4.366   2.762   6.995
 3112SOL    HW110235   4.407   2.768   6.904
 3112SOL    HW210236   4.423   2.811   0.036
 3113SOL     OW10237   2.808   5.488   3.907
 3113SOL    HW110238   2.842   5.475   3.814
 3113SOL    HW210239   2.884   5.515   3.967
 3114SOL     OW10240   4.314   1.892   1.304
 3114SOL    HW110241   4.296   1.932   1.394
 3114SOL    HW210242   4.248   1.927   1.238
 3115SOL     OW10243   3.647   4.095   6.441
 3115SOL    HW110244   3.692   4.007   6.434
 3115SOL    HW210245   3.693   4.161   6.382
 3116SOL     OW10246   0.246   3.109   0.115
 3116SOL    HW110247   0.331   3.095   0.065
 3116SOL    HW210248   0.267   3.134   0.210
 3117SOL     OW10249   4.304   3.425   5.232
 3117SOL    HW110250   4.399   3.408   5.204
 3117SOL    HW210251   4.242   3.388   5.163
 3118SOL     OW10252   0.965   5.317   2.381
 3118SOL    HW110253   1.017   5.237   2.352
 3118SOL    HW210254   0.991   5.396   2.326
 3119SOL     OW10255   2.365   3.710   6.537
 3119SOL    HW110256   2.365   3.615   6.506
 3119SOL    HW210257   2.307   3.765   6.477
 3120SOL     OW10258   3.527   0.241   5.069
 3120SOL    HW110259   3.427   0.238   5.067
 3120SOL    HW210260   3.562   0.256   4.977
 3121SOL     OW10261   0.379   0.643   3.600
 3121SOL    HW110262   0.347   0.700   3.525
 3121SOL    HW210263   0.329   0.667   3.684
 3122SOL     OW10264   4.424   6.129   6.263
 3122SOL    HW110265   4.463   6.126   6.171
 3122SOL    HW210266   4.373   6.045   6.281
 3123SOL     OW10267   2.500   1.607   3.419
 3123SOL    HW110268   2.450   1.608   3.333
 3123SOL    HW210269   2.475   1.525   3.472
 3124SOL     OW10270   4.341   0.081   4.627
 3124SOL    HW110271   4.430   0.034   4.623
 3124SOL    HW210272   4.272   0.018   4.662
 3125SOL     OW10273   0.142   2.756   5.077
 3125SOL    HW110274   0.096   2.845   5.068
 3125SOL    HW210275   0.201   2.758   5.158
 3126SOL     OW10276   5.579   4.605   5.380
 3126SOL    HW110277   5.596   4.506   5.384
 3126SOL    HW210278   5.490   4.625   5.421
 3127SOL     OW10279   1.344   3.525   5.452
 3127SOL    HW110280   1.428   3.562   5.490
 3127SOL    HW210281   1.338   3.547   5.355
 3128SOL     OW10282   2.521   0.280   6.232
 3128SOL    HW110283   2.514   0.373   6.268
 3128SOL    HW210284   2.493   0.215   6.302
 3129SOL     OW10285   6.108   3.641   6.571
 3129SOL    HW110286   6.088   3.675   6.663
 3129SOL    HW210287   6.157   3.554   6.577
 3130SOL     OW10288   2.000   4.330   1.025
 3130SOL    HW110289   2.049   4.346   0.940
 3130SOL    HW210290   2.054   4.366   1.101
 3131SOL     OW10291   0.529   2.994   1.420
 3131SOL    HW110292   0.566   2.906   1.453
 3131SOL    HW210293   0.531   3.060   1.495
 3132SOL     OW10294   3.725   5.764   6.445
 3132SOL    HW110295   3.711   5.668   6.468
 3132SOL    HW210296   3.794   5.804   6.505
 3133SOL     OW10297   3.429   1.352   3.838
 3133SOL    HW110298   3.403   1.324   3.745
 3133SOL    HW210299   3.512   1.304   3.866
 3134SOL     OW10300   4.569   4.187   1.692
 3134SOL    HW110301   4.536   4.232   1.775
 3134SOL    HW210302   4.669   4.185   1.694
 3135SOL     OW10303   4.489   0.877   5.265
 3135SOL    HW110304   4.563   0.916   5.319
 3135SOL    HW210305   4.416   0.944   5.253
 3136SOL     OW10306   5.164   0.810   1.331
 3136SOL    HW110307   5.247   0.859   1.359
 3136SOL    HW210308   5.085   0.869   1.344
 3137SOL     OW10309   6.442   0.586   1.843
 3137SOL    HW110310   6.440   0.487   1.856
 3137SOL    HW210311   6.526   0.611   1.794
 3138SOL     OW10312   6.119   4.574   3.757
 3138SOL    HW110313   6.117   4.647   3.689
 3138SOL    HW210314   6.085   4.609   3.845
 3139SOL     OW10315   5.192   6.235   0.773
 3139SOL    HW110316   5.108   6.267   0.818
 3139SOL    HW210317   5.231   6.309   0.719
 3140SOL     OW10318   6.253   0.070   0.150
 3140SOL    HW110319   6.269   6.997   0.130
 3140SOL    HW210320   6.335   0.122   0.130
 3141SOL     OW10321   0.718   6.584   6.445
 3141SOL    HW110322   0.776   6.633   6.510
 3141SOL    HW210323   0.628   6.627   6.441
 3142SOL     OW10324   3.858   6.587   1.935
 3142SOL    HW110325   3.894   6.549   2.021
 3142SOL    HW210326   3.819   6.677   1.952
 3143SOL     OW10327   6.847   2.021   6.798
 3143SOL    HW110328   6.781   2.093   6.775
 3143SOL    HW210329   6.856   1.959   6.721
 3144SOL     OW10330   3.840   4.125   1.423
 3144SOL    HW110331   3.849   4.173   1.510
 3144SOL    HW210332   3.818   4.029   1.440
 3145SOL     OW10333   2.129   6.016   0.821
 3145SOL    HW110334   2.094   5.973   0.737
 3145SOL    HW210335   2.225   6.042   0.808
 3146SOL     OW10336   1.613   0.646   3.769
 3146SOL    HW110337   1.563   0.635   3.683
 3146SOL    HW210338   1.698   0.592   3.764
 3147SOL     OW10339   3.319   5.811   1.298
 3147SOL    HW110340   3.244   5.807   1.231
 3147SOL    HW210341   3.347   5.718   1.321
 3148SOL     OW10342   6.022   5.870   4.685
 3148SOL    HW110343   5.956   5.861   4.760
 3148SOL    HW210344   6.104   5.917   4.718
 3149SOL     OW10345   2.555   1.207   5.470
 3149SOL    HW110346   2.606   1.252   5.543
 3149SOL    HW210347   2.534   1.274   5.398
 3150SOL     OW10348   5.936   5.450   4.377
 3150SOL    HW110349   5.963   5.491   4.465
 3150SOL    HW210350   6.017   5.413   4.331
 3151SOL     OW10351   6.106   1.619   5.335
 3151SOL    HW110352   6.200   1.593   5.359
 3151SOL    HW210353   6.062   1.543   5.287
 3152SOL     OW10354   1.184   5.618   0.472
 3152SOL    HW110355   1.197   5.650   0.566
 3152SOL    HW210356   1.268   5.573   0.441
 3153SOL     OW10357   5.663   4.507   1.046
 3153SOL    HW110358   5.591   4.450   1.006
 3153SOL    HW210359   5.751   4.462   1.033
 3154SOL     OW10360   6.623   1.457   6.369
 3154SOL    HW110361   6.550   1.437   6.304
 3154SOL    HW210362   6.583   1.495   6.453
 3155SOL     OW10363   6.288   4.487   0.228
 3155SOL    HW110364   6.201   4.460   0.187
 3155SOL    HW210365   6.272   4.533   0.315
 3156SOL     OW10366   3.281   2.907   3.626
 3156SOL    HW110367   3.230   2.965   3.689
 3156SOL    HW210368   3.299   2.818   3.669
 3157SOL     OW10369   2.532   2.154   4.689
 3157SOL    HW110370   2.505   2.152   4.592
 3157SOL    HW210371   2.451   2.150   4.747
 3158SOL     OW10372   4.458   1.239   3.621
 3158SOL    HW110373   4.375   1.294   3.623
 3158SOL    HW210374   4.448   1.165   3.555
 3159SOL     OW10375   6.079   1.641   6.869
 3159SOL    HW110376   5.982   1.662   6.879
 3159SOL    HW210377   6.130   1.686   6.942
 3160SOL     OW10378   0.200   6.229   5.674
 3160SOL    HW110379   0.238   6.247   5.583
 3160SOL    HW210380   0.238   6.144   5.710
 3161SOL     OW10381   1.792   2.477   3.348
 3161SOL    HW110382   1.842   2.563   3.340
 3161SOL    HW210383   1.852   2.408   3.389
 3162SOL     OW10384   1.429   6.762   2.277
 3162SOL    HW110385   1.334   6.731   2.283
 3162SOL    HW210386   1.452   6.815   2.359
 3163SOL     OW10387   4.643   2.398   6.132
 3163SOL    HW110388   4.637   2.408   6.033
 3163SOL    HW210389   4.656   2.301   6.155
 3164SOL     OW10390   4.473   4.843   1.181
 3164SOL    HW110391   4.460   4.815   1.086
 3164SOL    HW210392   4.397   4.901   1.210
 3165SOL     OW10393   0.103   6.152   1.320
 3165SOL    HW110394   0.132   6.248   1.320
 3165SOL    HW210395   0.009   6.146   1.354
 3166SOL     OW10396   4.253   1.835   4.620
 3166SOL    HW110397   4.268   1.929   4.591
 3166SOL    HW210398   4.339   1.795   4.652
 3167SOL     OW10399   6.295   4.562   0.709
 3167SOL    HW110400   6.308   4.518   0.798
 3167SOL    HW210401   6.202   4.545   0.677
 3168SOL     OW10402   4.490   2.020   6.497
 3168SOL    HW110403   4.492   1.940   6.556
 3168SOL    HW210404   4.518   1.994   6.405
 3169SOL     OW10405   2.140   3.528   4.431
 3169SOL    HW110406   2.202   3.544   4.507
 3169SOL    HW210407   2.124   3.430   4.420
 3170SOL     OW10408   4.113   0.277   1.559
 3170SOL    HW110409   4.090   0.321   1.472
 3170SOL    HW210410   4.041   0.211   1.583
 3171SOL     OW10411   0.275   0.528   1.586
 3171SOL    HW110412   0.341   0.454   1.576
 3171SOL    HW210413   0.300   0.603   1.525
 3172SOL     OW10414   6.522   5.073   0.369
 3172SOL    HW110415   6.534   4.974   0.371
 3172SOL    HW210416   6.543   5.112   0.458
 3173SOL     OW10417   3.011   2.058   0.474
 3173SOL    HW110418   2.955   2.121   0.419
 3173SOL    HW210419   2.951   2.007   0.536
 3174SOL     OW10420   2.869   2.001   7.015
 3174SOL    HW110421   2.811   1.925   0.019
 3174SOL    HW210422   2.844   2.083   0.043
 3175SOL     OW10423   6.789   0.825   0.808
 3175SOL    HW110424   6.852   0.768   0.756
 3175SOL    HW210425   6.832   0.853   0.894
 3176SOL     OW10426   1.453   4.883   4.862
 3176SOL    HW110427   1.427   4.977   4.842
 3176SOL    HW210428   1.549   4.879   4.886
 3177SOL     OW10429   4.856   3.938   4.061
 3177SOL    HW110430   4.948   3.974   4.076
 3177SOL    HW210431   4.860   3.838   4.055
 3178SOL     OW10432   6.178   2.100   0.377
 3178SOL    HW110433   6.134   2.179   0.420
 3178SOL    HW210434   6.197   2.030   0.447
 3179SOL     OW10435   1.177   3.291   1.914
 3179SOL    HW110436   1.093   3.257   1.956
 3179SOL    HW210437   1.167   3.290   1.815
 3180SOL     OW10438   4.539   1.140   0.042
 3180SOL    HW110439   4.512   1.222   7.015
 3180SOL    HW210440   4.610   1.163   0.108
 3181SOL     OW10441   6.818   1.326   2.698
 3181SOL    HW110442   6.885   1.365   2.634
 3181SOL    HW210443   6.849   1.338   2.792
 3182SOL     OW10444   3.082   0.736   5.487
 3182SOL    HW110445   3.178   0.762   5.496
 3182SOL    HW210446   3.049   0.762   5.396
 3183SOL     OW10447   3.984   4.147   1.707
 3183SOL    HW110448   3.918   4.199   1.760
 3183SOL    HW210449   4.065   4.204   1.690
 3184SOL     OW10450   0.767   2.583   2.462
 3184SOL    HW110451   0.776   2.513   2.391
 3184SOL    HW210452   0.679   2.628   2.454
 3185SOL     OW10453   5.948   5.714   0.161
 3185SOL    HW110454   6.048   5.719   0.167
 3185SOL    HW210455   5.918   5.621   0.178
 3186SOL     OW10456   3.934   1.649   2.015
 3186SOL    HW110457   3.843   1.668   2.051
 3186SOL    HW210458   3.930   1.570   1.954
 3187SOL     OW10459   4.650   4.136   0.052
 3187SOL    HW110460   4.743   4.157   0.021
 3187SOL    HW210461   4.606   4.219   0.086
 3188SOL     OW10462   2.505   0.502   4.715
 3188SOL    HW110463   2.405   0.507   4.707
 3188SOL    HW210464   2.538   0.418   4.671
 3189SOL     OW10465   1.442   1.364   1.881
 3189SOL    HW110466   1.467   1.423   1.958
 3189SOL    HW210467   1.443   1.417   1.797
 3190SOL     OW10468   6.783   6.528   0.369
 3190SOL    HW110469   6.699   6.533   0.423
 3190SOL    HW210470   6.773   6.584   0.286
 3191SOL     OW10471   5.251   0.123   1.128
 3191SOL    HW110472   5.173   0.148   1.070
 3191SOL    HW210473   5.336   0.146   1.081
 3192SOL     OW10474   0.301   2.578   1.553
 3192SOL    HW110475   0.374   2.547   1.493
 3192SOL    HW210476   0.320   2.672   1.582
 3193SOL     OW10477   3.893   1.542   6.714
 3193SOL    HW110478   3.934   1.470   6.658
 3193SOL    HW210479   3.864   1.618   6.655
 3194SOL     OW10480   1.304   2.929   6.340
 3194SOL    HW110481   1.280   2.852   6.280
 3194SOL    HW210482   1.352   2.999   6.286
 3195SOL     OW10483   2.681   2.266   3.337
 3195SOL    HW110484   2.750   2.270   3.265
 3195SOL    HW210485   2.590   2.258   3.295
 3196SOL     OW10486   0.855   1.439   5.751
 3196SOL    HW110487   0.860   1.477   5.659
 3196SOL    HW210488   0.801   1.500   5.810
 3197SOL     OW10489   2.358   6.294   3.084
 3197SOL    HW110490   2.400   6.386   3.081
 3197SOL    HW210491   2.427   6.228   3.112
 3198SOL     OW10492   5.861   2.271   5.534
 3198SOL    HW110493   5.887   2.340   5.465
 3198SOL    HW210494   5.790   2.212   5.497
 3199SOL     OW10495   4.840   3.018   2.394
 3199SOL    HW110496   4.814   3.113   2.375
 3199SOL    HW210497   4.937   3.014   2.418
 3200SOL     OW10498   6.908   2.875   1.938
 3200SOL    HW110499   6.873   2.790   1.976
 3200SOL    HW210500   6.883   2.951   1.997
 3201SOL     OW10501   5.151   4.861   4.564
 3201SOL    HW110502   5.097   4.781   4.590
 3201SOL    HW210503   5.114   4.900   4.480
 3202SOL     OW10504   0.587   4.719   1.800
 3202SOL    HW110505   0.596   4.627   1.838
 3202SOL    HW210506   0.540   4.778   1.865
 3203SOL     OW10507   6.437   2.168   6.803
 3203SOL    HW110508   6.510   2.199   6.743
 3203SOL    HW210509   6.432   2.229   6.883
 3204SOL     OW10510   4.837   6.336   2.028
 3204SOL    HW110511   4.787   6.325   2.114
 3204SOL    HW210512   4.784   6.394   1.966
 3205SOL     OW10513   0.020   3.388   6.203
 3205SOL    HW110514   6.953   3.427   6.216
 3205SOL    HW210515   0.058   3.362   6.292
 3206SOL     OW10516   0.633   6.865   5.825
 3206SOL    HW110517   0.655   6.878   5.729
 3206SOL    HW210518   0.581   6.781   5.837
 3207SOL     OW10519   1.158   0.786   5.528
 3207SOL    HW110520   1.143   0.736   5.613
 3207SOL    HW210521   1.070   0.807   5.485
 3208SOL     OW10522   5.226   6.762   5.458
 3208SOL    HW110523   5.189   6.854   5.468
 3208SOL    HW210524   5.151   6.697   5.447
 3209SOL     OW10525   4.027   5.256   2.925
 3209SOL    HW110526   3.971   5.237   3.006
 3209SOL    HW210527   3.994   5.340   2.882
 3210SOL     OW10528   0.826   4.189   1.310
 3210SOL    HW110529   0.866   4.281   1.315
 3210SOL    HW210530   0.792   4.163   1.400
 3211SOL     OW10531   1.690   3.654   0.805
 3211SOL    HW110532   1.777   3.605   0.799
 3211SOL    HW210533   1.703   3.748   0.774
 3212SOL     OW10534   2.746   0.705   0.891
 3212SOL    HW110535   2.751   0.663   0.800
 3212SOL    HW210536   2.833   0.748   0.913
 3213SOL     OW10537   0.454   5.916   2.106
 3213SOL    HW110538   0.356   5.930   2.121
 3213SOL    HW210539   0.491   5.989   2.049
 3214SOL     OW10540   4.750   5.584   0.840
 3214SOL    HW110541   4.709   5.675   0.843
 3214SOL    HW210542   4.821   5.582   0.770
 3215SOL     OW10543   0.273   2.952   0.889
 3215SOL    HW110544   0.256   2.896   0.971
 3215SOL    HW210545   0.235   3.043   0.903
 3216SOL     OW10546   5.906   5.080   1.311
 3216SOL    HW110547   5.923   4.983   1.293
 3216SOL    HW210548   5.817   5.090   1.357
 3217SOL     OW10549   0.247   6.214   2.939
 3217SOL    HW110550   0.265   6.295   2.995
 3217SOL    HW210551   0.288   6.226   2.848
 3218SOL     OW10552   4.200   0.292   3.908
 3218SOL    HW110553   4.151   0.210   3.878
 3218SOL    HW210554   4.268   0.268   3.976
 3219SOL     OW10555   0.012   1.937   3.243
 3219SOL    HW110556   0.037   1.911   3.150
 3219SOL    HW210557   7.020   1.855   3.298
 3220SOL     OW10558   6.366   6.061   5.578
 3220SOL    HW110559   6.334   5.983   5.524
 3220SOL    HW210560   6.457   6.089   5.545
 3221SOL     OW10561   3.288   0.246   1.524
 3221SOL    HW110562   3.281   0.338   1.562
 3221SOL    HW210563   3.292   0.252   1.424
 3222SOL     OW10564   4.333   1.540   2.833
 3222SOL    HW110565   4.294   1.494   2.914
 3222SOL    HW210566   4.426   1.508   2.819
 3223SOL     OW10567   2.299   5.277   6.758
 3223SOL    HW110568   2.246   5.243   6.680
 3223SOL    HW210569   2.282   5.375   6.768
 3224SOL     OW10570   4.352   3.814   0.249
 3224SOL    HW110571   4.366   3.872   0.330
 3224SOL    HW210572   4.347   3.871   0.167
 3225SOL     OW10573   4.767   3.324   6.187
 3225SOL    HW110574   4.737   3.283   6.101
 3225SOL    HW210575   4.710   3.291   6.262
 3226SOL     OW10576   1.939   1.689   4.212
 3226SOL    HW110577   2.027   1.733   4.222
 3226SOL    HW210578   1.889   1.691   4.299
 3227SOL     OW10579   3.743   1.642   0.360
 3227SOL    HW110580   3.714   1.560   0.410
 3227SOL    HW210581   3.714   1.635   0.265
 3228SOL     OW10582   5.742   4.268   2.758
 3228SOL    HW110583   5.826   4.281   2.706
 3228SOL    HW210584   5.669   4.322   2.717
 3229SOL     OW10585   3.722   0.837   5.475
 3229SOL    HW110586   3.740   0.933   5.494
 3229SOL    HW210587   3.700   0.825   5.378
 3230SOL     OW10588   1.433   2.911   4.103
 3230SOL    HW110589   1.465   3.001   4.074
 3230SOL    HW210590   1.334   2.912   4.113
 3231SOL     OW10591   2.262   1.000   1.684
 3231SOL    HW110592   2.199   0.954   1.621
 3231SOL    HW210593   2.290   1.088   1.646
 3232SOL     OW10594   4.295   5.240   5.194
 3232SOL    HW110595   4.326   5.191   5.112
 3232SOL    HW210596   4.375   5.266   5.248
 3233SOL     OW10597   0.620   2.701   1.762
 3233SOL    HW110598   0.711   2.707   1.721
 3233SOL    HW210599   0.619   2.627   1.830
 3234SOL     OW10600   0.437   1.667   6.895
 3234SOL    HW110601   0.506   1.668   6.822
 3234SOL    HW210602   0.383   1.751   6.891
 3235SOL     OW10603   4.925   0.974   1.264
 3235SOL    HW110604   4.964   1.056   1.306
 3235SOL    HW210605   4.886   0.997   1.175
 3236SOL     OW10606   1.330   3.511   0.538
 3236SOL    HW110607   1.258   3.516   0.608
 3236SOL    HW210608   1.322   3.589   0.477
 3237SOL     OW10609   5.339   1.246   3.950
 3237SOL    HW110610   5.346   1.196   4.037
 3237SOL    HW210611   5.245   1.275   3.936
 3238SOL     OW10612   0.061   4.949   0.850
 3238SOL    HW110613   0.045   5.032   0.903
 3238SOL    HW210614   6.998   4.910   0.822
 3239SOL     OW10615   6.668   1.632   1.431
 3239SOL    HW110616   6.613   1.550   1.413
 3239SOL    HW210617   6.608   1.711   1.444
 3240SOL     OW10618   1.733   6.845   6.021
 3240SOL    HW110619   1.828   6.860   6.050
 3240SOL    HW210620   1.716   6.747   6.009
 3241SOL     OW10621   4.377   1.310   5.452
 3241SOL    HW110622   4.449   1.372   5.420
 3241SOL    HW210623   4.312   1.361   5.508
 3242SOL     OW10624   3.314   4.519   0.653
 3242SOL    HW110625   3.299   4.457   0.730
 3242SOL    HW210626   3.379   4.590   0.680
 3243SOL     OW10627   5.329   4.622   1.011
 3243SOL    HW110628   5.381   4.688   1.064
 3243SOL    HW210629   5.391   4.569   0.954
 3244SOL     OW10630   5.047   6.174   0.097
 3244SOL    HW110631   5.116   6.102   0.098
 3244SOL    HW210632   4.957   6.135   0.116
 3245SOL     OW10633   4.665   2.806   5.102
 3245SOL    HW110634   4.578   2.774   5.141
 3245SOL    HW210635   4.741   2.771   5.157
 3246SOL     OW10636   5.003   0.645   2.780
 3246SOL    HW110637   5.076   0.676   2.840
 3246SOL    HW210638   5.021   0.677   2.687
 3247SOL     OW10639   5.819   4.938   2.718
 3247SOL    HW110640   5.771   4.973   2.797
 3247SOL    HW210641   5.760   4.874   2.668
 3248SOL     OW10642   6.700   3.722   1.980
 3248SOL    HW110643   6.666   3.633   1.949
 3248SOL    HW210644   6.635   3.793   1.953
 3249SOL     OW10645   3.623   3.892   4.354
 3249SOL    HW110646   3.697   3.940   4.306
 3249SOL    HW210647   3.543   3.887   4.295
 3250SOL     OW10648   5.967   6.801   1.821
 3250SOL    HW110649   5.883   6.768   1.864
 3250SOL    HW210650   5.966   6.779   1.724
 3251SOL     OW10651   3.325   0.828   2.148
 3251SOL    HW110652   3.310   0.734   2.118
 3251SOL    HW210653   3.377   0.828   2.233
 3252SOL     OW10654   2.480   2.136   2.553
 3252SOL    HW110655   2.560   2.183   2.515
 3252SOL    HW210656   2.510   2.054   2.602
 3253SOL     OW10657   5.859   3.282   2.126
 3253SOL    HW110658   5.934   3.225   2.158
 3253SOL    HW210659   5.808   3.233   2.055
 3254SOL     OW10660   5.308   5.192   5.623
 3254SOL    HW110661   5.298   5.290   5.644
 3254SOL    HW210662   5.405   5.167   5.629
 3255SOL     OW10663   5.230   5.839   1.539
 3255SOL    HW110664   5.132   5.843   1.557
 3255SOL    HW210665   5.273   5.923   1.572
 3256SOL     OW10666   4.700   0.869   0.232
 3256SOL    HW110667   4.763   0.906   0.164
 3256SOL    HW210668   4.706   0.923   0.316
 3257SOL     OW10669   1.330   1.634   1.334
 3257SOL    HW110670   1.319   1.594   1.425
 3257SOL    HW210671   1.241   1.660   1.298
 3258SOL     OW10672   3.825   4.925   1.992
 3258SOL    HW110673   3.870   4.852   2.044
 3258SOL    HW210674   3.733   4.895   1.966
 3259SOL     OW10675   4.560   5.247   3.718
 3259SOL    HW110676   4.584   5.283   3.808
 3259SOL    HW210677   4.615   5.166   3.699
 3260SOL     OW10678   1.318   2.007   0.644
 3260SOL    HW110679   1.328   1.997   0.743
 3260SOL    HW210680   1.333   1.919   0.599
 3261SOL     OW10681   4.927   6.662   0.414
 3261SOL    HW110682   4.948   6.564   0.416
 3261SOL    HW210683   4.899   6.688   0.322
 3262SOL     OW10684   3.477   2.105   2.818
 3262SOL    HW110685   3.443   2.066   2.733
 3262SOL    HW210686   3.560   2.059   2.846
 3263SOL     OW10687   3.016   1.201   3.750
 3263SOL    HW110688   3.079   1.151   3.690
 3263SOL    HW210689   3.004   1.294   3.715
 3264SOL     OW10690   1.176   4.286   1.022
 3264SOL    HW110691   1.196   4.238   0.936
 3264SOL    HW210692   1.240   4.362   1.033
 3265SOL     OW10693   4.986   1.399   5.696
 3265SOL    HW110694   4.930   1.433   5.621
 3265SOL    HW210695   5.029   1.476   5.743
 3266SOL     OW10696   0.649   2.741   0.097
 3266SOL    HW110697   0.633   2.651   0.138
 3266SOL    HW210698   0.703   2.730   0.014
 3267SOL     OW10699   3.557   1.191   6.822
 3267SOL    HW110700   3.497   1.159   6.896
 3267SOL    HW210701   3.581   1.287   6.837
 3268SOL     OW10702   1.486   4.755   0.112
 3268SOL    HW110703   1.459   4.667   0.151
 3268SOL    HW210704   1.474   4.752   0.012
 3269SOL     OW10705   4.425   4.553   1.947
 3269SOL    HW110706   4.416   4.579   2.043
 3269SOL    HW210707   4.420   4.453   1.938
 3270SOL     OW10708   0.705   4.556   4.358
 3270SOL    HW110709   0.612   4.532   4.388
 3270SOL    HW210710   0.772   4.516   4.420
 3271SOL     OW10711   5.509   3.589   2.435
 3271SOL    HW110712   5.506   3.652   2.358
 3271SOL    HW210713   5.439   3.518   2.423
 3272SOL     OW10714   3.301   4.371   6.666
 3272SOL    HW110715   3.269   4.279   6.643
 3272SOL    HW210716   3.253   4.439   6.611
 3273SOL     OW10717   0.867   6.437   1.789
 3273SOL    HW110718   0.859   6.534   1.764
 3273SOL    HW210719   0.790   6.387   1.751
 3274SOL     OW10720   4.230   1.044   1.853
 3274SOL    HW110721   4.203   1.081   1.942
 3274SOL    HW210722   4.270   1.117   1.798
 3275SOL     OW10723   0.400   0.777   6.370
 3275SOL    HW110724   0.469   0.848   6.357
 3275SOL    HW210725   0.424   0.721   6.449
 3276SOL     OW10726   3.356   6.121   0.249
 3276SOL    HW110727   3.370   6.083   0.340
 3276SOL    HW210728   3.341   6.047   0.184
 3277SOL     OW10729   4.891   0.141   0.627
 3277SOL    HW110730   4.979   0.145   0.580
 3277SOL    HW210731   4.840   0.061   0.595
 3278SOL     OW10732   0.193   1.408   5.819
 3278SOL    HW110733   0.244   1.351   5.884
 3278SOL    HW210734   0.256   1.449   5.753
 3279SOL     OW10735   6.018   1.378   0.458
 3279SOL    HW110736   6.109   1.363   0.419
 3279SOL    HW210737   5.951   1.322   0.409
 3280SOL     OW10738   3.820   4.934   4.966
 3280SOL    HW110739   3.722   4.916   4.974
 3280SOL    HW210740   3.859   4.871   4.899
 3281SOL     OW10741   2.346   5.108   1.273
 3281SOL    HW110742   2.415   5.136   1.341
 3281SOL    HW210743   2.297   5.188   1.240
 3282SOL     OW10744   1.133   5.644   4.819
 3282SOL    HW110745   1.121   5.588   4.901
 3282SOL    HW210746   1.120   5.740   4.842
 3283SOL     OW10747   4.140   1.246   0.569
 3283SOL    HW110748   4.122   1.287   0.658
 3283SOL    HW210749   4.056   1.247   0.514
 3284SOL     OW10750   6.085   5.833   6.724
 3284SOL    HW110751   6.109   5.826   6.627
 3284SOL    HW210752   6.147   5.897   6.769
 3285SOL     OW10753   4.985   3.014   4.024
 3285SOL    HW110754   5.024   3.057   3.942
 3285SOL    HW210755   4.994   2.915   4.017
 3286SOL     OW10756   4.150   3.476   2.404
 3286SOL    HW110757   4.201   3.485   2.490
 3286SOL    HW210758   4.053   3.464   2.423
 3287SOL     OW10759   1.611   6.836   6.672
 3287SOL    HW110760   1.515   6.843   6.645
 3287SOL    HW210761   1.668   6.880   6.602
 3288SOL     OW10762   0.682   5.513   6.569
 3288SOL    HW110763   0.586   5.498   6.595
 3288SOL    HW210764   0.742   5.470   6.636
 3289SOL     OW10765   2.777   6.711   5.232
 3289SOL    HW110766   2.829   6.774   5.174
 3289SOL    HW210767   2.717   6.655   5.175
 3290SOL     OW10768   0.618   6.733   2.042
 3290SOL    HW110769   0.716   6.756   2.041
 3290SOL    HW210770   0.565   6.812   2.011
 3291SOL     OW10771   1.136   6.157   0.300
 3291SOL    HW110772   1.192   6.220   0.354
 3291SOL    HW210773   1.090   6.093   0.361
 3292SOL     OW10774   0.823   0.855   0.916
 3292SOL    HW110775   0.885   0.912   0.969
 3292SOL    HW210776   0.869   0.769   0.892
 3293SOL     OW10777   0.404   3.769   3.356
 3293SOL    HW110778   0.426   3.831   3.281
 3293SOL    HW210779   0.488   3.737   3.399
 3294SOL     OW10780   0.443   1.090   6.020
 3294SOL    HW110781   0.510   1.044   6.079
 3294SOL    HW210782   0.352   1.050   6.036
 3295SOL     OW10783   1.434   3.328   1.733
 3295SOL    HW110784   1.477   3.390   1.799
 3295SOL    HW210785   1.493   3.249   1.717
 3296SOL     OW10786   2.101   6.190   2.091
 3296SOL    HW110787   2.138   6.277   2.058
 3296SOL    HW210788   2.038   6.208   2.167
 3297SOL     OW10789   2.862   0.453   4.512
 3297SOL    HW110790   2.932   0.521   4.532
 3297SOL    HW210791   2.898   0.362   4.529
 3298SOL     OW10792   5.600   1.596   4.350
 3298SOL    HW110793   5.655   1.679   4.359
 3298SOL    HW210794   5.611   1.559   4.257
 3299SOL     OW10795   2.460   5.885   3.915
 3299SOL    HW110796   2.408   5.860   3.833
 3299SOL    HW210797   2.504   5.804   3.953
 3300SOL     OW10798   0.320   0.952   5.527
 3300SOL    HW110799   0.253   1.024   5.546
 3300SOL    HW210800   0.409   0.993   5.509
 3301SOL     OW10801   2.155   3.310   3.175
 3301SOL    HW110802   2.117   3.365   3.100
 3301SOL    HW210803   2.226   3.250   3.140
 3302SOL     OW10804   1.077   5.549   5.835
 3302SOL    HW110805   0.998   5.610   5.842
 3302SOL    HW210806   1.048   5.462   5.795
 3303SOL     OW10807   3.473   2.855   1.989
 3303SOL    HW110808   3.388   2.883   2.034
 3303SOL    HW210809   3.452   2.820   1.898
 3304SOL     OW10810   1.723   5.672   4.122
 3304SOL    HW110811   1.778   5.727   4.060
 3304SOL    HW210812   1.631   5.659   4.084
 3305SOL     OW10813   2.207   1.477   3.001
 3305SOL    HW110814   2.287   1.497   3.057
 3305SOL    HW210815   2.224   1.395   2.946
 3306SOL     OW10816   2.291   5.607   4.511
 3306SOL    HW110817   2.343   5.522   4.516
 3306SOL    HW210818   2.201   5.588   4.472
 3307SOL     OW10819   6.785   5.706   6.796
 3307SOL    HW110820   6.811   5.783   6.738
 3307SOL    HW210821   6.694   5.723   6.835
 3308SOL     OW10822   4.146   5.612   6.930
 3308SOL    HW110823   4.135   5.580   6.836
 3308SOL    HW210824   4.201   5.695   6.931
 3309SOL     OW10825   0.344   5.486   2.434
 3309SOL    HW110826   0.418   5.500   2.499
 3309SOL    HW210827   0.268   5.547   2.455
 3310SOL     OW10828   0.391   3.833   4.912
 3310SOL    HW110829   0.350   3.743   4.920
 3310SOL    HW210830   0.372   3.887   4.994
 3311SOL     OW10831   2.151   3.940   1.770
 3311SOL    HW110832   2.232   3.997   1.782
 3311SOL    HW210833   2.093   3.979   1.698
 3312SOL     OW10834   3.625   4.782   6.102
 3312SOL    HW110835   3.529   4.777   6.131
 3312SOL    HW210836   3.676   4.706   6.143
 3313SOL     OW10837   7.023   5.462   3.155
 3313SOL    HW110838   6.951   5.506   3.101
 3313SOL    HW210839   0.044   5.530   3.212
 3314SOL     OW10840   3.072   1.860   3.858
 3314SOL    HW110841   3.100   1.765   3.845
 3314SOL    HW210842   3.084   1.885   3.954
 3315SOL     OW10843   6.009   2.884   3.968
 3315SOL    HW110844   5.950   2.961   3.946
 3315SOL    HW210845   6.101   2.900   3.930
 3316SOL     OW10846   4.571   1.897   6.259
 3316SOL    HW110847   4.631   1.818   6.275
 3316SOL    HW210848   4.499   1.871   6.195
 3317SOL     OW10849   4.853   3.595   2.002
 3317SOL    HW110850   4.893   3.525   1.942
 3317SOL    HW210851   4.832   3.555   2.091
 3318SOL     OW10852   3.465   0.929   0.425
 3318SOL    HW110853   3.512   0.992   0.488
 3318SOL    HW210854   3.526   0.853   0.403
 3319SOL     OW10855   6.384   0.221   4.254
 3319SOL    HW110856   6.391   0.159   4.332
 3319SOL    HW210857   6.462   0.283   4.254
 3320SOL     OW10858   5.962   0.581   5.615
 3320SOL    HW110859   6.028   0.652   5.642
 3320SOL    HW210860   5.923   0.539   5.697
 3321SOL     OW10861   3.890   2.338   1.520
 3321SOL    HW110862   3.919   2.343   1.615
 3321SOL    HW210863   3.791   2.330   1.515
 3322SOL     OW10864   5.064   3.417   1.145
 3322SOL    HW110865   5.073   3.417   1.046
 3322SOL    HW210866   5.049   3.510   1.178
 3323SOL     OW10867   2.750   3.478   6.289
 3323SOL    HW110868   2.671   3.437   6.335
 3323SOL    HW210869   2.792   3.546   6.350
 3324SOL     OW10870   1.381   3.669   6.505
 3324SOL    HW110871   1.448   3.744   6.506
 3324SOL    HW210872   1.426   3.584   6.479
 3325SOL     OW10873   2.104   2.626   6.335
 3325SOL    HW110874   2.134   2.583   6.250
 3325SOL    HW210875   2.181   2.632   6.399
 3326SOL     OW10876   5.558   1.935   2.262
 3326SOL    HW110877   5.518   1.848   2.290
 3326SOL    HW210878   5.595   1.982   2.342
 3327SOL     OW10879   3.278   5.614   1.633
 3327SOL    HW110880   3.330   5.699   1.623
 3327SOL    HW210881   3.226   5.597   1.549
 3328SOL     OW10882   4.499   1.767   1.710
 3328SOL    HW110883   4.401   1.780   1.692
 3328SOL    HW210884   4.513   1.758   1.809
 3329SOL     OW10885   5.352   0.528   4.499
 3329SOL    HW110886   5.426   0.468   4.528
 3329SOL    HW210887   5.297   0.482   4.430
 3330SOL     OW10888   6.147   5.956   1.138
 3330SOL    HW110889   6.205   6.008   1.075
 3330SOL    HW210890   6.077   6.016   1.176
 3331SOL     OW10891   0.634   3.701   1.571
 3331SOL    HW110892   0.712   3.640   1.588
 3331SOL    HW210893   0.613   3.702   1.473
 3332SOL     OW10894   6.521   4.736   0.794
 3332SOL    HW110895   6.446   4.672   0.780
 3332SOL    HW210896   6.583   4.701   0.864
 3333SOL     OW10897   3.123   3.933   6.429
 3333SOL    HW110898   3.054   3.974   6.368
 3333SOL    HW210899   3.089   3.844   6.462
 3334SOL     OW10900   2.331   4.102   1.895
 3334SOL    HW110901   2.317   4.176   1.961
 3334SOL    HW210902   2.402   4.040   1.929
 3335SOL     OW10903   4.769   6.596   6.257
 3335SOL    HW110904   4.781   6.497   6.265
 3335SOL    HW210905   4.846   6.634   6.205
 3336SOL     OW10906   1.783   6.667   4.871
 3336SOL    HW110907   1.815   6.752   4.913
 3336SOL    HW210908   1.684   6.661   4.879
 3337SOL     OW10909   3.020   3.978   1.508
 3337SOL    HW110910   2.967   4.012   1.586
 3337SOL    HW210911   3.105   3.937   1.541
 3338SOL     OW10912   6.950   2.699   1.384
 3338SOL    HW110913   6.916   2.736   1.471
 3338SOL    HW210914   6.885   2.633   1.348
 3339SOL     OW10915   1.109   6.855   6.329
 3339SOL    HW110916   1.093   6.851   6.428
 3339SOL    HW210917   1.044   6.919   6.288
 3340SOL     OW10918   3.326   1.808   3.120
 3340SOL    HW110919   3.369   1.897   3.135
 3340SOL    HW210920   3.231   1.811   3.153
 3341SOL     OW10921   1.302   4.366   4.048
 3341SOL    HW110922   1.274   4.338   3.956
 3341SOL    HW210923   1.284   4.291   4.112
 3342SOL     OW10924   1.487   6.804   3.560
 3342SOL    HW110925   1.493   6.773   3.465
 3342SOL    HW210926   1.511   6.728   3.621
 3343SOL     OW10927   5.446   4.322   6.693
 3343SOL    HW110928   5.357   4.354   6.661
 3343SOL    HW210929   5.513   4.396   6.683
 3344SOL     OW10930   5.505   3.600   3.263
 3344SOL    HW110931   5.585   3.582   3.206
 3344SOL    HW210932   5.504   3.696   3.290
 3345SOL     OW10933   1.479   3.719   6.015
 3345SOL    HW110934   1.513   3.625   6.009
 3345SOL    HW210935   1.541   3.773   6.072
 3346SOL     OW10936   0.769   0.673   0.229
 3346SOL    HW110937   0.695   0.717   0.178
 3346SOL    HW210938   0.843   0.649   0.166
 3347SOL     OW10939   1.200   2.570   4.513
 3347SOL    HW110940   1.124   2.519   4.472
 3347SOL    HW210941   1.173   2.603   4.604
 3348SOL     OW10942   4.037   3.561   4.432
 3348SOL    HW110943   4.079   3.515   4.353
 3348SOL    HW210944   3.972   3.629   4.399
 3349SOL     OW10945   2.092   5.090   3.332
 3349SOL    HW110946   2.022   5.020   3.345
 3349SOL    HW210947   2.182   5.049   3.343
 3350SOL     OW10948   0.008   2.173   5.859
 3350SOL    HW110949   0.062   2.089   5.849
 3350SOL    HW210950   6.998   2.201   5.770
 3351SOL     OW10951   4.997   0.880   3.102
 3351SOL    HW110952   5.090   0.855   3.075
 3351SOL    HW210953   4.940   0.889   3.021
 3352SOL     OW10954   6.962   3.186   1.263
 3352SOL    HW110955   6.886   3.125   1.285
 3352SOL    HW210956   6.935   3.248   1.189
 3353SOL     OW10957   2.846   5.788   1.381
 3353SOL    HW110958   2.881   5.829   1.465
 3353SOL    HW210959   2.795   5.857   1.329
 3354SOL     OW10960   4.307   2.533   5.677
 3354SOL    HW110961   4.360   2.477   5.740
 3354SOL    HW210962   4.295   2.625   5.715
 3355SOL     OW10963   1.738   1.670   6.243
 3355SOL    HW110964   1.803   1.706   6.310
 3355SOL    HW210965   1.775   1.587   6.202
 3356SOL     OW10966   0.904   5.491   6.212
 3356SOL    HW110967   0.849   5.415   6.246
 3356SOL    HW210968   0.874   5.514   6.119
 3357SOL     OW10969   2.277   3.680   1.706
 3357SOL    HW110970   2.204   3.740   1.739
 3357SOL    HW210971   2.305   3.618   1.780
 3358SOL     OW10972   4.564   1.679   1.971
 3358SOL    HW110973   4.592   1.599   1.918
 3358SOL    HW210974   4.612   1.679   2.059
 3359SOL     OW10975   0.540   6.214   3.124
 3359SOL    HW110976   0.462   6.212   3.187
 3359SOL    HW210977   0.625   6.218   3.177
 3360SOL     OW10978   1.585   0.880   6.974
 3360SOL    HW110979   1.673   0.921   6.948
 3360SOL    HW210980   1.533   0.945   0.004
 3361SOL     OW10981   6.836   5.112   4.408
 3361SOL    HW110982   6.839   5.146   4.502
 3361SOL    HW210983   6.865   5.016   4.406
 3362SOL     OW10984   3.305   1.436   3.043
 3362SOL    HW110985   3.318   1.489   3.127
 3362SOL    HW210986   3.209   1.439   3.015
 3363SOL     OW10987   7.010   1.848   2.051
 3363SOL    HW110988   6.938   1.909   2.084
 3363SOL    HW210989   0.041   1.817   2.129
 3364SOL     OW10990   1.585   4.763   3.960
 3364SOL    HW110991   1.536   4.850   3.966
 3364SOL    HW210992   1.548   4.699   4.027
 3365SOL     OW10993   0.236   2.481   4.690
 3365SOL    HW110994   0.198   2.490   4.598
 3365SOL    HW210995   0.325   2.437   4.685
 3366SOL     OW10996   5.485   5.118   4.604
 3366SOL    HW110997   5.400   5.117   4.658
 3366SOL    HW210998   5.560   5.082   4.660
 3367SOL     OW10999   3.933   3.062   2.521
 3367SOL    HW111000   3.852   3.004   2.527
 3367SOL    HW211001   3.978   3.066   2.611
 3368SOL     OW11002   0.764   5.670   6.379
 3368SOL    HW111003   0.738   5.609   6.453
 3368SOL    HW211004   0.832   5.625   6.321
 3369SOL     OW11005   3.616   1.865   0.323
 3369SOL    HW111006   3.660   1.776   0.337
 3369SOL    HW211007   3.518   1.852   0.310
 3370SOL     OW11008   6.708   6.343   1.480
 3370SOL    HW111009   6.755   6.423   1.444
 3370SOL    HW211010   6.630   6.320   1.421
 3371SOL     OW11011   1.831   3.063   1.441
 3371SOL    HW111012   1.913   3.115   1.462
 3371SOL    HW211013   1.848   3.003   1.363
 3372SOL     OW11014   0.138   2.219   6.666
 3372SOL    HW111015   0.125   2.173   6.753
 3372SOL    HW211016   0.218   2.279   6.672
 3373SOL     OW11017   0.539   1.831   3.825
 3373SOL    HW111018   0.543   1.735   3.854
 3373SOL    HW211019   0.477   1.881   3.885
 3374SOL     OW11020   1.091   6.596   4.058
 3374SOL    HW111021   1.028   6.545   3.999
 3374SOL    HW211022   1.082   6.694   4.039
 3375SOL     OW11023   0.050   4.655   0.083
 3375SOL    HW111024   0.126   4.636   0.021
 3375SOL    HW211025   0.019   4.749   0.069
 3376SOL     OW11026   3.941   3.329   4.549
 3376SOL    HW111027   3.952   3.310   4.646
 3376SOL    HW211028   3.933   3.428   4.535
 3377SOL     OW11029   6.358   5.585   5.772
 3377SOL    HW111030   6.289   5.514   5.788
 3377SOL    HW211031   6.424   5.552   5.704
 3378SOL     OW11032   1.321   6.820   0.819
 3378SOL    HW111033   1.231   6.862   0.804
 3378SOL    HW211034   1.338   6.751   0.748
 3379SOL     OW11035   1.361   1.954   5.248
 3379SOL    HW111036   1.369   1.862   5.208
 3379SOL    HW211037   1.372   2.023   5.176
 3380SOL     OW11038   5.456   6.846   4.613
 3380SOL    HW111039   5.443   6.936   4.572
 3380SOL    HW211040   5.370   6.795   4.609
 3381SOL     OW11041   0.849   3.284   1.505
 3381SOL    HW111042   0.931   3.337   1.524
 3381SOL    HW211043   0.816   3.305   1.413
 3382SOL     OW11044   0.724   2.706   6.786
 3382SOL    HW111045   0.663   2.669   6.716
 3382SOL    HW211046   0.706   2.804   6.797
 3383SOL     OW11047   4.013   5.761   1.204
 3383SOL    HW111048   4.040   5.744   1.299
 3383SOL    HW211049   3.915   5.779   1.200
 3384SOL     OW11050   2.136   3.221   0.873
 3384SOL    HW111051   2.209   3.289   0.863
 3384SOL    HW211052   2.168   3.132   0.841
 3385SOL     OW11053   6.730   3.409   4.518
 3385SOL    HW111054   6.761   3.456   4.435
 3385SOL    HW211055   6.693   3.320   4.494
 3386SOL     OW11056   5.135   4.166   0.299
 3386SOL    HW111057   5.098   4.082   0.337
 3386SOL    HW211058   5.189   4.214   0.369
 3387SOL     OW11059   3.827   0.535   3.209
 3387SOL    HW111060   3.922   0.549   3.239
 3387SOL    HW211061   3.767   0.599   3.256
 3388SOL     OW11062   5.117   3.120   2.453
 3388SOL    HW111063   5.132   3.130   2.552
 3388SOL    HW211064   5.159   3.034   2.422
 3389SOL     OW11065   6.417   5.748   5.993
 3389SOL    HW111066   6.365   5.702   6.066
 3389SOL    HW211067   6.374   5.729   5.905
 3390SOL     OW11068   5.626   6.792   6.473
 3390SOL    HW111069   5.656   6.877   6.431
 3390SOL    HW211070   5.526   6.784   6.465
 3391SOL     OW11071   4.904   2.376   4.317
 3391SOL    HW111072   4.824   2.386   4.258
 3391SOL    HW211073   4.875   2.341   4.407
 3392SOL     OW11074   2.872   6.883   3.879
 3392SOL    HW111075   2.943   6.813   3.873
 3392SOL    HW211076   2.806   6.857   3.949
 3393SOL     OW11077   6.439   6.115   0.681
 3393SOL    HW111078   6.486   6.146   0.598
 3393SOL    HW211079   6.497   6.135   0.760
 3394SOL     OW11080   5.255   3.481   0.935
 3394SOL    HW111081   5.229   3.475   0.839
 3394SOL    HW211082   5.280   3.391   0.969
 3395SOL     OW11083   5.310   2.987   3.764
 3395SOL    HW111084   5.316   2.887   3.764
 3395SOL    HW211085   5.363   3.024   3.688
 3396SOL     OW11086   5.646   1.140   3.484
 3396SOL    HW111087   5.575   1.072   3.500
 3396SOL    HW211088   5.682   1.171   3.572
 3397SOL     OW11089   3.247   5.800   6.865
 3397SOL    HW111090   3.170   5.793   6.801
 3397SOL    HW211091   3.283   5.708   6.884
 3398SOL     OW11092   0.775   0.733   4.840
 3398SOL    HW111093   0.851   0.678   4.874
 3398SOL    HW211094   0.689   0.684   4.854
 3399SOL     OW11095   5.189   5.148   3.660
 3399SOL    HW111096   5.152   5.067   3.705
 3399SOL    HW211097   5.282   5.165   3.693
 3400SOL     OW11098   5.399   3.011   6.726
 3400SOL    HW111099   5.481   2.978   6.678
 3400SOL    HW211100   5.420   3.098   6.770
 3401SOL     OW11101   0.071   3.640   6.091
 3401SOL    HW111102   0.056   3.545   6.120
 3401SOL    HW211103   0.058   3.701   6.170
 3402SOL     OW11104   4.698   5.367   6.358
 3402SOL    HW111105   4.710   5.400   6.264
 3402SOL    HW211106   4.769   5.300   6.379
 3403SOL     OW11107   3.800   5.465   6.282
 3403SOL    HW111108   3.810   5.477   6.184
 3403SOL    HW211109   3.772   5.371   6.302
 3404SOL     OW11110   5.486   2.545   0.745
 3404SOL    HW111111   5.553   2.523   0.816
 3404SOL    HW211112   5.521   2.620   0.688
 3405SOL     OW11113   6.323   3.988   6.445
 3405SOL    HW111114   6.294   3.984   6.541
 3405SOL    HW211115   6.350   4.082   6.423
 3406SOL     OW11116   1.299   3.743   2.055
 3406SOL    HW111117   1.330   3.755   1.961
 3406SOL    HW211118   1.302   3.646   2.080
 3407SOL     OW11119   1.235   4.155   6.690
 3407SOL    HW111120   1.174   4.212   6.746
 3407SOL    HW211121   1.181   4.100   6.628
 3408SOL     OW11122   5.350   3.087   4.717
 3408SOL    HW111123   5.267   3.140   4.735
 3408SOL    HW211124   5.364   3.021   4.791
 3409SOL     OW11125   3.670   5.963   0.189
 3409SOL    HW111126   3.738   6.036   0.197
 3409SOL    HW211127   3.615   5.978   0.106
 3410SOL     OW11128   6.923   6.492   1.677
 3410SOL    HW111129   7.001   6.458   1.729
 3410SOL    HW211130   6.937   6.474   1.580
 3411SOL     OW11131   0.205   2.610   0.977
 3411SOL    HW111132   0.294   2.566   0.979
 3411SOL    HW211133   0.204   2.686   1.042
 3412SOL     OW11134   4.761   3.173   1.330
 3412SOL    HW111135   4.811   3.248   1.374
 3412SOL    HW211136   4.771   3.090   1.385
 3413SOL     OW11137   6.245   1.596   0.655
 3413SOL    HW111138   6.343   1.618   0.656
 3413SOL    HW211139   6.209   1.602   0.749
 3414SOL     OW11140   3.477   1.826   5.562
 3414SOL    HW111141   3.517   1.915   5.541
 3414SOL    HW211142   3.382   1.824   5.533
 3415SOL     OW11143   1.779   3.146   4.214
 3415SOL    HW111144   1.798   3.213   4.285
 3415SOL    HW211145   1.831   3.169   4.132
 3416SOL     OW11146   5.791   6.185   0.473
 3416SOL    HW111147   5.813   6.244   0.396
 3416SOL    HW211148   5.694   6.164   0.472
 3417SOL     OW11149   0.327   5.998   4.053
 3417SOL    HW111150   0.345   5.933   4.127
 3417SOL    HW211151   0.384   5.977   3.975
 3418SOL     OW11152   3.235   5.877   3.694
 3418SOL    HW111153   3.303   5.908   3.628
 3418SOL    HW211154   3.144   5.883   3.653
 3419SOL     OW11155   2.834   5.260   6.124
 3419SOL    HW111156   2.817   5.254   6.025
 3419SOL    HW211157   2.795   5.345   6.158
 3420SOL     OW11158   5.967   2.973   3.264
 3420SOL    HW111159   5.952   2.952   3.361
 3420SOL    HW211160   6.057   3.015   3.253
 3421SOL     OW11161   4.966   1.927   4.212
 3421SOL    HW111162   4.876   1.953   4.179
 3421SOL    HW211163   4.993   1.839   4.171
 3422SOL     OW11164   3.245   0.232   0.364
 3422SOL    HW111165   3.222   0.317   0.316
 3422SOL    HW211166   3.161   0.188   0.395
 3423SOL     OW11167   6.866   4.726   6.084
 3423SOL    HW111168   6.781   4.686   6.049
 3423SOL    HW211169   6.905   4.786   6.014
 3424SOL     OW11170   2.244   6.606   0.993
 3424SOL    HW111171   2.232   6.511   1.021
 3424SOL    HW211172   2.221   6.615   0.895
 3425SOL     OW11173   4.807   4.895   2.154
 3425SOL    HW111174   4.708   4.893   2.165
 3425SOL    HW211175   4.846   4.806   2.177
 3426SOL     OW11176   4.160   2.525   1.425
 3426SOL    HW111177   4.132   2.430   1.439
 3426SOL    HW211178   4.195   2.536   1.332
 3427SOL     OW11179   1.012   1.577   0.778
 3427SOL    HW111180   1.011   1.655   0.716
 3427SOL    HW211181   1.095   1.524   0.762
 3428SOL     OW11182   3.250   5.283   0.105
 3428SOL    HW111183   3.348   5.303   0.101
 3428SOL    HW211184   3.198   5.368   0.094
 3429SOL     OW11185   0.374   2.180   1.120
 3429SOL    HW111186   0.466   2.164   1.154
 3429SOL    HW211187   0.371   2.168   1.021
 3430SOL     OW11188   1.871   5.942   5.960
 3430SOL    HW111189   1.920   5.907   5.880
 3430SOL    HW211190   1.837   5.865   6.014
 3431SOL     OW11191   1.579   6.313   1.600
 3431SOL    HW111192   1.618   6.265   1.678
 3431SOL    HW211193   1.594   6.260   1.517
 3432SOL     OW11194   1.787   4.073   5.029
 3432SOL    HW111195   1.784   4.170   5.003
 3432SOL    HW211196   1.882   4.048   5.049
 3433SOL     OW11197   1.599   0.006   4.961
 3433SOL    HW111198   1.570   6.973   4.885
 3433SOL    HW211199   1.553   0.095   4.955
 3434SOL     OW11200   3.888   0.886   2.125
 3434SOL    HW111201   3.888   0.835   2.039
 3434SOL    HW211202   3.807   0.945   2.129
 3435SOL     OW11203   1.674   1.422   1.359
 3435SOL    HW111204   1.713   1.472   1.282
 3435SOL    HW211205   1.701   1.467   1.445
 3436SOL     OW11206   3.895   6.152   0.253
 3436SOL    HW111207   3.848   6.178   0.337
 3436SOL    HW211208   3.965   6.220   0.231
 3437SOL     OW11209   2.917   6.802   5.452
 3437SOL    HW111210   2.905   6.901   5.458
 3437SOL    HW211211   2.869   6.767   5.372
 3438SOL     OW11212   0.894   3.150   0.755
 3438SOL    HW111213   0.892   3.173   0.852
 3438SOL    HW211214   0.923   3.230   0.702
 3439SOL     OW11215   3.060   5.961   4.608
 3439SOL    HW111216   2.975   5.972   4.556
 3439SOL    HW211217   3.038   5.947   4.705
 3440SOL     OW11218   3.131   3.036   2.183
 3440SOL    HW111219   3.155   2.959   2.124
 3440SOL    HW211220   3.184   3.032   2.268
 3441SOL     OW11221   6.763   5.824   6.240
 3441SOL    HW111222   6.694   5.896   6.247
 3441SOL    HW211223   6.839   5.844   6.302
 3442SOL     OW11224   1.813   4.393   1.583
 3442SOL    HW111225   1.720   4.418   1.559
 3442SOL    HW211226   1.869   4.475   1.592
 3443SOL     OW11227   3.453   6.636   2.040
 3443SOL    HW111228   3.524   6.622   1.971
 3443SOL    HW211229   3.387   6.703   2.006
 3444SOL     OW11230   4.620   5.630   6.943
 3444SOL    HW111231   4.717   5.611   6.925
 3444SOL    HW211232   4.565   5.602   6.865
 3445SOL     OW11233   5.779   5.189   2.528
 3445SOL    HW111234   5.785   5.289   2.533
 3445SOL    HW211235   5.687   5.160   2.554
 3446SOL     OW11236   5.780   0.812   1.742
 3446SOL    HW111237   5.839   0.830   1.821
 3446SOL    HW211238   5.763   0.714   1.735
 3447SOL     OW11239   4.727   6.092   1.193
 3447SOL    HW111240   4.721   6.085   1.293
 3447SOL    HW211241   4.816   6.057   1.163
 3448SOL     OW11242   4.183   0.378   6.329
 3448SOL    HW111243   4.113   0.349   6.395
 3448SOL    HW211244   4.153   0.462   6.284
 3449SOL     OW11245   6.252   5.160   4.924
 3449SOL    HW111246   6.281   5.255   4.913
 3449SOL    HW211247   6.201   5.132   4.842
 3450SOL     OW11248   0.873   1.499   0.142
 3450SOL    HW111249   0.850   1.402   0.148
 3450SOL    HW211250   0.972   1.510   0.151
 3451SOL     OW11251   3.055   6.429   6.640
 3451SOL    HW111252   3.041   6.477   6.553
 3451SOL    HW211253   2.983   6.361   6.653
 3452SOL     OW11254   5.425   0.358   6.820
 3452SOL    HW111255   5.422   0.258   6.830
 3452SOL    HW211256   5.445   0.399   6.909
 3453SOL     OW11257   6.248   5.680   6.187
 3453SOL    HW111258   6.220   5.593   6.228
 3453SOL    HW211259   6.166   5.733   6.164
 3454SOL     OW11260   1.171   3.694   5.236
 3454SOL    HW111261   1.132   3.603   5.248
 3454SOL    HW211262   1.098   3.759   5.212
 3455SOL     OW11263   2.606   1.917   4.150
 3455SOL    HW111264   2.684   1.862   4.180
 3455SOL    HW211265   2.541   1.859   4.102
 3456SOL     OW11266   5.751   4.996   1.621
 3456SOL    HW111267   5.699   5.023   1.540
 3456SOL    HW211268   5.701   5.022   1.704
 3457SOL     OW11269   3.642   5.392   3.889
 3457SOL    HW111270   3.558   5.435   3.857
 3457SOL    HW211271   3.627   5.356   3.981
 3458SOL     OW11272   4.264   0.812   2.064
 3458SOL    HW111273   4.268   0.770   1.973
 3458SOL    HW211274   4.205   0.893   2.061
 3459SOL     OW11275   5.279   2.799   2.751
 3459SOL    HW111276   5.309   2.709   2.720
 3459SOL    HW211277   5.192   2.823   2.707
 3460SOL     OW11278   2.630   1.875   0.071
 3460SOL    HW111279   2.531   1.868   0.082
 3460SOL    HW211280   2.661   1.808   0.004
 3461SOL     OW11281   4.647   3.874   6.671
 3461SOL    HW111282   4.700   3.951   6.636
 3461SOL    HW211283   4.616   3.895   6.764
 3462SOL     OW11284   0.754   3.565   5.304
 3462SOL    HW111285   0.843   3.563   5.259
 3462SOL    HW211286   0.681   3.551   5.237
 3463SOL     OW11287   1.091   4.404   1.816
 3463SOL    HW111288   1.007   4.440   1.857
 3463SOL    HW211289   1.140   4.348   1.883
 3464SOL     OW11290   6.901   4.600   5.721
 3464SOL    HW111291   6.891   4.573   5.817
 3464SOL    HW211292   6.827   4.662   5.696
 3465SOL     OW11293   1.588   2.204   2.414
 3465SOL    HW111294   1.552   2.202   2.320
 3465SOL    HW211295   1.529   2.262   2.470
 3466SOL     OW11296   6.540   5.319   6.142
 3466SOL    HW111297   6.597   5.395   6.172
 3466SOL    HW211298   6.445   5.349   6.135
 3467SOL     OW11299   2.078   2.739   6.840
 3467SOL    HW111300   2.048   2.711   6.931
 3467SOL    HW211301   2.175   2.718   6.829
 3468SOL     OW11302   4.098   6.724   2.266
 3468SOL    HW111303   4.033   6.796   2.289
 3468SOL    HW211304   4.181   6.736   2.321
 3469SOL     OW11305   5.551   0.625   3.159
 3469SOL    HW111306   5.577   0.583   3.072
 3469SOL    HW211307   5.482   0.696   3.142
 3470SOL     OW11308   6.455   3.646   0.924
 3470SOL    HW111309   6.524   3.705   0.883
 3470SOL    HW211310   6.489   3.552   0.926
 3471SOL     OW11311   3.475   4.931   4.336
 3471SOL    HW111312   3.542   4.971   4.274
 3471SOL    HW211313   3.394   4.902   4.284
 3472SOL     OW11314   2.195   0.723   2.331
 3472SOL    HW111315   2.101   0.753   2.314
 3472SOL    HW211316   2.256   0.802   2.325
 3473SOL     OW11317   0.146   1.870   7.019
 3473SOL    HW111318   0.225   1.833   0.044
 3473SOL    HW211319   0.065   1.865   0.052
 3474SOL     OW11320   2.564   5.333   1.653
 3474SOL    HW111321   2.509   5.249   1.653
 3474SOL    HW211322   2.620   5.336   1.735
 3475SOL     OW11323   1.034   5.829   5.013
 3475SOL    HW111324   0.935   5.833   5.001
 3475SOL    HW211325   1.056   5.838   5.111
 3476SOL     OW11326   3.396   1.576   3.283
 3476SOL    HW111327   3.488   1.595   3.317
 3476SOL    HW211328   3.372   1.643   3.213
 3477SOL     OW11329   3.514   4.841   1.000
 3477SOL    HW111330   3.596   4.889   1.030
 3477SOL    HW211331   3.436   4.904   1.004
 3478SOL     OW11332   2.276   5.735   4.922
 3478SOL    HW111333   2.283   5.809   4.990
 3478SOL    HW211334   2.229   5.769   4.841
 3479SOL     OW11335   1.297   0.790   2.439
 3479SOL    HW111336   1.218   0.846   2.465
 3479SOL    HW211337   1.372   0.807   2.504
 3480SOL     OW11338   0.097   0.081   5.174
 3480SOL    HW111339   0.081   0.044   5.082
 3480SOL    HW211340   0.103   0.180   5.169
 3481SOL     OW11341   5.034   7.008   0.179
 3481SOL    HW111342   5.066   6.989   0.272
 3481SOL    HW211343   5.091   6.959   0.113
 3482SOL     OW11344   5.605   1.700   0.955
 3482SOL    HW111345   5.514   1.664   0.935
 3482SOL    HW211346   5.666   1.680   0.878
 3483SOL     OW11347   4.060   1.271   1.066
 3483SOL    HW111348   3.995   1.197   1.052
 3483SOL    HW211349   4.053   1.303   1.161
 3484SOL     OW11350   3.034   3.572   1.486
 3484SOL    HW111351   2.950   3.524   1.462
 3484SOL    HW211352   3.111   3.509   1.479
 3485SOL     OW11353   1.492   0.183   4.169
 3485SOL    HW111354   1.404   0.227   4.150
 3485SOL    HW211355   1.479   0.111   4.237
 3486SOL     OW11356   3.216   1.577   2.542
 3486SOL    HW111357   3.202   1.653   2.606
 3486SOL    HW211358   3.201   1.490   2.590
 3487SOL     OW11359   5.755   2.051   5.749
 3487SOL    HW111360   5.748   2.034   5.651
 3487SOL    HW211361   5.829   2.116   5.766
 3488SOL     OW11362   5.675   2.183   4.532
 3488SOL    HW111363   5.587   2.222   4.559
 3488SOL    HW211364   5.719   2.242   4.464
 3489SOL     OW11365   2.681   6.545   0.492
 3489SOL    HW111366   2.667   6.592   0.579
 3489SOL    HW211367   2.778   6.523   0.481
 3490SOL     OW11368   4.483   4.788   6.786
 3490SOL    HW111369   4.460   4.798   6.689
 3490SOL    HW211370   4.459   4.696   6.817
 3491SOL     OW11371   5.800   2.455   4.767
 3491SOL    HW111372   5.860   2.381   4.735
 3491SOL    HW211373   5.705   2.426   4.759
 3492SOL     OW11374   0.942   5.618   1.488
 3492SOL    HW111375   0.847   5.616   1.455
 3492SOL    HW211376   0.984   5.705   1.462
 3493SOL     OW11377   6.524   5.008   6.837
 3493SOL    HW111378   6.584   4.934   6.866
 3493SOL    HW211379   6.439   5.005   6.889
 3494SOL     OW11380   3.876   0.788   1.396
 3494SOL    HW111381   3.936   0.730   1.341
 3494SOL    HW211382   3.894   0.884   1.374
 3495SOL     OW11383   4.554   5.025   2.008
 3495SOL    HW111384   4.563   4.943   1.952
 3495SOL    HW211385   4.549   4.999   2.104
 3496SOL     OW11386   0.083   4.059   0.563
 3496SOL    HW111387   0.143   4.017   0.631
 3496SOL    HW211388   0.065   3.994   0.490
 3497SOL     OW11389   4.201   6.300   3.871
 3497SOL    HW111390   4.287   6.261   3.902
 3497SOL    HW211391   4.191   6.392   3.907
 3498SOL     OW11392   1.775   2.858   0.348
 3498SOL    HW111393   1.858   2.831   0.299
 3498SOL    HW211394   1.799   2.914   0.427
 3499SOL     OW11395   4.671   2.641   4.742
 3499SOL    HW111396   4.582   2.608   4.773
 3499SOL    HW211397   4.682   2.618   4.645
 3500SOL     OW11398   0.933   3.896   5.121
 3500SOL    HW111399   0.897   3.974   5.172
 3500SOL    HW211400   0.990   3.929   5.045
 3501SOL     OW11401   1.352   5.374   3.741
 3501SOL    HW111402   1.279   5.437   3.765
 3501SOL    HW211403   1.322   5.280   3.758
 3502SOL     OW11404   0.070   2.123   1.906
 3502SOL    HW111405   0.029   2.104   1.995
 3502SOL    HW211406   0.009   2.092   1.833
 3503SOL     OW11407   5.866   6.232   5.158
 3503SOL    HW111408   5.875   6.227   5.058
 3503SOL    HW211409   5.771   6.255   5.181
 3504SOL     OW11410   1.714   2.319   1.206
 3504SOL    HW111411   1.760   2.311   1.295
 3504SOL    HW211412   1.643   2.389   1.212
 3505SOL     OW11413   5.245   4.847   5.234
 3505SOL    HW111414   5.189   4.767   5.212
 3505SOL    HW211415   5.207   4.928   5.190
 3506SOL     OW11416   4.801   6.356   5.412
 3506SOL    HW111417   4.850   6.335   5.497
 3506SOL    HW211418   4.808   6.278   5.350
 3507SOL     OW11419   2.468   0.851   0.285
 3507SOL    HW111420   2.517   0.768   0.311
 3507SOL    HW211421   2.534   0.922   0.259
 3508SOL     OW11422   3.522   2.527   6.120
 3508SOL    HW111423   3.424   2.513   6.136
 3508SOL    HW211424   3.568   2.539   6.208
 3509SOL     OW11425   5.177   7.016   6.221
 3509SOL    HW111426   5.177   6.933   6.166
 3509SOL    HW211427   5.203   0.070   6.163
 3510SOL     OW11428   2.109   2.248   1.458
 3510SOL    HW111429   2.178   2.245   1.386
 3510SOL    HW211430   2.053   2.166   1.455
 3511SOL     OW11431   1.756   4.670   6.930
 3511SOL    HW111432   1.744   4.580   6.889
 3511SOL    HW211433   1.701   4.677   7.013
 3512SOL     OW11434   6.547   3.950   1.112
 3512SOL    HW111435   6.602   3.903   1.181
 3512SOL    HW211436   6.553   3.902   1.025
 3513SOL     OW11437   5.937   3.847   0.233
 3513SOL    HW111438   5.871   3.881   0.167
 3513SOL    HW211439   5.951   3.916   0.304
 3514SOL     OW11440   0.022   1.034   2.170
 3514SOL    HW111441   6.970   1.000   2.115
 3514SOL    HW211442   7.012   1.068   2.258
 3515SOL     OW11443   4.776   6.618   2.872
 3515SOL    HW111444   4.827   6.534   2.851
 3515SOL    HW211445   4.679   6.605   2.852
 3516SOL     OW11446   4.456   0.351   1.200
 3516SOL    HW111447   4.472   0.256   1.226
 3516SOL    HW211448   4.544   0.398   1.189
 3517SOL     OW11449   0.973   2.398   6.991
 3517SOL    HW111450   0.985   2.498   6.992
 3517SOL    HW211451   1.063   2.354   6.985
 3518SOL     OW11452   5.703   4.273   4.691
 3518SOL    HW111453   5.786   4.222   4.671
 3518SOL    HW211454   5.714   4.323   4.777
 3519SOL     OW11455   1.951   0.524   6.472
 3519SOL    HW111456   1.991   0.445   6.517
 3519SOL    HW211457   1.881   0.564   6.532
 3520SOL     OW11458   3.116   5.055   0.534
 3520SOL    HW111459   3.169   5.109   0.469
 3520SOL    HW211460   3.021   5.087   0.535
 3521SOL     OW11461   5.513   3.301   1.321
 3521SOL    HW111462   5.436   3.364   1.330
 3521SOL    HW211463   5.584   3.342   1.264
 3522SOL     OW11464   4.979   5.558   2.056
 3522SOL    HW111465   5.015   5.465   2.064
 3522SOL    HW211466   5.033   5.608   1.988
 3523SOL     OW11467   2.656   4.457   5.595
 3523SOL    HW111468   2.648   4.439   5.497
 3523SOL    HW211469   2.742   4.505   5.613
 3524SOL     OW11470   2.580   1.141   1.007
 3524SOL    HW111471   2.506   1.117   1.070
 3524SOL    HW211472   2.665   1.153   1.058
 3525SOL     OW11473   0.500   4.055   2.290
 3525SOL    HW111474   0.523   4.015   2.200
 3525SOL    HW211475   0.572   4.119   2.317
 3526SOL     OW11476   2.342   6.207   3.605
 3526SOL    HW111477   2.371   6.226   3.700
 3526SOL    HW211478   2.247   6.235   3.593
 3527SOL     OW11479   6.218   3.472   5.750
 3527SOL    HW111480   6.169   3.503   5.831
 3527SOL    HW211481   6.152   3.439   5.682
 3528SOL     OW11482   1.157   5.407   3.461
 3528SOL    HW111483   1.230   5.343   3.439
 3528SOL    HW211484   1.133   5.398   3.558
 3529SOL     OW11485   4.829   6.959   5.513
 3529SOL    HW111486   4.846   6.868   5.548
 3529SOL    HW211487   4.785   7.015   5.583
 3530SOL     OW11488   2.648   4.639   3.354
 3530SOL    HW111489   2.657   4.683   3.443
 3530SOL    HW211490   2.719   4.675   3.293
 3531SOL     OW11491   4.861   4.755   1.216
 3531SOL    HW111492   4.842   4.745   1.314
 3531SOL    HW211493   4.910   4.674   1.183
 3532SOL     OW11494   2.651   0.115   0.583
 3532SOL    HW111495   2.709   0.183   0.538
 3532SOL    HW211496   2.653   0.030   0.530
 3533SOL     OW11497   1.021   2.358   2.784
 3533SOL    HW111498   1.005   2.301   2.865
 3533SOL    HW211499   1.074   2.306   2.717
 3534SOL     OW11500   6.897   1.083   5.255
 3534SOL    HW111501   6.907   1.003   5.314
 3534SOL    HW211502   6.916   1.058   5.161
 3535SOL     OW11503   6.397   5.451   0.501
 3535SOL    HW111504   6.396   5.399   0.586
 3535SOL    HW211505   6.305   5.451   0.461
 3536SOL     OW11506   2.310   2.757   3.540
 3536SOL    HW111507   2.380   2.716   3.599
 3536SOL    HW211508   2.263   2.685   3.489
 3537SOL     OW11509   2.654   5.294   0.676
 3537SOL    HW111510   2.588   5.219   0.687
 3537SOL    HW211511   2.633   5.345   0.593
 3538SOL     OW11512   3.231   0.429   4.222
 3538SOL    HW111513   3.213   0.526   4.207
 3538SOL    HW211514   3.217   0.407   4.318
 3539SOL     OW11515   5.584   3.378   6.423
 3539SOL    HW111516   5.557   3.445   6.355
 3539SOL    HW211517   5.668   3.409   6.469
 3540SOL     OW11518   2.227   1.528   5.495
 3540SOL    HW111519   2.221   1.434   5.463
 3540SOL    HW211520   2.142   1.576   5.472
 3541SOL     OW11521   2.600   2.866   6.665
 3541SOL    HW111522   2.579   2.921   6.585
 3541SOL    HW211523   2.686   2.817   6.650
 3542SOL     OW11524   0.190   3.516   1.183
 3542SOL    HW111525   0.117   3.476   1.127
 3542SOL    HW211526   0.158   3.524   1.277
 3543SOL     OW11527   1.592   3.539   4.734
 3543SOL    HW111528   1.555   3.505   4.647
 3543SOL    HW211529   1.520   3.539   4.803
 3544SOL     OW11530   1.921   4.556   6.546
 3544SOL    HW111531   2.000   4.606   6.510
 3544SOL    HW211532   1.952   4.488   6.612
 3545SOL     OW11533   3.545   5.006   6.589
 3545SOL    HW111534   3.558   4.952   6.505
 3545SOL    HW211535   3.450   4.995   6.620
 3546SOL     OW11536   6.494   4.677   3.469
 3546SOL    HW111537   6.399   4.659   3.445
 3546SOL    HW211538   6.511   4.776   3.466
 3547SOL     OW11539   0.108   4.100   4.694
 3547SOL    HW111540   0.033   4.058   4.746
 3547SOL    HW211541   0.151   4.171   4.749
 3548SOL     OW11542   5.461   0.396   6.055
 3548SOL    HW111543   5.453   0.391   5.956
 3548SOL    HW211544   5.452   0.491   6.084
 3549SOL     OW11545   1.878   4.285   6.394
 3549SOL    HW111546   1.872   4.384   6.408
 3549SOL    HW211547   1.949   4.265   6.328
 3550SOL     OW11548   6.057   1.947   4.721
 3550SOL    HW111549   6.151   1.981   4.732
 3550SOL    HW211550   6.054   1.881   4.646
 3551SOL     OW11551   3.856   1.395   4.096
 3551SOL    HW111552   3.950   1.366   4.076
 3551SOL    HW211553   3.857   1.459   4.172
 3552SOL     OW11554   6.453   6.417   1.703
 3552SOL    HW111555   6.546   6.435   1.733
 3552SOL    HW211556   6.419   6.333   1.747
 3553SOL     OW11557   3.702   5.710   0.247
 3553SOL    HW111558   3.721   5.806   0.229
 3553SOL    HW211559   3.721   5.656   0.165
 3554SOL     OW11560   4.314   2.881   0.960
 3554SOL    HW111561   4.237   2.843   0.909
 3554SOL    HW211562   4.395   2.880   0.902
 3555SOL     OW11563   0.991   3.131   3.976
 3555SOL    HW111564   1.082   3.165   3.952
 3555SOL    HW211565   0.977   3.041   3.934
 3556SOL     OW11566   3.911   0.852   3.932
 3556SOL    HW111567   3.947   0.781   3.993
 3556SOL    HW211568   3.970   0.932   3.935
 3557SOL     OW11569   1.214   6.847   4.165
 3557SOL    HW111570   1.220   6.750   4.188
 3557SOL    HW211571   1.299   6.877   4.122
 3558SOL     OW11572   1.949   4.628   1.567
 3558SOL    HW111573   1.948   4.678   1.654
 3558SOL    HW211574   2.021   4.665   1.509
 3559SOL     OW11575   1.248   6.119   5.078
 3559SOL    HW111576   1.206   6.041   5.125
 3559SOL    HW211577   1.347   6.105   5.073
 3560SOL     OW11578   2.391   4.944   2.704
 3560SOL    HW111579   2.407   4.933   2.802
 3560SOL    HW211580   2.374   5.041   2.684
 3561SOL     OW11581   5.195   3.738   5.685
 3561SOL    HW111582   5.238   3.657   5.646
 3561SOL    HW211583   5.177   3.805   5.613
 3562SOL     OW11584   3.110   1.422   3.610
 3562SOL    HW111585   3.130   1.506   3.561
 3562SOL    HW211586   3.113   1.345   3.547
 3563SOL     OW11587   6.616   1.682   6.872
 3563SOL    HW111588   6.668   1.680   6.787
 3563SOL    HW211589   6.538   1.744   6.862
 3564SOL     OW11590   0.480   4.657   2.993
 3564SOL    HW111591   0.420   4.591   2.947
 3564SOL    HW211592   0.574   4.623   2.991
 3565SOL     OW11593   3.392   5.742   4.064
 3565SOL    HW111594   3.474   5.732   4.008
 3565SOL    HW211595   3.397   5.680   4.142
 3566SOL     OW11596   6.396   2.004   6.345
 3566SOL    HW111597   6.352   2.064   6.411
 3566SOL    HW211598   6.365   1.910   6.360
 3567SOL     OW11599   0.677   2.143   6.795
 3567SOL    HW111600   0.644   2.147   6.890
 3567SOL    HW211601   0.731   2.225   6.775
 3568SOL     OW11602   5.052   4.268   5.044
 3568SOL    HW111603   5.119   4.204   5.081
 3568SOL    HW211604   4.990   4.219   4.982
 3569SOL     OW11605   2.903   2.524   6.430
 3569SOL    HW111606   2.882   2.449   6.493
 3569SOL    HW211607   2.895   2.491   6.336
 3570SOL     OW11608   5.241   0.294   6.162
 3570SOL    HW111609   5.209   0.352   6.237
 3570SOL    HW211610   5.332   0.323   6.133
 3571SOL     OW11611   0.607   5.119   6.920
 3571SOL    HW111612   0.675   5.047   6.911
 3571SOL    HW211613   0.602   5.149   7.015
 3572SOL     OW11614   5.475   4.505   3.206
 3572SOL    HW111615   5.415   4.568   3.156
 3572SOL    HW211616   5.563   4.500   3.159
 3573SOL     OW11617   0.231   4.684   3.495
 3573SOL    HW111618   0.234   4.778   3.529
 3573SOL    HW211619   0.152   4.637   3.534
 3574SOL     OW11620   0.422   4.490   0.547
 3574SOL    HW111621   0.493   4.522   0.610
 3574SOL    HW211622   0.426   4.391   0.541
 3575SOL     OW11623   4.812   4.711   2.811
 3575SOL    HW111624   4.794   4.639   2.744
 3575SOL    HW211625   4.764   4.794   2.783
 3576SOL     OW11626   1.998   1.651   5.427
 3576SOL    HW111627   1.903   1.619   5.427
 3576SOL    HW211628   2.006   1.730   5.367
 3577SOL     OW11629   1.429   2.610   6.211
 3577SOL    HW111630   1.389   2.628   6.301
 3577SOL    HW211631   1.526   2.587   6.221
 3578SOL     OW11632   3.274   2.429   0.986
 3578SOL    HW111633   3.190   2.440   1.040
 3578SOL    HW211634   3.350   2.473   1.035
 3579SOL     OW11635   5.769   3.744   4.923
 3579SOL    HW111636   5.771   3.675   4.995
 3579SOL    HW211637   5.861   3.753   4.883
 3580SOL     OW11638   6.322   2.856   1.085
 3580SOL    HW111639   6.274   2.811   1.160
 3580SOL    HW211640   6.419   2.861   1.105
 3581SOL     OW11641   0.262   5.928   3.687
 3581SOL    HW111642   0.256   6.017   3.642
 3581SOL    HW211643   0.351   5.919   3.732
 3582SOL     OW11644   1.024   2.223   5.764
 3582SOL    HW111645   0.996   2.319   5.770
 3582SOL    HW211646   0.959   2.172   5.708
 3583SOL     OW11647   1.752   3.588   6.167
 3583SOL    HW111648   1.759   3.686   6.187
 3583SOL    HW211649   1.832   3.560   6.114
 3584SOL     OW11650   5.937   5.217   6.590
 3584SOL    HW111651   6.035   5.203   6.605
 3584SOL    HW211652   5.913   5.184   6.499
 3585SOL     OW11653   4.451   6.206   5.201
 3585SOL    HW111654   4.530   6.192   5.142
 3585SOL    HW211655   4.475   6.271   5.274
 3586SOL     OW11656   0.543   2.444   5.247
 3586SOL    HW111657   0.496   2.458   5.334
 3586SOL    HW211658   0.606   2.519   5.230
 3587SOL     OW11659   3.017   5.088   6.376
 3587SOL    HW111660   2.954   5.166   6.370
 3587SOL    HW211661   3.087   5.106   6.444
 3588SOL     OW11662   1.095   3.008   5.175
 3588SOL    HW111663   1.148   3.043   5.097
 3588SOL    HW211664   1.113   3.065   5.255
 3589SOL     OW11665   4.050   2.130   4.667
 3589SOL    HW111666   4.111   2.155   4.592
 3589SOL    HW211667   4.090   2.159   4.754
 3590SOL     OW11668   1.390   2.910   6.611
 3590SOL    HW111669   1.399   2.966   6.529
 3590SOL    HW211670   1.481   2.887   6.645
 3591SOL     OW11671   5.138   3.476   6.821
 3591SOL    HW111672   5.068   3.495   6.890
 3591SOL    HW211673   5.095   3.465   6.732
 3592SOL     OW11674   6.575   4.402   1.822
 3592SOL    HW111675   6.620   4.471   1.879
 3592SOL    HW211676   6.491   4.441   1.783
 3593SOL     OW11677   1.689   6.028   4.825
 3593SOL    HW111678   1.736   6.084   4.893
 3593SOL    HW211679   1.634   5.958   4.871
 3594SOL     OW11680   4.443   0.558   3.396
 3594SOL    HW111681   4.482   0.642   3.360
 3594SOL    HW211682   4.351   0.576   3.431
 3595SOL     OW11683   2.398   5.779   0.204
 3595SOL    HW111684   2.416   5.813   0.296
 3595SOL    HW211685   2.413   5.853   0.138
 3596SOL     OW11686   6.562   2.090   3.308
 3596SOL    HW111687   6.545   2.124   3.401
 3596SOL    HW211688   6.658   2.104   3.285
 3597SOL     OW11689   2.135   1.556   4.902
 3597SOL    HW111690   2.109   1.511   4.987
 3597SOL    HW211691   2.229   1.531   4.878
 3598SOL     OW11692   1.376   6.041   6.534
 3598SOL    HW111693   1.306   6.047   6.605
 3598SOL    HW211694   1.333   6.013   6.448
 3599SOL     OW11695   0.697   2.211   5.662
 3599SOL    HW111696   0.732   2.302   5.638
 3599SOL    HW211697   0.670   2.163   5.578
 3600SOL     OW11698   0.931   3.640   0.152
 3600SOL    HW111699   0.927   3.684   0.242
 3600SOL    HW211700   0.927   3.709   0.080
 3601SOL     OW11701   5.551   4.872   6.614
 3601SOL    HW111702   5.600   4.909   6.536
 3601SOL    HW211703   5.509   4.785   6.589
 3602SOL     OW11704   1.244   2.852   0.345
 3602SOL    HW111705   1.337   2.835   0.378
 3602SOL    HW211706   1.225   2.792   0.267
 3603SOL     OW11707   3.450   6.946   3.794
 3603SOL    HW111708   3.416   6.868   3.846
 3603SOL    HW211709   3.401   6.953   3.707
 3604SOL     OW11710   6.799   4.527   3.166
 3604SOL    HW111711   6.852   4.535   3.250
 3604SOL    HW211712   6.786   4.617   3.125
 3605SOL     OW11713   5.572   4.280   5.088
 3605SOL    HW111714   5.648   4.245   5.035
 3605SOL    HW211715   5.595   4.277   5.185
 3606SOL     OW11716   6.979   6.631   5.615
 3606SOL    HW111717   7.003   6.576   5.535
 3606SOL    HW211718   7.004   6.726   5.599
 3607SOL     OW11719   5.385   6.123   1.045
 3607SOL    HW111720   5.309   6.166   1.094
 3607SOL    HW211721   5.464   6.185   1.045
 3608SOL     OW11722   6.287   1.661   3.221
 3608SOL    HW111723   6.243   1.620   3.301
 3608SOL    HW211724   6.348   1.735   3.250
 3609SOL     OW11725   1.052   0.523   4.185
 3609SOL    HW111726   0.982   0.525   4.114
 3609SOL    HW211727   1.031   0.592   4.255
 3610SOL     OW11728   1.588   6.932   5.760
 3610SOL    HW111729   1.590   6.879   5.845
 3610SOL    HW211730   1.672   6.916   5.709
 3611SOL     OW11731   4.831   5.920   5.793
 3611SOL    HW111732   4.760   5.924   5.723
 3611SOL    HW211733   4.911   5.972   5.763
 3612SOL     OW11734   6.034   6.898   6.907
 3612SOL    HW111735   6.115   6.860   6.952
 3612SOL    HW211736   5.973   6.823   6.882
 3613SOL     OW11737   4.678   5.489   1.852
 3613SOL    HW111738   4.682   5.393   1.881
 3613SOL    HW211739   4.762   5.512   1.803
 3614SOL     OW11740   4.283   3.545   1.754
 3614SOL    HW111741   4.202   3.538   1.697
 3614SOL    HW211742   4.279   3.628   1.809
 3615SOL     OW11743   5.157   5.572   0.141
 3615SOL    HW111744   5.096   5.515   0.195
 3615SOL    HW211745   5.160   5.664   0.181
 3616SOL     OW11746   0.744   3.048   6.315
 3616SOL    HW111747   0.675   3.019   6.248
 3616SOL    HW211748   0.752   3.147   6.314
 3617SOL     OW11749   3.708   1.466   6.321
 3617SOL    HW111750   3.625   1.410   6.315
 3617SOL    HW211751   3.788   1.407   6.312
 3618SOL     OW11752   2.737   1.874   5.368
 3618SOL    HW111753   2.651   1.867   5.418
 3618SOL    HW211754   2.719   1.903   5.274
 3619SOL     OW11755   5.444   2.630   4.362
 3619SOL    HW111756   5.494   2.707   4.402
 3619SOL    HW211757   5.353   2.660   4.335
 3620SOL     OW11758   6.381   6.099   5.962
 3620SOL    HW111759   6.383   6.170   5.891
 3620SOL    HW211760   6.453   6.032   5.943
 3621SOL     OW11761   3.746   3.090   5.606
 3621SOL    HW111762   3.658   3.114   5.647
 3621SOL    HW211763   3.790   3.018   5.660
 3622SOL     OW11764   1.493   1.463   4.911
 3622SOL    HW111765   1.422   1.523   4.948
 3622SOL    HW211766   1.561   1.444   4.981
 3623SOL     OW11767   6.176   5.854   4.288
 3623SOL    HW111768   6.109   5.892   4.351
 3623SOL    HW211769   6.132   5.829   4.202
 3624SOL     OW11770   2.162   6.170   1.633
 3624SOL    HW111771   2.211   6.083   1.633
 3624SOL    HW211772   2.216   6.238   1.585
 3625SOL     OW11773   5.816   3.446   6.527
 3625SOL    HW111774   5.860   3.388   6.595
 3625SOL    HW211775   5.882   3.470   6.456
 3626SOL     OW11776   0.738   3.317   6.351
 3626SOL    HW111777   0.683   3.313   6.434
 3626SOL    HW211778   0.722   3.404   6.304
 3627SOL     OW11779   3.577   2.833   3.448
 3627SOL    HW111780   3.629   2.753   3.418
 3627SOL    HW211781   3.600   2.854   3.543
 3628SOL     OW11782   1.152   1.293   1.843
 3628SOL    HW111783   1.131   1.370   1.783
 3628SOL    HW211784   1.244   1.259   1.822
 3629SOL     OW11785   6.854   2.307   5.272
 3629SOL    HW111786   6.897   2.397   5.269
 3629SOL    HW211787   6.803   2.291   5.187
 3630SOL     OW11788   5.093   3.220   4.241
 3630SOL    HW111789   5.068   3.153   4.171
 3630SOL    HW211790   5.079   3.179   4.331
 3631SOL     OW11791   1.751   7.019   4.120
 3631SOL    HW111792   1.763   6.984   4.027
 3631SOL    HW211793   1.815   0.070   4.136
 3632SOL     OW11794   5.023   6.169   1.561
 3632SOL    HW111795   4.965   6.242   1.596
 3632SOL    HW211796   5.034   6.179   1.462
 3633SOL     OW11797   3.600   1.680   5.349
 3633SOL    HW111798   3.537   1.711   5.278
 3633SOL    HW211799   3.564   1.705   5.439
 3634SOL     OW11800   0.698   5.477   5.023
 3634SOL    HW111801   0.701   5.509   5.117
 3634SOL    HW211802   0.602   5.460   4.997
 3635SOL     OW11803   2.796   6.769   5.944
 3635SOL    HW111804   2.758   6.832   5.877
 3635SOL    HW211805   2.781   6.675   5.913
 3636SOL     OW11806   0.035   5.541   0.110
 3636SOL    HW111807   0.091   5.622   0.090
 3636SOL    HW211808   6.964   5.567   0.120
 3637SOL     OW11809   6.850   1.851   1.812
 3637SOL    HW111810   6.898   1.849   1.899
 3637SOL    HW211811   6.914   1.832   1.737
 3638SOL     OW11812   0.565   4.332   3.981
 3638SOL    HW111813   0.533   4.305   3.891
 3638SOL    HW211814   0.570   4.251   4.040
 3639SOL     OW11815   3.589   3.883   0.497
 3639SOL    HW111816   3.614   3.826   0.418
 3639SOL    HW211817   3.505   3.848   0.538
 3640SOL     OW11818   3.859   1.035   0.684
 3640SOL    HW111819   3.888   0.961   0.746
 3640SOL    HW211820   3.883   1.011   0.590
 3641SOL     OW11821   5.192   3.268   3.331
 3641SOL    HW111822   5.097   3.266   3.299
 3641SOL    HW211823   5.254   3.256   3.253
 3642SOL     OW11824   5.347   1.293   6.916
 3642SOL    HW111825   5.384   1.250   6.833
 3642SOL    HW211826   5.421   1.303   6.983
 3643SOL     OW11827   2.596   6.162   5.298
 3643SOL    HW111828   2.690   6.172   5.266
 3643SOL    HW211829   2.587   6.207   5.388
 3644SOL     OW11830   6.889   1.273   2.001
 3644SOL    HW111831   6.818   1.221   1.954
 3644SOL    HW211832   6.936   1.332   1.935
 3645SOL     OW11833   6.954   2.953   3.421
 3645SOL    HW111834   7.013   3.033   3.412
 3645SOL    HW211835   6.935   2.915   3.330
 3646SOL     OW11836   0.340   4.257   6.659
 3646SOL    HW111837   0.257   4.244   6.713
 3646SOL    HW211838   0.384   4.343   6.685
 3647SOL     OW11839   2.431   4.215   6.494
 3647SOL    HW111840   2.475   4.198   6.582
 3647SOL    HW211841   2.371   4.295   6.503
 3648SOL     OW11842   3.781   5.119   2.173
 3648SOL    HW111843   3.793   5.040   2.113
 3648SOL    HW211844   3.729   5.090   2.254
 3649SOL     OW11845   4.706   2.770   1.853
 3649SOL    HW111846   4.728   2.865   1.876
 3649SOL    HW211847   4.776   2.733   1.792
 3650SOL     OW11848   0.217   5.273   0.920
 3650SOL    HW111849   0.187   5.316   1.005
 3650SOL    HW211850   0.316   5.283   0.911
 3651SOL     OW11851   0.401   6.640   4.590
 3651SOL    HW111852   0.433   6.568   4.529
 3651SOL    HW211853   0.450   6.635   4.677
 3652SOL     OW11854   5.518   6.168   3.168
 3652SOL    HW111855   5.539   6.251   3.117
 3652SOL    HW211856   5.420   6.148   3.160
 3653SOL     OW11857   0.252   1.325   4.409
 3653SOL    HW111858   0.212   1.273   4.484
 3653SOL    HW211859   0.312   1.265   4.355
 3654SOL     OW11860   2.629   4.697   1.146
 3654SOL    HW111861   2.583   4.759   1.210
 3654SOL    HW211862   2.721   4.732   1.128
 3655SOL     OW11863   1.564   6.676   4.155
 3655SOL    HW111864   1.474   6.632   4.154
 3655SOL    HW211865   1.627   6.622   4.211
 3656SOL     OW11866   0.923   3.986   1.779
 3656SOL    HW111867   0.850   3.989   1.711
 3656SOL    HW211868   0.897   3.924   1.853
 3657SOL     OW11869   4.950   5.066   5.983
 3657SOL    HW111870   4.962   4.989   5.921
 3657SOL    HW211871   4.859   5.105   5.971
 3658SOL     OW11872   1.785   5.351   5.520
 3658SOL    HW111873   1.845   5.329   5.597
 3658SOL    HW211874   1.818   5.304   5.438
 3659SOL     OW11875   1.286   3.481   4.742
 3659SOL    HW111876   1.241   3.399   4.777
 3659SOL    HW211877   1.241   3.562   4.779
 3660SOL     OW11878   5.661   0.120   3.628
 3660SOL    HW111879   5.714   0.188   3.578
 3660SOL    HW211880   5.569   0.115   3.590
 3661SOL     OW11881   5.467   1.448   5.462
 3661SOL    HW111882   5.394   1.382   5.443
 3661SOL    HW211883   5.529   1.410   5.531
 3662SOL     OW11884   4.451   6.150   3.912
 3662SOL    HW111885   4.502   6.236   3.916
 3662SOL    HW211886   4.462   6.109   3.821
 3663SOL     OW11887   1.852   1.967   0.897
 3663SOL    HW111888   1.805   1.925   0.975
 3663SOL    HW211889   1.785   2.008   0.836
 3664SOL     OW11890   5.378   2.965   1.897
 3664SOL    HW111891   5.299   3.014   1.933
 3664SOL    HW211892   5.375   2.964   1.797
 3665SOL     OW11893   2.062   6.016   5.427
 3665SOL    HW111894   2.144   6.072   5.414
 3665SOL    HW211895   2.004   6.058   5.497
 3666SOL     OW11896   1.016   4.266   3.059
 3666SOL    HW111897   0.931   4.213   3.061
 3666SOL    HW211898   1.080   4.224   2.995
 3667SOL     OW11899   0.654   0.774   2.530
 3667SOL    HW111900   0.662   0.675   2.539
 3667SOL    HW211901   0.583   0.807   2.593
 3668SOL     OW11902   1.727   0.948   1.864
 3668SOL    HW111903   1.757   0.905   1.779
 3668SOL    HW211904   1.640   0.995   1.848
 3669SOL     OW11905   4.763   0.772   3.661
 3669SOL    HW111906   4.775   0.766   3.562
 3669SOL    HW211907   4.828   0.711   3.707
 3670SOL     OW11908   2.644   5.025   0.454
 3670SOL    HW111909   2.563   5.075   0.484
 3670SOL    HW211910   2.702   5.084   0.397
 3671SOL     OW11911   6.285   1.319   3.979
 3671SOL    HW111912   6.282   1.373   3.895
 3671SOL    HW211913   6.304   1.223   3.957
 3672SOL     OW11914   5.660   1.797   1.223
 3672SOL    HW111915   5.584   1.849   1.260
 3672SOL    HW211916   5.631   1.750   1.140
 3673SOL     OW11917   4.160   6.121   6.431
 3673SOL    HW111918   4.077   6.088   6.385
 3673SOL    HW211919   4.184   6.211   6.394
 3674SOL     OW11920   0.728   6.547   5.045
 3674SOL    HW111921   0.825   6.524   5.052
 3674SOL    HW211922   0.688   6.554   5.137
 3675SOL     OW11923   2.191   3.060   4.092
 3675SOL    HW111924   2.200   3.111   4.006
 3675SOL    HW211925   2.164   2.966   4.072
 3676SOL     OW11926   5.036   4.213   3.344
 3676SOL    HW111927   4.942   4.183   3.327
 3676SOL    HW211928   5.041   4.313   3.333
 3677SOL     OW11929   2.127   5.538   3.655
 3677SOL    HW111930   2.207   5.557   3.711
 3677SOL    HW211931   2.087   5.625   3.624
 3678SOL     OW11932   0.887   2.557   5.246
 3678SOL    HW111933   0.804   2.612   5.260
 3678SOL    HW211934   0.965   2.618   5.229
 3679SOL     OW11935   1.131   0.136   3.617
 3679SOL    HW111936   1.058   0.079   3.655
 3679SOL    HW211937   1.220   0.096   3.639
 3680SOL     OW11938   5.625   2.603   3.934
 3680SOL    HW111939   5.561   2.678   3.922
 3680SOL    HW211940   5.621   2.543   3.854
 3681SOL     OW11941   0.654   0.162   0.126
 3681SOL    HW111942   0.599   0.132   0.048
 3681SOL    HW211943   0.597   0.165   0.208
 3682SOL     OW11944   5.876   2.363   0.097
 3682SOL    HW111945   5.898   2.447   0.146
 3682SOL    HW211946   5.823   2.302   0.158
 3683SOL     OW11947   6.532   0.110   2.785
 3683SOL    HW111948   6.545   0.032   2.723
 3683SOL    HW211949   6.492   0.186   2.734
 3684SOL     OW11950   1.902   5.004   0.153
 3684SOL    HW111951   1.963   4.978   0.229
 3684SOL    HW211952   1.807   4.991   0.181
 3685SOL     OW11953   0.027   6.812   6.616
 3685SOL    HW111954   6.987   6.758   6.563
 3685SOL    HW211955   0.025   6.907   6.586
 3686SOL     OW11956   5.781   5.613   3.991
 3686SOL    HW111957   5.756   5.520   4.018
 3686SOL    HW211958   5.699   5.663   3.964
 3687SOL     OW11959   3.319   5.981   5.218
 3687SOL    HW111960   3.343   5.884   5.216
 3687SOL    HW211961   3.380   6.030   5.279
 3688SOL     OW11962   6.645   3.678   6.380
 3688SOL    HW111963   6.685   3.765   6.410
 3688SOL    HW211964   6.546   3.682   6.393
 3689SOL     OW11965   2.252   0.035   6.295
 3689SOL    HW111966   2.346   0.024   6.327
 3689SOL    HW211967   2.242   0.122   6.248
 3690SOL     OW11968   4.654   5.499   0.371
 3690SOL    HW111969   4.581   5.557   0.408
 3690SOL    HW211970   4.623   5.405   0.366
 3691SOL     OW11971   2.710   2.248   6.915
 3691SOL    HW111972   2.627   2.233   6.862
 3691SOL    HW211973   2.686   2.294   7.001
 3692SOL     OW11974   0.085   5.375   5.657
 3692SOL    HW111975   0.150   5.410   5.589
 3692SOL    HW211976   0.102   5.277   5.671
 3693SOL     OW11977   2.071   3.930   2.808
 3693SOL    HW111978   2.138   4.004   2.802
 3693SOL    HW211979   2.040   3.920   2.902
 3694SOL     OW11980   1.529   6.126   2.688
 3694SOL    HW111981   1.470   6.050   2.662
 3694SOL    HW211982   1.624   6.095   2.692
 3695SOL     OW11983   6.658   3.084   1.723
 3695SOL    HW111984   6.660   3.086   1.623
 3695SOL    HW211985   6.569   3.118   1.755
 3696SOL     OW11986   3.793   5.700   5.499
 3696SOL    HW111987   3.806   5.799   5.486
 3696SOL    HW211988   3.757   5.660   5.414
 3697SOL     OW11989   0.100   6.925   2.946
 3697SOL    HW111990   0.054   6.869   3.015
 3697SOL    HW211991   0.047   6.925   2.861
 3698SOL     OW11992   2.264   0.875   4.255
 3698SOL    HW111993   2.309   0.938   4.319
 3698SOL    HW211994   2.167   0.900   4.246
 3699SOL     OW11995   0.829   1.847   3.353
 3699SOL    HW111996   0.885   1.765   3.346
 3699SOL    HW211997   0.733   1.823   3.342
 3700SOL     OW11998   0.910   6.247   4.860
 3700SOL    HW111999   0.964   6.286   4.935
 3700SOL    HW212000   0.952   6.161   4.830
 3701SOL     OW12001   1.837   0.468   3.786
 3701SOL    HW112002   1.909   0.486   3.853
 3701SOL    HW212003   1.786   0.386   3.813
 3702SOL     OW12004   6.147   6.948   3.222
 3702SOL    HW112005   6.163   6.856   3.187
 3702SOL    HW212006   6.180   7.015   3.156
 3703SOL     OW12007   6.121   0.984   5.174
 3703SOL    HW112008   6.161   0.930   5.099
 3703SOL    HW212009   6.171   1.070   5.183
 3704SOL     OW12010   3.704   2.128   1.700
 3704SOL    HW112011   3.688   2.046   1.755
 3704SOL    HW212012   3.713   2.207   1.761
 3705SOL     OW12013   3.901   5.208   3.621
 3705SOL    HW112014   3.955   5.167   3.547
 3705SOL    HW212015   3.810   5.167   3.621
 3706SOL     OW12016   1.886   3.336   6.774
 3706SOL    HW112017   1.827   3.380   6.706
 3706SOL    HW212018   1.831   3.312   6.854
 3707SOL     OW12019   5.384   4.744   4.610
 3707SOL    HW112020   5.292   4.783   4.600
 3707SOL    HW212021   5.393   4.702   4.700
 3708SOL     OW12022   0.319   0.597   6.595
 3708SOL    HW112023   0.247   0.599   6.665
 3708SOL    HW212024   0.319   0.508   6.550
 3709SOL     OW12025   3.029   0.810   0.844
 3709SOL    HW112026   3.079   0.809   0.757
 3709SOL    HW212027   3.085   0.765   0.914
 3710SOL     OW12028   6.163   5.219   5.793
 3710SOL    HW112029   6.091   5.211   5.724
 3710SOL    HW212030   6.226   5.142   5.784
 3711SOL     OW12031   0.764   0.226   4.257
 3711SOL    HW112032   0.721   0.143   4.292
 3711SOL    HW212033   0.714   0.306   4.289
 3712SOL     OW12034   0.261   5.532   6.830
 3712SOL    HW112035   0.256   5.448   6.776
 3712SOL    HW212036   0.339   5.527   6.893
 3713SOL     OW12037   0.997   6.203   5.206
 3713SOL    HW112038   1.072   6.179   5.145
 3713SOL    HW212039   0.977   6.126   5.266
 3714SOL     OW12040   5.195   6.169   5.347
 3714SOL    HW112041   5.228   6.263   5.349
 3714SOL    HW212042   5.243   6.119   5.274
 3715SOL     OW12043   0.290   4.192   2.751
 3715SOL    HW112044   0.293   4.226   2.657
 3715SOL    HW212045   0.324   4.098   2.753
 3716SOL     OW12046   6.373   0.312   5.145
 3716SOL    HW112047   6.291   0.261   5.174
 3716SOL    HW212048   6.455   0.261   5.171
 3717SOL     OW12049   6.353   6.744   6.626
 3717SOL    HW112050   6.338   6.837   6.594
 3717SOL    HW212051   6.280   6.685   6.593
 3718SOL     OW12052   1.747   0.533   6.659
 3718SOL    HW112053   1.772   0.454   6.715
 3718SOL    HW212054   1.688   0.595   6.711
 3719SOL     OW12055   5.580   4.339   1.437
 3719SOL    HW112056   5.676   4.341   1.411
 3719SOL    HW212057   5.561   4.256   1.490
 3720SOL     OW12058   5.894   2.465   6.601
 3720SOL    HW112059   5.975   2.407   6.595
 3720SOL    HW212060   5.860   2.484   6.509
 3721SOL     OW12061   6.181   4.517   1.431
 3721SOL    HW112062   6.265   4.571   1.421
 3721SOL    HW212063   6.120   4.535   1.355
 3722SOL     OW12064   6.825   5.931   0.988
 3722SOL    HW112065   6.787   5.840   1.002
 3722SOL    HW212066   6.816   5.957   0.892
 3723SOL     OW12067   6.174   5.411   1.693
 3723SOL    HW112068   6.229   5.456   1.763
 3723SOL    HW212069   6.093   5.370   1.735
 3724SOL     OW12070   1.802   4.642   4.541
 3724SOL    HW112071   1.891   4.654   4.496
 3724SOL    HW212072   1.731   4.627   4.472
 3725SOL     OW12073   5.717   5.299   0.474
 3725SOL    HW112074   5.756   5.355   0.401
 3725SOL    HW212075   5.776   5.221   0.491
 3726SOL     OW12076   5.422   3.729   0.716
 3726SOL    HW112077   5.375   3.767   0.796
 3726SOL    HW212078   5.369   3.653   0.679
 3727SOL     OW12079   0.245   2.421   4.999
 3727SOL    HW112080   0.272   2.469   4.916
 3727SOL    HW212081   0.259   2.479   5.078
 3728SOL     OW12082   1.981   3.598   6.830
 3728SOL    HW112083   1.941   3.512   6.797
 3728SOL    HW212084   1.981   3.598   6.930
 3729SOL     OW12085   0.875   2.652   3.892
 3729SOL    HW112086   0.881   2.576   3.957
 3729SOL    HW212087   0.835   2.619   3.806
 3730SOL     OW12088   2.202   4.909   5.890
 3730SOL    HW112089   2.140   4.962   5.833
 3730SOL    HW212090   2.291   4.955   5.894
 3731SOL     OW12091   6.837   1.875   0.494
 3731SOL    HW112092   6.921   1.921   0.465
 3731SOL    HW212093   6.814   1.903   0.587
 3732SOL     OW12094   2.999   1.244   0.421
 3732SOL    HW112095   2.963   1.322   0.370
 3732SOL    HW212096   2.929   1.173   0.428
 3733SOL     OW12097   1.854   3.759   2.456
 3733SOL    HW112098   1.827   3.749   2.361
 3733SOL    HW212099   1.816   3.684   2.510
 3734SOL     OW12100   5.232   1.212   2.090
 3734SOL    HW112101   5.210   1.296   2.140
 3734SOL    HW212102   5.313   1.227   2.034
 3735SOL     OW12103   1.997   0.781   3.673
 3735SOL    HW112104   2.062   0.721   3.719
 3735SOL    HW212105   1.948   0.730   3.603
 3736SOL     OW12106   0.471   2.500   1.014
 3736SOL    HW112107   0.561   2.525   1.050
 3736SOL    HW212108   0.472   2.403   0.988
 3737SOL     OW12109   5.096   0.591   3.380
 3737SOL    HW112110   5.020   0.530   3.401
 3737SOL    HW212111   5.150   0.552   3.306
 3738SOL     OW12112   0.006   6.963   1.983
 3738SOL    HW112113   0.033   6.968   2.079
 3738SOL    HW212114   6.931   6.963   1.976
 3739SOL     OW12115   2.674   4.484   1.709
 3739SOL    HW112116   2.586   4.518   1.742
 3739SOL    HW212117   2.744   4.503   1.777
 3740SOL     OW12118   5.298   0.734   0.746
 3740SOL    HW112119   5.356   0.797   0.799
 3740SOL    HW212120   5.321   0.741   0.649
 3741SOL     OW12121   5.237   2.541   0.802
 3741SOL    HW112122   5.181   2.486   0.740
 3741SOL    HW212123   5.334   2.524   0.782
 3742SOL     OW12124   2.925   1.547   7.023
 3742SOL    HW112125   2.964   1.467   6.977
 3742SOL    HW212126   2.848   1.582   6.970
 3743SOL     OW12127   5.684   3.501   0.845
 3743SOL    HW112128   5.644   3.483   0.755
 3743SOL    HW212129   5.646   3.438   0.912
 3744SOL     OW12130   1.315   5.878   2.521
 3744SOL    HW112131   1.409   5.888   2.489
 3744SOL    HW212132   1.285   5.784   2.511
 3745SOL     OW12133   4.006   4.895   1.729
 3745SOL    HW112134   3.946   4.815   1.728
 3745SOL    HW212135   4.100   4.866   1.748
 3746SOL     OW12136   5.223   0.729   2.908
 3746SOL    HW112137   5.273   0.759   2.989
 3746SOL    HW212138   5.289   0.710   2.834
 3747SOL     OW12139   2.866   6.346   5.020
 3747SOL    HW112140   2.849   6.318   5.114
 3747SOL    HW212141   2.910   6.436   5.020
 3748SOL     OW12142   5.669   1.472   1.226
 3748SOL    HW112143   5.646   1.449   1.320
 3748SOL    HW212144   5.654   1.570   1.211
 3749SOL     OW12145   1.619   5.659   3.442
 3749SOL    HW112146   1.548   5.641   3.374
 3749SOL    HW212147   1.581   5.650   3.534
 3750SOL     OW12148   0.958   4.090   1.026
 3750SOL    HW112149   1.056   4.101   1.040
 3750SOL    HW212150   0.909   4.149   1.091
 3751SOL     OW12151   0.185   3.530   1.643
 3751SOL    HW112152   0.125   3.512   1.565
 3751SOL    HW212153   0.142   3.495   1.727
 3752SOL     OW12154   5.261   0.436   0.150
 3752SOL    HW112155   5.216   0.407   0.234
 3752SOL    HW212156   5.224   0.384   0.073
 3753SOL     OW12157   6.265   6.324   4.696
 3753SOL    HW112158   6.268   6.408   4.642
 3753SOL    HW212159   6.210   6.255   4.648
 3754SOL     OW12160   2.366   1.120   1.255
 3754SOL    HW112161   2.309   1.130   1.174
 3754SOL    HW212162   2.322   1.059   1.320
 3755SOL     OW12163   4.913   4.432   4.324
 3755SOL    HW112164   4.837   4.427   4.388
 3755SOL    HW212165   4.944   4.527   4.317
 3756SOL     OW12166   3.220   5.026   6.147
 3756SOL    HW112167   3.199   5.050   6.242
 3756SOL    HW212168   3.216   4.927   6.137
 3757SOL     OW12169   5.584   5.762   0.347
 3757SOL    HW112170   5.621   5.721   0.264
 3757SOL    HW212171   5.622   5.716   0.427
 3758SOL     OW12172   2.950   1.550   4.773
 3758SOL    HW112173   2.886   1.592   4.709
 3758SOL    HW212174   2.970   1.457   4.744
 3759SOL     OW12175   4.278   0.011   6.446
 3759SOL    HW112176   4.282   0.070   6.527
 3759SOL    HW212177   4.192   0.027   6.398
 3760SOL     OW12178   1.093   1.601   4.826
 3760SOL    HW112179   1.079   1.547   4.743
 3760SOL    HW212180   1.005   1.639   4.855
 3761SOL     OW12181   0.511   1.344   5.057
 3761SOL    HW112182   0.608   1.370   5.059
 3761SOL    HW212183   0.480   1.321   5.149
 3762SOL     OW12184   1.104   4.781   0.898
 3762SOL    HW112185   1.080   4.857   0.958
 3762SOL    HW212186   1.023   4.754   0.845
 3763SOL     OW12187   6.828   3.805   0.429
 3763SOL    HW112188   6.887   3.724   0.422
 3763SOL    HW212189   6.742   3.788   0.381
 3764SOL     OW12190   1.611   0.092   2.646
 3764SOL    HW112191   1.710   0.077   2.653
 3764SOL    HW212192   1.568   0.074   2.734
 3765SOL     OW12193   5.349   1.622   0.828
 3765SOL    HW112194   5.262   1.662   0.856
 3765SOL    HW212195   5.351   1.615   0.728
 3766SOL     OW12196   2.039   2.029   4.064
 3766SOL    HW112197   1.975   2.023   3.988
 3766SOL    HW212198   2.124   2.071   4.033
 3767SOL     OW12199   2.213   4.377   6.897
 3767SOL    HW112200   2.273   4.409   6.824
 3767SOL    HW212201   2.268   4.337   6.970
 3768SOL     OW12202   0.417   6.531   3.997
 3768SOL    HW112203   0.452   6.460   3.936
 3768SOL    HW212204   0.471   6.532   4.081
 3769SOL     OW12205   5.937   5.930   4.444
 3769SOL    HW112206   5.935   5.900   4.540
 3769SOL    HW212207   5.907   5.855   4.385
 3770SOL     OW12208   1.095   0.852   6.337
 3770SOL    HW112209   1.189   0.840   6.366
 3770SOL    HW212210   1.053   0.763   6.319
 3771SOL     OW12211   5.187   2.971   0.223
 3771SOL    HW112212   5.104   2.985   0.168
 3771SOL    HW212213   5.252   2.915   0.172
 3772SOL     OW12214   0.531   1.018   0.379
 3772SOL    HW112215   0.517   1.111   0.343
 3772SOL    HW212216   0.605   1.020   0.446
 3773SOL     OW12217   5.953   3.875   5.263
 3773SOL    HW112218   5.958   3.854   5.166
 3773SOL    HW212219   5.888   3.812   5.307
 3774SOL     OW12220   6.230   5.693   1.224
 3774SOL    HW112221   6.302   5.700   1.293
 3774SOL    HW212222   6.190   5.783   1.210
 3775SOL     OW12223   4.451   5.002   2.634
 3775SOL    HW112224   4.516   5.075   2.655
 3775SOL    HW212225   4.455   4.932   2.705
 3776SOL     OW12226   4.280   1.804   6.758
 3776SOL    HW112227   4.243   1.778   6.669
 3776SOL    HW212228   4.204   1.816   6.823
 3777SOL     OW12229   3.660   5.517   3.502
 3777SOL    HW112230   3.671   5.443   3.568
 3777SOL    HW212231   3.655   5.480   3.409
 3778SOL     OW12232   3.338   5.291   2.391
 3778SOL    HW112233   3.371   5.266   2.482
 3778SOL    HW212234   3.279   5.218   2.355
 3779SOL     OW12235   0.872   4.910   0.516
 3779SOL    HW112236   0.951   4.913   0.454
 3779SOL    HW212237   0.791   4.883   0.465
 3780SOL     OW12238   5.751   5.004   4.709
 3780SOL    HW112239   5.781   4.995   4.805
 3780SOL    HW212240   5.765   4.917   4.662
 3781SOL     OW12241   0.592   6.705   4.224
 3781SOL    HW112242   0.548   6.621   4.257
 3781SOL    HW212243   0.545   6.784   4.264
 3782SOL     OW12244   2.492   0.159   3.081
 3782SOL    HW112245   2.568   0.149   3.017
 3782SOL    HW212246   2.420   0.214   3.038
 3783SOL     OW12247   5.799   5.192   4.302
 3783SOL    HW112248   5.832   5.284   4.322
 3783SOL    HW212249   5.720   5.198   4.240
 3784SOL     OW12250   5.135   2.683   2.961
 3784SOL    HW112251   5.191   2.724   2.890
 3784SOL    HW212252   5.079   2.611   2.921
 3785SOL     OW12253   1.808   3.573   5.751
 3785SOL    HW112254   1.803   3.671   5.773
 3785SOL    HW212255   1.903   3.546   5.737
 3786SOL     OW12256   2.589   5.055   3.324
 3786SOL    HW112257   2.525   5.132   3.318
 3786SOL    HW212258   2.667   5.072   3.263
 3787SOL     OW12259   6.482   1.588   2.970
 3787SOL    HW112260   6.517   1.586   3.063
 3787SOL    HW212261   6.425   1.669   2.958
 3788SOL     OW12262   0.123   4.816   4.788
 3788SOL    HW112263   0.067   4.738   4.763
 3788SOL    HW212264   0.067   4.883   4.838
 3789SOL     OW12265   0.386   3.101   4.651
 3789SOL    HW112266   0.341   3.099   4.561
 3789SOL    HW212267   0.380   3.193   4.689
 3790SOL     OW12268   1.294   4.403   5.842
 3790SOL    HW112269   1.289   4.430   5.745
 3790SOL    HW212270   1.211   4.433   5.889
 3791SOL     OW12271   4.991   0.956   6.085
 3791SOL    HW112272   4.962   1.052   6.078
 3791SOL    HW212273   4.920   0.903   6.131
 3792SOL     OW12274   1.296   2.097   3.780
 3792SOL    HW112275   1.357   2.033   3.827
 3792SOL    HW212276   1.351   2.163   3.729
 3793SOL     OW12277   4.857   6.637   2.282
 3793SOL    HW112278   4.916   6.603   2.209
 3793SOL    HW212279   4.906   6.707   2.334
 3794SOL     OW12280   1.952   2.616   1.276
 3794SOL    HW112281   1.898   2.621   1.192
 3794SOL    HW212282   1.922   2.537   1.330
 3795SOL     OW12283   4.929   6.218   0.992
 3795SOL    HW112284   4.870   6.246   1.068
 3795SOL    HW212285   4.928   6.288   0.922
 3796SOL     OW12286   3.299   2.100   2.284
 3796SOL    HW112287   3.216   2.120   2.232
 3796SOL    HW212288   3.287   2.013   2.332
 3797SOL     OW12289   0.782   3.583   2.349
 3797SOL    HW112290   0.693   3.621   2.325
 3797SOL    HW212291   0.794   3.584   2.448
 3798SOL     OW12292   2.902   5.280   3.641
 3798SOL    HW112293   2.839   5.298   3.566
 3798SOL    HW212294   2.969   5.353   3.646
 3799SOL     OW12295   5.926   2.439   3.667
 3799SOL    HW112296   5.860   2.459   3.740
 3799SOL    HW212297   5.951   2.342   3.669
 3800SOL     OW12298   5.525   2.461   4.165
 3800SOL    HW112299   5.557   2.533   4.103
 3800SOL    HW212300   5.516   2.499   4.257
 3801SOL     OW12301   5.727   6.862   1.669
 3801SOL    HW112302   5.719   6.953   1.709
 3801SOL    HW212303   5.649   6.845   1.609
 3802SOL     OW12304   1.325   2.495   1.685
 3802SOL    HW112305   1.370   2.438   1.616
 3802SOL    HW212306   1.376   2.490   1.771
 3803SOL     OW12307   4.168   3.313   2.186
 3803SOL    HW112308   4.202   3.389   2.242
 3803SOL    HW212309   4.225   3.232   2.204
 3804SOL     OW12310   5.064   1.161   4.172
 3804SOL    HW112311   4.987   1.152   4.235
 3804SOL    HW212312   5.043   1.113   4.087
 3805SOL     OW12313   1.645   2.749   1.382
 3805SOL    HW112314   1.622   2.653   1.370
 3805SOL    HW212315   1.724   2.772   1.325
 3806SOL     OW12316   3.981   3.507   5.916
 3806SOL    HW112317   3.884   3.511   5.941
 3806SOL    HW212318   4.004   3.585   5.858
 3807SOL     OW12319   1.564   5.625   2.717
 3807SOL    HW112320   1.544   5.617   2.814
 3807SOL    HW212321   1.517   5.705   2.680
 3808SOL     OW12322   4.482   1.090   0.517
 3808SOL    HW112323   4.545   1.167   0.525
 3808SOL    HW212324   4.452   1.081   0.422
 3809SOL     OW12325   5.758   2.780   1.826
 3809SOL    HW112326   5.807   2.692   1.829
 3809SOL    HW212327   5.817   2.849   1.784
 3810SOL     OW12328   4.740   2.708   3.782
 3810SOL    HW112329   4.810   2.660   3.836
 3810SOL    HW212330   4.653   2.659   3.790
 3811SOL     OW12331   0.924   5.305   4.987
 3811SOL    HW112332   0.834   5.344   5.002
 3811SOL    HW212333   0.990   5.347   5.049
 3812SOL     OW12334   4.409   5.015   5.525
 3812SOL    HW112335   4.361   5.039   5.609
 3812SOL    HW212336   4.508   5.020   5.540
 3813SOL     OW12337   4.201   3.046   0.635
 3813SOL    HW112338   4.188   3.076   0.730
 3813SOL    HW212339   4.116   3.056   0.585
 3814SOL     OW12340   6.739   6.736   6.139
 3814SOL    HW112341   6.687   6.815   6.171
 3814SOL    HW212342   6.678   6.675   6.087
 3815SOL     OW12343   3.607   1.971   0.584
 3815SOL    HW112344   3.659   1.917   0.650
 3815SOL    HW212345   3.607   1.925   0.495
 3816SOL     OW12346   1.205   5.747   6.491
 3816SOL    HW112347   1.108   5.772   6.482
 3816SOL    HW212348   1.247   5.802   6.564
 3817SOL     OW12349   4.988   3.364   2.655
 3817SOL    HW112350   4.948   3.388   2.567
 3817SOL    HW212351   5.008   3.447   2.707
 3818SOL     OW12352   6.598   0.688   6.708
 3818SOL    HW112353   6.617   0.660   6.613
 3818SOL    HW212354   6.580   0.786   6.711
 3819SOL     OW12355   5.076   5.285   1.793
 3819SOL    HW112356   5.103   5.286   1.889
 3819SOL    HW212357   5.060   5.191   1.764
 3820SOL     OW12358   5.401   0.063   3.541
 3820SOL    HW112359   5.334   0.136   3.525
 3820SOL    HW212360   5.413   0.009   3.458
 3821SOL     OW12361   2.283   1.999   1.642
 3821SOL    HW112362   2.224   2.034   1.714
 3821SOL    HW212363   2.359   1.948   1.683
 3822SOL     OW12364   2.154   0.785   1.149
 3822SOL    HW112365   2.218   0.790   1.072
 3822SOL    HW212366   2.197   0.824   1.231
 3823SOL     OW12367   3.284   3.560   6.283
 3823SOL    HW112368   3.203   3.511   6.316
 3823SOL    HW212369   3.256   3.648   6.245
 3824SOL     OW12370   0.240   3.241   0.376
 3824SOL    HW112371   0.238   3.261   0.474
 3824SOL    HW212372   0.219   3.324   0.325
 3825SOL     OW12373   0.133   5.519   0.594
 3825SOL    HW112374   0.087   5.608   0.586
 3825SOL    HW212375   0.230   5.534   0.615
 3826SOL     OW12376   1.155   3.710   6.768
 3826SOL    HW112377   1.061   3.745   6.773
 3826SOL    HW212378   1.168   3.664   6.680
 3827SOL     OW12379   1.537   1.132   1.775
 3827SOL    HW112380   1.490   1.133   1.686
 3827SOL    HW212381   1.498   1.203   1.833
 3828SOL     OW12382   3.568   3.752   2.977
 3828SOL    HW112383   3.495   3.717   3.036
 3828SOL    HW212384   3.532   3.768   2.885
 3829SOL     OW12385   1.376   5.358   2.772
 3829SOL    HW112386   1.393   5.286   2.838
 3829SOL    HW212387   1.443   5.353   2.698
 3830SOL     OW12388   0.769   1.061   5.272
 3830SOL    HW112389   0.857   1.096   5.240
 3830SOL    HW212390   0.701   1.072   5.199
 3831SOL     OW12391   4.768   2.540   2.454
 3831SOL    HW112392   4.717   2.455   2.459
 3831SOL    HW212393   4.724   2.609   2.512
 3832SOL     OW12394   6.112   0.913   2.751
 3832SOL    HW112395   6.079   1.000   2.717
 3832SOL    HW212396   6.084   0.839   2.689
 3833SOL     OW12397   0.433   6.609   6.545
 3833SOL    HW112398   0.379   6.664   6.609
 3833SOL    HW212399   0.389   6.610   6.455
 3834SOL     OW12400   4.137   4.583   1.335
 3834SOL    HW112401   4.040   4.560   1.327
 3834SOL    HW212402   4.146   4.675   1.371
 3835SOL     OW12403   3.803   5.511   4.615
 3835SOL    HW112404   3.710   5.523   4.580
 3835SOL    HW212405   3.868   5.544   4.547
 3836SOL     OW12406   1.048   3.917   6.149
 3836SOL    HW112407   1.090   4.006   6.165
 3836SOL    HW212408   1.116   3.845   6.156
 3837SOL     OW12409   4.221   4.736   6.281
 3837SOL    HW112410   4.123   4.716   6.286
 3837SOL    HW212411   4.234   4.835   6.275
 3838SOL     OW12412   0.944   3.812   4.236
 3838SOL    HW112413   0.957   3.735   4.298
 3838SOL    HW212414   0.951   3.780   4.142
 3839SOL     OW12415   5.418   0.982   3.507
 3839SOL    HW112416   5.372   0.896   3.488
 3839SOL    HW212417   5.350   1.055   3.517
 3840SOL     OW12418   2.572   0.906   6.200
 3840SOL    HW112419   2.625   0.896   6.284
 3840SOL    HW212420   2.492   0.963   6.218
 3841SOL     OW12421   6.820   3.102   4.028
 3841SOL    HW112422   6.827   3.160   3.947
 3841SOL    HW212423   6.794   3.158   4.107
 3842SOL     OW12424   1.914   2.885   1.255
 3842SOL    HW112425   1.955   2.797   1.274
 3842SOL    HW212426   1.981   2.945   1.212
 3843SOL     OW12427   5.910   4.794   2.257
 3843SOL    HW112428   5.862   4.758   2.337
 3843SOL    HW212429   5.934   4.717   2.197
 3844SOL     OW12430   1.046   3.064   6.172
 3844SOL    HW112431   0.948   3.076   6.153
 3844SOL    HW212432   1.057   3.013   6.258
 3845SOL     OW12433   2.918   3.694   5.630
 3845SOL    HW112434   2.909   3.778   5.576
 3845SOL    HW212435   2.837   3.683   5.688
 3846SOL     OW12436   0.369   5.370   4.309
 3846SOL    HW112437   0.376   5.296   4.242
 3846SOL    HW212438   0.320   5.447   4.269
 3847SOL     OW12439   5.110   1.225   4.505
 3847SOL    HW112440   5.117   1.193   4.599
 3847SOL    HW212441   5.136   1.321   4.500
 3848SOL     OW12442   4.659   5.514   2.899
 3848SOL    HW112443   4.592   5.532   2.971
 3848SOL    HW212444   4.657   5.417   2.875
 3849SOL     OW12445   1.640   1.028   6.069
 3849SOL    HW112446   1.578   0.970   6.016
 3849SOL    HW212447   1.682   1.096   6.009
 3850SOL     OW12448   2.344   3.796   1.186
 3850SOL    HW112449   2.442   3.813   1.177
 3850SOL    HW212450   2.327   3.742   1.269
 3851SOL     OW12451   0.962   4.704   2.198
 3851SOL    HW112452   0.911   4.775   2.246
 3851SOL    HW212453   1.030   4.747   2.139
 3852SOL     OW12454   4.564   6.298   3.566
 3852SOL    HW112455   4.551   6.200   3.556
 3852SOL    HW212456   4.625   6.317   3.643
 3853SOL     OW12457   1.096   4.443   3.245
 3853SOL    HW112458   1.015   4.469   3.297
 3853SOL    HW212459   1.074   4.369   3.183
 3854SOL     OW12460   1.790   3.273   2.751
 3854SOL    HW112461   1.805   3.217   2.670
 3854SOL    HW212462   1.780   3.214   2.832
 3855SOL     OW12463   5.435   6.351   6.291
 3855SOL    HW112464   5.533   6.353   6.313
 3855SOL    HW212465   5.422   6.368   6.194
 3856SOL     OW12466   0.193   0.987   5.960
 3856SOL    HW112467   0.253   0.932   5.901
 3856SOL    HW212468   0.109   0.937   5.978
 3857SOL     OW12469   0.139   6.368   0.130
 3857SOL    HW112470   0.070   6.309   0.172
 3857SOL    HW212471   0.204   6.312   0.079
 3858SOL     OW12472   1.941   0.682   5.537
 3858SOL    HW112473   1.906   0.610   5.598
 3858SOL    HW212474   1.933   0.771   5.582
 3859SOL     OW12475   6.175   1.360   2.601
 3859SOL    HW112476   6.129   1.305   2.531
 3859SOL    HW212477   6.127   1.349   2.689
 3860SOL     OW12478   2.943   0.379   5.471
 3860SOL    HW112479   2.921   0.451   5.404
 3860SOL    HW212480   2.884   0.388   5.550
 3861SOL     OW12481   4.643   4.885   3.390
 3861SOL    HW112482   4.591   4.804   3.417
 3861SOL    HW212483   4.682   4.871   3.299
 3862SOL     OW12484   1.168   0.421   5.284
 3862SOL    HW112485   1.093   0.485   5.270
 3862SOL    HW212486   1.225   0.453   5.360
 3863SOL     OW12487   4.628   2.501   6.837
 3863SOL    HW112488   4.584   2.589   6.818
 3863SOL    HW212489   4.721   2.502   6.801
 3864SOL     OW12490   2.517   0.408   5.288
 3864SOL    HW112491   2.612   0.391   5.264
 3864SOL    HW212492   2.477   0.472   5.223
 3865SOL     OW12493   3.557   0.329   0.259
 3865SOL    HW112494   3.583   0.241   0.298
 3865SOL    HW212495   3.636   0.373   0.217
 3866SOL     OW12496   3.753   1.212   1.027
 3866SOL    HW112497   3.761   1.120   1.065
 3866SOL    HW212498   3.757   1.280   1.100
 3867SOL     OW12499   1.276   4.198   3.320
 3867SOL    HW112500   1.337   4.196   3.241
 3867SOL    HW212501   1.195   4.252   3.297
 3868SOL     OW12502   3.263   6.844   0.336
 3868SOL    HW112503   3.307   6.906   0.400
 3868SOL    HW212504   3.238   6.760   0.383
 3869SOL     OW12505   5.751   4.452   4.911
 3869SOL    HW112506   5.782   4.437   5.005
 3869SOL    HW212507   5.701   4.538   4.906
 3870SOL     OW12508   5.100   5.710   6.474
 3870SOL    HW112509   5.031   5.772   6.514
 3870SOL    HW212510   5.173   5.696   6.540
 3871SOL     OW12511   3.633   0.499   2.821
 3871SOL    HW112512   3.596   0.592   2.816
 3871SOL    HW212513   3.725   0.502   2.859
 3872SOL     OW12514   3.708   2.987   3.238
 3872SOL    HW112515   3.646   2.922   3.283
 3872SOL    HW212516   3.793   2.993   3.291
 3873SOL     OW12517   5.956   2.967   1.738
 3873SOL    HW112518   5.950   3.063   1.713
 3873SOL    HW212519   5.946   2.957   1.837
 3874SOL     OW12520   3.851   5.783   6.939
 3874SOL    HW112521   3.894   5.709   6.991
 3874SOL    HW212522   3.827   5.749   6.848
 3875SOL     OW12523   1.624   3.139   1.775
 3875SOL    HW112524   1.650   3.045   1.753
 3875SOL    HW212525   1.572   3.139   1.861
 3876SOL     OW12526   4.775   4.825   0.388
 3876SOL    HW112527   4.825   4.743   0.360
 3876SOL    HW212528   4.680   4.802   0.408
 3877SOL     OW12529   6.736   2.854   0.573
 3877SOL    HW112530   6.816   2.884   0.624
 3877SOL    HW212531   6.682   2.934   0.546
 3878SOL     OW12532   3.388   6.936   4.419
 3878SOL    HW112533   3.434   6.852   4.388
 3878SOL    HW212534   3.396   6.943   4.519
 3879SOL     OW12535   5.171   6.466   1.766
 3879SOL    HW112536   5.115   6.541   1.733
 3879SOL    HW212537   5.249   6.502   1.816
 3880SOL     OW12538   6.073   4.734   3.534
 3880SOL    HW112539   5.997   4.789   3.498
 3880SOL    HW212540   6.140   4.794   3.578
 3881SOL     OW12541   1.124   4.129   1.397
 3881SOL    HW112542   1.146   4.050   1.454
 3881SOL    HW212543   1.030   4.157   1.414
 3882SOL     OW12544   0.881   1.931   5.579
 3882SOL    HW112545   0.935   1.852   5.609
 3882SOL    HW212546   0.787   1.920   5.610
 3883SOL     OW12547   4.409   0.854   3.830
 3883SOL    HW112548   4.412   0.756   3.808
 3883SOL    HW212549   4.500   0.893   3.819
 3884SOL     OW12550   0.423   5.350   3.476
 3884SOL    HW112551   0.523   5.342   3.469
 3884SOL    HW212552   0.383   5.341   3.385
 3885SOL     OW12553   5.944   0.468   2.460
 3885SOL    HW112554   5.897   0.422   2.384
 3885SOL    HW212555   6.042   0.451   2.454
 3886SOL     OW12556   6.288   5.968   4.744
 3886SOL    HW112557   6.311   5.872   4.735
 3886SOL    HW212558   6.371   6.022   4.755
 3887SOL     OW12559   0.257   0.699   6.159
 3887SOL    HW112560   0.330   0.662   6.102
 3887SOL    HW212561   0.297   0.744   6.239
 3888SOL     OW12562   0.129   0.346   5.891
 3888SOL    HW112563   0.168   0.307   5.808
 3888SOL    HW212564   0.110   0.274   5.957
 3889SOL     OW12565   6.553   3.459   6.058
 3889SOL    HW112566   6.491   3.524   6.102
 3889SOL    HW212567   6.506   3.414   5.982
 3890SOL     OW12568   5.736   5.602   2.738
 3890SOL    HW112569   5.643   5.626   2.766
 3890SOL    HW212570   5.788   5.686   2.721
 3891SOL     OW12571   5.424   4.706   4.333
 3891SOL    HW112572   5.424   4.762   4.416
 3891SOL    HW212573   5.405   4.611   4.356
 3892SOL     OW12574   0.366   2.368   1.343
 3892SOL    HW112575   0.377   2.355   1.245
 3892SOL    HW212576   0.269   2.383   1.364
 3893SOL     OW12577   3.438   5.155   0.751
 3893SOL    HW112578   3.371   5.217   0.791
 3893SOL    HW212579   3.527   5.200   0.748
 3894SOL     OW12580   2.282   2.008   1.066
 3894SOL    HW112581   2.195   2.014   1.017
 3894SOL    HW212582   2.304   1.912   1.084
 3895SOL     OW12583   1.779   0.510   5.052
 3895SOL    HW112584   1.813   0.506   5.146
 3895SOL    HW212585   1.839   0.457   4.992
 3896SOL     OW12586   0.399   1.475   6.294
 3896SOL    HW112587   0.492   1.511   6.304
 3896SOL    HW212588   0.333   1.546   6.320
 3897SOL     OW12589   3.644   6.227   1.974
 3897SOL    HW112590   3.581   6.239   2.050
 3897SOL    HW212591   3.713   6.159   1.998
 3898SOL     OW12592   3.604   3.316   4.044
 3898SOL    HW112593   3.508   3.342   4.055
 3898SOL    HW212594   3.610   3.234   3.987
 3899SOL     OW12595   5.148   0.438   4.362
 3899SOL    HW112596   5.141   0.351   4.313
 3899SOL    HW212597   5.071   0.497   4.336
 3900SOL     OW12598   5.107   3.151   3.796
 3900SOL    HW112599   5.185   3.089   3.791
 3900SOL    HW212600   5.136   3.240   3.831
 3901SOL     OW12601   3.181   6.314   5.005
 3901SOL    HW112602   3.122   6.395   5.003
 3901SOL    HW212603   3.215   6.300   5.098
 3902SOL     OW12604   6.430   3.748   1.735
 3902SOL    HW112605   6.516   3.778   1.694
 3902SOL    HW212606   6.431   3.767   1.833
 3903SOL     OW12607   4.953   4.972   6.916
 3903SOL    HW112608   4.895   4.957   6.836
 3903SOL    HW212609   4.982   4.884   6.952
 3904SOL     OW12610   2.274   6.669   5.630
 3904SOL    HW112611   2.282   6.660   5.729
 3904SOL    HW212612   2.351   6.724   5.595
 3905SOL     OW12613   5.987   0.027   5.854
 3905SOL    HW112614   6.035   7.012   5.776
 3905SOL    HW212615   5.936   6.980   5.901
 3906SOL     OW12616   2.476   5.441   5.347
 3906SOL    HW112617   2.445   5.411   5.438
 3906SOL    HW212618   2.553   5.504   5.357
 3907SOL     OW12619   6.480   6.691   5.160
 3907SOL    HW112620   6.468   6.598   5.196
 3907SOL    HW212621   6.471   6.688   5.060
 3908SOL     OW12622   1.876   1.162   6.846
 3908SOL    HW112623   1.862   1.227   6.771
 3908SOL    HW212624   1.854   1.206   6.933
 3909SOL     OW12625   0.313   4.931   5.974
 3909SOL    HW112626   0.393   4.899   6.025
 3909SOL    HW212627   0.247   4.971   6.037
 3910SOL     OW12628   3.370   4.072   1.870
 3910SOL    HW112629   3.411   3.987   1.837
 3910SOL    HW212630   3.337   4.125   1.792
 3911SOL     OW12631   4.455   1.720   0.215
 3911SOL    HW112632   4.432   1.817   0.224
 3911SOL    HW212633   4.426   1.687   0.125
 3912SOL     OW12634   3.673   1.079   6.345
 3912SOL    HW112635   3.614   1.066   6.425
 3912SOL    HW212636   3.764   1.107   6.375
 3913SOL     OW12637   2.953   6.008   6.503
 3913SOL    HW112638   2.877   6.028   6.441
 3913SOL    HW212639   3.035   6.054   6.471
 3914SOL     OW12640   4.792   1.064   1.007
 3914SOL    HW112641   4.882   1.107   1.000
 3914SOL    HW212642   4.723   1.124   0.967
 3915SOL     OW12643   4.274   6.264   1.072
 3915SOL    HW112644   4.331   6.312   1.004
 3915SOL    HW212645   4.328   6.191   1.115
 3916SOL     OW12646   1.905   6.429   2.202
 3916SOL    HW112647   1.848   6.499   2.246
 3916SOL    HW212648   1.944   6.369   2.271
 3917SOL     OW12649   1.243   4.930   0.139
 3917SOL    HW112650   1.310   4.855   0.140
 3917SOL    HW212651   1.290   5.015   0.113
 3918SOL     OW12652   4.227   6.329   2.123
 3918SOL    HW112653   4.283   6.410   2.103
 3918SOL    HW212654   4.233   6.307   2.220
 3919SOL     OW12655   3.458   6.923   6.738
 3919SOL    HW112656   3.420   6.937   6.647
 3919SOL    HW212657   3.460   7.009   6.788
 3920SOL     OW12658   2.776   2.067   6.428
 3920SOL    HW112659   2.731   2.156   6.439
 3920SOL    HW212660   2.743   2.023   6.345
 3921SOL     OW12661   0.702   3.117   0.348
 3921SOL    HW112662   0.755   3.143   0.267
 3921SOL    HW212663   0.622   3.064   0.320
 3922SOL     OW12664   4.792   5.080   0.262
 3922SOL    HW112665   4.785   4.981   0.270
 3922SOL    HW212666   4.775   5.122   0.352
 3923SOL     OW12667   6.210   1.771   0.040
 3923SOL    HW112668   6.271   1.744   0.115
 3923SOL    HW212669   6.187   1.868   0.049
 3924SOL     OW12670   0.430   5.085   3.293
 3924SOL    HW112671   0.481   5.023   3.234
 3924SOL    HW212672   0.456   5.070   3.388
 3925SOL     OW12673   4.218   4.087   0.824
 3925SOL    HW112674   4.222   3.997   0.781
 3925SOL    HW212675   4.251   4.156   0.760
 3926SOL     OW12676   6.774   6.597   3.858
 3926SOL    HW112677   6.704   6.655   3.817
 3926SOL    HW212678   6.793   6.628   3.952
 3927SOL     OW12679   0.318   3.139   4.337
 3927SOL    HW112680   0.242   3.079   4.309
 3927SOL    HW212681   0.306   3.229   4.296
 3928SOL     OW12682   3.692   5.705   4.829
 3928SOL    HW112683   3.600   5.694   4.869
 3928SOL    HW212684   3.741   5.618   4.833
 3929SOL     OW12685   0.215   1.920   6.620
 3929SOL    HW112686   0.256   1.991   6.678
 3929SOL    HW212687   0.127   1.952   6.586
 3930SOL     OW12688   1.491   1.979   3.530
 3930SOL    HW112689   1.495   1.933   3.441
 3930SOL    HW212690   1.558   2.053   3.532
 3931SOL     OW12691   1.997   1.634   2.124
 3931SOL    HW112692   2.053   1.673   2.197
 3931SOL    HW212693   1.901   1.647   2.146
 3932SOL     OW12694   1.787   4.379   3.889
 3932SOL    HW112695   1.865   4.318   3.902
 3932SOL    HW212696   1.726   4.373   3.969
 3933SOL     OW12697   1.788   6.990   0.002
 3933SOL    HW112698   1.862   0.034   0.004
 3933SOL    HW212699   1.716   7.022   6.965
 3934SOL     OW12700   0.198   1.010   1.966
 3934SOL    HW112701   0.272   0.949   1.939
 3934SOL    HW212702   0.158   0.978   2.052
 3935SOL     OW12703   1.582   0.743   5.261
 3935SOL    HW112704   1.583   0.819   5.196
 3935SOL    HW212705   1.565   0.779   5.353
 3936SOL     OW12706   7.012   6.068   5.241
 3936SOL    HW112707   0.044   6.008   5.184
 3936SOL    HW212708   0.034   6.155   5.256
 3937SOL     OW12709   0.413   6.671   2.743
 3937SOL    HW112710   0.504   6.648   2.779
 3937SOL    HW212711   0.384   6.758   2.782
 3938SOL     OW12712   5.914   2.902   3.535
 3938SOL    HW112713   5.992   2.847   3.566
 3938SOL    HW212714   5.830   2.869   3.577
 3939SOL     OW12715   3.101   2.006   3.132
 3939SOL    HW112716   3.092   2.093   3.181
 3939SOL    HW212717   3.142   2.022   3.042
 3940SOL     OW12718   3.620   4.912   2.266
 3940SOL    HW112719   3.603   4.835   2.205
 3940SOL    HW212720   3.570   4.898   2.351
 3941SOL     OW12721   6.135   0.586   5.094
 3941SOL    HW112722   6.143   0.632   5.006
 3941SOL    HW212723   6.226   0.580   5.137
 3942SOL     OW12724   0.993   6.498   5.619
 3942SOL    HW112725   1.036   6.584   5.589
 3942SOL    HW212726   1.034   6.468   5.705
 3943SOL     OW12727   0.828   3.570   2.616
 3943SOL    HW112728   0.840   3.582   2.714
 3943SOL    HW212729   0.899   3.509   2.581
 3944SOL     OW12730   5.559   4.061   5.474
 3944SOL    HW112731   5.565   3.996   5.550
 3944SOL    HW212732   5.485   4.033   5.413
 3945SOL     OW12733   0.948   2.592   2.677
 3945SOL    HW112734   0.857   2.587   2.637
 3945SOL    HW212735   0.982   2.500   2.696
 3946SOL     OW12736   6.228   4.017   5.940
 3946SOL    HW112737   6.299   3.947   5.938
 3946SOL    HW212738   6.205   4.039   6.035
 3947SOL     OW12739   5.817   5.859   1.276
 3947SOL    HW112740   5.862   5.941   1.312
 3947SOL    HW212741   5.730   5.846   1.323
 3948SOL     OW12742   0.360   5.018   0.588
 3948SOL    HW112743   0.320   5.108   0.600
 3948SOL    HW212744   0.421   4.998   0.665
 3949SOL     OW12745   6.176   6.689   3.118
 3949SOL    HW112746   6.242   6.716   3.048
 3949SOL    HW212747   6.209   6.609   3.167
 3950SOL     OW12748   3.239   4.216   1.285
 3950SOL    HW112749   3.262   4.141   1.346
 3950SOL    HW212750   3.275   4.197   1.194
 3951SOL     OW12751   0.446   0.584   0.048
 3951SOL    HW112752   0.481   0.665   0.096
 3951SOL    HW212753   0.427   0.608   6.977
 3952SOL     OW12754   6.026   3.383   5.070
 3952SOL    HW112755   5.960   3.366   4.996
 3952SOL    HW212756   6.116   3.350   5.042
 3953SOL     OW12757   3.368   4.673   0.220
 3953SOL    HW112758   3.427   4.591   0.222
 3953SOL    HW212759   3.291   4.661   0.282
 3954SOL     OW12760   5.931   5.499   5.454
 3954SOL    HW112761   5.958   5.406   5.478
 3954SOL    HW212762   5.872   5.496   5.373
 3955SOL     OW12763   4.554   6.685   6.903
 3955SOL    HW112764   4.522   6.597   6.938
 3955SOL    HW212765   4.564   6.750   6.978
 3956SOL     OW12766   1.447   1.852   4.294
 3956SOL    HW112767   1.482   1.770   4.249
 3956SOL    HW212768   1.378   1.895   4.236
 3957SOL     OW12769   4.409   6.769   3.464
 3957SOL    HW112770   4.317   6.805   3.482
 3957SOL    HW212771   4.436   6.791   3.370
 3958SOL     OW12772   5.794   0.202   6.225
 3958SOL    HW112773   5.755   0.293   6.242
 3958SOL    HW212774   5.888   0.199   6.259
 3959SOL     OW12775   3.331   6.625   0.720
 3959SOL    HW112776   3.364   6.713   0.755
 3959SOL    HW212777   3.356   6.552   0.784
 3960SOL     OW12778   5.926   1.668   6.110
 3960SOL    HW112779   5.961   1.757   6.080
 3960SOL    HW212780   5.957   1.650   6.203
 3961SOL     OW12781   5.428   2.841   2.473
 3961SOL    HW112782   5.411   2.875   2.566
 3961SOL    HW212783   5.357   2.875   2.411
 3962SOL     OW12784   1.651   5.712   6.563
 3962SOL    HW112785   1.592   5.651   6.615
 3962SOL    HW212786   1.690   5.662   6.485
 3963SOL     OW12787   4.830   4.856   3.824
 3963SOL    HW112788   4.765   4.891   3.755
 3963SOL    HW212789   4.783   4.791   3.884
 3964SOL     OW12790   4.198   4.834   5.086
 3964SOL    HW112791   4.158   4.890   5.013
 3964SOL    HW212792   4.247   4.757   5.046
 3965SOL     OW12793   4.231   3.732   6.573
 3965SOL    HW112794   4.239   3.796   6.649
 3965SOL    HW212795   4.308   3.744   6.510
 3966SOL     OW12796   6.925   4.848   6.724
 3966SOL    HW112797   6.861   4.869   6.798
 3966SOL    HW212798   7.013   4.892   6.744
 3967SOL     OW12799   1.373   4.677   2.810
 3967SOL    HW112800   1.320   4.605   2.855
 3967SOL    HW212801   1.466   4.678   2.846
 3968SOL     OW12802   6.504   0.648   0.836
 3968SOL    HW112803   6.515   0.572   0.901
 3968SOL    HW212804   6.579   0.713   0.849
 3969SOL     OW12805   0.446   3.942   3.155
 3969SOL    HW112806   0.440   4.037   3.124
 3969SOL    HW212807   0.359   3.895   3.135
 3970SOL     OW12808   4.588   5.305   3.984
 3970SOL    HW112809   4.529   5.245   4.038
 3970SOL    HW212810   4.574   5.400   4.014
 3971SOL     OW12811   2.257   4.867   2.397
 3971SOL    HW112812   2.263   4.768   2.383
 3971SOL    HW212813   2.196   4.886   2.474
 3972SOL     OW12814   1.828   5.311   1.657
 3972SOL    HW112815   1.795   5.221   1.685
 3972SOL    HW212816   1.926   5.319   1.676
 3973SOL     OW12817   2.445   4.193   5.501
 3973SOL    HW112818   2.445   4.265   5.570
 3973SOL    HW212819   2.362   4.198   5.446
 3974SOL     OW12820   1.919   0.844   5.785
 3974SOL    HW112821   2.018   0.829   5.777
 3974SOL    HW212822   1.896   0.864   5.880
 3975SOL     OW12823   6.092   0.293   6.582
 3975SOL    HW112824   5.993   0.304   6.577
 3975SOL    HW212825   6.115   0.209   6.630
 3976SOL     OW12826   2.321   4.508   1.134
 3976SOL    HW112827   2.232   4.497   1.178
 3976SOL    HW212828   2.343   4.606   1.129
 3977SOL     OW12829   2.887   4.543   5.713
 3977SOL    HW112830   2.829   4.623   5.699
 3977SOL    HW212831   2.960   4.541   5.644
 3978SOL     OW12832   5.662   0.740   4.363
 3978SOL    HW112833   5.564   0.743   4.386
 3978SOL    HW212834   5.715   0.716   4.444
 3979SOL     OW12835   2.454   6.229   1.623
 3979SOL    HW112836   2.440   6.149   1.682
 3979SOL    HW212837   2.471   6.199   1.529
 3980SOL     OW12838   6.808   4.261   6.265
 3980SOL    HW112839   6.795   4.351   6.306
 3980SOL    HW212840   6.863   4.204   6.326
 3981SOL     OW12841   1.895   1.850   6.747
 3981SOL    HW112842   1.808   1.898   6.752
 3981SOL    HW212843   1.878   1.751   6.749
 3982SOL     OW12844   2.316   0.603   4.272
 3982SOL    HW112845   2.301   0.702   4.266
 3982SOL    HW212846   2.406   0.585   4.312
 3983SOL     OW12847   3.932   5.869   4.225
 3983SOL    HW112848   3.946   5.902   4.319
 3983SOL    HW212849   3.856   5.918   4.183
 3984SOL     OW12850   1.972   0.217   2.751
 3984SOL    HW112851   1.958   0.203   2.849
 3984SOL    HW212852   1.942   0.135   2.701
 3985SOL     OW12853   2.425   4.506   0.119
 3985SOL    HW112854   2.412   4.413   0.086
 3985SOL    HW212855   2.394   4.512   0.214
 3986SOL     OW12856   6.803   2.112   3.193
 3986SOL    HW112857   6.751   2.054   3.131
 3986SOL    HW212858   6.889   2.067   3.218
 3987SOL     OW12859   2.022   5.996   4.758
 3987SOL    HW112860   2.063   6.071   4.810
 3987SOL    HW212861   1.929   5.980   4.790
 3988SOL     OW12862   3.859   2.865   5.712
 3988SOL    HW112863   3.906   2.807   5.646
 3988SOL    HW212864   3.791   2.811   5.762
 3989SOL     OW12865   6.314   1.451   0.185
 3989SOL    HW112866   6.285   1.510   0.260
 3989SOL    HW212867   6.397   1.489   0.143
 3990SOL     OW12868   5.930   1.673   3.893
 3990SOL    HW112869   6.001   1.742   3.904
 3990SOL    HW212870   5.970   1.588   3.859
 3991SOL     OW12871   5.984   1.720   1.888
 3991SOL    HW112872   5.992   1.734   1.987
 3991SOL    HW212873   5.935   1.797   1.847
 3992SOL     OW12874   3.927   2.422   6.109
 3992SOL    HW112875   3.960   2.409   6.203
 3992SOL    HW212876   4.002   2.458   6.053
 3993SOL     OW12877   1.268   1.921   3.241
 3993SOL    HW112878   1.253   1.834   3.287
 3993SOL    HW212879   1.241   1.996   3.302
 3994SOL     OW12880   1.470   2.761   5.907
 3994SOL    HW112881   1.397   2.693   5.911
 3994SOL    HW212882   1.507   2.777   5.999
 3995SOL     OW12883   2.184   3.810   4.319
 3995SOL    HW112884   2.193   3.872   4.398
 3995SOL    HW212885   2.180   3.716   4.352
 3996SOL     OW12886   1.138   0.746   4.693
 3996SOL    HW112887   1.229   0.751   4.735
 3996SOL    HW212888   1.143   0.777   4.598
 3997SOL     OW12889   4.783   2.925   2.814
 3997SOL    HW112890   4.815   2.881   2.898
 3997SOL    HW212891   4.787   3.024   2.825
 3998SOL     OW12892   4.569   1.340   2.700
 3998SOL    HW112893   4.649   1.288   2.731
 3998SOL    HW212894   4.502   1.278   2.659
 3999SOL     OW12895   5.213   3.662   3.279
 3999SOL    HW112896   5.264   3.605   3.343
 3999SOL    HW212897   5.229   3.759   3.299
 4000SOL     OW12898   3.482   5.721   3.029
 4000SOL    HW112899   3.559   5.666   3.061
 4000SOL    HW212900   3.396   5.675   3.053
 4001SOL     OW12901   1.446   2.622   4.131
 4001SOL    HW112902   1.443   2.591   4.226
 4001SOL    HW212903   1.451   2.722   4.129
 4002SOL     OW12904   2.601   3.067   0.403
 4002SOL    HW112905   2.569   2.977   0.373
 4002SOL    HW212906   2.531   3.110   0.461
 4003SOL     OW12907   2.625   6.930   5.759
 4003SOL    HW112908   2.669   7.019   5.763
 4003SOL    HW212909   2.541   6.933   5.813
 4004SOL     OW12910   6.161   2.406   3.997
 4004SOL    HW112911   6.175   2.307   3.990
 4004SOL    HW212912   6.204   2.451   3.918
 4005SOL     OW12913   5.017   5.306   1.185
 4005SOL    HW112914   5.098   5.341   1.138
 4005SOL    HW212915   4.986   5.372   1.254
 4006SOL     OW12916   4.220   4.680   1.782
 4006SOL    HW112917   4.265   4.621   1.850
 4006SOL    HW212918   4.157   4.624   1.728
 4007SOL     OW12919   0.846   3.366   1.860
 4007SOL    HW112920   0.751   3.361   1.891
 4007SOL    HW212921   0.888   3.275   1.866
 4008SOL     OW12922   3.508   1.721   4.553
 4008SOL    HW112923   3.448   1.799   4.572
 4008SOL    HW212924   3.544   1.686   4.639
 4009SOL     OW12925   4.859   2.985   0.624
 4009SOL    HW112926   4.872   2.945   0.715
 4009SOL    HW212927   4.939   2.967   0.567
 4010SOL     OW12928   2.288   3.993   1.020
 4010SOL    HW112929   2.330   4.075   1.058
 4010SOL    HW212930   2.305   3.916   1.082
 4011SOL     OW12931   0.849   0.116   1.789
 4011SOL    HW112932   0.887   0.141   1.878
 4011SOL    HW212933   0.773   0.177   1.766
 4012SOL     OW12934   4.391   4.578   1.256
 4012SOL    HW112935   4.300   4.584   1.297
 4012SOL    HW212936   4.430   4.670   1.249
 4013SOL     OW12937   2.871   0.358   0.861
 4013SOL    HW112938   2.902   0.263   0.868
 4013SOL    HW212939   2.833   0.388   0.948
 4014SOL     OW12940   4.044   5.636   3.763
 4014SOL    HW112941   3.999   5.547   3.772
 4014SOL    HW212942   4.123   5.639   3.824
 4015SOL     OW12943   3.816   5.469   5.762
 4015SOL    HW112944   3.786   5.405   5.833
 4015SOL    HW212945   3.758   5.550   5.764
 4016SOL     OW12946   1.172   5.467   6.647
 4016SOL    HW112947   1.191   5.533   6.574
 4016SOL    HW212948   1.259   5.438   6.688
 4017SOL     OW12949   6.986   6.920   0.144
 4017SOL    HW112950   6.976   6.919   0.044
 4017SOL    HW212951   6.980   7.015   0.177
 4018SOL     OW12952   5.774   6.299   1.716
 4018SOL    HW112953   5.686   6.255   1.700
 4018SOL    HW212954   5.824   6.250   1.787
 4019SOL     OW12955   5.826   3.549   2.156
 4019SOL    HW112956   5.846   3.453   2.137
 4019SOL    HW212957   5.771   3.556   2.239
 4020SOL     OW12958   6.131   2.345   5.853
 4020SOL    HW112959   6.202   2.397   5.902
 4020SOL    HW212960   6.049   2.339   5.909
 4021SOL     OW12961   3.149   3.896   5.861
 4021SOL    HW112962   3.226   3.839   5.887
 4021SOL    HW212963   3.081   3.840   5.813
 4022SOL     OW12964   4.150   0.429   6.906
 4022SOL    HW112965   4.217   0.355   6.912
 4022SOL    HW212966   4.181   0.497   6.840
 4023SOL     OW12967   6.802   0.847   4.075
 4023SOL    HW112968   6.875   0.793   4.034
 4023SOL    HW212969   6.715   0.824   4.030
 4024SOL     OW12970   2.665   5.020   4.471
 4024SOL    HW112971   2.690   4.929   4.503
 4024SOL    HW212972   2.670   5.024   4.371
 4025SOL     OW12973   0.441   5.995   5.135
 4025SOL    HW112974   0.531   6.012   5.176
 4025SOL    HW212975   0.423   5.896   5.133
 4026SOL     OW12976   6.668   0.116   3.531
 4026SOL    HW112977   6.613   0.038   3.560
 4026SOL    HW212978   6.724   0.148   3.608
 4027SOL     OW12979   2.851   3.309   1.073
 4027SOL    HW112980   2.765   3.265   1.046
 4027SOL    HW212981   2.870   3.385   1.012
 4028SOL     OW12982   2.614   2.431   2.734
 4028SOL    HW112983   2.530   2.378   2.739
 4028SOL    HW212984   2.615   2.500   2.807
 4029SOL     OW12985   2.897   4.379   6.317
 4029SOL    HW112986   2.983   4.427   6.331
 4029SOL    HW212987   2.869   4.335   6.403
 4030SOL     OW12988   1.003   1.985   0.456
 4030SOL    HW112989   0.978   1.998   0.361
 4030SOL    HW212990   1.070   2.055   0.483
 4031SOL     OW12991   4.985   6.821   3.170
 4031SOL    HW112992   4.891   6.805   3.200
 4031SOL    HW212993   5.048   6.784   3.239
 4032SOL     OW12994   6.335   0.054   2.196
 4032SOL    HW112995   6.318   7.003   2.132
 4032SOL    HW212996   6.279   0.133   2.170
 4033SOL     OW12997   2.870   3.383   2.255
 4033SOL    HW112998   2.958   3.418   2.224
 4033SOL    HW212999   2.815   3.357   2.175
 4034SOL     OW13000   6.927   1.409   4.948
 4034SOL    HW113001   6.943   1.506   4.929
 4034SOL    HW213002   6.930   1.358   4.863
 4035SOL     OW13003   6.793   2.584   0.663
 4035SOL    HW113004   6.750   2.669   0.631
 4035SOL    HW213005   6.768   2.509   0.602
 4036SOL     OW13006   5.151   6.758   2.624
 4036SOL    HW113007   5.053   6.739   2.621
 4036SOL    HW213008   5.166   6.850   2.661
 4037SOL     OW13009   2.142   1.369   0.848
 4037SOL    HW113010   2.116   1.454   0.894
 4037SOL    HW213011   2.065   1.334   0.795
 4038SOL     OW13012   4.241   4.246   1.697
 4038SOL    HW113013   4.295   4.183   1.640
 4038SOL    HW213014   4.302   4.291   1.763
 4039SOL     OW13015   4.601   4.437   1.326
 4039SOL    HW113016   4.610   4.339   1.311
 4039SOL    HW213017   4.512   4.468   1.294
 4040SOL     OW13018   3.402   0.482   5.886
 4040SOL    HW113019   3.362   0.573   5.875
 4040SOL    HW213020   3.350   0.415   5.834
 4041SOL     OW13021   2.219   5.349   1.193
 4041SOL    HW113022   2.273   5.363   1.110
 4041SOL    HW213023   2.122   5.350   1.170
 4042SOL     OW13024   6.280   5.503   2.703
 4042SOL    HW113025   6.218   5.432   2.734
 4042SOL    HW213026   6.348   5.463   2.641
 4043SOL     OW13027   5.045   2.440   4.670
 4043SOL    HW113028   4.948   2.431   4.649
 4043SOL    HW213029   5.068   2.381   4.748
 4044SOL     OW13030   4.553   0.375   3.823
 4044SOL    HW113031   4.495   0.436   3.878
 4044SOL    HW213032   4.500   0.295   3.796
 4045SOL     OW13033   2.553   4.788   6.255
 4045SOL    HW113034   2.472   4.820   6.206
 4045SOL    HW213035   2.635   4.827   6.214
 4046SOL     OW13036   0.524   1.573   3.902
 4046SOL    HW113037   0.485   1.512   3.834
 4046SOL    HW213038   0.479   1.557   3.990
 4047SOL     OW13039   1.949   2.283   0.603
 4047SOL    HW113040   2.040   2.283   0.645
 4047SOL    HW213041   1.921   2.189   0.584
 4048SOL     OW13042   5.360   2.264   2.440
 4048SOL    HW113043   5.267   2.233   2.417
 4048SOL    HW213044   5.389   2.219   2.525
 4049SOL     OW13045   6.411   5.764   6.682
 4049SOL    HW113046   6.387   5.859   6.661
 4049SOL    HW213047   6.442   5.718   6.599
 4050SOL     OW13048   1.629   6.540   0.760
 4050SOL    HW113049   1.690   6.508   0.686
 4050SOL    HW213050   1.539   6.562   0.722
 4051SOL     OW13051   3.952   2.705   0.157
 4051SOL    HW113052   3.923   2.611   0.175
 4051SOL    HW213053   3.888   2.768   0.202
 4052SOL     OW13054   0.175   0.393   2.147
 4052SOL    HW113055   0.172   0.321   2.077
 4052SOL    HW213056   0.152   0.481   2.105
 4053SOL     OW13057   2.969   5.355   4.128
 4053SOL    HW113058   2.930   5.302   4.203
 4053SOL    HW213059   3.033   5.423   4.163
 4054SOL     OW13060   0.390   3.117   1.891
 4054SOL    HW113061   0.356   3.143   1.800
 4054SOL    HW213062   0.398   3.018   1.896
 4055SOL     OW13063   4.042   3.368   6.216
 4055SOL    HW113064   3.990   3.343   6.133
 4055SOL    HW213065   3.978   3.393   6.289
 4056SOL     OW13066   3.741   3.593   0.818
 4056SOL    HW113067   3.782   3.674   0.776
 4056SOL    HW213068   3.667   3.559   0.759
 4057SOL     OW13069   5.431   2.330   1.134
 4057SOL    HW113070   5.349   2.357   1.185
 4057SOL    HW213071   5.457   2.236   1.160
 4058SOL     OW13072   1.886   0.532   4.053
 4058SOL    HW113073   1.787   0.528   4.066
 4058SOL    HW213074   1.916   0.628   4.051
 4059SOL     OW13075   1.245   2.755   3.550
 4059SOL    HW113076   1.285   2.741   3.640
 4059SOL    HW213077   1.162   2.699   3.541
 4060SOL     OW13078   4.732   5.377   4.782
 4060SOL    HW113079   4.798   5.329   4.839
 4060SOL    HW213080   4.780   5.439   4.720
 4061SOL     OW13081   3.239   4.935   1.675
 4061SOL    HW113082   3.173   5.008   1.658
 4061SOL    HW213083   3.231   4.905   1.770
 4062SOL     OW13084   2.897   1.519   3.014
 4062SOL    HW113085   2.892   1.619   3.004
 4062SOL    HW213086   2.820   1.477   2.966
 4063SOL     OW13087   5.990   6.671   5.037
 4063SOL    HW113088   5.910   6.625   4.999
 4063SOL    HW213089   5.986   6.768   5.014
 4064SOL     OW13090   1.778   6.397   3.841
 4064SOL    HW113091   1.732   6.478   3.877
 4064SOL    HW213092   1.807   6.413   3.747
 4065SOL     OW13093   0.262   6.433   0.526
 4065SOL    HW113094   0.233   6.509   0.585
 4065SOL    HW213095   0.362   6.427   0.527
 4066SOL     OW13096   4.941   5.441   2.839
 4066SOL    HW113097   4.961   5.420   2.743
 4066SOL    HW213098   4.845   5.469   2.848
 4067SOL     OW13099   5.754   3.001   2.591
 4067SOL    HW113100   5.760   2.966   2.684
 4067SOL    HW213101   5.752   2.924   2.527
 4068SOL     OW13102   3.226   0.745   4.406
 4068SOL    HW113103   3.303   0.738   4.341
 4068SOL    HW213104   3.237   0.827   4.461
 4069SOL     OW13105   3.980   4.603   6.103
 4069SOL    HW113106   3.932   4.607   6.191
 4069SOL    HW213107   3.995   4.507   6.077
 4070SOL     OW13108   0.595   3.677   1.894
 4070SOL    HW113109   0.579   3.587   1.935
 4070SOL    HW213110   0.526   3.695   1.825
 4071SOL     OW13111   1.389   0.626   5.122
 4071SOL    HW113112   1.402   0.544   5.067
 4071SOL    HW213113   1.471   0.642   5.177
 4072SOL     OW13114   1.015   5.921   4.262
 4072SOL    HW113115   0.925   5.949   4.228
 4072SOL    HW213116   1.030   5.824   4.239
 4073SOL     OW13117   2.275   5.635   6.115
 4073SOL    HW113118   2.208   5.611   6.044
 4073SOL    HW213119   2.341   5.700   6.077
 4074SOL     OW13120   1.225   3.017   2.028
 4074SOL    HW113121   1.211   2.948   1.957
 4074SOL    HW213122   1.320   3.049   2.025
 4075SOL     OW13123   3.740   2.124   2.434
 4075SOL    HW113124   3.755   2.029   2.405
 4075SOL    HW213125   3.745   2.184   2.355
 4076SOL     OW13126   2.510   3.527   5.645
 4076SOL    HW113127   2.551   3.457   5.586
 4076SOL    HW213128   2.576   3.600   5.662
 4077SOL     OW13129   3.589   6.743   0.338
 4077SOL    HW113130   3.490   6.754   0.322
 4077SOL    HW213131   3.639   6.790   0.265
 4078SOL     OW13132   6.410   5.014   1.914
 4078SOL    HW113133   6.396   5.030   2.012
 4078SOL    HW213134   6.324   5.029   1.865
 4079SOL     OW13135   0.510   2.083   3.369
 4079SOL    HW113136   0.417   2.107   3.343
 4079SOL    HW213137   0.512   1.991   3.409
 4080SOL     OW13138   2.712   3.479   0.641
 4080SOL    HW113139   2.683   3.404   0.581
 4080SOL    HW213140   2.634   3.538   0.661
 4081SOL     OW13141   1.509   1.923   3.795
 4081SOL    HW113142   1.510   1.950   3.699
 4081SOL    HW213143   1.488   1.826   3.803
 4082SOL     OW13144   1.516   2.527   1.028
 4082SOL    HW113145   1.471   2.494   0.945
 4082SOL    HW213146   1.455   2.591   1.074
 4083SOL     OW13147   5.955   4.352   2.625
 4083SOL    HW113148   5.982   4.354   2.529
 4083SOL    HW213149   6.035   4.336   2.682
 4084SOL     OW13150   4.644   2.170   3.381
 4084SOL    HW113151   4.668   2.073   3.376
 4084SOL    HW213152   4.682   2.209   3.465
 4085SOL     OW13153   2.685   5.790   1.020
 4085SOL    HW113154   2.630   5.821   0.942
 4085SOL    HW213155   2.716   5.869   1.073
 4086SOL     OW13156   0.005   4.860   1.113
 4086SOL    HW113157   0.065   4.855   1.033
 4086SOL    HW213158   0.055   4.828   1.194
 4087SOL     OW13159   1.885   1.514   2.821
 4087SOL    HW113160   1.894   1.479   2.914
 4087SOL    HW213161   1.953   1.586   2.805
 4088SOL     OW13162   6.497   0.973   6.665
 4088SOL    HW113163   6.462   0.987   6.572
 4088SOL    HW213164   6.590   1.010   6.671
 4089SOL     OW13165   5.978   4.451   4.458
 4089SOL    HW113166   5.980   4.354   4.437
 4089SOL    HW213167   6.019   4.503   4.383
 4090SOL     OW13168   1.794   5.737   5.511
 4090SOL    HW113169   1.891   5.727   5.489
 4090SOL    HW213170   1.739   5.714   5.431
 4091SOL     OW13171   0.290   5.971   0.255
 4091SOL    HW113172   0.221   5.901   0.275
 4091SOL    HW213173   0.287   6.041   0.325
 4092SOL     OW13174   5.720   2.757   3.629
 4092SOL    HW113175   5.667   2.693   3.573
 4092SOL    HW213176   5.676   2.768   3.718
 4093SOL     OW13177   5.438   6.365   1.594
 4093SOL    HW113178   5.503   6.289   1.594
 4093SOL    HW213179   5.345   6.330   1.606
 4094SOL     OW13180   1.098   4.618   6.329
 4094SOL    HW113181   1.117   4.574   6.417
 4094SOL    HW213182   1.101   4.550   6.256
 4095SOL     OW13183   0.125   3.854   0.361
 4095SOL    HW113184   0.141   3.823   0.267
 4095SOL    HW213185   0.151   3.782   0.425
 4096SOL     OW13186   4.242   0.584   6.656
 4096SOL    HW113187   4.317   0.600   6.720
 4096SOL    HW213188   4.279   0.560   6.566
 4097SOL     OW13189   4.987   4.639   4.648
 4097SOL    HW113190   4.913   4.602   4.593
 4097SOL    HW213191   5.035   4.565   4.695
 4098SOL     OW13192   1.095   2.277   1.583
 4098SOL    HW113193   1.010   2.270   1.530
 4098SOL    HW213194   1.151   2.351   1.546
 4099SOL     OW13195   3.876   5.259   0.999
 4099SOL    HW113196   3.777   5.271   1.000
 4099SOL    HW213197   3.921   5.348   1.001
 4100SOL     OW13198   0.661   7.014   4.313
 4100SOL    HW113199   0.588   6.968   4.363
 4100SOL    HW213200   0.733   6.948   4.292
 4101SOL     OW13201   0.542   0.833   0.162
 4101SOL    HW113202   0.535   0.886   0.077
 4101SOL    HW213203   0.543   0.896   0.240
 4102SOL     OW13204   1.702   0.559   1.125
 4102SOL    HW113205   1.786   0.570   1.072
 4102SOL    HW213206   1.659   0.472   1.101
 4103SOL     OW13207   0.809   6.885   1.759
 4103SOL    HW113208   0.749   6.870   1.681
 4103SOL    HW213209   0.815   6.983   1.778
 4104SOL     OW13210   0.054   4.784   3.212
 4104SOL    HW113211   0.132   4.726   3.192
 4104SOL    HW213212   0.086   4.867   3.258
 4105SOL     OW13213   6.148   0.186   2.804
 4105SOL    HW113214   6.138   0.279   2.840
 4105SOL    HW213215   6.176   0.191   2.708
 4106SOL     OW13216   0.039   3.205   3.433
 4106SOL    HW113217   0.085   3.283   3.390
 4106SOL    HW213218   0.104   3.156   3.491
 4107SOL     OW13219   0.942   6.034   0.521
 4107SOL    HW113220   0.934   5.939   0.490
 4107SOL    HW213221   0.857   6.083   0.501
 4108SOL     OW13222   6.469   4.985   4.331
 4108SOL    HW113223   6.521   4.921   4.387
 4108SOL    HW213224   6.513   4.995   4.242
 4109SOL     OW13225   6.489   0.022   4.853
 4109SOL    HW113226   6.509   6.973   4.789
 4109SOL    HW213227   6.390   0.025   4.870
 4110SOL     OW13228   4.236   3.890   6.241
 4110SOL    HW113229   4.141   3.880   6.211
 4110SOL    HW213230   4.296   3.837   6.181
 4111SOL     OW13231   5.606   4.770   6.083
 4111SOL    HW113232   5.560   4.843   6.033
 4111SOL    HW213233   5.701   4.795   6.100
 4112SOL     OW13234   4.847   6.146   4.596
 4112SOL    HW113235   4.904   6.223   4.568
 4112SOL    HW213236   4.812   6.099   4.515
 4113SOL     OW13237   5.470   5.419   4.959
 4113SOL    HW113238   5.472   5.491   5.029
 4113SOL    HW213239   5.454   5.460   4.869
 4114SOL     OW13240   4.426   2.239   3.867
 4114SOL    HW113241   4.435   2.264   3.771
 4114SOL    HW213242   4.331   2.250   3.896
 4115SOL     OW13243   3.265   4.982   2.626
 4115SOL    HW113244   3.205   4.992   2.546
 4115SOL    HW213245   3.216   4.934   2.698
 4116SOL     OW13246   4.175   1.770   3.060
 4116SOL    HW113247   4.097   1.830   3.043
 4116SOL    HW213248   4.243   1.819   3.116
 4117SOL     OW13249   0.976   3.358   2.524
 4117SOL    HW113250   0.999   3.336   2.429
 4117SOL    HW213251   1.048   3.415   2.563
 4118SOL     OW13252   5.123   6.652   0.095
 4118SOL    HW113253   5.032   6.684   0.120
 4118SOL    HW213254   5.138   6.561   0.133
 4119SOL     OW13255   2.895   1.394   3.975
 4119SOL    HW113256   2.837   1.447   4.038
 4119SOL    HW213257   2.959   1.338   4.029
 4120SOL     OW13258   3.012   1.185   5.779
 4120SOL    HW113259   2.917   1.155   5.794
 4120SOL    HW213260   3.029   1.195   5.681
 4121SOL     OW13261   6.719   0.290   3.888
 4121SOL    HW113262   6.762   0.290   3.978
 4121SOL    HW213263   6.782   0.251   3.821
 4122SOL     OW13264   1.348   6.604   4.487
 4122SOL    HW113265   1.430   6.653   4.516
 4122SOL    HW213266   1.271   6.630   4.544
 4123SOL     OW13267   4.062   4.601   5.342
 4123SOL    HW113268   4.041   4.613   5.439
 4123SOL    HW213269   4.066   4.503   5.321
 4124SOL     OW13270   6.452   6.258   0.362
 4124SOL    HW113271   6.467   6.330   0.294
 4124SOL    HW213272   6.362   6.269   0.404
 4125SOL     OW13273   4.161   2.326   2.986
 4125SOL    HW113274   4.121   2.417   2.984
 4125SOL    HW213275   4.259   2.331   2.967
 4126SOL     OW13276   1.639   3.349   3.418
 4126SOL    HW113277   1.650   3.431   3.474
 4126SOL    HW213278   1.728   3.316   3.388
 4127SOL     OW13279   5.728   3.590   5.147
 4127SOL    HW113280   5.745   3.492   5.161
 4127SOL    HW213281   5.750   3.639   5.231
 4128SOL     OW13282   0.942   3.273   0.976
 4128SOL    HW113283   0.888   3.280   1.060
 4128SOL    HW213284   0.975   3.364   0.951
 4129SOL     OW13285   3.310   0.872   0.032
 4129SOL    HW113286   3.284   0.823   6.973
 4129SOL    HW213287   3.348   0.808   0.098
 4130SOL     OW13288   6.505   2.657   0.568
 4130SOL    HW113289   6.535   2.732   0.509
 4130SOL    HW213290   6.508   2.571   0.518
 4131SOL     OW13291   0.068   1.417   3.098
 4131SOL    HW113292   0.141   1.483   3.081
 4131SOL    HW213293   0.101   1.346   3.160
 4132SOL     OW13294   4.900   4.205   3.610
 4132SOL    HW113295   4.913   4.148   3.529
 4132SOL    HW213296   4.840   4.282   3.587
 4133SOL     OW13297   3.435   5.826   1.562
 4133SOL    HW113298   3.473   5.915   1.586
 4133SOL    HW213299   3.410   5.825   1.465
 4134SOL     OW13300   2.050   4.026   0.903
 4134SOL    HW113301   2.004   4.114   0.917
 4134SOL    HW213302   2.132   4.022   0.960
 4135SOL     OW13303   0.540   2.218   2.137
 4135SOL    HW113304   0.581   2.138   2.092
 4135SOL    HW213305   0.449   2.235   2.098
 4136SOL     OW13306   1.613   3.626   2.964
 4136SOL    HW113307   1.693   3.673   2.928
 4136SOL    HW213308   1.642   3.542   3.011
 4137SOL     OW13309   1.444   3.371   1.266
 4137SOL    HW113310   1.432   3.432   1.344
 4137SOL    HW213311   1.488   3.286   1.297
 4138SOL     OW13312   4.269   5.606   2.514
 4138SOL    HW113313   4.355   5.561   2.536
 4138SOL    HW213314   4.259   5.613   2.415
 4139SOL     OW13315   1.373   1.062   5.306
 4139SOL    HW113316   1.351   0.966   5.290
 4139SOL    HW213317   1.445   1.091   5.243
 4140SOL     OW13318   3.429   0.990   5.418
 4140SOL    HW113319   3.495   0.974   5.345
 4140SOL    HW213320   3.470   1.051   5.487
 4141SOL     OW13321   5.206   6.152   1.257
 4141SOL    HW113322   5.282   6.091   1.279
 4141SOL    HW213323   5.120   6.112   1.289
 4142SOL     OW13324   6.641   5.068   0.892
 4142SOL    HW113325   6.600   5.082   0.802
 4142SOL    HW213326   6.573   5.032   0.955
 4143SOL     OW13327   5.372   2.938   1.175
 4143SOL    HW113328   5.364   2.988   1.261
 4143SOL    HW213329   5.436   2.862   1.187
 4144SOL     OW13330   4.982   1.703   0.333
 4144SOL    HW113331   5.038   1.772   0.380
 4144SOL    HW213332   4.995   1.712   0.234
 4145SOL     OW13333   0.287   6.697   1.721
 4145SOL    HW113334   0.234   6.647   1.790
 4145SOL    HW213335   0.330   6.632   1.658
 4146SOL     OW13336   6.494   0.341   3.444
 4146SOL    HW113337   6.548   0.257   3.436
 4146SOL    HW213338   6.431   0.348   3.367
 4147SOL     OW13339   4.023   4.871   6.003
 4147SOL    HW113340   3.997   4.779   6.033
 4147SOL    HW213341   4.075   4.865   5.918
 4148SOL     OW13342   2.569   0.277   4.580
 4148SOL    HW113343   2.490   0.253   4.523
 4148SOL    HW213344   2.653   0.252   4.533
 4149SOL     OW13345   0.176   4.474   1.115
 4149SOL    HW113346   0.238   4.473   1.193
 4149SOL    HW213347   0.209   4.541   1.047
 4150SOL     OW13348   0.970   1.168   5.538
 4150SOL    HW113349   1.066   1.183   5.515
 4150SOL    HW213350   0.955   1.071   5.556
 4151SOL     OW13351   3.180   6.145   5.755
 4151SOL    HW113352   3.195   6.046   5.758
 4151SOL    HW213353   3.206   6.185   5.843
 4152SOL     OW13354   4.129   5.964   1.836
 4152SOL    HW113355   4.213   5.914   1.816
 4152SOL    HW213356   4.139   6.010   1.925
 4153SOL     OW13357   5.715   5.466   1.377
 4153SOL    HW113358   5.809   5.499   1.365
 4153SOL    HW213359   5.717   5.377   1.422
 4154SOL     OW13360   0.032   5.034   4.144
 4154SOL    HW113361   0.114   4.991   4.183
 4154SOL    HW213362   0.041   5.133   4.149
 4155SOL     OW13363   0.180   0.791   1.199
 4155SOL    HW113364   0.209   0.738   1.278
 4155SOL    HW213365   0.224   0.881   1.200
 4156SOL     OW13366   5.922   5.790   5.170
 4156SOL    HW113367   5.857   5.716   5.189
 4156SOL    HW213368   5.878   5.859   5.112
 4157SOL     OW13369   5.389   5.875   4.586
 4157SOL    HW113370   5.375   5.810   4.511
 4157SOL    HW213371   5.371   5.968   4.553
 4158SOL     OW13372   0.975   3.109   2.003
 4158SOL    HW113373   0.951   3.145   2.093
 4158SOL    HW213374   1.065   3.065   2.008
 4159SOL     OW13375   1.771   3.005   3.256
 4159SOL    HW113376   1.837   2.978   3.326
 4159SOL    HW213377   1.700   3.062   3.297
 4160SOL     OW13378   5.426   0.712   7.005
 4160SOL    HW113379   5.451   0.678   0.071
 4160SOL    HW213380   5.491   0.783   6.977
 4161SOL     OW13381   1.306   1.987   0.908
 4161SOL    HW113382   1.214   1.999   0.943
 4161SOL    HW213383   1.371   1.984   0.983
 4162SOL     OW13384   6.381   5.921   0.339
 4162SOL    HW113385   6.423   5.902   0.428
 4162SOL    HW213386   6.313   5.993   0.350
 4163SOL     OW13387   5.312   0.622   3.740
 4163SOL    HW113388   5.269   0.536   3.768
 4163SOL    HW213389   5.324   0.681   3.820
 4164SOL     OW13390   1.822   6.878   5.633
 4164SOL    HW113391   1.921   6.868   5.641
 4164SOL    HW213392   1.784   6.801   5.583
 4165SOL     OW13393   4.595   0.394   5.841
 4165SOL    HW113394   4.605   0.423   5.936
 4165SOL    HW213395   4.644   0.309   5.826
 4166SOL     OW13396   5.540   1.641   0.365
 4166SOL    HW113397   5.564   1.735   0.389
 4166SOL    HW213398   5.601   1.609   0.292
 4167SOL     OW13399   2.886   4.183   6.804
 4167SOL    HW113400   2.884   4.263   6.863
 4167SOL    HW213401   2.898   4.100   6.860
 4168SOL     OW13402   0.553   4.215   0.913
 4168SOL    HW113403   0.591   4.304   0.937
 4168SOL    HW213404   0.625   4.158   0.872
 4169SOL     OW13405   5.773   4.948   4.401
 4169SOL    HW113406   5.710   4.937   4.478
 4169SOL    HW213407   5.770   5.043   4.369
 4170SOL     OW13408   4.529   3.230   6.308
 4170SOL    HW113409   4.453   3.276   6.262
 4170SOL    HW213410   4.502   3.138   6.335
 4171SOL     OW13411   6.396   5.789   0.859
 4171SOL    HW113412   6.443   5.731   0.926
 4171SOL    HW213413   6.420   5.758   0.767
 4172SOL     OW13414   1.940   1.893   6.356
 4172SOL    HW113415   2.036   1.904   6.383
 4172SOL    HW213416   1.881   1.939   6.422
 4173SOL     OW13417   5.249   3.759   4.847
 4173SOL    HW113418   5.279   3.693   4.917
 4173SOL    HW213419   5.320   3.828   4.834
 4174SOL     OW13420   4.441   1.077   2.606
 4174SOL    HW113421   4.342   1.066   2.595
 4174SOL    HW213422   4.482   1.092   2.516
 4175SOL     OW13423   2.011   5.063   4.512
 4175SOL    HW113424   2.023   5.074   4.610
 4175SOL    HW213425   2.068   5.130   4.464
 4176SOL     OW13426   3.928   6.388   1.663
 4176SOL    HW113427   3.926   6.311   1.726
 4176SOL    HW213428   3.971   6.360   1.577
 4177SOL     OW13429   5.936   5.232   5.622
 4177SOL    HW113430   5.910   5.148   5.575
 4177SOL    HW213431   5.867   5.256   5.690
 4178SOL     OW13432   4.048   6.543   4.047
 4178SOL    HW113433   4.028   6.502   4.135
 4178SOL    HW213434   3.984   6.617   4.028
 4179SOL     OW13435   5.344   3.460   2.935
 4179SOL    HW113436   5.339   3.365   2.966
 4179SOL    HW213437   5.377   3.463   2.841
 4180SOL     OW13438   3.937   3.815   0.435
 4180SOL    HW113439   3.955   3.913   0.440
 4180SOL    HW213440   3.957   3.782   0.342
 4181SOL     OW13441   3.897   0.905   0.075
 4181SOL    HW113442   3.939   0.825   0.030
 4181SOL    HW213443   3.833   0.948   0.012
 4182SOL     OW13444   0.598   6.356   3.480
 4182SOL    HW113445   0.601   6.260   3.511
 4182SOL    HW213446   0.692   6.391   3.472
 4183SOL     OW13447   2.818   1.464   0.255
 4183SOL    HW113448   2.856   1.482   0.165
 4183SOL    HW213449   2.817   1.548   0.308
 4184SOL     OW13450   3.678   6.649   2.457
 4184SOL    HW113451   3.689   6.551   2.444
 4184SOL    HW213452   3.644   6.690   2.373
 4185SOL     OW13453   1.051   4.728   3.119
 4185SOL    HW113454   1.130   4.779   3.084
 4185SOL    HW213455   1.081   4.641   3.158
 4186SOL     OW13456   2.878   4.952   0.104
 4186SOL    HW113457   2.973   4.921   0.105
 4186SOL    HW213458   2.820   4.883   0.146
 4187SOL     OW13459   3.637   3.623   5.547
 4187SOL    HW113460   3.711   3.662   5.492
 4187SOL    HW213461   3.671   3.542   5.595
 4188SOL     OW13462   5.613   1.059   5.028
 4188SOL    HW113463   5.562   1.089   5.108
 4188SOL    HW213464   5.629   0.960   5.034
 4189SOL     OW13465   3.575   4.961   5.235
 4189SOL    HW113466   3.569   4.878   5.291
 4189SOL    HW213467   3.547   4.941   5.142
 4190SOL     OW13468   1.020   0.362   0.814
 4190SOL    HW113469   1.022   0.334   0.718
 4190SOL    HW213470   1.005   0.282   0.872
 4191SOL     OW13471   4.902   4.499   3.747
 4191SOL    HW113472   4.904   4.597   3.725
 4191SOL    HW213473   4.833   4.454   3.690
 4192SOL     OW13474   0.560   0.967   4.112
 4192SOL    HW113475   0.655   0.997   4.123
 4192SOL    HW213476   0.534   0.973   4.015
 4193SOL     OW13477   6.931   1.312   1.595
 4193SOL    HW113478   6.889   1.402   1.605
 4193SOL    HW213479   6.863   1.248   1.559
 4194SOL     OW13480   6.083   6.934   4.597
 4194SOL    HW113481   6.021   6.925   4.520
 4194SOL    HW213482   6.083   0.004   4.629
 4195SOL     OW13483   4.021   6.509   1.284
 4195SOL    HW113484   3.932   6.479   1.319
 4195SOL    HW213485   4.018   6.607   1.267
 4196SOL     OW13486   6.299   2.142   2.193
 4196SOL    HW113487   6.258   2.204   2.259
 4196SOL    HW213488   6.355   2.074   2.241
 4197SOL     OW13489   4.787   5.497   5.746
 4197SOL    HW113490   4.780   5.559   5.823
 4197SOL    HW213491   4.867   5.439   5.757
 4198SOL     OW13492   6.249   2.038   0.115
 4198SOL    HW113493   6.232   2.073   0.207
 4198SOL    HW213494   6.174   2.066   0.055
 4199SOL     OW13495   1.742   2.316   5.943
 4199SOL    HW113496   1.663   2.290   5.888
 4199SOL    HW213497   1.772   2.408   5.916
 4200SOL     OW13498   3.552   0.614   6.068
 4200SOL    HW113499   3.568   0.706   6.032
 4200SOL    HW213500   3.512   0.557   5.996
 4201SOL     OW13501   6.532   0.084   3.835
 4201SOL    HW113502   6.458   0.134   3.790
 4201SOL    HW213503   6.601   0.148   3.867
 4202SOL     OW13504   3.613   5.790   5.281
 4202SOL    HW113505   3.516   5.772   5.265
 4202SOL    HW213506   3.634   5.884   5.255
 4203SOL     OW13507   3.756   4.953   6.849
 4203SOL    HW113508   3.702   4.896   6.787
 4203SOL    HW213509   3.698   5.027   6.884
 4204SOL     OW13510   3.999   3.644   3.279
 4204SOL    HW113511   4.047   3.716   3.230
 4204SOL    HW213512   3.907   3.633   3.242
 4205SOL     OW13513   4.218   5.655   3.203
 4205SOL    HW113514   4.187   5.587   3.270
 4205SOL    HW213515   4.306   5.627   3.166
 4206SOL     OW13516   6.723   0.690   5.789
 4206SOL    HW113517   6.628   0.720   5.783
 4206SOL    HW213518   6.783   0.768   5.807
 4207SOL     OW13519   1.855   1.948   1.371
 4207SOL    HW113520   1.803   2.000   1.439
 4207SOL    HW213521   1.884   1.861   1.412
 4208SOL     OW13522   6.920   2.887   5.737
 4208SOL    HW113523   6.882   2.977   5.759
 4208SOL    HW213524   6.874   2.851   5.656
 4209SOL     OW13525   0.136   0.251   3.595
 4209SOL    HW113526   0.195   0.278   3.519
 4209SOL    HW213527   0.048   0.221   3.560
 4210SOL     OW13528   3.623   2.932   2.227
 4210SOL    HW113529   3.600   2.876   2.148
 4210SOL    HW213530   3.630   3.028   2.199
 4211SOL     OW13531   4.701   6.293   6.248
 4211SOL    HW113532   4.604   6.309   6.230
 4211SOL    HW213533   4.734   6.217   6.192
 4212SOL     OW13534   6.391   1.855   2.547
 4212SOL    HW113535   6.319   1.790   2.525
 4212SOL    HW213536   6.355   1.926   2.607
 4213SOL     OW13537   1.906   0.691   1.380
 4213SOL    HW113538   1.841   0.762   1.352
 4213SOL    HW213539   1.862   0.601   1.373
 4214SOL     OW13540   0.748   5.330   5.390
 4214SOL    HW113541   0.700   5.276   5.459
 4214SOL    HW213542   0.692   5.408   5.363
 4215SOL     OW13543   5.412   6.825   5.917
 4215SOL    HW113544   5.433   6.907   5.863
 4215SOL    HW213545   5.497   6.787   5.954
 4216SOL     OW13546   1.500   1.591   2.456
 4216SOL    HW113547   1.407   1.555   2.443
 4216SOL    HW213548   1.496   1.690   2.466
 4217SOL     OW13549   0.843   0.246   2.277
 4217SOL    HW113550   0.821   0.158   2.319
 4217SOL    HW213551   0.758   0.289   2.245
 4218SOL     OW13552   4.157   1.101   1.539
 4218SOL    HW113553   4.057   1.105   1.527
 4218SOL    HW213554   4.200   1.093   1.449
 4219SOL     OW13555   3.935   5.512   4.082
 4219SOL    HW113556   3.956   5.595   4.029
 4219SOL    HW213557   3.915   5.537   4.176
 4220SOL     OW13558   6.078   2.704   3.608
 4220SOL    HW113559   6.005   2.653   3.653
 4220SOL    HW213560   6.166   2.679   3.648
 4221SOL     OW13561   5.610   5.258   6.465
 4221SOL    HW113562   5.563   5.250   6.553
 4221SOL    HW213563   5.544   5.283   6.394
 4222SOL     OW13564   0.012   2.180   2.863
 4222SOL    HW113565   0.052   2.168   2.773
 4222SOL    HW213566   0.042   2.267   2.902
 4223SOL     OW13567   3.695   3.215   6.764
 4223SOL    HW113568   3.667   3.124   6.793
 4223SOL    HW213569   3.788   3.234   6.797
 4224SOL     OW13570   5.099   4.007   4.142
 4224SOL    HW113571   5.103   4.006   4.241
 4224SOL    HW213572   5.187   3.978   4.105
 4225SOL     OW13573   3.797   1.096   5.535
 4225SOL    HW113574   3.877   1.131   5.486
 4225SOL    HW213575   3.801   1.126   5.630
 4226SOL     OW13576   0.992   0.474   2.362
 4226SOL    HW113577   0.945   0.388   2.342
 4226SOL    HW213578   1.086   0.453   2.390
 4227SOL     OW13579   3.987   4.852   1.189
 4227SOL    HW113580   4.046   4.838   1.110
 4227SOL    HW213581   3.904   4.900   1.160
 4228SOL     OW13582   1.016   4.238   4.637
 4228SOL    HW113583   1.111   4.232   4.667
 4228SOL    HW213584   1.008   4.205   4.543
 4229SOL     OW13585   5.122   5.458   5.503
 4229SOL    HW113586   5.092   5.374   5.459
 4229SOL    HW213587   5.056   5.485   5.573
 4230SOL     OW13588   1.809   5.988   2.860
 4230SOL    HW113589   1.829   5.959   2.953
 4230SOL    HW213590   1.844   6.081   2.846
 4231SOL     OW13591   5.764   0.205   5.874
 4231SOL    HW113592   5.713   0.161   5.947
 4231SOL    HW213593   5.836   0.144   5.841
 4232SOL     OW13594   0.037   4.869   2.813
 4232SOL    HW113595   0.066   4.951   2.763
 4232SOL    HW213596   6.966   4.880   2.843
 4233SOL     OW13597   7.018   0.711   6.491
 4233SOL    HW113598   0.056   0.654   6.438
 4233SOL    HW213599   7.010   0.801   6.447
 4234SOL     OW13600   2.273   6.431   5.188
 4234SOL    HW113601   2.326   6.352   5.156
 4234SOL    HW213602   2.205   6.455   5.119
 4235SOL     OW13603   5.513   3.630   5.948
 4235SOL    HW113604   5.529   3.647   5.851
 4235SOL    HW213605   5.465   3.708   5.988
 4236SOL     OW13606   6.017   3.949   2.639
 4236SOL    HW113607   6.016   3.985   2.732
 4236SOL    HW213608   5.929   3.968   2.595
 4237SOL     OW13609   5.968   6.043   2.288
 4237SOL    HW113610   5.931   5.953   2.266
 4237SOL    HW213611   5.971   6.099   2.205
 4238SOL     OW13612   2.944   5.839   3.337
 4238SOL    HW113613   2.855   5.838   3.291
 4238SOL    HW213614   3.011   5.788   3.283
 4239SOL     OW13615   6.161   1.760   2.993
 4239SOL    HW113616   6.160   1.848   2.945
 4239SOL    HW213617   6.209   1.771   3.080
 4240SOL     OW13618   2.258   6.395   0.178
 4240SOL    HW113619   2.211   6.483   0.184
 4240SOL    HW213620   2.294   6.370   0.268
 4241SOL     OW13621   6.209   1.223   0.317
 4241SOL    HW113622   6.290   1.165   0.319
 4241SOL    HW213623   6.218   1.289   0.242
 4242SOL     OW13624   3.052   1.117   3.982
 4242SOL    HW113625   3.096   1.029   3.967
 4242SOL    HW213626   3.039   1.163   3.894
 4243SOL     OW13627   6.508   3.030   3.268
 4243SOL    HW113628   6.561   3.106   3.230
 4243SOL    HW213629   6.486   2.966   3.196
 4244SOL     OW13630   4.372   3.903   1.356
 4244SOL    HW113631   4.361   3.804   1.362
 4244SOL    HW213632   4.293   3.948   1.398
 4245SOL     OW13633   0.536   1.253   6.354
 4245SOL    HW113634   0.617   1.276   6.300
 4245SOL    HW213635   0.463   1.318   6.334
 4246SOL     OW13636   6.908   3.950   3.436
 4246SOL    HW113637   6.891   3.989   3.526
 4246SOL    HW213638   6.859   4.002   3.367
 4247SOL     OW13639   2.737   5.474   3.343
 4247SOL    HW113640   2.733   5.492   3.442
 4247SOL    HW213641   2.680   5.541   3.295
 4248SOL     OW13642   2.505   1.864   3.553
 4248SOL    HW113643   2.487   1.793   3.486
 4248SOL    HW213644   2.575   1.832   3.617
 4249SOL     OW13645   5.217   2.596   3.892
 4249SOL    HW113646   5.213   2.563   3.986
 4249SOL    HW213647   5.159   2.539   3.834
 4250SOL     OW13648   6.158   5.265   2.813
 4250SOL    HW113649   6.232   5.198   2.821
 4250SOL    HW213650   6.111   5.274   2.900
 4251SOL     OW13651   5.651   4.444   1.861
 4251SOL    HW113652   5.701   4.529   1.843
 4251SOL    HW213653   5.688   4.401   1.944
 4252SOL     OW13654   5.663   7.010   6.358
 4252SOL    HW113655   5.569   0.017   6.363
 4252SOL    HW213656   5.719   0.053   6.309
 4253SOL     OW13657   3.139   6.935   0.955
 4253SOL    HW113658   3.113   6.860   0.894
 4253SOL    HW213659   3.237   6.953   0.946
 4254SOL     OW13660   1.201   4.027   1.803
 4254SOL    HW113661   1.103   4.012   1.807
 4254SOL    HW213662   1.248   3.942   1.778
 4255SOL     OW13663   6.834   3.922   4.026
 4255SOL    HW113664   6.926   3.901   4.059
 4255SOL    HW213665   6.770   3.920   4.103
 4256SOL     OW13666   1.783   6.419   0.575
 4256SOL    HW113667   1.730   6.377   0.501
 4256SOL    HW213668   1.856   6.356   0.603
 4257SOL     OW13669   2.656   0.865   3.879
 4257SOL    HW113670   2.723   0.816   3.936
 4257SOL    HW213671   2.579   0.894   3.936
 4258SOL     OW13672   4.222   5.794   0.827
 4258SOL    HW113673   4.170   5.746   0.756
 4258SOL    HW213674   4.168   5.869   0.864
 4259SOL     OW13675   2.301   0.843   0.921
 4259SOL    HW113676   2.395   0.861   0.894
 4259SOL    HW213677   2.263   0.769   0.866
 4260SOL     OW13678   5.582   0.230   1.249
 4260SOL    HW113679   5.543   0.204   1.160
 4260SOL    HW213680   5.663   0.287   1.234
 4261SOL     OW13681   2.384   0.015   2.732
 4261SOL    HW113682   2.452   0.083   2.758
 4261SOL    HW213683   2.365   0.022   2.634
 4262SOL     OW13684   0.681   4.400   6.539
 4262SOL    HW113685   0.634   4.409   6.451
 4262SOL    HW213686   0.641   4.324   6.591
 4263SOL     OW13687   3.117   0.306   3.410
 4263SOL    HW113688   3.209   0.295   3.447
 4263SOL    HW213689   3.050   0.295   3.483
 4264SOL     OW13690   6.744   2.124   2.476
 4264SOL    HW113691   6.747   2.061   2.398
 4264SOL    HW213692   6.723   2.216   2.444
 4265SOL     OW13693   4.406   1.634   1.324
 4265SOL    HW113694   4.350   1.717   1.321
 4265SOL    HW213695   4.362   1.566   1.383
 4266SOL     OW13696   1.683   5.122   6.788
 4266SOL    HW113697   1.731   5.035   6.781
 4266SOL    HW213698   1.750   5.195   6.804
 4267SOL     OW13699   1.822   3.125   3.516
 4267SOL    HW113700   1.759   3.168   3.580
 4267SOL    HW213701   1.879   3.059   3.565
 4268SOL     OW13702   1.139   6.047   6.653
 4268SOL    HW113703   1.077   5.974   6.683
 4268SOL    HW213704   1.167   6.101   6.732
 4269SOL     OW13705   3.020   0.578   2.285
 4269SOL    HW113706   2.993   0.535   2.199
 4269SOL    HW213707   2.953   0.557   2.356
 4270SOL     OW13708   4.123   3.279   3.026
 4270SOL    HW113709   4.088   3.185   3.026
 4270SOL    HW213710   4.132   3.311   3.120
 4271SOL     OW13711   6.642   0.975   6.954
 4271SOL    HW113712   6.648   1.072   6.976
 4271SOL    HW213713   6.599   0.963   6.865
 4272SOL     OW13714   6.871   2.263   4.240
 4272SOL    HW113715   6.832   2.171   4.253
 4272SOL    HW213716   6.810   2.331   4.280
 4273SOL     OW13717   4.875   6.783   4.692
 4273SOL    HW113718   4.819   6.715   4.738
 4273SOL    HW213719   4.851   6.785   4.595
 4274SOL     OW13720   1.041   6.461   1.991
 4274SOL    HW113721   0.988   6.447   1.908
 4274SOL    HW213722   1.124   6.406   1.987
 4275SOL     OW13723   6.816   2.051   4.418
 4275SOL    HW113724   6.820   1.953   4.398
 4275SOL    HW213725   6.773   2.065   4.507
 4276SOL     OW13726   1.655   5.150   3.491
 4276SOL    HW113727   1.712   5.070   3.509
 4276SOL    HW213728   1.701   5.211   3.427
 4277SOL     OW13729   6.207   4.652   3.049
 4277SOL    HW113730   6.236   4.627   2.957
 4277SOL    HW213731   6.167   4.573   3.095
 4278SOL     OW13732   6.618   0.182   5.226
 4278SOL    HW113733   6.605   0.085   5.205
 4278SOL    HW213734   6.672   0.225   5.153
 4279SOL     OW13735   3.410   0.737   4.177
 4279SOL    HW113736   3.473   0.684   4.121
 4279SOL    HW213737   3.353   0.794   4.118
 4280SOL     OW13738   4.601   0.513   5.568
 4280SOL    HW113739   4.635   0.509   5.662
 4280SOL    HW213740   4.576   0.608   5.546
 4281SOL     OW13741   6.963   4.570   3.381
 4281SOL    HW113742   0.009   4.620   3.330
 4281SOL    HW213743   7.000   4.543   3.470
 4282SOL     OW13744   3.651   4.015   6.147
 4282SOL    HW113745   3.717   4.089   6.164
 4282SOL    HW213746   3.607   3.988   6.233
 4283SOL     OW13747   1.271   0.411   3.337
 4283SOL    HW113748   1.246   0.444   3.428
 4283SOL    HW213749   1.312   0.486   3.284
 4284SOL     OW13750   3.901   4.903   1.484
 4284SOL    HW113751   3.980   4.869   1.433
 4284SOL    HW213752   3.928   4.921   1.579
 4285SOL     OW13753   1.418   0.309   5.682
 4285SOL    HW113754   1.388   0.321   5.587
 4285SOL    HW213755   1.517   0.301   5.685
 4286SOL     OW13756   4.705   6.335   5.939
 4286SOL    HW113757   4.728   6.428   5.910
 4286SOL    HW213758   4.606   6.321   5.931
 4287SOL     OW13759   6.037   1.587   6.339
 4287SOL    HW113760   6.072   1.498   6.308
 4287SOL    HW213761   6.004   1.578   6.433
 4288SOL     OW13762   0.236   5.541   3.872
 4288SOL    HW113763   0.243   5.441   3.865
 4288SOL    HW213764   0.230   5.580   3.780
 4289SOL     OW13765   6.633   3.039   6.372
 4289SOL    HW113766   6.618   3.138   6.364
 4289SOL    HW213767   6.657   3.017   6.467
 4290SOL     OW13768   1.528   6.510   3.466
 4290SOL    HW113769   1.488   6.540   3.552
 4290SOL    HW213770   1.465   6.528   3.391
 4291SOL     OW13771   4.421   3.728   0.691
 4291SOL    HW113772   4.397   3.634   0.666
 4291SOL    HW213773   4.514   3.729   0.729
 4292SOL     OW13774   5.687   3.182   0.478
 4292SOL    HW113775   5.622   3.127   0.426
 4292SOL    HW213776   5.637   3.249   0.534
 4293SOL     OW13777   3.049   2.570   0.724
 4293SOL    HW113778   3.057   2.638   0.651
 4293SOL    HW213779   3.110   2.493   0.705
 4294SOL     OW13780   2.008   2.209   6.891
 4294SOL    HW113781   1.965   2.278   6.833
 4294SOL    HW213782   1.939   2.141   6.918
 4295SOL     OW13783   3.816   5.969   4.732
 4295SOL    HW113784   3.769   5.886   4.760
 4295SOL    HW213785   3.749   6.041   4.715
 4296SOL     OW13786   2.694   6.992   0.824
 4296SOL    HW113787   2.657   6.901   0.804
 4296SOL    HW213788   2.685   0.025   0.743
 4297SOL     OW13789   4.911   0.539   6.328
 4297SOL    HW113790   5.007   0.514   6.344
 4297SOL    HW213791   4.876   0.489   6.248
 4298SOL     OW13792   4.120   5.017   0.210
 4298SOL    HW113793   4.050   4.957   0.172
 4298SOL    HW213794   4.194   5.029   0.144
 4299SOL     OW13795   1.442   3.349   6.824
 4299SOL    HW113796   1.404   3.301   6.746
 4299SOL    HW213797   1.539   3.327   6.835
 4300SOL     OW13798   3.234   6.621   0.462
 4300SOL    HW113799   3.267   6.606   0.555
 4300SOL    HW213800   3.198   6.535   0.425
 4301SOL     OW13801   3.762   1.379   1.477
 4301SOL    HW113802   3.845   1.379   1.533
 4301SOL    HW213803   3.682   1.373   1.537
 4302SOL     OW13804   0.985   0.131   6.491
 4302SOL    HW113805   0.896   0.131   6.446
 4302SOL    HW213806   0.981   0.073   6.573
 4303SOL     OW13807   6.941   4.207   3.613
 4303SOL    HW113808   6.901   4.247   3.695
 4303SOL    HW213809   0.013   4.230   3.608
 4304SOL     OW13810   3.075   4.019   2.956
 4304SOL    HW113811   3.017   3.938   2.962
 4304SOL    HW213812   3.124   4.031   3.043
 4305SOL     OW13813   0.013   0.541   5.368
 4305SOL    HW113814   0.099   0.516   5.322
 4305SOL    HW213815   7.007   0.465   5.424
 4306SOL     OW13816   5.120   4.573   5.856
 4306SOL    HW113817   5.087   4.497   5.910
 4306SOL    HW213818   5.220   4.580   5.863
 4307SOL     OW13819   5.586   3.970   5.730
 4307SOL    HW113820   5.503   4.006   5.772
 4307SOL    HW213821   5.663   3.979   5.793
 4308SOL     OW13822   6.349   4.946   0.769
 4308SOL    HW113823   6.421   4.883   0.741
 4308SOL    HW213824   6.353   4.959   0.868
 4309SOL     OW13825   1.143   0.705   0.148
 4309SOL    HW113826   1.228   0.680   0.102
 4309SOL    HW213827   1.163   0.764   0.226
 4310SOL     OW13828   1.745   2.654   1.857
 4310SOL    HW113829   1.789   2.644   1.946
 4310SOL    HW213830   1.764   2.745   1.820
 4311SOL     OW13831   2.150   5.995   2.720
 4311SOL    HW113832   2.146   5.965   2.816
 4311SOL    HW213833   2.148   6.095   2.717
 4312SOL     OW13834   2.184   5.463   1.605
 4312SOL    HW113835   2.238   5.489   1.525
 4312SOL    HW213836   2.184   5.538   1.671
 4313SOL     OW13837   4.259   1.321   1.677
 4313SOL    HW113838   4.355   1.342   1.658
 4313SOL    HW213839   4.225   1.256   1.609
 4314SOL     OW13840   5.943   1.036   4.271
 4314SOL    HW113841   5.971   1.130   4.253
 4314SOL    HW213842   5.850   1.022   4.238
 4315SOL     OW13843   2.982   6.054   1.902
 4315SOL    HW113844   2.944   6.135   1.945
 4315SOL    HW213845   2.946   5.972   1.947
 4316SOL     OW13846   5.486   0.692   1.918
 4316SOL    HW113847   5.571   0.644   1.935
 4316SOL    HW213848   5.487   0.730   1.825
 4317SOL     OW13849   5.026   2.668   4.870
 4317SOL    HW113850   5.009   2.574   4.841
 4317SOL    HW213851   4.961   2.729   4.826
 4318SOL     OW13852   0.460   3.084   4.962
 4318SOL    HW113853   0.429   2.995   4.927
 4318SOL    HW213854   0.426   3.097   5.055
 4319SOL     OW13855   2.303   1.785   1.463
 4319SOL    HW113856   2.303   1.874   1.508
 4319SOL    HW213857   2.377   1.781   1.397
 4320SOL     OW13858   5.216   5.197   0.347
 4320SOL    HW113859   5.163   5.137   0.288
 4320SOL    HW213860   5.313   5.190   0.323
 4321SOL     OW13861   6.879   6.387   5.070
 4321SOL    HW113862   6.974   6.368   5.044
 4321SOL    HW213863   6.833   6.435   4.995
 4322SOL     OW13864   6.155   2.473   6.944
 4322SOL    HW113865   6.145   2.395   7.005
 4322SOL    HW213866   6.251   2.491   6.927
 4323SOL     OW13867   4.764   3.897   0.953
 4323SOL    HW113868   4.763   3.801   0.923
 4323SOL    HW213869   4.684   3.914   1.011
 4324SOL     OW13870   5.741   4.042   6.394
 4324SOL    HW113871   5.685   4.051   6.476
 4324SOL    HW213872   5.708   4.105   6.324
 4325SOL     OW13873   2.316   1.271   1.563
 4325SOL    HW113874   2.230   1.299   1.520
 4325SOL    HW213875   2.366   1.353   1.593
 4326SOL     OW13876   4.430   4.939   3.726
 4326SOL    HW113877   4.511   4.953   3.668
 4326SOL    HW213878   4.459   4.910   3.817
 4327SOL     OW13879   5.908   6.022   1.491
 4327SOL    HW113880   6.000   6.023   1.530
 4327SOL    HW213881   5.850   5.959   1.543
 4328SOL     OW13882   4.564   3.422   5.684
 4328SOL    HW113883   4.493   3.476   5.729
 4328SOL    HW213884   4.523   3.341   5.642
 4329SOL     OW13885   4.447   1.786   5.619
 4329SOL    HW113886   4.382   1.796   5.693
 4329SOL    HW213887   4.519   1.721   5.645
 4330SOL     OW13888   2.112   6.347   4.622
 4330SOL    HW113889   2.147   6.315   4.710
 4330SOL    HW213890   2.186   6.349   4.555
 4331SOL     OW13891   5.545   1.807   1.556
 4331SOL    HW113892   5.634   1.767   1.534
 4331SOL    HW213893   5.530   1.802   1.655
 4332SOL     OW13894   5.286   3.734   1.814
 4332SOL    HW113895   5.269   3.832   1.805
 4332SOL    HW213896   5.384   3.718   1.828
 4333SOL     OW13897   3.704   0.876   5.902
 4333SOL    HW113898   3.626   0.897   5.962
 4333SOL    HW213899   3.786   0.863   5.957
 4334SOL     OW13900   1.719   2.558   2.756
 4334SOL    HW113901   1.797   2.498   2.742
 4334SOL    HW213902   1.648   2.510   2.808
 4335SOL     OW13903   3.477   3.778   2.711
 4335SOL    HW113904   3.392   3.726   2.702
 4335SOL    HW213905   3.456   3.875   2.725
 4336SOL     OW13906   3.207   0.034   6.379
 4336SOL    HW113907   3.174   0.117   6.334
 4336SOL    HW213908   3.286   0.056   6.435
 4337SOL     OW13909   0.665   4.449   1.018
 4337SOL    HW113910   0.760   4.419   1.023
 4337SOL    HW213911   0.658   4.544   1.048
 4338SOL     OW13912   6.294   0.256   5.820
 4338SOL    HW113913   6.236   0.247   5.901
 4338SOL    HW213914   6.240   0.239   5.738
 4339SOL     OW13915   5.700   3.251   5.705
 4339SOL    HW113916   5.768   3.178   5.697
 4339SOL    HW213917   5.725   3.312   5.780
 4340SOL     OW13918   6.578   2.780   1.933
 4340SOL    HW113919   6.561   2.698   1.988
 4340SOL    HW213920   6.659   2.766   1.876
 4341SOL     OW13921   0.795   5.705   1.958
 4341SOL    HW113922   0.757   5.676   2.046
 4341SOL    HW213923   0.727   5.759   1.908
 4342SOL     OW13924   5.872   3.717   3.921
 4342SOL    HW113925   5.873   3.755   3.829
 4342SOL    HW213926   5.786   3.668   3.936
 4343SOL     OW13927   2.765   6.463   5.453
 4343SOL    HW113928   2.754   6.511   5.366
 4343SOL    HW213929   2.753   6.527   5.529
 4344SOL     OW13930   0.318   4.340   2.017
 4344SOL    HW113931   0.298   4.268   1.951
 4344SOL    HW213932   0.257   4.331   2.095
 4345SOL     OW13933   3.275   3.841   4.913
 4345SOL    HW113934   3.296   3.938   4.915
 4345SOL    HW213935   3.327   3.796   4.840
 4346SOL     OW13936   2.128   3.283   2.528
 4346SOL    HW113937   2.091   3.338   2.603
 4346SOL    HW213938   2.226   3.298   2.520
 4347SOL     OW13939   6.546   6.723   2.795
 4347SOL    HW113940   6.570   6.674   2.711
 4347SOL    HW213941   6.618   6.711   2.863
 4348SOL     OW13942   6.503   5.014   4.051
 4348SOL    HW113943   6.469   5.106   4.031
 4348SOL    HW213944   6.533   4.970   3.966
 4349SOL     OW13945   5.962   1.984   2.590
 4349SOL    HW113946   5.941   1.992   2.493
 4349SOL    HW213947   5.896   1.923   2.634
 4350SOL     OW13948   3.339   1.378   4.089
 4350SOL    HW113949   3.384   1.394   4.001
 4350SOL    HW213950   3.356   1.284   4.119
 4351SOL     OW13951   1.987   5.154   0.806
 4351SOL    HW113952   2.079   5.114   0.807
 4351SOL    HW213953   1.944   5.140   0.895
 4352SOL     OW13954   6.388   3.570   2.446
 4352SOL    HW113955   6.440   3.496   2.488
 4352SOL    HW213956   6.315   3.600   2.507
 4353SOL     OW13957   4.486   2.987   6.432
 4353SOL    HW113958   4.409   2.944   6.385
 4353SOL    HW213959   4.456   3.023   6.520
 4354SOL     OW13960   2.107   0.209   5.930
 4354SOL    HW113961   2.067   0.271   5.998
 4354SOL    HW213962   2.207   0.213   5.936
 4355SOL     OW13963   2.446   6.744   2.477
 4355SOL    HW113964   2.456   6.730   2.378
 4355SOL    HW213965   2.523   6.800   2.510
 4356SOL     OW13966   4.963   4.029   0.722
 4356SOL    HW113967   4.930   3.939   0.753
 4356SOL    HW213968   4.886   4.083   0.690
 4357SOL     OW13969   6.608   1.508   0.905
 4357SOL    HW113970   6.536   1.531   0.970
 4357SOL    HW213971   6.570   1.498   0.814
 4358SOL     OW13972   0.424   0.071   0.762
 4358SOL    HW113973   0.510   0.111   0.732
 4358SOL    HW213974   0.378   0.135   0.824
 4359SOL     OW13975   2.094   1.590   6.048
 4359SOL    HW113976   2.051   1.679   6.065
 4359SOL    HW213977   2.178   1.584   6.102
 4360SOL     OW13978   1.519   3.118   3.388
 4360SOL    HW113979   1.555   3.211   3.394
 4360SOL    HW213980   1.443   3.115   3.324
 4361SOL     OW13981   2.585   3.387   1.458
 4361SOL    HW113982   2.594   3.465   1.520
 4361SOL    HW213983   2.547   3.309   1.508
 4362SOL     OW13984   6.002   5.468   3.302
 4362SOL    HW113985   5.953   5.537   3.355
 4362SOL    HW213986   6.082   5.437   3.354
 4363SOL     OW13987   5.802   2.298   1.354
 4363SOL    HW113988   5.735   2.352   1.304
 4363SOL    HW213989   5.774   2.290   1.450
 4364SOL     OW13990   2.923   3.501   4.328
 4364SOL    HW113991   2.881   3.460   4.248
 4364SOL    HW213992   2.984   3.435   4.371
 4365SOL     OW13993   2.352   0.502   2.175
 4365SOL    HW113994   2.390   0.513   2.083
 4365SOL    HW213995   2.336   0.592   2.216
 4366SOL     OW13996   5.816   0.295   0.747
 4366SOL    HW113997   5.863   0.211   0.718
 4366SOL    HW213998   5.824   0.364   0.675
 4367SOL     OW13999   2.384   4.348   4.702
 4367SOL    HW114000   2.358   4.263   4.658
 4367SOL    HW214001   2.362   4.344   4.800
 4368SOL     OW14002   3.629   5.192   0.345
 4368SOL    HW114003   3.623   5.096   0.317
 4368SOL    HW214004   3.719   5.227   0.320
 4369SOL     OW14005   4.531   5.537   2.609
 4369SOL    HW114006   4.606   5.527   2.544
 4369SOL    HW214007   4.553   5.488   2.694
 4370SOL     OW14008   3.858   5.444   1.469
 4370SOL    HW114009   3.905   5.356   1.480
 4370SOL    HW214010   3.897   5.493   1.391
 4371SOL     OW14011   0.737   2.351   2.257
 4371SOL    HW114012   0.666   2.304   2.204
 4371SOL    HW214013   0.817   2.367   2.199
 4372SOL     OW14014   2.786   1.759   2.711
 4372SOL    HW114015   2.819   1.665   2.710
 4372SOL    HW214016   2.863   1.822   2.722
 4373SOL     OW14017   5.810   2.311   0.426
 4373SOL    HW114018   5.733   2.358   0.384
 4373SOL    HW214019   5.819   2.220   0.386
 4374SOL     OW14020   0.734   1.672   0.419
 4374SOL    HW114021   0.666   1.724   0.472
 4374SOL    HW214022   0.719   1.688   0.321
 4375SOL     OW14023   4.475   6.846   3.213
 4375SOL    HW114024   4.472   6.946   3.219
 4375SOL    HW214025   4.567   6.818   3.185
 4376SOL     OW14026   0.238   6.795   1.984
 4376SOL    HW114027   0.145   6.833   1.979
 4376SOL    HW214028   0.299   6.862   2.026
 4377SOL     OW14029   5.671   4.743   0.073
 4377SOL    HW114030   5.574   4.716   0.068
 4377SOL    HW214031   5.720   4.677   0.130
 4378SOL     OW14032   2.223   2.502   2.574
 4378SOL    HW114033   2.155   2.477   2.505
 4378SOL    HW214034   2.198   2.590   2.616
 4379SOL     OW14035   1.766   2.724   2.523
 4379SOL    HW114036   1.733   2.660   2.592
 4379SOL    HW214037   1.752   2.686   2.432
 4380SOL     OW14038   1.342   6.885   3.252
 4380SOL    HW114039   1.434   6.869   3.217
 4380SOL    HW214040   1.335   6.979   3.287
 4381SOL     OW14041   1.738   4.320   5.296
 4381SOL    HW114042   1.775   4.248   5.354
 4381SOL    HW214043   1.787   4.321   5.208
 4382SOL     OW14044   6.567   3.148   4.944
 4382SOL    HW114045   6.514   3.087   4.885
 4382SOL    HW214046   6.595   3.229   4.892
 4383SOL     OW14047   0.864   2.776   5.861
 4383SOL    HW114048   0.964   2.781   5.871
 4383SOL    HW214049   0.831   2.860   5.818
 4384SOL     OW14050   6.474   1.996   5.580
 4384SOL    HW114051   6.429   1.923   5.527
 4384SOL    HW214052   6.447   2.085   5.543
 4385SOL     OW14053   6.050   2.453   5.116
 4385SOL    HW114054   6.019   2.373   5.065
 4385SOL    HW214055   5.990   2.531   5.095
 4386SOL     OW14056   2.520   3.051   6.451
 4386SOL    HW114057   2.433   3.095   6.472
 4386SOL    HW214058   2.515   3.008   6.361
 4387SOL     OW14059   0.021   1.521   1.093
 4387SOL    HW114060   7.009   1.430   1.111
 4387SOL    HW214061   0.049   1.528   0.997
 4388SOL     OW14062   5.507   2.097   6.773
 4388SOL    HW114063   5.575   2.171   6.776
 4388SOL    HW214064   5.513   2.050   6.685
 4389SOL     OW14065   6.914   3.614   0.729
 4389SOL    HW114066   6.951   3.587   0.640
 4389SOL    HW214067   6.818   3.587   0.735
 4390SOL     OW14068   3.589   1.092   1.372
 4390SOL    HW114069   3.670   1.112   1.427
 4390SOL    HW214070   3.539   1.176   1.354
 4391SOL     OW14071   1.920   5.313   6.839
 4391SOL    HW114072   2.016   5.331   6.815
 4391SOL    HW214073   1.866   5.396   6.823
 4392SOL     OW14074   6.807   2.846   4.544
 4392SOL    HW114075   6.863   2.772   4.506
 4392SOL    HW214076   6.850   2.934   4.524
 4393SOL     OW14077   6.245   0.475   2.392
 4393SOL    HW114078   6.260   0.530   2.474
 4393SOL    HW214079   6.326   0.480   2.333
 4394SOL     OW14080   6.428   6.037   2.370
 4394SOL    HW114081   6.423   6.020   2.272
 4394SOL    HW214082   6.350   5.995   2.416
 4395SOL     OW14083   3.035   6.475   1.920
 4395SOL    HW114084   3.119   6.427   1.943
 4395SOL    HW214085   3.053   6.542   1.848
 4396SOL     OW14086   1.880   1.890   3.833
 4396SOL    HW114087   1.829   1.976   3.838
 4396SOL    HW214088   1.960   1.903   3.774
 4397SOL     OW14089   0.197   1.261   4.672
 4397SOL    HW114090   0.127   1.322   4.711
 4397SOL    HW214091   0.285   1.279   4.716
 4398SOL     OW14092   0.408   3.773   5.652
 4398SOL    HW114093   0.489   3.743   5.702
 4398SOL    HW214094   0.327   3.727   5.690
 4399SOL     OW14095   2.388   0.191   1.836
 4399SOL    HW114096   2.427   0.276   1.801
 4399SOL    HW214097   2.443   0.114   1.806
 4400SOL     OW14098   3.334   6.544   5.535
 4400SOL    HW114099   3.259   6.482   5.557
 4400SOL    HW214100   3.420   6.493   5.532
 4401SOL     OW14101   4.340   6.585   6.304
 4401SOL    HW114102   4.386   6.642   6.373
 4401SOL    HW214103   4.400   6.575   6.225
 4402SOL     OW14104   2.729   0.272   1.960
 4402SOL    HW114105   2.752   0.361   2.002
 4402SOL    HW214106   2.717   0.204   2.032
 4403SOL     OW14107   1.119   6.970   2.109
 4403SOL    HW114108   1.213   6.988   2.139
 4403SOL    HW214109   1.111   6.874   2.080
 4404SOL     OW14110   1.035   5.011   5.850
 4404SOL    HW114111   1.015   5.004   5.948
 4404SOL    HW214112   1.001   4.930   5.804
 4405SOL     OW14113   1.677   4.159   0.623
 4405SOL    HW114114   1.739   4.172   0.700
 4405SOL    HW214115   1.662   4.246   0.576
 4406SOL     OW14116   0.189   3.362   0.675
 4406SOL    HW114117   0.089   3.358   0.679
 4406SOL    HW214118   0.226   3.270   0.687
 4407SOL     OW14119   6.150   5.121   0.404
 4407SOL    HW114120   6.151   5.180   0.323
 4407SOL    HW214121   6.243   5.112   0.440
 4408SOL     OW14122   3.420   0.582   0.977
 4408SOL    HW114123   3.430   0.580   0.877
 4408SOL    HW214124   3.511   0.573   1.019
 4409SOL     OW14125   4.967   1.019   2.837
 4409SOL    HW114126   5.048   1.033   2.781
 4409SOL    HW214127   4.966   1.086   2.912
 4410SOL     OW14128   1.075   5.017   6.763
 4410SOL    HW114129   1.045   4.944   6.702
 4410SOL    HW214130   1.081   5.103   6.712
 4411SOL     OW14131   3.835   4.103   4.312
 4411SOL    HW114132   3.913   4.162   4.330
 4411SOL    HW214133   3.863   4.007   4.319
 4412SOL     OW14134   4.064   6.363   4.715
 4412SOL    HW114135   4.144   6.304   4.709
 4412SOL    HW214136   4.047   6.386   4.811
 4413SOL     OW14137   6.220   5.079   4.257
 4413SOL    HW114138   6.316   5.056   4.243
 4413SOL    HW214139   6.181   5.020   4.328
 4414SOL     OW14140   3.565   4.582   1.037
 4414SOL    HW114141   3.517   4.535   1.111
 4414SOL    HW214142   3.542   4.680   1.040
 4415SOL     OW14143   4.253   2.725   0.662
 4415SOL    HW114144   4.336   2.780   0.677
 4415SOL    HW214145   4.249   2.652   0.729
 4416SOL     OW14146   3.229   0.937   4.118
 4416SOL    HW114147   3.160   0.905   4.182
 4416SOL    HW214148   3.281   1.011   4.159
 4417SOL     OW14149   5.485   4.290   3.420
 4417SOL    HW114150   5.539   4.208   3.401
 4417SOL    HW214151   5.525   4.368   3.372
 4418SOL     OW14152   5.869   2.043   2.346
 4418SOL    HW114153   5.873   2.140   2.321
 4418SOL    HW214154   5.879   1.987   2.264
 4419SOL     OW14155   5.833   6.182   6.872
 4419SOL    HW114156   5.810   6.174   6.969
 4419SOL    HW214157   5.758   6.225   6.823
 4420SOL     OW14158   5.119   1.006   1.646
 4420SOL    HW114159   5.094   0.912   1.623
 4420SOL    HW214160   5.069   1.035   1.728
 4421SOL     OW14161   1.943   1.185   4.992
 4421SOL    HW114162   1.861   1.239   4.972
 4421SOL    HW214163   1.978   1.209   5.082
 4422SOL     OW14164   2.206   4.105   0.405
 4422SOL    HW114165   2.210   4.088   0.307
 4422SOL    HW214166   2.266   4.182   0.428
 4423SOL     OW14167   0.177   3.012   5.843
 4423SOL    HW114168   0.151   3.077   5.915
 4423SOL    HW214169   0.103   3.005   5.776
 4424SOL     OW14170   5.825   1.147   4.607
 4424SOL    HW114171   5.924   1.138   4.598
 4424SOL    HW214172   5.800   1.244   4.607
 4425SOL     OW14173   3.340   3.846   0.674
 4425SOL    HW114174   3.313   3.751   0.689
 4425SOL    HW214175   3.258   3.904   0.674
 4426SOL     OW14176   6.906   1.715   3.634
 4426SOL    HW114177   6.837   1.768   3.685
 4426SOL    HW214178   6.870   1.624   3.616
 4427SOL     OW14179   0.685   6.733   2.781
 4427SOL    HW114180   0.757   6.696   2.722
 4427SOL    HW214181   0.701   6.704   2.875
 4428SOL     OW14182   3.167   0.296   2.955
 4428SOL    HW114183   3.170   0.236   2.875
 4428SOL    HW214184   3.164   0.241   3.038
 4429SOL     OW14185   2.923   6.087   2.612
 4429SOL    HW114186   2.927   6.040   2.524
 4429SOL    HW214187   3.009   6.137   2.627
 4430SOL     OW14188   4.898   4.099   4.893
 4430SOL    HW114189   4.929   4.012   4.931
 4430SOL    HW214190   4.889   4.090   4.794
 4431SOL     OW14191   2.219   1.186   2.026
 4431SOL    HW114192   2.135   1.166   1.975
 4431SOL    HW214193   2.200   1.255   2.096
 4432SOL     OW14194   2.805   3.385   5.982
 4432SOL    HW114195   2.805   3.435   6.069
 4432SOL    HW214196   2.747   3.304   5.990
 4433SOL     OW14197   4.921   2.015   4.615
 4433SOL    HW114198   4.891   1.926   4.581
 4433SOL    HW214199   4.845   2.081   4.609
 4434SOL     OW14200   5.168   1.420   3.602
 4434SOL    HW114201   5.136   1.444   3.510
 4434SOL    HW214202   5.208   1.500   3.646
 4435SOL     OW14203   4.926   3.320   1.532
 4435SOL    HW114204   4.874   3.405   1.540
 4435SOL    HW214205   4.911   3.264   1.614
 4436SOL     OW14206   4.324   1.358   1.409
 4436SOL    HW114207   4.290   1.265   1.408
 4436SOL    HW214208   4.418   1.359   1.445
 4437SOL     OW14209   6.321   2.033   2.747
 4437SOL    HW114210   6.237   2.038   2.801
 4437SOL    HW214211   6.360   2.125   2.738
 4438SOL     OW14212   5.155   0.322   6.938
 4438SOL    HW114213   5.087   0.248   6.940
 4438SOL    HW214214   5.214   0.310   6.859
 4439SOL     OW14215   0.266   4.149   1.554
 4439SOL    HW114216   0.179   4.101   1.541
 4439SOL    HW214217   0.293   4.143   1.650
 4440SOL     OW14218   2.607   4.923   0.874
 4440SOL    HW114219   2.696   4.952   0.909
 4440SOL    HW214220   2.535   4.975   0.919
 4441SOL     OW14221   0.012   1.910   2.660
 4441SOL    HW114222   0.004   2.009   2.652
 4441SOL    HW214223   6.948   1.867   2.643
 4442SOL     OW14224   2.291   5.306   4.168
 4442SOL    HW114225   2.194   5.295   4.146
 4442SOL    HW214226   2.301   5.328   4.265
 4443SOL     OW14227   0.795   2.973   6.885
 4443SOL    HW114228   0.821   3.058   6.838
 4443SOL    HW214229   0.830   2.976   6.979
 4444SOL     OW14230   3.027   4.312   5.251
 4444SOL    HW114231   2.971   4.394   5.242
 4444SOL    HW214232   3.085   4.320   5.332
 4445SOL     OW14233   1.114   6.523   0.561
 4445SOL    HW114234   1.043   6.458   0.534
 4445SOL    HW214235   1.078   6.616   0.558
 4446SOL     OW14236   5.166   0.683   1.601
 4446SOL    HW114237   5.218   0.708   1.519
 4446SOL    HW214238   5.167   0.584   1.612
 4447SOL     OW14239   5.808   4.216   5.976
 4447SOL    HW114240   5.896   4.220   6.022
 4447SOL    HW214241   5.785   4.307   5.940
 4448SOL     OW14242   2.733   3.970   1.587
 4448SOL    HW114243   2.644   3.942   1.624
 4448SOL    HW214244   2.776   3.892   1.541
 4449SOL     OW14245   5.361   0.637   6.098
 4449SOL    HW114246   5.308   0.705   6.049
 4449SOL    HW214247   5.451   0.675   6.121
 4450SOL     OW14248   3.193   3.351   5.260
 4450SOL    HW114249   3.193   3.349   5.160
 4450SOL    HW214250   3.282   3.384   5.292
 4451SOL     OW14251   6.366   4.765   3.221
 4451SOL    HW114252   6.444   4.710   3.192
 4451SOL    HW214253   6.285   4.737   3.169
 4452SOL     OW14254   5.015   6.350   4.504
 4452SOL    HW114255   5.038   6.374   4.598
 4452SOL    HW214256   5.024   6.431   4.446
 4453SOL     OW14257   0.862   2.830   1.367
 4453SOL    HW114258   0.956   2.830   1.401
 4453SOL    HW214259   0.828   2.735   1.362
 4454SOL     OW14260   1.892   2.007   0.561
 4454SOL    HW114261   1.972   1.960   0.600
 4454SOL    HW214262   1.879   1.978   0.467
 4455SOL     OW14263   4.409   6.501   5.779
 4455SOL    HW114264   4.329   6.510   5.837
 4455SOL    HW214265   4.410   6.410   5.736
 4456SOL     OW14266   3.246   5.944   2.072
 4456SOL    HW114267   3.198   5.925   1.987
 4456SOL    HW214268   3.328   5.886   2.078
 4457SOL     OW14269   4.147   1.057   2.643
 4457SOL    HW114270   4.173   1.149   2.612
 4457SOL    HW214271   4.131   1.059   2.742
 4458SOL     OW14272   1.494   2.745   0.425
 4458SOL    HW114273   1.507   2.696   0.511
 4458SOL    HW214274   1.579   2.791   0.400
 4459SOL     OW14275   3.861   1.095   4.628
 4459SOL    HW114276   3.771   1.138   4.636
 4459SOL    HW214277   3.869   1.049   4.539
 4460SOL     OW14278   2.709   3.091   6.090
 4460SOL    HW114279   2.785   3.084   6.155
 4460SOL    HW214280   2.727   3.031   6.012
 4461SOL     OW14281   1.141   0.211   1.130
 4461SOL    HW114282   1.118   0.290   1.187
 4461SOL    HW214283   1.186   0.142   1.186
 4462SOL     OW14284   6.047   5.265   1.452
 4462SOL    HW114285   6.055   5.260   1.551
 4462SOL    HW214286   5.997   5.185   1.418
 4463SOL     OW14287   5.318   1.571   0.548
 4463SOL    HW114288   5.289   1.479   0.522
 4463SOL    HW214289   5.396   1.598   0.491
 4464SOL     OW14290   6.842   5.454   0.926
 4464SOL    HW114291   6.836   5.427   0.830
 4464SOL    HW214292   6.908   5.529   0.935
 4465SOL     OW14293   3.090   5.562   1.937
 4465SOL    HW114294   3.052   5.582   1.847
 4465SOL    HW214295   3.061   5.471   1.966
 4466SOL     OW14296   1.708   1.662   3.122
 4466SOL    HW114297   1.641   1.611   3.069
 4466SOL    HW214298   1.798   1.620   3.111
 4467SOL     OW14299   2.025   5.954   2.451
 4467SOL    HW114300   2.055   5.964   2.546
 4467SOL    HW214301   2.069   5.874   2.411
 4468SOL     OW14302   1.727   4.033   0.361
 4468SOL    HW114303   1.803   4.027   0.425
 4468SOL    HW214304   1.641   4.019   0.410
 4469SOL     OW14305   3.118   0.690   1.586
 4469SOL    HW114306   3.170   0.687   1.501
 4469SOL    HW214307   3.103   0.786   1.612
 4470SOL     OW14308   6.668   2.075   1.897
 4470SOL    HW114309   6.637   2.116   1.983
 4470SOL    HW214310   6.712   1.987   1.916
 4471SOL     OW14311   1.204   2.763   6.133
 4471SOL    HW114312   1.273   2.691   6.135
 4471SOL    HW214313   1.114   2.723   6.151
 4472SOL     OW14314   1.407   3.834   1.819
 4472SOL    HW114315   1.455   3.755   1.781
 4472SOL    HW214316   1.466   3.879   1.887
 4473SOL     OW14317   6.073   2.793   4.511
 4473SOL    HW114318   6.102   2.732   4.437
 4473SOL    HW214319   6.006   2.746   4.568
 4474SOL     OW14320   2.649   0.543   2.297
 4474SOL    HW114321   2.679   0.601   2.373
 4474SOL    HW214322   2.552   0.521   2.308
 4475SOL     OW14323   1.449   3.887   2.670
 4475SOL    HW114324   1.378   3.954   2.648
 4475SOL    HW214325   1.414   3.795   2.656
 4476SOL     OW14326   4.727   0.140   3.320
 4476SOL    HW114327   4.799   0.105   3.260
 4476SOL    HW214328   4.661   0.192   3.265
 4477SOL     OW14329   2.153   7.024   5.159
 4477SOL    HW114330   2.112   6.955   5.219
 4477SOL    HW214331   2.194   6.979   5.080
 4478SOL     OW14332   3.791   6.839   3.009
 4478SOL    HW114333   3.731   6.783   2.953
 4478SOL    HW214334   3.753   6.849   3.101
 4479SOL     OW14335   0.803   1.803   1.531
 4479SOL    HW114336   0.853   1.807   1.617
 4479SOL    HW214337   0.707   1.783   1.548
 4480SOL     OW14338   1.070   3.976   4.904
 4480SOL    HW114339   1.021   3.943   4.823
 4480SOL    HW214340   1.073   4.076   4.901
 4481SOL     OW14341   3.245   5.839   4.798
 4481SOL    HW114342   3.299   5.919   4.824
 4481SOL    HW214343   3.252   5.824   4.700
 4482SOL     OW14344   1.379   2.837   4.932
 4482SOL    HW114345   1.380   2.777   5.012
 4482SOL    HW214346   1.297   2.893   4.932
 4483SOL     OW14347   5.982   2.884   2.367
 4483SOL    HW114348   6.028   2.812   2.314
 4483SOL    HW214349   5.883   2.870   2.362
 4484SOL     OW14350   2.624   2.282   6.409
 4484SOL    HW114351   2.543   2.332   6.440
 4484SOL    HW214352   2.665   2.330   6.332
 4485SOL     OW14353   5.580   1.595   4.654
 4485SOL    HW114354   5.521   1.555   4.584
 4485SOL    HW214355   5.559   1.693   4.664
 4486SOL     OW14356   5.578   4.912   5.550
 4486SOL    HW114357   5.517   4.845   5.594
 4486SOL    HW214358   5.528   4.960   5.478
 4487SOL     OW14359   2.833   2.680   6.721
 4487SOL    HW114360   2.917   2.678   6.667
 4487SOL    HW214361   2.782   2.595   6.706
 4488SOL     OW14362   0.332   3.479   6.241
 4488SOL    HW114363   0.251   3.468   6.298
 4488SOL    HW214364   0.322   3.424   6.158
 4489SOL     OW14365   5.140   4.823   4.922
 4489SOL    HW114366   5.082   4.834   4.841
 4489SOL    HW214367   5.129   4.901   4.983
 4490SOL     OW14368   6.405   2.540   1.797
 4490SOL    HW114369   6.350   2.492   1.728
 4490SOL    HW214370   6.460   2.473   1.847
 4491SOL     OW14371   6.525   2.720   4.116
 4491SOL    HW114372   6.543   2.730   4.214
 4491SOL    HW214373   6.571   2.639   4.082
 4492SOL     OW14374   5.954   4.726   1.677
 4492SOL    HW114375   6.012   4.646   1.691
 4492SOL    HW214376   5.858   4.698   1.683
 4493SOL     OW14377   5.043   5.460   4.934
 4493SOL    HW114378   5.126   5.458   4.991
 4493SOL    HW214379   4.964   5.479   4.992
 4494SOL     OW14380   0.649   0.855   6.706
 4494SOL    HW114381   0.628   0.927   6.640
 4494SOL    HW214382   0.691   0.778   6.659
 4495SOL     OW14383   3.714   6.508   4.259
 4495SOL    HW114384   3.703   6.503   4.160
 4495SOL    HW214385   3.798   6.461   4.287
 4496SOL     OW14386   5.492   6.570   1.141
 4496SOL    HW114387   5.439   6.490   1.115
 4496SOL    HW214388   5.513   6.624   1.059
 4497SOL     OW14389   5.847   2.075   0.191
 4497SOL    HW114390   5.904   1.996   0.213
 4497SOL    HW214391   5.791   2.056   0.111
 4498SOL     OW14392   0.301   3.535   0.320
 4498SOL    HW114393   0.268   3.605   0.257
 4498SOL    HW214394   0.287   3.566   0.414
 4499SOL     OW14395   5.814   3.732   4.249
 4499SOL    HW114396   5.852   3.698   4.163
 4499SOL    HW214397   5.721   3.765   4.233
 4500SOL     OW14398   3.453   3.239   4.919
 4500SOL    HW114399   3.540   3.211   4.878
 4500SOL    HW214400   3.448   3.207   5.013
 4501SOL     OW14401   0.199   3.673   3.212
 4501SOL    HW114402   0.276   3.710   3.264
 4501SOL    HW214403   0.144   3.747   3.175
 4502SOL     OW14404   0.444   2.955   6.297
 4502SOL    HW114405   0.494   2.876   6.332
 4502SOL    HW214406   0.373   2.926   6.234
 4503SOL     OW14407   3.526   0.140   1.575
 4503SOL    HW114408   3.514   0.138   1.674
 4503SOL    HW214409   3.449   0.187   1.533
 4504SOL     OW14410   6.514   0.905   5.031
 4504SOL    HW114411   6.517   0.929   5.128
 4504SOL    HW214412   6.420   0.909   4.998
 4505SOL     OW14413   5.939   5.229   1.717
 4505SOL    HW114414   5.917   5.145   1.766
 4505SOL    HW214415   5.858   5.287   1.712
 4506SOL     OW14416   4.835   2.856   3.573
 4506SOL    HW114417   4.869   2.950   3.578
 4506SOL    HW214418   4.789   2.833   3.659
 4507SOL     OW14419   5.631   4.771   2.615
 4507SOL    HW114420   5.583   4.713   2.682
 4507SOL    HW214421   5.567   4.840   2.580
 4508SOL     OW14422   1.378   5.340   6.903
 4508SOL    HW114423   1.377   5.240   6.908
 4508SOL    HW214424   1.417   5.368   6.815
 4509SOL     OW14425   4.502   2.406   2.286
 4509SOL    HW114426   4.479   2.484   2.228
 4509SOL    HW214427   4.523   2.327   2.228
 4510SOL     OW14428   3.879   1.696   4.195
 4510SOL    HW114429   3.934   1.773   4.229
 4510SOL    HW214430   3.787   1.728   4.173
 4511SOL     OW14431   5.970   3.398   0.014
 4511SOL    HW114432   5.923   3.434   6.958
 4511SOL    HW214433   5.937   3.446   0.096
 4512SOL     OW14434   3.103   1.822   5.215
 4512SOL    HW114435   3.074   1.917   5.203
 4512SOL    HW214436   3.037   1.761   5.170
 4513SOL     OW14437   0.194   5.258   6.750
 4513SOL    HW114438   0.105   5.228   6.716
 4513SOL    HW214439   0.263   5.244   6.679
 4514SOL     OW14440   3.721   2.057   6.246
 4514SOL    HW114441   3.654   2.025   6.179
 4514SOL    HW214442   3.691   2.145   6.283
 4515SOL     OW14443   0.092   1.914   5.853
 4515SOL    HW114444   0.045   1.829   5.878
 4515SOL    HW214445   0.181   1.917   5.898
 4516SOL     OW14446   2.283   0.150   0.143
 4516SOL    HW114447   2.260   0.061   0.185
 4516SOL    HW214448   2.228   0.163   0.061
 4517SOL     OW14449   4.231   0.922   6.906
 4517SOL    HW114450   4.326   0.920   6.872
 4517SOL    HW214451   4.217   1.005   6.960
 4518SOL     OW14452   6.825   0.114   2.425
 4518SOL    HW114453   6.912   0.158   2.399
 4518SOL    HW214454   6.758   0.129   2.352
 4519SOL     OW14455   6.927   6.863   1.377
 4519SOL    HW114456   6.956   6.958   1.389
 4519SOL    HW214457   6.886   6.830   1.462
 4520SOL     OW14458   4.638   6.620   4.744
 4520SOL    HW114459   4.642   6.521   4.760
 4520SOL    HW214460   4.584   6.637   4.662
 4521SOL     OW14461   6.703   2.100   4.644
 4521SOL    HW114462   6.749   2.181   4.682
 4521SOL    HW214463   6.705   2.026   4.712
 4522SOL     OW14464   5.144   5.870   3.473
 4522SOL    HW114465   5.117   5.908   3.384
 4522SOL    HW214466   5.202   5.790   3.459
 4523SOL     OW14467   0.892   4.380   0.100
 4523SOL    HW114468   0.958   4.307   0.116
 4523SOL    HW214469   0.915   4.459   0.158
 4524SOL     OW14470   6.361   2.834   2.621
 4524SOL    HW114471   6.270   2.872   2.606
 4524SOL    HW214472   6.354   2.754   2.681
 4525SOL     OW14473   4.845   1.850   5.659
 4525SOL    HW114474   4.780   1.778   5.683
 4525SOL    HW214475   4.857   1.912   5.737
 4526SOL     OW14476   6.740   0.163   0.528
 4526SOL    HW114477   6.771   0.077   0.570
 4526SOL    HW214478   6.664   0.143   0.466
 4527SOL     OW14479   5.749   1.257   3.699
 4527SOL    HW114480   5.827   1.213   3.742
 4527SOL    HW214481   5.678   1.274   3.767
 4528SOL     OW14482   4.939   0.528   0.413
 4528SOL    HW114483   4.851   0.546   0.368
 4528SOL    HW214484   4.937   0.565   0.506
 4529SOL     OW14485   2.163   0.737   5.131
 4529SOL    HW114486   2.247   0.740   5.184
 4529SOL    HW214487   2.109   0.819   5.148
 4530SOL     OW14488   2.081   5.094   4.768
 4530SOL    HW114489   2.139   5.079   4.848
 4530SOL    HW214490   1.990   5.123   4.798
 4531SOL     OW14491   0.623   2.950   5.347
 4531SOL    HW114492   0.644   2.942   5.444
 4531SOL    HW214493   0.562   3.028   5.332
 4532SOL     OW14494   6.408   1.442   2.720
 4532SOL    HW114495   6.422   1.462   2.817
 4532SOL    HW214496   6.324   1.390   2.708
 4533SOL     OW14497   1.006   1.828   1.756
 4533SOL    HW114498   1.056   1.754   1.713
 4533SOL    HW214499   1.007   1.815   1.856
 4534SOL     OW14500   4.722   4.344   4.625
 4534SOL    HW114501   4.746   4.360   4.721
 4534SOL    HW214502   4.741   4.249   4.602
 4535SOL     OW14503   3.671   1.104   2.412
 4535SOL    HW114504   3.640   1.148   2.496
 4535SOL    HW214505   3.771   1.112   2.405
 4536SOL     OW14506   3.999   1.906   4.378
 4536SOL    HW114507   3.927   1.880   4.442
 4536SOL    HW214508   3.999   2.005   4.365
 4537SOL     OW14509   4.091   3.395   0.512
 4537SOL    HW114510   4.021   3.338   0.554
 4537SOL    HW214511   4.085   3.487   0.548
 4538SOL     OW14512   1.845   0.225   3.000
 4538SOL    HW114513   1.882   0.301   3.053
 4538SOL    HW214514   1.841   0.143   3.057
 4539SOL     OW14515   3.037   6.561   4.986
 4539SOL    HW114516   3.025   6.592   4.892
 4539SOL    HW214517   3.092   6.628   5.037
 4540SOL     OW14518   2.818   2.350   6.186
 4540SOL    HW114519   2.821   2.363   6.087
 4540SOL    HW214520   2.806   2.253   6.207
 4541SOL     OW14521   6.308   1.900   0.503
 4541SOL    HW114522   6.214   1.886   0.536
 4541SOL    HW214523   6.363   1.939   0.576
 4542SOL     OW14524   7.000   1.528   1.870
 4542SOL    HW114525   6.983   1.521   1.771
 4542SOL    HW214526   0.053   1.589   1.886
 4543SOL     OW14527   4.730   2.048   1.911
 4543SOL    HW114528   4.793   1.970   1.909
 4543SOL    HW214529   4.636   2.016   1.897
 4544SOL     OW14530   3.402   5.980   6.308
 4544SOL    HW114531   3.413   5.898   6.252
 4544SOL    HW214532   3.481   6.040   6.295
 4545SOL     OW14533   5.546   3.504   4.498
 4545SOL    HW114534   5.555   3.424   4.556
 4545SOL    HW214535   5.515   3.582   4.552
 4546SOL     OW14536   1.331   1.114   4.721
 4546SOL    HW114537   1.386   1.187   4.679
 4546SOL    HW214538   1.234   1.138   4.716
 4547SOL     OW14539   6.522   2.172   1.687
 4547SOL    HW114540   6.578   2.121   1.752
 4547SOL    HW214541   6.496   2.112   1.611
 4548SOL     OW14542   1.245   3.204   3.957
 4548SOL    HW114543   1.336   3.208   3.998
 4548SOL    HW214544   1.250   3.235   3.862
 4549SOL     OW14545   6.746   4.175   1.841
 4549SOL    HW114546   6.687   4.254   1.857
 4549SOL    HW214547   6.742   4.149   1.745
 4550SOL     OW14548   1.037   5.091   3.323
 4550SOL    HW114549   0.956   5.109   3.380
 4550SOL    HW214550   1.086   5.011   3.358
 4551SOL     OW14551   6.961   3.072   4.507
 4551SOL    HW114552   6.950   3.161   4.551
 4551SOL    HW214553   0.017   3.025   4.546
 4552SOL     OW14554   6.397   2.935   2.049
 4552SOL    HW114555   6.465   2.882   1.997
 4552SOL    HW214556   6.403   3.031   2.022
 4553SOL     OW14557   3.162   4.579   6.482
 4553SOL    HW114558   3.199   4.645   6.548
 4553SOL    HW214559   3.083   4.620   6.435
 4554SOL     OW14560   6.274   6.594   1.236
 4554SOL    HW114561   6.330   6.665   1.279
 4554SOL    HW214562   6.288   6.595   1.137
 4555SOL     OW14563   2.317   2.212   5.701
 4555SOL    HW114564   2.239   2.268   5.675
 4555SOL    HW214565   2.372   2.190   5.621
 4556SOL     OW14566   5.688   2.939   4.140
 4556SOL    HW114567   5.663   2.982   4.053
 4556SOL    HW214568   5.786   2.951   4.156
 4557SOL     OW14569   5.109   6.503   5.420
 4557SOL    HW114570   5.200   6.469   5.397
 4557SOL    HW214571   5.043   6.427   5.418
 4558SOL     OW14572   0.270   4.132   5.241
 4558SOL    HW114573   0.181   4.165   5.272
 4558SOL    HW214574   0.342   4.167   5.301
 4559SOL     OW14575   0.405   3.738   1.710
 4559SOL    HW114576   0.335   3.668   1.696
 4559SOL    HW214577   0.464   3.743   1.630
 4560SOL     OW14578   5.559   4.017   1.904
 4560SOL    HW114579   5.627   4.000   1.834
 4560SOL    HW214580   5.468   4.020   1.862
 4561SOL     OW14581   2.215   1.897   3.226
 4561SOL    HW114582   2.315   1.892   3.215
 4561SOL    HW214583   2.172   1.900   3.136
 4562SOL     OW14584   2.433   6.294   6.058
 4562SOL    HW114585   2.483   6.222   6.011
 4562SOL    HW214586   2.340   6.301   6.020
 4563SOL     OW14587   6.772   2.526   1.227
 4563SOL    HW114588   6.772   2.547   1.129
 4563SOL    HW214589   6.804   2.432   1.240
 4564SOL     OW14590   6.618   5.616   1.986
 4564SOL    HW114591   6.663   5.532   2.017
 4564SOL    HW214592   6.623   5.621   1.886
 4565SOL     OW14593   0.797   1.369   4.799
 4565SOL    HW114594   0.772   1.457   4.759
 4565SOL    HW214595   0.715   1.323   4.834
 4566SOL     OW14596   6.551   2.444   0.394
 4566SOL    HW114597   6.499   2.507   0.337
 4566SOL    HW214598   6.534   2.350   0.364
 4567SOL     OW14599   6.302   1.206   5.964
 4567SOL    HW114600   6.240   1.159   5.901
 4567SOL    HW214601   6.382   1.239   5.913
 4568SOL     OW14602   2.194   3.663   6.303
 4568SOL    HW114603   2.223   3.568   6.296
 4568SOL    HW214604   2.223   3.712   6.220
 4569SOL     OW14605   2.104   1.712   2.780
 4569SOL    HW114606   2.066   1.725   2.689
 4569SOL    HW214607   2.056   1.772   2.845
 4570SOL     OW14608   0.307   6.430   3.059
 4570SOL    HW114609   0.271   6.463   3.146
 4570SOL    HW214610   0.402   6.459   3.049
 4571SOL     OW14611   4.001   4.374   6.370
 4571SOL    HW114612   3.934   4.445   6.390
 4571SOL    HW214613   4.043   4.342   6.454
 4572SOL     OW14614   2.180   0.371   6.785
 4572SOL    HW114615   2.121   0.417   6.851
 4572SOL    HW214616   2.268   0.419   6.780
 4573SOL     OW14617   6.121   0.509   0.642
 4573SOL    HW114618   6.046   0.557   0.687
 4573SOL    HW214619   6.084   0.447   0.573
 4574SOL     OW14620   5.758   4.065   0.690
 4574SOL    HW114621   5.676   4.066   0.632
 4574SOL    HW214622   5.758   3.982   0.747
 4575SOL     OW14623   6.042   1.003   6.449
 4575SOL    HW114624   5.991   0.941   6.509
 4575SOL    HW214625   6.034   0.972   6.354
 4576SOL     OW14626   2.619   6.028   5.767
 4576SOL    HW114627   2.555   5.965   5.722
 4576SOL    HW214628   2.708   5.985   5.775
 4577SOL     OW14629   1.339   1.730   4.929
 4577SOL    HW114630   1.369   1.826   4.924
 4577SOL    HW214631   1.246   1.723   4.892
 4578SOL     OW14632   0.328   3.075   5.181
 4578SOL    HW114633   0.339   2.992   5.235
 4578SOL    HW214634   0.231   3.087   5.157
 4579SOL     OW14635   3.855   0.772   3.573
 4579SOL    HW114636   3.856   0.715   3.655
 4579SOL    HW214637   3.763   0.775   3.535
 4580SOL     OW14638   5.836   4.490   0.643
 4580SOL    HW114639   5.787   4.449   0.567
 4580SOL    HW214640   5.814   4.588   0.649
 4581SOL     OW14641   2.538   5.380   2.825
 4581SOL    HW114642   2.445   5.361   2.858
 4581SOL    HW214643   2.603   5.323   2.876
 4582SOL     OW14644   5.116   0.140   5.066
 4582SOL    HW114645   5.077   0.134   4.974
 4582SOL    HW214646   5.199   0.084   5.070
 4583SOL     OW14647   2.653   2.436   6.707
 4583SOL    HW114648   2.559   2.411   6.683
 4583SOL    HW214649   2.682   2.383   6.787
 4584SOL     OW14650   6.996   4.347   5.555
 4584SOL    HW114651   0.041   4.413   5.525
 4584SOL    HW214652   6.942   4.387   5.629
 4585SOL     OW14653   2.851   6.218   3.748
 4585SOL    HW114654   2.939   6.196   3.791
 4585SOL    HW214655   2.777   6.193   3.810
 4586SOL     OW14656   3.902   4.872   0.702
 4586SOL    HW114657   3.932   4.805   0.770
 4586SOL    HW214658   3.830   4.832   0.645
 4587SOL     OW14659   3.609   4.119   3.323
 4587SOL    HW114660   3.651   4.087   3.238
 4587SOL    HW214661   3.673   4.108   3.398
 4588SOL     OW14662   2.578   3.349   5.447
 4588SOL    HW114663   2.614   3.265   5.406
 4588SOL    HW214664   2.617   3.428   5.401
 4589SOL     OW14665   6.289   1.187   2.429
 4589SOL    HW114666   6.291   1.261   2.496
 4589SOL    HW214667   6.380   1.177   2.388
 4590SOL     OW14668   4.919   5.657   1.171
 4590SOL    HW114669   4.909   5.564   1.205
 4590SOL    HW214670   4.970   5.657   1.085
 4591SOL     OW14671   1.197   0.077   4.420
 4591SOL    HW114672   1.128   0.009   4.395
 4591SOL    HW214673   1.156   0.168   4.417
 4592SOL     OW14674   2.557   1.634   2.551
 4592SOL    HW114675   2.470   1.652   2.597
 4592SOL    HW214676   2.631   1.635   2.618
 4593SOL     OW14677   5.277   5.614   2.703
 4593SOL    HW114678   5.180   5.616   2.727
 4593SOL    HW214679   5.288   5.640   2.607
 4594SOL     OW14680   2.828   1.029   2.991
 4594SOL    HW114681   2.767   1.062   3.063
 4594SOL    HW214682   2.785   1.042   2.902
 4595SOL     OW14683   4.323   3.260   5.671
 4595SOL    HW114684   4.277   3.271   5.759
 4595SOL    HW214685   4.366   3.169   5.668
 4596SOL     OW14686   5.849   0.091   1.770
 4596SOL    HW114687   5.854   0.170   1.709
 4596SOL    HW214688   5.931   0.034   1.758
 4597SOL     OW14689   3.661   5.727   6.175
 4597SOL    HW114690   3.564   5.710   6.192
 4597SOL    HW214691   3.711   5.724   6.262
 4598SOL     OW14692   1.654   6.129   6.892
 4598SOL    HW114693   1.684   6.223   6.873
 4598SOL    HW214694   1.646   6.079   6.806
 4599SOL     OW14695   1.421   5.034   0.494
 4599SOL    HW114696   1.391   5.128   0.511
 4599SOL    HW214697   1.471   5.029   0.408
 4600SOL     OW14698   1.286   5.387   5.612
 4600SOL    HW114699   1.191   5.375   5.643
 4600SOL    HW214700   1.317   5.302   5.569
 4601SOL     OW14701   2.038   1.336   5.213
 4601SOL    HW114702   1.959   1.324   5.274
 4601SOL    HW214703   2.065   1.432   5.211
 4602SOL     OW14704   2.952   6.533   1.235
 4602SOL    HW114705   2.976   6.458   1.297
 4602SOL    HW214706   2.910   6.496   1.153
 4603SOL     OW14707   3.120   6.349   0.704
 4603SOL    HW114708   3.045   6.288   0.729
 4603SOL    HW214709   3.154   6.325   0.613
 4604SOL     OW14710   4.688   0.410   0.187
 4604SOL    HW114711   4.640   0.383   0.104
 4604SOL    HW214712   4.634   0.479   0.236
 4605SOL     OW14713   2.480   6.732   2.191
 4605SOL    HW114714   2.519   6.643   2.169
 4605SOL    HW214715   2.394   6.744   2.140
 4606SOL     OW14716   0.905   5.997   2.312
 4606SOL    HW114717   0.930   6.060   2.238
 4606SOL    HW214718   0.898   6.049   2.398
 4607SOL     OW14719   1.518   3.604   1.497
 4607SOL    HW114720   1.538   3.670   1.425
 4607SOL    HW214721   1.602   3.584   1.547
 4608SOL     OW14722   0.477   5.873   3.837
 4608SOL    HW114723   0.491   5.775   3.844
 4608SOL    HW214724   0.544   5.912   3.773
 4609SOL     OW14725   4.207   5.282   6.415
 4609SOL    HW114726   4.145   5.274   6.337
 4609SOL    HW214727   4.161   5.250   6.497
 4610SOL     OW14728   4.598   2.056   0.850
 4610SOL    HW114729   4.658   2.108   0.911
 4610SOL    HW214730   4.526   2.012   0.903
 4611SOL     OW14731   0.558   6.363   6.358
 4611SOL    HW114732   0.616   6.428   6.407
 4611SOL    HW214733   0.476   6.409   6.324
 4612SOL     OW14734   1.289   6.016   0.049
 4612SOL    HW114735   1.192   6.038   0.044
 4612SOL    HW214736   1.344   6.096   0.025
 4613SOL     OW14737   2.002   5.882   1.688
 4613SOL    HW114738   2.075   5.921   1.631
 4613SOL    HW214739   2.035   5.800   1.733
 4614SOL     OW14740   6.233   3.548   3.486
 4614SOL    HW114741   6.201   3.558   3.580
 4614SOL    HW214742   6.165   3.585   3.423
 4615SOL     OW14743   1.966   0.782   6.927
 4615SOL    HW114744   1.992   0.849   6.996
 4615SOL    HW214745   1.921   0.829   6.851
 4616SOL     OW14746   6.339   1.063   4.481
 4616SOL    HW114747   6.316   1.091   4.388
 4616SOL    HW214748   6.436   1.036   4.485
 4617SOL     OW14749   0.633   2.207   2.470
 4617SOL    HW114750   0.689   2.247   2.397
 4617SOL    HW214751   0.658   2.248   2.558
 4618SOL     OW14752   2.220   2.911   4.833
 4618SOL    HW114753   2.268   2.930   4.919
 4618SOL    HW214754   2.240   2.983   4.767
 4619SOL     OW14755   3.136   6.311   3.656
 4619SOL    HW114756   3.106   6.265   3.573
 4619SOL    HW214757   3.204   6.381   3.633
 4620SOL     OW14758   2.879   5.377   0.824
 4620SOL    HW114759   2.805   5.320   0.787
 4620SOL    HW214760   2.844   5.434   0.898
 4621SOL     OW14761   4.931   0.426   2.612
 4621SOL    HW114762   4.991   0.347   2.602
 4621SOL    HW214763   4.963   0.482   2.689
 4622SOL     OW14764   2.822   4.749   0.781
 4622SOL    HW114765   2.775   4.661   0.772
 4622SOL    HW214766   2.756   4.821   0.800
 4623SOL     OW14767   5.568   6.341   1.014
 4623SOL    HW114768   5.658   6.382   1.031
 4623SOL    HW214769   5.556   6.328   0.916
 4624SOL     OW14770   4.047   6.644   3.166
 4624SOL    HW114771   3.951   6.648   3.195
 4624SOL    HW214772   4.100   6.710   3.219
 4625SOL     OW14773   1.965   4.265   1.385
 4625SOL    HW114774   1.919   4.309   1.462
 4625SOL    HW214775   1.944   4.167   1.386
 4626SOL     OW14776   5.944   4.235   1.898
 4626SOL    HW114777   5.975   4.314   1.845
 4626SOL    HW214778   5.862   4.259   1.950
 4627SOL     OW14779   1.869   4.600   4.882
 4627SOL    HW114780   1.951   4.559   4.841
 4627SOL    HW214781   1.818   4.650   4.811
 4628SOL     OW14782   5.730   4.031   4.019
 4628SOL    HW114783   5.712   3.943   4.064
 4628SOL    HW214784   5.720   4.020   3.920
 4629SOL     OW14785   2.444   5.039   5.839
 4629SOL    HW114786   2.483   5.128   5.860
 4629SOL    HW214787   2.517   4.974   5.818
 4630SOL     OW14788   2.906   6.252   2.307
 4630SOL    HW114789   2.884   6.288   2.216
 4630SOL    HW214790   2.870   6.159   2.316
 4631SOL     OW14791   1.827   5.794   3.340
 4631SOL    HW114792   1.892   5.789   3.416
 4631SOL    HW214793   1.742   5.747   3.366
 4632SOL     OW14794   3.005   4.901   2.432
 4632SOL    HW114795   3.032   4.907   2.336
 4632SOL    HW214796   2.936   4.828   2.442
 4633SOL     OW14797   5.702   0.846   4.816
 4633SOL    HW114798   5.753   0.897   4.885
 4633SOL    HW214799   5.721   0.749   4.825
 4634SOL     OW14800   3.047   4.277   5.660
 4634SOL    HW114801   3.097   4.319   5.584
 4634SOL    HW214802   3.019   4.347   5.725
 4635SOL     OW14803   5.067   3.854   1.442
 4635SOL    HW114804   5.144   3.908   1.475
 4635SOL    HW214805   4.985   3.911   1.437
 4636SOL     OW14806   1.349   4.485   6.943
 4636SOL    HW114807   1.308   4.544   7.013
 4636SOL    HW214808   1.360   4.538   6.858
 4637SOL     OW14809   0.763   5.898   1.175
 4637SOL    HW114810   0.834   5.879   1.108
 4637SOL    HW214811   0.678   5.852   1.149
 4638SOL     OW14812   4.074   4.676   6.997
 4638SOL    HW114813   4.169   4.684   0.005
 4638SOL    HW214814   4.042   4.582   7.009
 4639SOL     OW14815   3.711   3.401   5.674
 4639SOL    HW114816   3.729   3.440   5.765
 4639SOL    HW214817   3.635   3.337   5.680
 4640SOL     OW14818   4.842   3.933   3.777
 4640SOL    HW114819   4.894   3.866   3.724
 4640SOL    HW214820   4.870   3.928   3.873
 4641SOL     OW14821   2.467   0.161   4.809
 4641SOL    HW114822   2.405   0.091   4.773
 4641SOL    HW214823   2.523   0.198   4.734
 4642SOL     OW14824   1.308   5.933   4.209
 4642SOL    HW114825   1.339   6.027   4.226
 4642SOL    HW214826   1.209   5.927   4.227
 4643SOL     OW14827   6.439   2.264   0.861
 4643SOL    HW114828   6.452   2.355   0.901
 4643SOL    HW214829   6.509   2.248   0.792
 4644SOL     OW14830   0.064   5.109   5.738
 4644SOL    HW114831   0.153   5.084   5.700
 4644SOL    HW214832   0.035   5.040   5.804
 4645SOL     OW14833   0.378   0.017   4.004
 4645SOL    HW114834   0.345   6.965   4.060
 4645SOL    HW214835   0.478   0.014   3.999
 4646SOL     OW14836   2.472   5.661   3.724
 4646SOL    HW114837   2.522   5.737   3.683
 4646SOL    HW214838   2.516   5.634   3.809
 4647SOL     OW14839   1.745   6.887   2.861
 4647SOL    HW114840   1.740   6.790   2.884
 4647SOL    HW214841   1.799   6.898   2.778
 4648SOL     OW14842   3.395   1.145   2.689
 4648SOL    HW114843   3.418   1.238   2.717
 4648SOL    HW214844   3.342   1.101   2.761
 4649SOL     OW14845   5.209   0.959   6.832
 4649SOL    HW114846   5.267   1.001   6.901
 4649SOL    HW214847   5.143   0.898   6.875
 4650SOL     OW14848   4.973   5.390   2.543
 4650SOL    HW114849   4.938   5.297   2.545
 4650SOL    HW214850   4.897   5.454   2.530
 4651SOL     OW14851   6.359   3.458   0.482
 4651SOL    HW114852   6.343   3.453   0.383
 4651SOL    HW214853   6.350   3.553   0.513
 4652SOL     OW14854   6.239   6.577   4.140
 4652SOL    HW114855   6.146   6.546   4.123
 4652SOL    HW214856   6.278   6.615   4.056
 4653SOL     OW14857   5.238   5.415   1.051
 4653SOL    HW114858   5.292   5.333   1.034
 4653SOL    HW214859   5.300   5.493   1.066
 4654SOL     OW14860   0.332   6.808   0.357
 4654SOL    HW114861   0.308   6.715   0.332
 4654SOL    HW214862   0.408   6.840   0.301
 4655SOL     OW14863   5.857   4.314   1.319
 4655SOL    HW114864   5.844   4.269   1.231
 4655SOL    HW214865   5.922   4.262   1.374
 4656SOL     OW14866   1.260   0.176   2.652
 4656SOL    HW114867   1.183   0.166   2.716
 4656SOL    HW214868   1.345   0.182   2.704
 4657SOL     OW14869   4.523   6.331   2.124
 4657SOL    HW114870   4.437   6.281   2.110
 4657SOL    HW214871   4.506   6.429   2.109
 4658SOL     OW14872   3.973   0.962   3.212
 4658SOL    HW114873   4.034   0.895   3.168
 4658SOL    HW214874   3.975   0.949   3.311
 4659SOL     OW14875   3.150   4.450   5.465
 4659SOL    HW114876   3.234   4.402   5.440
 4659SOL    HW214877   3.173   4.531   5.519
 4660SOL     OW14878   1.197   4.439   5.480
 4660SOL    HW114879   1.105   4.436   5.441
 4660SOL    HW214880   1.222   4.349   5.514
 4661SOL     OW14881   2.718   4.425   5.900
 4661SOL    HW114882   2.628   4.388   5.876
 4661SOL    HW214883   2.772   4.439   5.817
 4662SOL     OW14884   3.217   0.304   5.419
 4662SOL    HW114885   3.282   0.378   5.438
 4662SOL    HW214886   3.124   0.339   5.431
 4663SOL     OW14887   0.252   1.732   1.160
 4663SOL    HW114888   0.324   1.768   1.218
 4663SOL    HW214889   0.174   1.703   1.217
 4664SOL     OW14890   1.211   0.947   1.616
 4664SOL    HW114891   1.204   0.960   1.715
 4664SOL    HW214892   1.138   0.887   1.585
 4665SOL     OW14893   3.525   6.648   6.625
 4665SOL    HW114894   3.507   6.690   6.714
 4665SOL    HW214895   3.439   6.617   6.586
 4666SOL     OW14896   1.797   3.170   0.217
 4666SOL    HW114897   1.814   3.081   0.258
 4666SOL    HW214898   1.750   3.229   0.283
 4667SOL     OW14899   0.019   3.300   2.388
 4667SOL    HW114900   0.019   3.378   2.326
 4667SOL    HW214901   6.974   3.233   2.360
 4668SOL     OW14902   4.169   2.141   3.220
 4668SOL    HW114903   4.228   2.200   3.277
 4668SOL    HW214904   4.183   2.163   3.124
 4669SOL     OW14905   4.679   6.587   6.600
 4669SOL    HW114906   4.672   6.596   6.700
 4669SOL    HW214907   4.604   6.635   6.556
 4670SOL     OW14908   2.184   2.383   5.518
 4670SOL    HW114909   2.093   2.403   5.482
 4670SOL    HW214910   2.252   2.436   5.468
 4671SOL     OW14911   0.199   2.622   0.243
 4671SOL    HW114912   0.118   2.677   0.223
 4671SOL    HW214913   0.210   2.614   0.342
 4672SOL     OW14914   2.708   4.901   5.807
 4672SOL    HW114915   2.720   4.853   5.720
 4672SOL    HW214916   2.697   4.835   5.881
 4673SOL     OW14917   5.147   6.793   2.350
 4673SOL    HW114918   5.139   6.776   2.448
 4673SOL    HW214919   5.206   6.724   2.308
 4674SOL     OW14920   5.505   0.823   6.297
 4674SOL    HW114921   5.464   0.756   6.359
 4674SOL    HW214922   5.577   0.779   6.244
 4675SOL     OW14923   2.427   1.141   6.255
 4675SOL    HW114924   2.332   1.134   6.222
 4675SOL    HW214925   2.429   1.197   6.338
 4676SOL     OW14926   6.725   6.336   4.227
 4676SOL    HW114927   6.631   6.366   4.247
 4676SOL    HW214928   6.747   6.257   4.284
 4677SOL     OW14929   2.541   1.672   6.284
 4677SOL    HW114930   2.561   1.658   6.381
 4677SOL    HW214931   2.614   1.728   6.244
 4678SOL     OW14932   1.514   4.190   3.098
 4678SOL    HW114933   1.512   4.269   3.036
 4678SOL    HW214934   1.457   4.116   3.059
 4679SOL     OW14935   3.729   1.270   0.282
 4679SOL    HW114936   3.712   1.177   0.248
 4679SOL    HW214937   3.645   1.306   0.322
 4680SOL     OW14938   2.731   1.632   0.691
 4680SOL    HW114939   2.723   1.543   0.736
 4680SOL    HW214940   2.644   1.681   0.700
 4681SOL     OW14941   5.262   5.823   6.164
 4681SOL    HW114942   5.175   5.810   6.210
 4681SOL    HW214943   5.314   5.895   6.211
 4682SOL     OW14944   4.409   4.296   5.807
 4682SOL    HW114945   4.437   4.245   5.726
 4682SOL    HW214946   4.341   4.365   5.781
 4683SOL     OW14947   4.219   5.089   2.773
 4683SOL    HW114948   4.291   5.084   2.704
 4683SOL    HW214949   4.153   5.159   2.747
 4684SOL     OW14950   6.829   1.923   5.330
 4684SOL    HW114951   6.880   1.855   5.277
 4684SOL    HW214952   6.840   1.904   5.428
 4685SOL     OW14953   0.858   6.338   5.429
 4685SOL    HW114954   0.905   6.392   5.498
 4685SOL    HW214955   0.924   6.296   5.367
 4686SOL     OW14956   4.297   5.023   6.776
 4686SOL    HW114957   4.356   5.103   6.784
 4686SOL    HW214958   4.334   4.961   6.707
 4687SOL     OW14959   6.322   4.004   4.439
 4687SOL    HW114960   6.317   4.049   4.528
 4687SOL    HW214961   6.234   4.012   4.392
 4688SOL     OW14962   6.233   4.097   4.688
 4688SOL    HW114963   6.265   4.048   4.770
 4688SOL    HW214964   6.228   4.195   4.708
 4689SOL     OW14965   5.828   0.478   0.561
 4689SOL    HW114966   5.799   0.572   0.579
 4689SOL    HW214967   5.893   0.477   0.486
 4690SOL     OW14968   1.291   0.295   7.010
 4690SOL    HW114969   1.322   0.389   7.001
 4690SOL    HW214970   1.359   0.241   0.036
 4691SOL     OW14971   2.877   4.976   1.766
 4691SOL    HW114972   2.874   5.024   1.677
 4691SOL    HW214973   2.881   5.043   1.839
 4692SOL     OW14974   5.869   5.796   2.195
 4692SOL    HW114975   5.919   5.716   2.229
 4692SOL    HW214976   5.806   5.768   2.124
 4693SOL     OW14977   1.151   1.075   3.000
 4693SOL    HW114978   1.115   1.060   3.093
 4693SOL    HW214979   1.144   0.989   2.949
 4694SOL     OW14980   2.308   0.460   0.397
 4694SOL    HW114981   2.323   0.531   0.466
 4694SOL    HW214982   2.342   0.373   0.432
 4695SOL     OW14983   1.945   3.783   1.832
 4695SOL    HW114984   1.974   3.705   1.887
 4695SOL    HW214985   2.022   3.846   1.822
 4696SOL     OW14986   0.391   3.990   7.002
 4696SOL    HW114987   0.459   3.917   7.007
 4696SOL    HW214988   0.398   4.047   0.060
 4697SOL     OW14989   2.070   3.337   1.124
 4697SOL    HW114990   2.141   3.306   1.188
 4697SOL    HW214991   2.097   3.313   1.031
 4698SOL     OW14992   4.235   5.469   2.889
 4698SOL    HW114993   4.179   5.479   2.807
 4698SOL    HW214994   4.185   5.413   2.956
 4699SOL     OW14995   1.964   6.949   2.009
 4699SOL    HW114996   1.879   6.999   2.027
 4699SOL    HW214997   1.946   6.875   1.944
 4700SOL     OW14998   6.546   1.867   2.824
 4700SOL    HW114999   6.578   1.797   2.761
 4700SOL    HW215000   6.464   1.910   2.787
 4701SOL     OW15001   2.203   2.414   6.832
 4701SOL    HW115002   2.142   2.489   6.806
 4701SOL    HW215003   2.150   2.330   6.842
 4702SOL     OW15004   4.387   4.895   6.545
 4702SOL    HW115005   4.479   4.932   6.539
 4702SOL    HW215006   4.331   4.930   6.469
 4703SOL     OW15007   0.925   1.373   1.472
 4703SOL    HW115008   0.976   1.290   1.447
 4703SOL    HW215009   0.828   1.350   1.483
 4704SOL     OW15010   0.974   6.746   0.572
 4704SOL    HW115011   0.937   6.712   0.659
 4704SOL    HW215012   0.899   6.759   0.507
 4705SOL     OW15013   3.081   3.254   2.040
 4705SOL    HW115014   3.084   3.173   2.098
 4705SOL    HW215015   2.991   3.260   1.997
 4706SOL     OW15016   3.581   0.344   6.688
 4706SOL    HW115017   3.678   0.337   6.665
 4706SOL    HW215018   3.550   0.260   6.731
 4707SOL     OW15019   1.870   6.362   1.136
 4707SOL    HW115020   1.817   6.446   1.147
 4707SOL    HW215021   1.898   6.328   1.226
 4708SOL     OW15022   1.121   1.599   6.500
 4708SOL    HW115023   1.029   1.570   6.472
 4708SOL    HW215024   1.184   1.522   6.490
 4709SOL     OW15025   4.280   5.796   5.565
 4709SOL    HW115026   4.199   5.839   5.525
 4709SOL    HW215027   4.281   5.699   5.541
 4710SOL     OW15028   3.691   1.189   5.286
 4710SOL    HW115029   3.725   1.186   5.380
 4710SOL    HW215030   3.657   1.099   5.259
 4711SOL     OW15031   5.412   0.948   1.391
 4711SOL    HW115032   5.480   1.020   1.381
 4711SOL    HW215033   5.457   0.865   1.427
 4712SOL     OW15034   2.814   4.369   7.005
 4712SOL    HW115035   2.744   4.437   0.000
 4712SOL    HW215036   2.878   4.365   0.058
 4713SOL     OW15037   3.203   3.401   0.380
 4713SOL    HW115038   3.146   3.448   0.447
 4713SOL    HW215039   3.162   3.411   0.289
 4714SOL     OW15040   1.160   2.524   6.715
 4714SOL    HW115041   1.220   2.467   6.770
 4714SOL    HW215042   1.094   2.571   6.774
 4715SOL     OW15043   6.763   2.670   2.304
 4715SOL    HW115044   6.764   2.570   2.309
 4715SOL    HW215045   6.733   2.708   2.391
 4716SOL     OW15046   4.970   5.806   6.703
 4716SOL    HW115047   4.885   5.845   6.739
 4716SOL    HW215048   5.045   5.872   6.715
 4717SOL     OW15049   0.372   6.896   3.202
 4717SOL    HW115050   0.366   6.971   3.137
 4717SOL    HW215051   0.327   6.922   3.288
 4718SOL     OW15052   5.782   2.726   1.399
 4718SOL    HW115053   5.735   2.814   1.404
 4718SOL    HW215054   5.727   2.657   1.446
 4719SOL     OW15055   5.332   3.300   2.056
 4719SOL    HW115056   5.279   3.216   2.041
 4719SOL    HW215057   5.269   3.376   2.074
 4720SOL     OW15058   2.362   5.158   6.169
 4720SOL    HW115059   2.437   5.193   6.113
 4720SOL    HW215060   2.384   5.172   6.266
 4721SOL     OW15061   0.229   2.050   1.588
 4721SOL    HW115062   0.280   2.041   1.674
 4721SOL    HW215063   0.178   2.136   1.588
 4722SOL     OW15064   0.972   6.142   6.453
 4722SOL    HW115065   1.050   6.105   6.504
 4722SOL    HW215066   0.975   6.242   6.455
 4723SOL     OW15067   1.823   3.883   5.645
 4723SOL    HW115068   1.796   3.853   5.736
 4723SOL    HW215069   1.912   3.929   5.650
 4724SOL     OW15070   5.860   5.946   3.048
 4724SOL    HW115071   5.915   5.864   3.062
 4724SOL    HW215072   5.917   6.027   3.062
 4725SOL     OW15073   6.169   5.796   2.888
 4725SOL    HW115074   6.248   5.779   2.948
 4725SOL    HW215075   6.094   5.735   2.913
 4726SOL     OW15076   1.939   2.505   5.703
 4726SOL    HW115077   1.962   2.420   5.656
 4726SOL    HW215078   1.840   2.513   5.713
 4727SOL     OW15079   0.770   5.957   0.760
 4727SOL    HW115080   0.683   6.003   0.773
 4727SOL    HW215081   0.769   5.907   0.674
 4728SOL     OW15082   5.418   0.532   2.109
 4728SOL    HW115083   5.353   0.582   2.165
 4728SOL    HW215084   5.429   0.579   2.021
 4729SOL     OW15085   2.508   1.598   0.929
 4729SOL    HW115086   2.562   1.526   0.883
 4729SOL    HW215087   2.486   1.670   0.864
 4730SOL     OW15088   3.136   5.633   4.967
 4730SOL    HW115089   3.064   5.700   4.984
 4730SOL    HW215090   3.204   5.672   4.906
 4731SOL     OW15091   4.498   0.199   6.798
 4731SOL    HW115092   4.453   0.271   6.745
 4731SOL    HW215093   4.597   0.210   6.791
 4732SOL     OW15094   1.055   3.357   6.374
 4732SOL    HW115095   0.957   3.335   6.368
 4732SOL    HW215096   1.099   3.337   6.287
 4733SOL     OW15097   1.136   3.944   3.469
 4733SOL    HW115098   1.219   3.997   3.487
 4733SOL    HW215099   1.132   3.920   3.372
 4734SOL     OW15100   4.716   2.398   0.833
 4734SOL    HW115101   4.617   2.405   0.823
 4734SOL    HW215102   4.738   2.329   0.902
 4735SOL     OW15103   0.131   5.895   5.098
 4735SOL    HW115104   0.102   5.811   5.053
 4735SOL    HW215105   0.216   5.879   5.149
 4736SOL     OW15106   0.251   2.642   6.332
 4736SOL    HW115107   0.221   2.691   6.249
 4736SOL    HW215108   0.202   2.678   6.411
 4737SOL     OW15109   2.340   4.354   2.352
 4737SOL    HW115110   2.295   4.301   2.425
 4737SOL    HW215111   2.420   4.400   2.389
 4738SOL     OW15112   0.365   6.291   3.360
 4738SOL    HW115113   0.453   6.325   3.393
 4738SOL    HW215114   0.308   6.266   3.438
 4739SOL     OW15115   4.459   6.079   3.245
 4739SOL    HW115116   4.397   6.155   3.265
 4739SOL    HW215117   4.543   6.115   3.205
 4740SOL     OW15118   1.361   1.166   1.559
 4740SOL    HW115119   1.310   1.086   1.592
 4740SOL    HW215120   1.322   1.197   1.472
 4741SOL     OW15121   3.730   3.265   1.413
 4741SOL    HW115122   3.800   3.317   1.363
 4741SOL    HW215123   3.770   3.180   1.446
 4742SOL     OW15124   3.341   6.975   5.376
 4742SOL    HW115125   3.296   6.886   5.372
 4742SOL    HW215126   3.385   6.993   5.288
 4743SOL     OW15127   1.765   3.415   3.086
 4743SOL    HW115128   1.753   3.322   3.053
 4743SOL    HW215129   1.792   3.414   3.182
 4744SOL     OW15130   1.250   4.532   0.843
 4744SOL    HW115131   1.200   4.617   0.861
 4744SOL    HW215132   1.298   4.503   0.926
 4745SOL     OW15133   3.164   3.531   5.565
 4745SOL    HW115134   3.220   3.614   5.559
 4745SOL    HW215135   3.093   3.544   5.635
 4746SOL     OW15136   5.471   6.176   2.717
 4746SOL    HW115137   5.564   6.158   2.748
 4746SOL    HW215138   5.445   6.107   2.649
 4747SOL     OW15139   1.557   3.857   0.046
 4747SOL    HW115140   1.495   3.869   6.993
 4747SOL    HW215141   1.507   3.817   0.123
 4748SOL     OW15142   2.427   5.370   1.009
 4748SOL    HW115143   2.371   5.362   0.927
 4748SOL    HW215144   2.508   5.425   0.990
 4749SOL     OW15145   2.023   6.086   6.165
 4749SOL    HW115146   1.969   6.026   6.106
 4749SOL    HW215147   2.120   6.064   6.155
 4750SOL     OW15148   0.040   3.837   4.899
 4750SOL    HW115149   7.022   3.928   4.896
 4750SOL    HW215150   0.138   3.846   4.915
 4751SOL     OW15151   3.949   2.210   2.594
 4751SOL    HW115152   3.858   2.193   2.557
 4751SOL    HW215153   3.942   2.236   2.690
 4752SOL     OW15154   4.036   1.332   6.604
 4752SOL    HW115155   4.070   1.304   6.693
 4752SOL    HW215156   4.111   1.331   6.538
 4753SOL     OW15157   6.451   0.393   3.913
 4753SOL    HW115158   6.546   0.366   3.928
 4753SOL    HW215159   6.429   0.472   3.970
 4754SOL     OW15160   5.671   4.725   4.875
 4754SOL    HW115161   5.571   4.721   4.878
 4754SOL    HW215162   5.700   4.752   4.783
 4755SOL     OW15163   3.105   0.893   0.342
 4755SOL    HW115164   3.011   0.882   0.373
 4755SOL    HW215165   3.106   0.903   0.243
 4756SOL     OW15166   5.938   2.866   6.632
 4756SOL    HW115167   5.918   2.821   6.545
 4756SOL    HW215168   5.983   2.802   6.693
 4757SOL     OW15169   2.521   1.762   1.305
 4757SOL    HW115170   2.542   1.667   1.329
 4757SOL    HW215171   2.603   1.818   1.316
 4758SOL     OW15172   1.797   6.504   3.553
 4758SOL    HW115173   1.843   6.505   3.464
 4758SOL    HW215174   1.698   6.499   3.539
 4759SOL     OW15175   6.919   4.464   5.219
 4759SOL    HW115176   6.827   4.452   5.182
 4759SOL    HW215177   6.934   4.561   5.238
 4760SOL     OW15178   2.356   1.853   0.127
 4760SOL    HW115179   2.317   1.898   0.208
 4760SOL    HW215180   2.283   1.818   0.070
 4761SOL     OW15181   0.882   6.181   0.964
 4761SOL    HW115182   0.930   6.212   1.046
 4761SOL    HW215183   0.804   6.124   0.991
 4762SOL     OW15184   1.605   5.464   1.761
 4762SOL    HW115185   1.647   5.443   1.850
 4762SOL    HW215186   1.669   5.440   1.688
 4763SOL     OW15187   6.228   0.191   2.550
 4763SOL    HW115188   6.271   0.116   2.500
 4763SOL    HW215189   6.282   0.274   2.538
 4764SOL     OW15190   5.003   3.838   4.940
 4764SOL    HW115191   5.090   3.794   4.915
 4764SOL    HW215192   4.934   3.768   4.957
 4765SOL     OW15193   4.524   0.598   5.289
 4765SOL    HW115194   4.491   0.689   5.262
 4765SOL    HW215195   4.492   0.577   5.381
 4766SOL     OW15196   5.724   5.758   3.593
 4766SOL    HW115197   5.790   5.822   3.633
 4766SOL    HW215198   5.649   5.810   3.552
 4767SOL     OW15199   2.676   5.711   5.075
 4767SOL    HW115200   2.601   5.775   5.059
 4767SOL    HW215201   2.659   5.626   5.026
 4768SOL     OW15202   4.684   2.119   6.143
 4768SOL    HW115203   4.663   2.111   6.045
 4768SOL    HW215204   4.640   2.044   6.192
 4769SOL     OW15205   4.835   5.537   6.772
 4769SOL    HW115206   4.908   5.598   6.743
 4769SOL    HW215207   4.869   5.443   6.773
 4770SOL     OW15208   6.678   1.436   4.243
 4770SOL    HW115209   6.754   1.491   4.212
 4770SOL    HW215210   6.694   1.340   4.220
 4771SOL     OW15211   2.636   5.738   5.636
 4771SOL    HW115212   2.655   5.691   5.722
 4771SOL    HW215213   2.708   5.717   5.570
 4772SOL     OW15214   4.119   5.200   0.421
 4772SOL    HW115215   4.039   5.188   0.480
 4772SOL    HW215216   4.107   5.147   0.337
 4773SOL     OW15217   6.857   5.229   4.641
 4773SOL    HW115218   6.864   5.167   4.719
 4773SOL    HW215219   6.943   5.280   4.631
 4774SOL     OW15220   2.077   3.547   1.345
 4774SOL    HW115221   2.094   3.501   1.257
 4774SOL    HW215222   1.994   3.510   1.387
 4775SOL     OW15223   5.994   6.754   2.932
 4775SOL    HW115224   6.040   6.727   3.017
 4775SOL    HW215225   6.016   6.849   2.911
 4776SOL     OW15226   1.655   6.566   5.711
 4776SOL    HW115227   1.656   6.573   5.811
 4776SOL    HW215228   1.561   6.571   5.678
 4777SOL     OW15229   1.641   5.046   1.194
 4777SOL    HW115230   1.544   5.037   1.172
 4777SOL    HW215231   1.653   5.034   1.293
 4778SOL     OW15232   6.459   3.087   3.945
 4778SOL    HW115233   6.424   3.075   3.853
 4778SOL    HW215234   6.507   3.174   3.951
 4779SOL     OW15235   5.750   6.195   2.360
 4779SOL    HW115236   5.765   6.285   2.318
 4779SOL    HW215237   5.835   6.142   2.355
 4780SOL     OW15238   6.060   2.152   6.973
 4780SOL    HW115239   5.993   2.141   6.900
 4780SOL    HW215240   6.024   2.215   0.018
 4781SOL     OW15241   2.753   5.610   2.928
 4781SOL    HW115242   2.802   5.597   3.014
 4781SOL    HW215243   2.759   5.706   2.900
 4782SOL     OW15244   6.164   5.308   6.928
 4782SOL    HW115245   6.197   5.402   6.938
 4782SOL    HW215246   6.066   5.308   6.911
 4783SOL     OW15247   4.970   3.951   0.015
 4783SOL    HW115248   5.009   4.027   6.987
 4783SOL    HW215249   5.044   3.901   0.060
 4784SOL     OW15250   6.302   2.983   6.109
 4784SOL    HW115251   6.266   3.034   6.031
 4784SOL    HW215252   6.368   2.915   6.076
 4785SOL     OW15253   1.161   6.016   3.079
 4785SOL    HW115254   1.222   6.071   3.021
 4785SOL    HW215255   1.213   5.978   3.156
 4786SOL     OW15256   2.494   0.348   0.731
 4786SOL    HW115257   2.429   0.341   0.807
 4786SOL    HW215258   2.456   0.302   0.651
 4787SOL     OW15259   4.139   1.102   2.938
 4787SOL    HW115260   4.069   1.151   2.990
 4787SOL    HW215261   4.229   1.142   2.957
 4788SOL     OW15262   6.405   5.984   6.901
 4788SOL    HW115263   6.438   5.893   6.924
 4788SOL    HW215264   6.453   6.018   6.820
 4789SOL     OW15265   5.214   1.621   1.704
 4789SOL    HW115266   5.220   1.703   1.760
 4789SOL    HW215267   5.211   1.646   1.607
 4790SOL     OW15268   5.908   1.301   5.506
 4790SOL    HW115269   5.910   1.219   5.448
 4790SOL    HW215270   5.815   1.319   5.535
 4791SOL     OW15271   0.370   3.100   1.206
 4791SOL    HW115272   0.394   3.197   1.213
 4791SOL    HW215273   0.427   3.047   1.268
 4792SOL     OW15274   2.434   4.651   3.794
 4792SOL    HW115275   2.410   4.705   3.874
 4792SOL    HW215276   2.485   4.708   3.730
 4793SOL     OW15277   2.273   2.842   5.259
 4793SOL    HW115278   2.273   2.905   5.336
 4793SOL    HW215279   2.323   2.884   5.182
 4794SOL     OW15280   5.376   0.048   5.019
 4794SOL    HW115281   5.382   0.043   4.919
 4794SOL    HW215282   5.445   7.013   5.060
 4795SOL     OW15283   6.369   2.050   4.148
 4795SOL    HW115284   6.326   2.018   4.232
 4795SOL    HW215285   6.299   2.064   4.078
 4796SOL     OW15286   4.848   1.367   4.857
 4796SOL    HW115287   4.793   1.398   4.779
 4796SOL    HW215288   4.790   1.358   4.938
 4797SOL     OW15289   0.653   6.531   5.322
 4797SOL    HW115290   0.719   6.458   5.340
 4797SOL    HW215291   0.626   6.573   5.409
 4798SOL     OW15292   0.108   4.160   5.681
 4798SOL    HW115293   0.177   4.109   5.629
 4798SOL    HW215294   0.058   4.221   5.619
 4799SOL     OW15295   3.761   1.806   0.727
 4799SOL    HW115296   3.706   1.724   0.713
 4799SOL    HW215297   3.856   1.787   0.703
 4800SOL     OW15298   2.570   3.056   6.864
 4800SOL    HW115299   2.569   2.985   6.795
 4800SOL    HW215300   2.566   3.146   6.820
 4801SOL     OW15301   3.179   2.414   6.961
 4801SOL    HW115302   3.207   2.319   6.953
 4801SOL    HW215303   3.207   2.464   6.878
 4802SOL     OW15304   0.534   6.202   2.069
 4802SOL    HW115305   0.562   6.296   2.053
 4802SOL    HW215306   0.462   6.199   2.139
 4803SOL     OW15307   6.988   4.381   6.567
 4803SOL    HW115308   0.033   4.452   6.555
 4803SOL    HW215309   6.902   4.410   6.524
 4804SOL     OW15310   6.837   6.226   1.884
 4804SOL    HW115311   6.833   6.190   1.977
 4804SOL    HW215312   6.898   6.169   1.828
 4805SOL     OW15313   5.660   1.374   1.880
 4805SOL    HW115314   5.605   1.427   1.815
 4805SOL    HW215315   5.757   1.392   1.863
 4806SOL     OW15316   0.908   4.550   2.592
 4806SOL    HW115317   0.870   4.479   2.651
 4806SOL    HW215318   0.876   4.537   2.498
 4807SOL     OW15319   0.448   4.986   0.333
 4807SOL    HW115320   0.380   5.006   0.263
 4807SOL    HW215321   0.408   5.002   0.423
 4808SOL     OW15322   4.692   5.198   0.483
 4808SOL    HW115323   4.700   5.231   0.577
 4808SOL    HW215324   4.595   5.194   0.458
 4809SOL     OW15325   3.866   5.301   0.278
 4809SOL    HW115326   3.849   5.389   0.323
 4809SOL    HW215327   3.911   5.316   0.190
 4810SOL     OW15328   1.621   4.249   2.632
 4810SOL    HW115329   1.653   4.178   2.693
 4810SOL    HW215330   1.556   4.210   2.566
 4811SOL     OW15331   2.961   4.111   1.791
 4811SOL    HW115332   2.868   4.075   1.780
 4811SOL    HW215333   3.014   4.048   1.849
 4812SOL     OW15334   0.714   5.823   2.231
 4812SOL    HW115335   0.643   5.877   2.186
 4812SOL    HW215336   0.776   5.885   2.280
 4813SOL     OW15337   5.810   1.695   6.917
 4813SOL    HW115338   5.763   1.670   6.832
 4813SOL    HW215339   5.788   1.790   6.940
 4814SOL     OW15340   0.163   3.193   0.974
 4814SOL    HW115341   0.119   3.283   0.969
 4814SOL    HW215342   0.245   3.199   1.030
 4815SOL     OW15343   5.118   3.886   2.581
 4815SOL    HW115344   5.203   3.939   2.585
 4815SOL    HW215345   5.140   3.790   2.564
 4816SOL     OW15346   2.353   4.806   1.217
 4816SOL    HW115347   2.364   4.904   1.198
 4816SOL    HW215348   2.330   4.794   1.314
 4817SOL     OW15349   2.432   1.669   0.468
 4817SOL    HW115350   2.479   1.688   0.382
 4817SOL    HW215351   2.466   1.583   0.507
 4818SOL     OW15352   0.293   0.160   4.768
 4818SOL    HW115353   0.272   0.113   4.683
 4818SOL    HW215354   0.390   0.184   4.770
 4819SOL     OW15355   2.308   2.246   1.272
 4819SOL    HW115356   2.374   2.199   1.213
 4819SOL    HW215357   2.318   2.345   1.261
 4820SOL     OW15358   6.723   2.367   1.915
 4820SOL    HW115359   6.648   2.328   1.968
 4820SOL    HW215360   6.722   2.329   1.822
 4821SOL     OW15361   0.640   6.700   2.426
 4821SOL    HW115362   0.544   6.718   2.449
 4821SOL    HW215363   0.698   6.766   2.472
 4822SOL     OW15364   2.177   3.215   4.335
 4822SOL    HW115365   2.161   3.157   4.255
 4822SOL    HW215366   2.204   3.158   4.413
 4823SOL     OW15367   1.315   0.615   4.127
 4823SOL    HW115368   1.332   0.626   4.029
 4823SOL    HW215369   1.221   0.585   4.142
 4824SOL     OW15370   5.145   2.182   4.176
 4824SOL    HW115371   5.068   2.231   4.215
 4824SOL    HW215372   5.130   2.083   4.185
 4825SOL     OW15373   1.975   2.073   4.902
 4825SOL    HW115374   1.929   2.073   4.814
 4825SOL    HW215375   2.012   1.981   4.920
 4826SOL     OW15376   0.288   1.304   6.073
 4826SOL    HW115377   0.365   1.260   6.027
 4826SOL    HW215378   0.322   1.366   6.143
 4827SOL     OW15379   6.350   1.572   1.356
 4827SOL    HW115380   6.332   1.550   1.452
 4827SOL    HW215381   6.295   1.650   1.328
 4828SOL     OW15382   5.277   3.220   1.034
 4828SOL    HW115383   5.188   3.216   1.079
 4828SOL    HW215384   5.342   3.163   1.082
 4829SOL     OW15385   4.347   6.734   6.556
 4829SOL    HW115386   4.352   6.824   6.514
 4829SOL    HW215387   4.368   6.741   6.654
 4830SOL     OW15388   4.518   6.663   3.855
 4830SOL    HW115389   4.573   6.583   3.881
 4830SOL    HW215390   4.426   6.634   3.831
 4831SOL     OW15391   0.051   4.578   6.184
 4831SOL    HW115392   7.005   4.621   6.127
 4831SOL    HW215393   0.101   4.511   6.129
 4832SOL     OW15394   3.221   3.377   4.972
 4832SOL    HW115395   3.295   3.342   4.914
 4832SOL    HW215396   3.147   3.412   4.914
 4833SOL     OW15397   4.813   2.259   3.156
 4833SOL    HW115398   4.875   2.335   3.176
 4833SOL    HW215399   4.735   2.262   3.218
 4834SOL     OW15400   4.472   6.352   1.353
 4834SOL    HW115401   4.428   6.278   1.302
 4834SOL    HW215402   4.525   6.313   1.428
 4835SOL     OW15403   7.012   0.986   6.457
 4835SOL    HW115404   0.019   1.017   6.368
 4835SOL    HW215405   7.014   1.062   6.522
 4836SOL     OW15406   5.118   2.686   4.516
 4836SOL    HW115407   5.122   2.778   4.555
 4836SOL    HW215408   5.097   2.620   4.588
 4837SOL     OW15409   6.355   4.139   2.336
 4837SOL    HW115410   6.372   4.046   2.303
 4837SOL    HW215411   6.429   4.199   2.308
 4838SOL     OW15412   0.813   5.093   0.726
 4838SOL    HW115413   0.821   5.048   0.638
 4838SOL    HW215414   0.826   5.026   0.799
 4839SOL     OW15415   1.902   2.828   6.635
 4839SOL    HW115416   1.905   2.926   6.658
 4839SOL    HW215417   1.948   2.776   6.706
 4840SOL     OW15418   6.635   5.496   5.920
 4840SOL    HW115419   6.661   5.528   6.011
 4840SOL    HW215420   6.540   5.522   5.901
 4841SOL     OW15421   2.871   5.967   2.314
 4841SOL    HW115422   2.956   5.920   2.290
 4841SOL    HW215423   2.793   5.907   2.296
 4842SOL     OW15424   3.806   4.834   2.658
 4842SOL    HW115425   3.889   4.784   2.681
 4842SOL    HW215426   3.753   4.851   2.741
 4843SOL     OW15427   6.365   2.925   0.673
 4843SOL    HW115428   6.442   2.890   0.726
 4843SOL    HW215429   6.362   3.024   0.680
 4844SOL     OW15430   6.679   3.361   5.529
 4844SOL    HW115431   6.757   3.388   5.585
 4844SOL    HW215432   6.677   3.415   5.445
 4845SOL     OW15433   5.381   5.472   5.738
 4845SOL    HW115434   5.411   5.445   5.829
 4845SOL    HW215435   5.432   5.553   5.709
 4846SOL     OW15436   0.165   3.089   3.676
 4846SOL    HW115437   0.072   3.055   3.688
 4846SOL    HW215438   0.173   3.178   3.720
 4847SOL     OW15439   2.723   1.132   6.112
 4847SOL    HW115440   2.761   1.178   6.192
 4847SOL    HW215441   2.634   1.092   6.135
 4848SOL     OW15442   1.937   0.786   3.970
 4848SOL    HW115443   2.007   0.802   3.900
 4848SOL    HW215444   1.861   0.850   3.957
 4849SOL     OW15445   1.329   6.818   6.650
 4849SOL    HW115446   1.344   6.890   6.717
 4849SOL    HW215447   1.237   6.825   6.613
 4850SOL     OW15448   4.103   1.777   2.521
 4850SOL    HW115449   4.091   1.872   2.494
 4850SOL    HW215450   4.020   1.726   2.498
 4851SOL     OW15451   4.386   6.259   5.630
 4851SOL    HW115452   4.295   6.256   5.671
 4851SOL    HW215453   4.446   6.194   5.676
 4852SOL     OW15454   1.532   6.071   5.100
 4852SOL    HW115455   1.583   6.149   5.064
 4852SOL    HW215456   1.512   6.007   5.026
 4853SOL     OW15457   3.295   1.062   3.317
 4853SOL    HW115458   3.198   1.057   3.295
 4853SOL    HW215459   3.320   1.156   3.341
 4854SOL     OW15460   4.704   0.327   1.552
 4854SOL    HW115461   4.751   0.239   1.557
 4854SOL    HW215462   4.610   0.317   1.585
 4855SOL     OW15463   6.314   2.654   2.812
 4855SOL    HW115464   6.249   2.688   2.881
 4855SOL    HW215465   6.303   2.555   2.803
 4856SOL     OW15466   1.728   3.603   2.635
 4856SOL    HW115467   1.660   3.531   2.622
 4856SOL    HW215468   1.704   3.658   2.716
 4857SOL     OW15469   2.121   2.260   5.104
 4857SOL    HW115470   2.120   2.357   5.079
 4857SOL    HW215471   2.036   2.217   5.072
 4858SOL     OW15472   0.749   0.808   4.571
 4858SOL    HW115473   0.744   0.787   4.668
 4858SOL    HW215474   0.780   0.902   4.559
 4859SOL     OW15475   0.358   0.712   4.902
 4859SOL    HW115476   0.349   0.775   4.825
 4859SOL    HW215477   0.274   0.659   4.911
 4860SOL     OW15478   4.094   4.489   1.628
 4860SOL    HW115479   4.147   4.538   1.559
 4860SOL    HW215480   4.141   4.403   1.650
 4861SOL     OW15481   5.530   4.277   0.235
 4861SOL    HW115482   5.471   4.354   0.260
 4861SOL    HW215483   5.585   4.251   0.315
 4862SOL     OW15484   2.697   4.777   4.605
 4862SOL    HW115485   2.757   4.766   4.685
 4862SOL    HW215486   2.613   4.724   4.620
 4863SOL     OW15487   6.102   4.015   1.812
 4863SOL    HW115488   6.194   4.017   1.851
 4863SOL    HW215489   6.059   4.105   1.822
 4864SOL     OW15490   3.999   1.343   2.757
 4864SOL    HW115491   3.976   1.310   2.849
 4864SOL    HW215492   3.967   1.437   2.747
 4865SOL     OW15493   2.261   7.009   4.420
 4865SOL    HW115494   2.303   0.071   4.393
 4865SOL    HW215495   2.174   6.998   4.373
 4866SOL     OW15496   6.247   2.715   1.930
 4866SOL    HW115497   6.303   2.794   1.954
 4866SOL    HW215498   6.306   2.638   1.905
 4867SOL     OW15499   3.227   5.208   1.944
 4867SOL    HW115500   3.230   5.246   1.852
 4867SOL    HW215501   3.319   5.180   1.972
 4868SOL     OW15502   6.784   4.805   2.858
 4868SOL    HW115503   6.761   4.708   2.845
 4868SOL    HW215504   6.772   4.854   2.772
 4869SOL     OW15505   1.234   1.013   1.903
 4869SOL    HW115506   1.244   1.072   1.984
 4869SOL    HW215507   1.315   0.955   1.894
 4870SOL     OW15508   0.075   5.700   2.105
 4870SOL    HW115509   0.144   5.672   2.039
 4870SOL    HW215510   0.065   5.629   2.175
 4871SOL     OW15511   1.573   1.458   3.403
 4871SOL    HW115512   1.556   1.393   3.329
 4871SOL    HW215513   1.618   1.411   3.478
 4872SOL     OW15514   5.723   6.372   3.728
 4872SOL    HW115515   5.651   6.364   3.797
 4872SOL    HW215516   5.811   6.348   3.768
 4873SOL     OW15517   6.893   5.154   3.301
 4873SOL    HW115518   6.963   5.083   3.299
 4873SOL    HW215519   6.900   5.205   3.388
 4874SOL     OW15520   6.049   3.692   2.898
 4874SOL    HW115521   6.001   3.615   2.855
 4874SOL    HW215522   6.147   3.685   2.878
 4875SOL     OW15523   6.135   2.607   1.575
 4875SOL    HW115524   6.173   2.515   1.568
 4875SOL    HW215525   6.191   2.670   1.521
 4876SOL     OW15526   5.680   1.492   4.102
 4876SOL    HW115527   5.637   1.417   4.053
 4876SOL    HW215528   5.669   1.576   4.049
 4877SOL     OW15529   1.421   1.739   6.636
 4877SOL    HW115530   1.397   1.687   6.718
 4877SOL    HW215531   1.338   1.779   6.597
 4878SOL     OW15532   6.523   0.798   2.769
 4878SOL    HW115533   6.608   0.752   2.793
 4878SOL    HW215534   6.476   0.826   2.852
 4879SOL     OW15535   4.541   6.865   2.898
 4879SOL    HW115536   4.602   6.883   2.975
 4879SOL    HW215537   4.523   6.767   2.892
 4880SOL     OW15538   5.308   3.196   0.151
 4880SOL    HW115539   5.278   3.103   0.172
 4880SOL    HW215540   5.391   3.194   0.097
 4881SOL     OW15541   1.510   0.978   6.566
 4881SOL    HW115542   1.477   1.050   6.626
 4881SOL    HW215543   1.447   0.900   6.569
 4882SOL     OW15544   5.112   1.619   4.903
 4882SOL    HW115545   5.140   1.629   4.998
 4882SOL    HW215546   5.144   1.698   4.850
 4883SOL     OW15547   4.971   4.639   1.830
 4883SOL    HW115548   4.911   4.715   1.806
 4883SOL    HW215549   4.997   4.645   1.926
 4884SOL     OW15550   3.099   6.606   1.485
 4884SOL    HW115551   3.045   6.522   1.477
 4884SOL    HW215552   3.164   6.611   1.409
 4885SOL     OW15553   2.484   5.141   2.041
 4885SOL    HW115554   2.435   5.069   1.991
 4885SOL    HW215555   2.429   5.224   2.042
 4886SOL     OW15556   1.252   5.298   1.165
 4886SOL    HW115557   1.161   5.255   1.166
 4886SOL    HW215558   1.242   5.396   1.147
 4887SOL     OW15559   0.763   0.163   2.955
 4887SOL    HW115560   0.835   0.145   3.022
 4887SOL    HW215561   0.731   0.077   2.916
 4888SOL     OW15562   2.476   6.765   3.815
 4888SOL    HW115563   2.476   6.675   3.858
 4888SOL    HW215564   2.524   6.830   3.874
 4889SOL     OW15565   6.948   1.391   5.771
 4889SOL    HW115566   6.875   1.395   5.840
 4889SOL    HW215567   0.012   1.405   5.816
 4890SOL     OW15568   0.876   1.362   6.697
 4890SOL    HW115569   0.829   1.401   6.776
 4890SOL    HW215570   0.861   1.263   6.694
 4891SOL     OW15571   1.398   4.565   6.667
 4891SOL    HW115572   1.338   4.501   6.619
 4891SOL    HW215573   1.491   4.558   6.630
 4892SOL     OW15574   3.561   5.697   1.798
 4892SOL    HW115575   3.582   5.792   1.821
 4892SOL    HW215576   3.538   5.690   1.701
 4893SOL     OW15577   6.716   3.507   1.744
 4893SOL    HW115578   6.713   3.488   1.842
 4893SOL    HW215579   6.645   3.455   1.697
 4894SOL     OW15580   2.464   1.273   3.193
 4894SOL    HW115581   2.468   1.341   3.120
 4894SOL    HW215582   2.463   1.320   3.281
 4895SOL     OW15583   0.456   4.531   3.614
 4895SOL    HW115584   0.398   4.518   3.695
 4895SOL    HW215585   0.398   4.556   3.536
 4896SOL     OW15586   1.741   5.123   2.177
 4896SOL    HW115587   1.820   5.178   2.149
 4896SOL    HW215588   1.754   5.091   2.271
 4897SOL     OW15589   2.347   3.874   5.802
 4897SOL    HW115590   2.394   3.892   5.716
 4897SOL    HW215591   2.348   3.957   5.859
 4898SOL     OW15592   4.151   0.873   4.617
 4898SOL    HW115593   4.144   0.778   4.646
 4898SOL    HW215594   4.080   0.927   4.661
 4899SOL     OW15595   5.498   5.341   3.195
 4899SOL    HW115596   5.467   5.429   3.160
 4899SOL    HW215597   5.595   5.329   3.174
 4900SOL     OW15598   2.234   6.234   4.857
 4900SOL    HW115599   2.281   6.297   4.920
 4900SOL    HW215600   2.301   6.195   4.793
 4901SOL     OW15601   3.576   0.424   5.630
 4901SOL    HW115602   3.596   0.519   5.652
 4901SOL    HW215603   3.644   0.364   5.673
 4902SOL     OW15604   2.174   1.844   4.229
 4902SOL    HW115605   2.139   1.921   4.175
 4902SOL    HW215606   2.198   1.876   4.320
 4903SOL     OW15607   3.826   6.158   6.520
 4903SOL    HW115608   3.900   6.225   6.523
 4903SOL    HW215609   3.742   6.200   6.555
 4904SOL     OW15610   2.189   0.150   3.989
 4904SOL    HW115611   2.239   0.143   3.903
 4904SOL    HW215612   2.161   0.059   4.019
 4905SOL     OW15613   4.287   6.847   2.778
 4905SOL    HW115614   4.384   6.857   2.797
 4905SOL    HW215615   4.267   6.751   2.756
 4906SOL     OW15616   4.943   2.091   6.135
 4906SOL    HW115617   4.988   2.179   6.151
 4906SOL    HW215618   4.846   2.099   6.154
 4907SOL     OW15619   4.402   5.945   2.131
 4907SOL    HW115620   4.331   5.886   2.171
 4907SOL    HW215621   4.432   6.011   2.200
 4908SOL     OW15622   5.253   5.099   6.738
 4908SOL    HW115623   5.238   5.178   6.678
 4908SOL    HW215624   5.203   5.020   6.703
 4909SOL     OW15625   6.803   0.265   4.169
 4909SOL    HW115626   6.898   0.296   4.164
 4909SOL    HW215627   6.798   0.182   4.225
 4910SOL     OW15628   5.747   0.558   4.836
 4910SOL    HW115629   5.672   0.540   4.899
 4910SOL    HW215630   5.829   0.509   4.865
 4911SOL     OW15631   1.339   3.460   4.241
 4911SOL    HW115632   1.264   3.479   4.177
 4911SOL    HW215633   1.426   3.463   4.192
 4912SOL     OW15634   4.994   1.672   6.685
 4912SOL    HW115635   5.015   1.725   6.602
 4912SOL    HW215636   4.913   1.710   6.729
 4913SOL     OW15637   3.614   2.483   5.332
 4913SOL    HW115638   3.621   2.583   5.326
 4913SOL    HW215639   3.705   2.443   5.318
 4914SOL     OW15640   3.724   0.701   5.163
 4914SOL    HW115641   3.778   0.695   5.079
 4914SOL    HW215642   3.756   0.632   5.228
 4915SOL     OW15643   4.218   6.914   5.497
 4915SOL    HW115644   4.239   6.819   5.520
 4915SOL    HW215645   4.253   6.974   5.569
 4916SOL     OW15646   1.065   0.024   4.052
 4916SOL    HW115647   0.996   6.991   4.006
 4916SOL    HW215648   1.125   6.990   4.106
 4917SOL     OW15649   2.656   5.095   1.463
 4917SOL    HW115650   2.699   5.006   1.479
 4917SOL    HW215651   2.581   5.107   1.529
 4918SOL     OW15652   5.079   5.682   2.274
 4918SOL    HW115653   5.041   5.634   2.194
 4918SOL    HW215654   5.009   5.742   2.313
 4919SOL     OW15655   2.708   2.704   0.508
 4919SOL    HW115656   2.656   2.755   0.440
 4919SOL    HW215657   2.800   2.743   0.516
 4920SOL     OW15658   6.079   0.854   4.100
 4920SOL    HW115659   6.030   0.926   4.149
 4920SOL    HW215660   6.026   0.769   4.104
 4921SOL     OW15661   1.038   4.985   0.312
 4921SOL    HW115662   1.111   4.947   0.255
 4921SOL    HW215663   1.071   5.067   0.358
 4922SOL     OW15664   2.162   2.558   5.026
 4922SOL    HW115665   2.168   2.629   5.096
 4922SOL    HW215666   2.222   2.581   4.950
 4923SOL     OW15667   4.235   1.778   2.771
 4923SOL    HW115668   4.211   1.766   2.675
 4923SOL    HW215669   4.264   1.690   2.810
 4924SOL     OW15670   3.114   1.776   4.818
 4924SOL    HW115671   3.059   1.717   4.760
 4924SOL    HW215672   3.057   1.851   4.853
 4925SOL     OW15673   7.000   6.546   2.593
 4925SOL    HW115674   7.009   6.563   2.495
 4925SOL    HW215675   0.065   6.522   2.631
 4926SOL     OW15676   5.227   1.323   0.424
 4926SOL    HW115677   5.277   1.252   0.473
 4926SOL    HW215678   5.245   1.316   0.326
 4927SOL     OW15679   3.479   3.893   4.046
 4927SOL    HW115680   3.510   3.802   4.075
 4927SOL    HW215681   3.426   3.935   4.120
 4928SOL     OW15682   1.516   0.151   0.076
 4928SOL    HW115683   1.583   0.092   0.033
 4928SOL    HW215684   1.499   0.121   0.170
 4929SOL     OW15685   0.639   5.729   4.765
 4929SOL    HW115686   0.564   5.791   4.741
 4929SOL    HW215687   0.629   5.643   4.715
 4930SOL     OW15688   4.908   0.837   3.342
 4930SOL    HW115689   4.948   0.750   3.371
 4930SOL    HW215690   4.937   0.857   3.248
 4931SOL     OW15691   6.983   6.581   0.596
 4931SOL    HW115692   0.045   6.623   0.622
 4931SOL    HW215693   6.974   6.581   0.497
 4932SOL     OW15694   2.480   3.190   1.654
 4932SOL    HW115695   2.413   3.258   1.682
 4932SOL    HW215696   2.437   3.100   1.649
 4933SOL     OW15697   2.448   0.233   3.347
 4933SOL    HW115698   2.462   0.216   3.250
 4933SOL    HW215699   2.536   0.229   3.395
 4934SOL     OW15700   2.693   5.734   2.495
 4934SOL    HW115701   2.606   5.755   2.539
 4934SOL    HW215702   2.677   5.709   2.399
 4935SOL     OW15703   1.744   1.332   6.383
 4935SOL    HW115704   1.731   1.233   6.376
 4935SOL    HW215705   1.789   1.366   6.301
 4936SOL     OW15706   2.515   4.517   1.937
 4936SOL    HW115707   2.606   4.551   1.959
 4936SOL    HW215708   2.508   4.420   1.962
 4937SOL     OW15709   6.349   2.874   5.576
 4937SOL    HW115710   6.396   2.847   5.660
 4937SOL    HW215711   6.260   2.829   5.571
 4938SOL     OW15712   2.106   5.488   5.573
 4938SOL    HW115713   2.078   5.413   5.514
 4938SOL    HW215714   2.072   5.574   5.536
 4939SOL     OW15715   6.656   2.038   4.133
 4939SOL    HW115716   6.713   1.978   4.189
 4939SOL    HW215717   6.577   2.069   4.186
 4940SOL     OW15718   0.063   0.867   5.271
 4940SOL    HW115719   0.136   0.830   5.330
 4940SOL    HW215720   0.054   0.809   5.190
 4941SOL     OW15721   5.293   2.490   5.392
 4941SOL    HW115722   5.393   2.498   5.396
 4941SOL    HW215723   5.268   2.424   5.321
 4942SOL     OW15724   5.234   2.560   6.182
 4942SOL    HW115725   5.267   2.645   6.142
 4942SOL    HW215726   5.175   2.581   6.260
 4943SOL     OW15727   4.477   3.835   6.467
 4943SOL    HW115728   4.556   3.831   6.529
 4943SOL    HW215729   4.414   3.906   6.498
 4944SOL     OW15730   1.946   4.761   1.888
 4944SOL    HW115731   2.013   4.812   1.834
 4944SOL    HW215732   1.921   4.814   1.969
 4945SOL     OW15733   1.019   0.306   4.353
 4945SOL    HW115734   1.012   0.392   4.303
 4945SOL    HW215735   0.941   0.247   4.331
 4946SOL     OW15736   1.238   4.622   0.136
 4946SOL    HW115737   1.150   4.635   0.089
 4946SOL    HW215738   1.222   4.591   0.229
 4947SOL     OW15739   2.161   1.067   1.050
 4947SOL    HW115740   2.144   1.114   0.964
 4947SOL    HW215741   2.147   0.969   1.038
 4948SOL     OW15742   1.396   2.784   2.305
 4948SOL    HW115743   1.416   2.689   2.325
 4948SOL    HW215744   1.303   2.791   2.268
 4949SOL     OW15745   5.361   6.074   6.240
 4949SOL    HW115746   5.333   6.162   6.278
 4949SOL    HW215747   5.461   6.072   6.231
 4950SOL     OW15748   2.449   5.414   4.583
 4950SOL    HW115749   2.538   5.385   4.547
 4950SOL    HW215750   2.463   5.478   4.659
 4951SOL     OW15751   6.100   1.868   5.182
 4951SOL    HW115752   6.089   1.774   5.216
 4951SOL    HW215753   6.166   1.917   5.239
 4952SOL     OW15754   0.485   1.115   5.754
 4952SOL    HW115755   0.392   1.124   5.719
 4952SOL    HW215756   0.483   1.099   5.853
 4953SOL     OW15757   2.498   5.776   2.694
 4953SOL    HW115758   2.552   5.857   2.715
 4953SOL    HW215759   2.482   5.724   2.778
 4954SOL     OW15760   4.222   3.112   0.151
 4954SOL    HW115761   4.248   3.033   0.205
 4954SOL    HW215762   4.129   3.141   0.176
 4955SOL     OW15763   3.083   6.572   6.409
 4955SOL    HW115764   3.083   6.642   6.338
 4955SOL    HW215765   3.041   6.489   6.374
 4956SOL     OW15766   2.316   0.003   5.533
 4956SOL    HW115767   2.350   0.095   5.553
 4956SOL    HW215768   2.367   6.989   5.456
 4957SOL     OW15769   6.206   2.177   1.940
 4957SOL    HW115770   6.221   2.192   2.038
 4957SOL    HW215771   6.269   2.106   1.907
 4958SOL     OW15772   7.010   5.034   5.451
 4958SOL    HW115773   0.067   4.985   5.419
 4958SOL    HW215774   0.008   5.083   5.535
 4959SOL     OW15775   6.557   1.493   0.073
 4959SOL    HW115776   6.573   1.398   0.047
 4959SOL    HW215777   6.617   1.552   0.019
 4960SOL     OW15778   3.240   5.067   3.703
 4960SOL    HW115779   3.269   5.145   3.760
 4960SOL    HW215780   3.232   4.986   3.760
 4961SOL     OW15781   4.418   1.151   6.216
 4961SOL    HW115782   4.451   1.076   6.272
 4961SOL    HW215783   4.462   1.148   6.126
 4962SOL     OW15784   6.467   2.165   0.363
 4962SOL    HW115785   6.370   2.142   0.374
 4962SOL    HW215786   6.511   2.095   0.306
 4963SOL     OW15787   6.154   5.481   0.394
 4963SOL    HW115788   6.083   5.527   0.448
 4963SOL    HW215789   6.130   5.385   0.381
 4964SOL     OW15790   2.994   0.261   3.641
 4964SOL    HW115791   3.052   0.258   3.722
 4964SOL    HW215792   2.931   0.338   3.647
 4965SOL     OW15793   0.073   0.759   2.733
 4965SOL    HW115794   7.011   0.788   2.691
 4965SOL    HW215795   0.088   0.662   2.717
 4966SOL     OW15796   2.510   6.834   5.052
 4966SOL    HW115797   2.580   6.771   5.020
 4966SOL    HW215798   2.430   6.827   4.993
 4967SOL     OW15799   3.649   5.695   5.730
 4967SOL    HW115800   3.698   5.715   5.644
 4967SOL    HW215801   3.597   5.611   5.719
 4968SOL     OW15802   6.519   1.956   3.719
 4968SOL    HW115803   6.519   2.028   3.650
 4968SOL    HW215804   6.610   1.948   3.759
 4969SOL     OW15805   2.740   6.956   2.880
 4969SOL    HW115806   2.705   6.876   2.830
 4969SOL    HW215807   2.811   7.001   2.827
 4970SOL     OW15808   1.756   2.805   2.876
 4970SOL    HW115809   1.752   2.796   2.975
 4970SOL    HW215810   1.741   2.715   2.834
 4971SOL     OW15811   6.202   5.870   3.743
 4971SOL    HW115812   6.181   5.852   3.839
 4971SOL    HW215813   6.237   5.786   3.701
 4972SOL     OW15814   1.594   3.266   0.401
 4972SOL    HW115815   1.604   3.305   0.493
 4972SOL    HW215816   1.505   3.223   0.393
 4973SOL     OW15817   1.766   7.018   2.367
 4973SOL    HW115818   1.677   6.975   2.386
 4973SOL    HW215819   1.819   6.958   2.307
 4974SOL     OW15820   6.022   4.662   0.894
 4974SOL    HW115821   5.954   4.727   0.927
 4974SOL    HW215822   6.051   4.688   0.802
 4975SOL     OW15823   5.403   4.273   5.678
 4975SOL    HW115824   5.367   4.187   5.713
 4975SOL    HW215825   5.503   4.268   5.674
 4976SOL     OW15826   2.401   0.562   3.108
 4976SOL    HW115827   2.471   0.508   3.060
 4976SOL    HW215828   2.428   0.573   3.203
 4977SOL     OW15829   3.911   4.523   0.262
 4977SOL    HW115830   3.899   4.621   0.270
 4977SOL    HW215831   3.844   4.486   0.198
 4978SOL     OW15832   6.899   3.646   4.816
 4978SOL    HW115833   6.979   3.703   4.837
 4978SOL    HW215834   6.906   3.559   4.866
 4979SOL     OW15835   0.402   0.198   6.063
 4979SOL    HW115836   0.376   0.172   5.970
 4979SOL    HW215837   0.326   0.180   6.125
 4980SOL     OW15838   5.290   6.551   3.133
 4980SOL    HW115839   5.276   6.452   3.128
 4980SOL    HW215840   5.313   6.586   3.042
 4981SOL     OW15841   5.203   6.196   6.861
 4981SOL    HW115842   5.159   6.193   6.771
 4981SOL    HW215843   5.141   6.158   6.930
 4982SOL     OW15844   2.625   1.467   6.131
 4982SOL    HW115845   2.572   1.538   6.177
 4982SOL    HW215846   2.563   1.406   6.081
 4983SOL     OW15847   5.829   2.588   5.002
 4983SOL    HW115848   5.884   2.671   4.995
 4983SOL    HW215849   5.811   2.552   4.911
 4984SOL     OW15850   5.657   4.238   3.740
 4984SOL    HW115851   5.745   4.284   3.749
 4984SOL    HW215852   5.620   4.252   3.648
 4985SOL     OW15853   6.153   6.390   3.653
 4985SOL    HW115854   6.117   6.347   3.736
 4985SOL    HW215855   6.090   6.372   3.577
 4986SOL     OW15856   6.289   4.106   1.999
 4986SOL    HW115857   6.209   4.086   2.055
 4986SOL    HW215858   6.360   4.148   2.056
 4987SOL     OW15859   1.151   0.492   1.260
 4987SOL    HW115860   1.197   0.546   1.331
 4987SOL    HW215861   1.054   0.516   1.258
 4988SOL     OW15862   5.236   0.761   3.536
 4988SOL    HW115863   5.184   0.700   3.476
 4988SOL    HW215864   5.263   0.712   3.618
 4989SOL     OW15865   4.801   7.001   1.831
 4989SOL    HW115866   4.827   6.969   1.740
 4989SOL    HW215867   4.742   6.934   1.875
 4990SOL     OW15868   1.781   2.056   5.156
 4990SOL    HW115869   1.732   2.140   5.180
 4990SOL    HW215870   1.799   2.055   5.057
 4991SOL     OW15871   6.371   4.664   4.607
 4991SOL    HW115872   6.403   4.754   4.637
 4991SOL    HW215873   6.272   4.666   4.593
 4992SOL     OW15874   4.892   0.985   4.635
 4992SOL    HW115875   4.864   1.051   4.565
 4992SOL    HW215876   4.987   0.959   4.620
 4993SOL     OW15877   3.083   5.571   4.239
 4993SOL    HW115878   3.040   5.637   4.300
 4993SOL    HW215879   3.180   5.562   4.263
 4994SOL     OW15880   2.113   6.981   3.181
 4994SOL    HW115881   2.189   6.926   3.216
 4994SOL    HW215882   2.091   6.953   3.088
 4995SOL     OW15883   0.134   2.712   5.743
 4995SOL    HW115884   0.229   2.743   5.738
 4995SOL    HW215885   0.097   2.732   5.833
 4996SOL     OW15886   1.247   1.119   2.688
 4996SOL    HW115887   1.229   1.084   2.596
 4996SOL    HW215888   1.182   1.080   2.752
 4997SOL     OW15889   5.412   2.083   3.356
 4997SOL    HW115890   5.346   2.151   3.324
 4997SOL    HW215891   5.374   1.991   3.345
 4998SOL     OW15892   2.070   4.137   5.112
 4998SOL    HW115893   2.150   4.082   5.087
 4998SOL    HW215894   2.069   4.221   5.059
 4999SOL     OW15895   6.093   4.406   0.623
 4999SOL    HW115896   6.112   4.335   0.555
 4999SOL    HW215897   5.995   4.424   0.626
 5000SOL     OW15898   2.567   6.954   3.503
 5000SOL    HW115899   2.615   6.874   3.464
 5000SOL    HW215900   2.622   0.012   3.487
 5001SOL     OW15901   0.406   4.183   0.567
 5001SOL    HW115902   0.404   4.095   0.518
 5001SOL    HW215903   0.331   4.186   0.633
 5002SOL     OW15904   0.895   3.342   3.385
 5002SOL    HW115905   0.987   3.308   3.404
 5002SOL    HW215906   0.841   3.341   3.469
 5003SOL     OW15907   2.529   6.438   2.687
 5003SOL    HW115908   2.502   6.451   2.782
 5003SOL    HW215909   2.626   6.414   2.683
 5004SOL     OW15910   3.383   5.033   5.716
 5004SOL    HW115911   3.450   4.984   5.772
 5004SOL    HW215912   3.311   5.069   5.774
 5005SOL     OW15913   3.260   2.392   0.686
 5005SOL    HW115914   3.289   2.310   0.638
 5005SOL    HW215915   3.296   2.390   0.780
 5006SOL     OW15916   5.190   0.131   0.538
 5006SOL    HW115917   5.270   0.156   0.593
 5006SOL    HW215918   5.199   0.036   0.508
 5007SOL     OW15919   1.501   0.272   6.726
 5007SOL    HW115920   1.468   0.189   6.769
 5007SOL    HW215921   1.601   0.275   6.731
 5008SOL     OW15922   6.573   6.690   3.349
 5008SOL    HW115923   6.473   6.684   3.345
 5008SOL    HW215924   6.603   6.775   3.303
 5009SOL     OW15925   1.536   6.260   0.833
 5009SOL    HW115926   1.606   6.192   0.855
 5009SOL    HW215927   1.577   6.352   0.838
 5010SOL     OW15928   3.379   3.435   2.891
 5010SOL    HW115929   3.332   3.499   2.830
 5010SOL    HW215930   3.452   3.389   2.840
 5011SOL     OW15931   1.810   3.783   2.855
 5011SOL    HW115932   1.804   3.866   2.799
 5011SOL    HW215933   1.899   3.782   2.902
 5012SOL     OW15934   5.242   4.507   6.504
 5012SOL    HW115935   5.240   4.409   6.483
 5012SOL    HW215936   5.200   4.558   6.428
 5013SOL     OW15937   4.861   1.761   0.036
 5013SOL    HW115938   4.903   1.671   0.026
 5013SOL    HW215939   4.811   1.784   6.977
 5014SOL     OW15940   5.439   4.376   0.911
 5014SOL    HW115941   5.340   4.360   0.911
 5014SOL    HW215942   5.487   4.288   0.909
 5015SOL     OW15943   4.655   2.189   4.281
 5015SOL    HW115944   4.635   2.189   4.183
 5015SOL    HW215945   4.641   2.097   4.318
 5016SOL     OW15946   2.392   2.293   0.971
 5016SOL    HW115947   2.363   2.389   0.958
 5016SOL    HW215948   2.314   2.239   1.004
 5017SOL     OW15949   1.737   1.951   0.134
 5017SOL    HW115950   1.756   2.049   0.127
 5017SOL    HW215951   1.670   1.936   0.207
 5018SOL     OW15952   0.146   4.310   2.213
 5018SOL    HW115953   0.136   4.401   2.252
 5018SOL    HW215954   0.111   4.241   2.277
 5019SOL     OW15955   1.100   4.691   6.656
 5019SOL    HW115956   1.042   4.741   6.592
 5019SOL    HW215957   1.195   4.721   6.646
 5020SOL     OW15958   4.986   6.746   6.125
 5020SOL    HW115959   4.987   6.807   6.046
 5020SOL    HW215960   5.077   6.705   6.138
 5021SOL     OW15961   1.580   1.874   5.982
 5021SOL    HW115962   1.623   1.938   6.044
 5021SOL    HW215963   1.648   1.811   5.945
 5022SOL     OW15964   1.223   0.866   0.402
 5022SOL    HW115965   1.230   0.940   0.469
 5022SOL    HW215966   1.289   0.794   0.424
 5023SOL     OW15967   6.404   3.341   0.863
 5023SOL    HW115968   6.327   3.390   0.902
 5023SOL    HW215969   6.372   3.286   0.785
 5024SOL     OW15970   5.920   5.799   2.771
 5024SOL    HW115971   6.008   5.844   2.785
 5024SOL    HW215972   5.846   5.861   2.797
 5025SOL     OW15973   3.885   2.118   2.120
 5025SOL    HW115974   3.809   2.162   2.073
 5025SOL    HW215975   3.903   2.028   2.080
 5026SOL     OW15976   6.301   6.069   6.238
 5026SOL    HW115977   6.328   6.086   6.143
 5026SOL    HW215978   6.264   6.154   6.277
 5027SOL     OW15979   1.077   6.410   2.267
 5027SOL    HW115980   1.026   6.327   2.288
 5027SOL    HW215981   1.055   6.439   2.174
 5028SOL     OW15982   0.688   0.432   3.288
 5028SOL    HW115983   0.702   0.399   3.381
 5028SOL    HW215984   0.601   0.399   3.253
 5029SOL     OW15985   0.289   2.725   3.005
 5029SOL    HW115986   0.299   2.732   2.906
 5029SOL    HW215987   0.368   2.766   3.050
 5030SOL     OW15988   6.499   0.213   6.411
 5030SOL    HW115989   6.472   0.231   6.317
 5030SOL    HW215990   6.557   0.288   6.444
 5031SOL     OW15991   5.972   0.827   4.700
 5031SOL    HW115992   5.966   0.888   4.621
 5031SOL    HW215993   5.886   0.829   4.750
 5032SOL     OW15994   1.384   3.603   0.870
 5032SOL    HW115995   1.464   3.584   0.813
 5032SOL    HW215996   1.362   3.522   0.924
 5033SOL     OW15997   3.313   6.499   6.527
 5033SOL    HW115998   3.233   6.548   6.491
 5033SOL    HW215999   3.333   6.421   6.468
 5034SOL     OW16000   5.967   1.205   2.765
 5034SOL    HW116001   5.948   1.222   2.669
 5034SOL    HW216002   5.896   1.147   2.804
 5035SOL     OW16003   0.048   4.339   0.452
 5035SOL    HW116004   0.095   4.384   0.527
 5035SOL    HW216005   0.032   4.243   0.475
 5036SOL     OW16006   0.164   5.080   6.977
 5036SOL    HW116007   0.168   5.153   6.908
 5036SOL    HW216008   0.183   5.119   0.043
 5037SOL     OW16009   5.287   2.438   2.992
 5037SOL    HW116010   5.380   2.443   3.029
 5037SOL    HW216011   5.271   2.517   2.933
 5038SOL     OW16012   2.201   4.058   6.437
 5038SOL    HW116013   2.156   4.042   6.349
 5038SOL    HW216014   2.299   4.071   6.422
 5039SOL     OW16015   3.179   3.901   5.570
 5039SOL    HW116016   3.090   3.917   5.527
 5039SOL    HW216017   3.187   3.959   5.651
 5040SOL     OW16018   2.131   5.178   5.806
 5040SOL    HW116019   2.225   5.175   5.771
 5040SOL    HW216020   2.130   5.221   5.896
 5041SOL     OW16021   1.564   1.908   1.666
 5041SOL    HW116022   1.566   1.957   1.753
 5041SOL    HW216023   1.556   1.974   1.591
 5042SOL     OW16024   6.075   3.244   0.849
 5042SOL    HW116025   6.069   3.191   0.764
 5042SOL    HW216026   6.090   3.181   0.925
 5043SOL     OW16027   2.708   1.095   5.822
 5043SOL    HW116028   2.729   1.103   5.919
 5043SOL    HW216029   2.672   1.183   5.789
 5044SOL     OW16030   0.072   6.003   2.399
 5044SOL    HW116031   0.066   6.031   2.495
 5044SOL    HW216032   7.007   5.970   2.368
 5045SOL     OW16033   6.034   2.754   0.248
 5045SOL    HW116034   6.081   2.748   0.336
 5045SOL    HW216035   5.935   2.745   0.262
 5046SOL     OW16036   3.454   4.154   3.933
 5046SOL    HW116037   3.473   4.213   4.012
 5046SOL    HW216038   3.487   4.062   3.952
 5047SOL     OW16039   0.380   3.368   2.267
 5047SOL    HW116040   0.402   3.415   2.353
 5047SOL    HW216041   0.461   3.321   2.232
 5048SOL     OW16042   0.544   1.096   1.970
 5048SOL    HW116043   0.478   1.107   2.044
 5048SOL    HW216044   0.615   1.032   1.997
 5049SOL     OW16045   6.388   2.170   4.772
 5049SOL    HW116046   6.354   2.148   4.863
 5049SOL    HW216047   6.477   2.215   4.779
 5050SOL     OW16048   1.032   0.507   2.068
 5050SOL    HW116049   1.006   0.530   2.162
 5050SOL    HW216050   1.103   0.437   2.070
 5051SOL     OW16051   4.315   3.467   0.947
 5051SOL    HW116052   4.355   3.458   0.855
 5051SOL    HW216053   4.217   3.448   0.942
 5052SOL     OW16054   2.324   6.038   6.192
 5052SOL    HW116055   2.373   6.067   6.109
 5052SOL    HW216056   2.328   6.111   6.260
 5053SOL     OW16057   2.109   3.708   3.689
 5053SOL    HW116058   2.102   3.797   3.644
 5053SOL    HW216059   2.163   3.717   3.772
 5054SOL     OW16060   3.648   6.005   5.102
 5054SOL    HW116061   3.616   6.100   5.108
 5054SOL    HW216062   3.745   6.004   5.078
 5055SOL     OW16063   2.102   6.887   5.602
 5055SOL    HW116064   2.170   6.957   5.582
 5055SOL    HW216065   2.147   6.799   5.617
 5056SOL     OW16066   6.182   4.220   0.447
 5056SOL    HW116067   6.244   4.217   0.368
 5056SOL    HW216068   6.112   4.150   0.438
 5057SOL     OW16069   6.849   5.687   5.117
 5057SOL    HW116070   6.919   5.642   5.062
 5057SOL    HW216071   6.800   5.754   5.061
 5058SOL     OW16072   2.691   3.129   5.335
 5058SOL    HW116073   2.623   3.084   5.277
 5058SOL    HW216074   2.740   3.061   5.389
 5059SOL     OW16075   5.547   2.751   3.105
 5059SOL    HW116076   5.627   2.778   3.159
 5059SOL    HW216077   5.542   2.651   3.101
 5060SOL     OW16078   0.417   2.491   5.475
 5060SOL    HW116079   0.377   2.425   5.539
 5060SOL    HW216080   0.405   2.584   5.511
 5061SOL     OW16081   3.652   3.198   3.063
 5061SOL    HW116082   3.671   3.134   3.137
 5061SOL    HW216083   3.699   3.285   3.081
 5062SOL     OW16084   5.704   0.342   2.994
 5062SOL    HW116085   5.650   0.401   2.934
 5062SOL    HW216086   5.655   0.329   3.080
 5063SOL     OW16087   1.177   0.190   2.398
 5063SOL    HW116088   1.195   0.092   2.389
 5063SOL    HW216089   1.202   0.220   2.490
 5064SOL     OW16090   4.396   3.951   1.679
 5064SOL    HW116091   4.461   4.026   1.668
 5064SOL    HW216092   4.353   3.931   1.591
 5065SOL     OW16093   1.372   1.654   3.306
 5065SOL    HW116094   1.470   1.635   3.307
 5065SOL    HW216095   1.331   1.623   3.391
 5066SOL     OW16096   3.695   4.420   0.830
 5066SOL    HW116097   3.662   4.497   0.885
 5066SOL    HW216098   3.674   4.334   0.877
 5067SOL     OW16099   3.340   1.027   2.440
 5067SOL    HW116100   3.372   0.934   2.458
 5067SOL    HW216101   3.378   1.090   2.508
 5068SOL     OW16102   3.199   4.801   0.053
 5068SOL    HW116103   3.198   4.900   0.037
 5068SOL    HW216104   3.274   4.778   0.115
 5069SOL     OW16105   2.168   2.457   5.877
 5069SOL    HW116106   2.231   2.518   5.828
 5069SOL    HW216107   2.077   2.462   5.836
 5070SOL     OW16108   5.009   4.599   3.991
 5070SOL    HW116109   5.054   4.614   4.079
 5070SOL    HW216110   4.996   4.501   3.977
 5071SOL     OW16111   4.050   1.396   3.811
 5071SOL    HW116112   4.108   1.373   3.890
 5071SOL    HW216113   3.972   1.450   3.842
 5072SOL     OW16114   1.025   0.768   1.543
 5072SOL    HW116115   1.110   0.738   1.501
 5072SOL    HW216116   0.976   0.690   1.581
 5073SOL     OW16117   1.779   4.278   0.847
 5073SOL    HW116118   1.703   4.248   0.905
 5073SOL    HW216119   1.843   4.333   0.901
 5074SOL     OW16120   3.094   2.026   1.721
 5074SOL    HW116121   3.178   2.031   1.775
 5074SOL    HW216122   3.076   2.114   1.677
 5075SOL     OW16123   1.485   2.130   5.870
 5075SOL    HW116124   1.516   2.060   5.935
 5075SOL    HW216125   1.414   2.187   5.913
 5076SOL     OW16126   5.471   0.226   1.011
 5076SOL    HW116127   5.417   0.199   0.931
 5076SOL    HW216128   5.540   0.293   0.983
 5077SOL     OW16129   1.798   4.381   6.044
 5077SOL    HW116130   1.849   4.376   5.958
 5077SOL    HW216131   1.765   4.290   6.069
 5078SOL     OW16132   0.534   0.791   4.384
 5078SOL    HW116133   0.609   0.783   4.451
 5078SOL    HW216134   0.551   0.871   4.325
 5079SOL     OW16135   2.212   3.033   4.579
 5079SOL    HW116136   2.124   3.078   4.594
 5079SOL    HW216137   2.197   2.945   4.534
 5080SOL     OW16138   6.330   6.354   5.822
 5080SOL    HW116139   6.231   6.363   5.811
 5080SOL    HW216140   6.371   6.444   5.834
 5081SOL     OW16141   2.662   3.756   5.726
 5081SOL    HW116142   2.639   3.735   5.821
 5081SOL    HW216143   2.609   3.836   5.697
 5082SOL     OW16144   4.978   5.887   1.563
 5082SOL    HW116145   4.921   5.867   1.643
 5082SOL    HW216146   4.985   5.986   1.551
 5083SOL     OW16147   2.698   0.693   2.532
 5083SOL    HW116148   2.724   0.769   2.473
 5083SOL    HW216149   2.686   0.726   2.626
 5084SOL     OW16150   1.208   4.589   3.692
 5084SOL    HW116151   1.169   4.643   3.617
 5084SOL    HW216152   1.176   4.494   3.685
 5085SOL     OW16153   6.268   2.511   6.049
 5085SOL    HW116154   6.306   2.420   6.034
 5085SOL    HW216155   6.340   2.579   6.041
 5086SOL     OW16156   1.481   5.098   2.864
 5086SOL    HW116157   1.555   5.119   2.929
 5086SOL    HW216158   1.521   5.065   2.778
 5087SOL     OW16159   1.199   5.156   2.247
 5087SOL    HW116160   1.243   5.140   2.159
 5087SOL    HW216161   1.199   5.071   2.300
 5088SOL     OW16162   6.099   0.147   3.793
 5088SOL    HW116163   6.164   0.185   3.727
 5088SOL    HW216164   6.112   0.047   3.798
 5089SOL     OW16165   6.265   4.059   3.889
 5089SOL    HW116166   6.210   4.060   3.972
 5089SOL    HW216167   6.298   4.152   3.870
 5090SOL     OW16168   2.028   3.464   2.718
 5090SOL    HW116169   2.041   3.554   2.675
 5090SOL    HW216170   1.934   3.433   2.702
 5091SOL     OW16171   6.820   1.559   1.636
 5091SOL    HW116172   6.791   1.579   1.729
 5091SOL    HW216173   6.749   1.588   1.571
 5092SOL     OW16174   3.490   3.553   3.209
 5092SOL    HW116175   3.467   3.613   3.286
 5092SOL    HW216176   3.589   3.545   3.202
 5093SOL     OW16177   3.180   0.815   0.587
 5093SOL    HW116178   3.160   0.825   0.489
 5093SOL    HW216179   3.270   0.855   0.606
 5094SOL     OW16180   2.473   5.501   6.298
 5094SOL    HW116181   2.407   5.568   6.264
 5094SOL    HW216182   2.425   5.425   6.340
 5095SOL     OW16183   6.551   2.232   2.932
 5095SOL    HW116184   6.644   2.233   2.895
 5095SOL    HW216185   6.529   2.140   2.964
 5096SOL     OW16186   4.028   5.244   6.208
 5096SOL    HW116187   3.948   5.230   6.266
 5096SOL    HW216188   4.007   5.313   6.138
 5097SOL     OW16189   0.762   0.205   6.322
 5097SOL    HW116190   0.717   0.259   6.251
 5097SOL    HW216191   0.761   0.109   6.296
 5098SOL     OW16192   2.734   0.722   2.093
 5098SOL    HW116193   2.725   0.652   2.164
 5098SOL    HW216194   2.803   0.694   2.026
 5099SOL     OW16195   0.436   0.153   1.084
 5099SOL    HW116196   0.444   0.093   1.164
 5099SOL    HW216197   0.527   0.171   1.047
 5100SOL     OW16198   3.000   5.662   4.624
 5100SOL    HW116199   2.994   5.724   4.701
 5100SOL    HW216200   2.977   5.710   4.539
 5101SOL     OW16201   4.394   0.273   6.541
 5101SOL    HW116202   4.461   0.344   6.565
 5101SOL    HW216203   4.348   0.298   6.456
 5102SOL     OW16204   5.283   6.450   3.844
 5102SOL    HW116205   5.330   6.528   3.803
 5102SOL    HW216206   5.284   6.459   3.943
 5103SOL     OW16207   0.329   0.646   4.257
 5103SOL    HW116208   0.405   0.707   4.279
 5103SOL    HW216209   0.244   0.699   4.251
 5104SOL     OW16210   1.714   5.895   2.008
 5104SOL    HW116211   1.655   5.941   1.942
 5104SOL    HW216212   1.810   5.916   1.988
 5105SOL     OW16213   2.452   2.239   0.318
 5105SOL    HW116214   2.432   2.209   0.225
 5105SOL    HW216215   2.512   2.319   0.315
 5106SOL     OW16216   4.351   1.961   0.510
 5106SOL    HW116217   4.386   1.967   0.417
 5106SOL    HW216218   4.381   2.042   0.561
 5107SOL     OW16219   3.942   1.753   1.638
 5107SOL    HW116220   3.938   1.851   1.658
 5107SOL    HW216221   3.868   1.728   1.576
 5108SOL     OW16222   3.898   3.990   4.917
 5108SOL    HW116223   3.956   3.912   4.943
 5108SOL    HW216224   3.889   4.052   4.995
 5109SOL     OW16225   0.911   1.971   6.750
 5109SOL    HW116226   0.879   1.900   6.687
 5109SOL    HW216227   0.834   2.032   6.773
 5110SOL     OW16228   0.749   0.605   5.948
 5110SOL    HW116229   0.841   0.569   5.964
 5110SOL    HW216230   0.722   0.587   5.853
 5111SOL     OW16231   1.465   0.440   4.682
 5111SOL    HW116232   1.465   0.462   4.585
 5111SOL    HW216233   1.476   0.523   4.736
 5112SOL     OW16234   1.598   6.780   3.275
 5112SOL    HW116235   1.681   6.831   3.250
 5112SOL    HW216236   1.610   6.684   3.252
 5113SOL     OW16237   1.616   6.644   1.012
 5113SOL    HW116238   1.537   6.704   1.029
 5113SOL    HW216239   1.604   6.598   0.924
 5114SOL     OW16240   3.870   0.624   6.970
 5114SOL    HW116241   3.953   0.645   7.022
 5114SOL    HW216242   3.866   0.526   6.952
 5115SOL     OW16243   1.362   4.925   4.006
 5115SOL    HW116244   1.291   4.859   4.028
 5115SOL    HW216245   1.419   4.941   4.086
 5116SOL     OW16246   1.010   6.824   6.591
 5116SOL    HW116247   1.007   6.888   6.668
 5116SOL    HW216248   0.952   6.744   6.612
 5117SOL     OW16249   1.916   3.863   4.396
 5117SOL    HW116250   2.011   3.891   4.384
 5117SOL    HW216251   1.904   3.821   4.486
 5118SOL     OW16252   5.067   1.287   6.698
 5118SOL    HW116253   5.159   1.257   6.724
 5118SOL    HW216254   5.072   1.343   6.616
 5119SOL     OW16255   5.245   0.543   2.410
 5119SOL    HW116256   5.235   0.470   2.342
 5119SOL    HW216257   5.333   0.532   2.458
 5120SOL     OW16258   3.715   0.615   4.308
 5120SOL    HW116259   3.809   0.581   4.297
 5120SOL    HW216260   3.670   0.618   4.219
 5121SOL     OW16261   3.186   2.084   6.983
 5121SOL    HW116262   3.115   2.074   6.913
 5121SOL    HW216263   3.150   2.051   0.046
 5122SOL     OW16264   3.395   6.453   3.627
 5122SOL    HW116265   3.406   6.520   3.700
 5122SOL    HW216266   3.460   6.378   3.640
 5123SOL     OW16267   4.247   2.201   4.287
 5123SOL    HW116268   4.218   2.289   4.325
 5123SOL    HW216269   4.190   2.178   4.208
 5124SOL     OW16270   2.121   5.516   4.944
 5124SOL    HW116271   2.105   5.477   4.853
 5124SOL    HW216272   2.173   5.601   4.936
 5125SOL     OW16273   6.347   3.120   3.690
 5125SOL    HW116274   6.351   3.218   3.710
 5125SOL    HW216275   6.258   3.098   3.650
 5126SOL     OW16276   5.663   5.639   5.674
 5126SOL    HW116277   5.657   5.621   5.576
 5126SOL    HW216278   5.733   5.709   5.691
 5127SOL     OW16279   0.634   4.263   7.003
 5127SOL    HW116280   0.618   4.177   0.027
 5127SOL    HW216281   0.708   4.313   0.022
 5128SOL     OW16282   6.849   0.602   6.126
 5128SOL    HW116283   6.806   0.536   6.188
 5128SOL    HW216284   6.779   0.659   6.084
 5129SOL     OW16285   6.275   6.964   2.427
 5129SOL    HW116286   6.307   7.005   2.342
 5129SOL    HW216287   6.216   6.885   2.408
 5130SOL     OW16288   0.222   5.569   4.140
 5130SOL    HW116289   0.229   5.585   4.041
 5130SOL    HW216290   0.135   5.604   4.173
 5131SOL     OW16291   2.037   5.207   4.128
 5131SOL    HW116292   2.065   5.111   4.133
 5131SOL    HW216293   1.975   5.219   4.050
 5132SOL     OW16294   3.511   2.692   6.755
 5132SOL    HW116295   3.600   2.650   6.739
 5132SOL    HW216296   3.520   2.791   6.753
 5133SOL     OW16297   2.182   5.643   0.102
 5133SOL    HW116298   2.114   5.670   0.170
 5133SOL    HW216299   2.264   5.699   0.114
 5134SOL     OW16300   0.706   3.011   2.725
 5134SOL    HW116301   0.630   3.053   2.775
 5134SOL    HW216302   0.786   3.071   2.728
 5135SOL     OW16303   5.542   3.296   4.678
 5135SOL    HW116304   5.625   3.251   4.647
 5135SOL    HW216305   5.467   3.230   4.681
 5136SOL     OW16306   4.746   0.731   5.756
 5136SOL    HW116307   4.772   0.652   5.811
 5136SOL    HW216308   4.647   0.739   5.753
 5137SOL     OW16309   5.029   3.089   5.325
 5137SOL    HW116310   4.982   3.103   5.412
 5137SOL    HW216311   4.963   3.064   5.254
 5138SOL     OW16312   3.517   3.277   5.438
 5138SOL    HW116313   3.616   3.270   5.421
 5138SOL    HW216314   3.481   3.356   5.388
 5139SOL     OW16315   1.557   0.980   2.856
 5139SOL    HW116316   1.647   0.997   2.814
 5139SOL    HW216317   1.513   1.067   2.877
 5140SOL     OW16318   4.226   2.734   6.666
 5140SOL    HW116319   4.179   2.818   6.638
 5140SOL    HW216320   4.179   2.694   6.745
 5141SOL     OW16321   6.596   3.847   0.802
 5141SOL    HW116322   6.543   3.842   0.717
 5141SOL    HW216323   6.679   3.899   0.786
 5142SOL     OW16324   6.229   6.989   3.497
 5142SOL    HW116325   6.190   7.001   3.406
 5142SOL    HW216326   6.329   6.989   3.490
 5143SOL     OW16327   6.322   4.358   3.843
 5143SOL    HW116328   6.333   4.439   3.901
 5143SOL    HW216329   6.329   4.384   3.747
 5144SOL     OW16330   0.416   4.643   5.915
 5144SOL    HW116331   0.482   4.668   5.845
 5144SOL    HW216332   0.323   4.657   5.879
 5145SOL     OW16333   3.191   5.147   5.896
 5145SOL    HW116334   3.225   5.118   5.986
 5145SOL    HW216335   3.108   5.096   5.874
 5146SOL     OW16336   3.781   4.029   5.500
 5146SOL    HW116337   3.720   3.966   5.453
 5146SOL    HW216338   3.768   4.020   5.599
 5147SOL     OW16339   0.151   5.084   2.680
 5147SOL    HW116340   0.241   5.057   2.645
 5147SOL    HW216341   0.144   5.184   2.679
 5148SOL     OW16342   6.642   6.185   1.690
 5148SOL    HW116343   6.659   6.256   1.621
 5148SOL    HW216344   6.707   6.197   1.766
 5149SOL     OW16345   6.282   5.319   3.175
 5149SOL    HW116346   6.365   5.272   3.145
 5149SOL    HW216347   6.208   5.301   3.111
 5150SOL     OW16348   2.444   5.628   2.915
 5150SOL    HW116349   2.518   5.581   2.869
 5150SOL    HW216350   2.376   5.562   2.948
 5151SOL     OW16351   6.296   2.426   1.228
 5151SOL    HW116352   6.368   2.359   1.243
 5151SOL    HW216353   6.211   2.379   1.205
 5152SOL     OW16354   1.974   4.498   0.050
 5152SOL    HW116355   1.894   4.441   0.029
 5152SOL    HW216356   2.057   4.443   0.041
 5153SOL     OW16357   1.967   0.934   0.149
 5153SOL    HW116358   1.950   0.868   0.222
 5153SOL    HW216359   2.063   0.959   0.149
 5154SOL     OW16360   1.146   2.933   5.940
 5154SOL    HW116361   1.099   2.990   6.008
 5154SOL    HW216362   1.183   2.852   5.985
 5155SOL     OW16363   4.836   0.318   2.135
 5155SOL    HW116364   4.875   0.391   2.078
 5155SOL    HW216365   4.846   0.342   2.231
 5156SOL     OW16366   5.307   3.776   6.092
 5156SOL    HW116367   5.226   3.719   6.080
 5156SOL    HW216368   5.345   3.762   6.183
 5157SOL     OW16369   3.911   2.044   3.265
 5157SOL    HW116370   4.002   2.075   3.235
 5157SOL    HW216371   3.907   2.048   3.365
 5158SOL     OW16372   3.538   1.547   1.873
 5158SOL    HW116373   3.579   1.565   1.963
 5158SOL    HW216374   3.550   1.627   1.814
 5159SOL     OW16375   6.799   3.545   4.297
 5159SOL    HW116376   6.813   3.606   4.375
 5159SOL    HW216377   6.881   3.547   4.239
 5160SOL     OW16378   6.846   5.197   3.020
 5160SOL    HW116379   6.856   5.176   3.118
 5160SOL    HW216380   6.827   5.294   3.009
 5161SOL     OW16381   1.736   3.951   5.398
 5161SOL    HW116382   1.740   3.933   5.497
 5161SOL    HW216383   1.644   3.979   5.373
 5162SOL     OW16384   1.356   4.821   3.187
 5162SOL    HW116385   1.450   4.814   3.220
 5162SOL    HW216386   1.355   4.865   3.098
 5163SOL     OW16387   3.815   6.445   0.178
 5163SOL    HW116388   3.727   6.403   0.159
 5163SOL    HW216389   3.811   6.495   0.264
 5164SOL     OW16390   4.068   2.518   6.984
 5164SOL    HW116391   3.985   2.494   6.933
 5164SOL    HW216392   4.051   2.600   0.015
 5165SOL     OW16393   6.065   4.351   5.783
 5165SOL    HW116394   6.009   4.293   5.724
 5165SOL    HW216395   6.160   4.348   5.752
 5166SOL     OW16396   0.664   5.317   2.757
 5166SOL    HW116397   0.640   5.238   2.814
 5166SOL    HW216398   0.746   5.295   2.704
 5167SOL     OW16399   6.944   6.329   6.506
 5167SOL    HW116400   6.997   6.300   6.586
 5167SOL    HW216401   6.994   6.402   6.458
 5168SOL     OW16402   5.549   3.991   2.171
 5168SOL    HW116403   5.583   4.001   2.077
 5168SOL    HW216404   5.527   3.895   2.188
 5169SOL     OW16405   3.930   2.170   4.334
 5169SOL    HW116406   3.849   2.130   4.377
 5169SOL    HW216407   3.907   2.198   4.240
 5170SOL     OW16408   0.670   4.275   5.584
 5170SOL    HW116409   0.667   4.180   5.554
 5170SOL    HW216410   0.742   4.286   5.653
 5171SOL     OW16411   1.239   5.672   4.563
 5171SOL    HW116412   1.159   5.660   4.504
 5171SOL    HW216413   1.215   5.650   4.657
 5172SOL     OW16414   1.233   2.415   2.334
 5172SOL    HW116415   1.304   2.484   2.350
 5172SOL    HW216416   1.165   2.453   2.271
 5173SOL     OW16417   4.965   4.760   5.999
 5173SOL    HW116418   4.865   4.761   5.996
 5173SOL    HW216419   5.000   4.675   5.959
 5174SOL     OW16420   2.333   4.943   3.407
 5174SOL    HW116421   2.317   4.927   3.504
 5174SOL    HW216422   2.425   4.981   3.394
 5175SOL     OW16423   2.701   3.337   0.277
 5175SOL    HW116424   2.766   3.265   0.299
 5175SOL    HW216425   2.617   3.297   0.239
 5176SOL     OW16426   4.585   3.019   6.887
 5176SOL    HW116427   4.578   3.023   6.986
 5176SOL    HW216428   4.636   2.938   6.860
 5177SOL     OW16429   4.932   0.870   0.079
 5177SOL    HW116430   4.984   0.784   0.074
 5177SOL    HW216431   4.987   0.939   0.126
 5178SOL     OW16432   1.350   4.400   2.361
 5178SOL    HW116433   1.278   4.417   2.427
 5178SOL    HW216434   1.375   4.304   2.362
 5179SOL     OW16435   4.052   5.819   3.557
 5179SOL    HW116436   4.049   5.740   3.618
 5179SOL    HW216437   3.984   5.886   3.587
 5180SOL     OW16438   2.805   2.640   1.239
 5180SOL    HW116439   2.806   2.737   1.216
 5180SOL    HW216440   2.731   2.595   1.189
 5181SOL     OW16441   6.020   1.582   2.314
 5181SOL    HW116442   5.930   1.541   2.326
 5181SOL    HW216443   6.090   1.511   2.314
 5182SOL     OW16444   3.884   4.500   1.334
 5182SOL    HW116445   3.839   4.449   1.260
 5182SOL    HW216446   3.814   4.546   1.389
 5183SOL     OW16447   4.598   1.609   3.259
 5183SOL    HW116448   4.568   1.515   3.273
 5183SOL    HW216449   4.600   1.628   3.161
 5184SOL     OW16450   0.611   1.775   4.419
 5184SOL    HW116451   0.513   1.791   4.428
 5184SOL    HW216452   0.628   1.717   4.340
 5185SOL     OW16453   5.412   0.880   2.098
 5185SOL    HW116454   5.428   0.975   2.068
 5185SOL    HW216455   5.439   0.818   2.024
 5186SOL     OW16456   6.738   3.152   0.794
 5186SOL    HW116457   6.821   3.119   0.838
 5186SOL    HW216458   6.661   3.093   0.818
 5187SOL     OW16459   0.831   6.826   4.175
 5187SOL    HW116460   0.753   6.773   4.207
 5187SOL    HW216461   0.832   6.828   4.075
 5188SOL     OW16462   0.785   5.650   0.837
 5188SOL    HW116463   0.811   5.614   0.748
 5188SOL    HW216464   0.777   5.575   0.903
 5189SOL     OW16465   4.008   4.473   0.708
 5189SOL    HW116466   3.997   4.563   0.750
 5189SOL    HW216467   3.935   4.413   0.740
 5190SOL     OW16468   0.462   2.237   4.079
 5190SOL    HW116469   0.546   2.283   4.108
 5190SOL    HW216470   0.419   2.193   4.158
 5191SOL     OW16471   4.149   0.400   1.840
 5191SOL    HW116472   4.155   0.377   1.742
 5191SOL    HW216473   4.199   0.332   1.893
 5192SOL     OW16474   2.946   5.595   3.150
 5192SOL    HW116475   2.998   5.515   3.119
 5192SOL    HW216476   2.929   5.586   3.249
 5193SOL     OW16477   5.138   4.434   4.758
 5193SOL    HW116478   5.103   4.387   4.839
 5193SOL    HW216479   5.223   4.391   4.728
 5194SOL     OW16480   4.686   2.105   0.586
 5194SOL    HW116481   4.650   2.023   0.541
 5194SOL    HW216482   4.654   2.108   0.680
 5195SOL     OW16483   5.588   6.528   4.222
 5195SOL    HW116484   5.598   6.622   4.190
 5195SOL    HW216485   5.673   6.478   4.205
 5196SOL     OW16486   3.510   4.737   0.733
 5196SOL    HW116487   3.487   4.814   0.674
 5196SOL    HW216488   3.526   4.769   0.826
 5197SOL     OW16489   1.830   5.722   5.147
 5197SOL    HW116490   1.748   5.702   5.201
 5197SOL    HW216491   1.891   5.642   5.147
 5198SOL     OW16492   4.405   6.545   3.129
 5198SOL    HW116493   4.337   6.618   3.133
 5198SOL    HW216494   4.458   6.544   3.214
 5199SOL     OW16495   1.503   5.736   0.396
 5199SOL    HW116496   1.428   5.753   0.459
 5199SOL    HW216497   1.526   5.821   0.348
 5200SOL     OW16498   1.273   2.548   5.105
 5200SOL    HW116499   1.197   2.603   5.139
 5200SOL    HW216500   1.359   2.584   5.140
 5201SOL     OW16501   7.024   6.510   3.883
 5201SOL    HW116502   6.933   6.551   3.886
 5201SOL    HW216503   0.068   6.579   3.906
 5202SOL     OW16504   5.823   4.131   5.349
 5202SOL    HW116505   5.729   4.104   5.368
 5202SOL    HW216506   5.879   4.049   5.334
 5203SOL     OW16507   2.682   1.684   6.550
 5203SOL    HW116508   2.682   1.607   6.613
 5203SOL    HW216509   2.767   1.683   6.496
 5204SOL     OW16510   4.403   6.220   6.741
 5204SOL    HW116511   4.394   6.275   6.658
 5204SOL    HW216512   4.445   6.276   6.813
 5205SOL     OW16513   0.544   5.772   0.920
 5205SOL    HW116514   0.531   5.871   0.912
 5205SOL    HW216515   0.639   5.750   0.898
 5206SOL     OW16516   0.615   5.176   0.164
 5206SOL    HW116517   0.553   5.105   0.200
 5206SOL    HW216518   0.608   5.258   0.220
 5207SOL     OW16519   1.347   6.359   3.839
 5207SOL    HW116520   1.251   6.331   3.829
 5207SOL    HW216521   1.359   6.405   3.927
 5208SOL     OW16522   5.121   2.353   6.842
 5208SOL    HW116523   5.198   2.289   6.842
 5208SOL    HW216524   5.043   2.312   6.889
 5209SOL     OW16525   5.764   0.209   2.006
 5209SOL    HW116526   5.823   0.183   2.082
 5209SOL    HW216527   5.790   0.157   1.925
 5210SOL     OW16528   4.624   3.033   0.456
 5210SOL    HW116529   4.574   3.076   0.381
 5210SOL    HW216530   4.660   2.944   0.426
 5211SOL     OW16531   4.045   2.336   5.845
 5211SOL    HW116532   3.966   2.347   5.785
 5211SOL    HW216533   4.032   2.254   5.902
 5212SOL     OW16534   0.486   2.636   0.705
 5212SOL    HW116535   0.462   2.724   0.747
 5212SOL    HW216536   0.532   2.579   0.773
 5213SOL     OW16537   4.366   4.092   0.127
 5213SOL    HW116538   4.298   4.159   0.097
 5213SOL    HW216539   4.456   4.117   0.091
 5214SOL     OW16540   5.255   2.190   6.419
 5214SOL    HW116541   5.273   2.168   6.323
 5214SOL    HW216542   5.328   2.249   6.454
 5215SOL     OW16543   1.192   4.641   3.941
 5215SOL    HW116544   1.172   4.629   3.844
 5215SOL    HW216545   1.253   4.568   3.971
 5216SOL     OW16546   4.410   4.702   1.581
 5216SOL    HW116547   4.481   4.632   1.594
 5216SOL    HW216548   4.344   4.696   1.656
 5217SOL     OW16549   3.594   5.372   4.158
 5217SOL    HW116550   3.671   5.354   4.220
 5217SOL    HW216551   3.510   5.335   4.198
 5218SOL     OW16552   0.959   0.828   1.909
 5218SOL    HW116553   1.029   0.898   1.921
 5218SOL    HW216554   1.001   0.742   1.881
 5219SOL     OW16555   3.934   1.241   5.039
 5219SOL    HW116556   3.896   1.223   5.130
 5219SOL    HW216557   3.983   1.328   5.040
 5220SOL     OW16558   1.578   6.426   2.169
 5220SOL    HW116559   1.658   6.390   2.122
 5220SOL    HW216560   1.542   6.358   2.233
 5221SOL     OW16561   6.086   1.516   3.386
 5221SOL    HW116562   6.003   1.475   3.422
 5221SOL    HW216563   6.155   1.445   3.369
 5222SOL     OW16564   4.239   6.571   2.680
 5222SOL    HW116565   4.288   6.485   2.688
 5222SOL    HW216566   4.154   6.567   2.731
 5223SOL     OW16567   6.176   2.834   0.527
 5223SOL    HW116568   6.251   2.852   0.590
 5223SOL    HW216569   6.170   2.909   0.460
 5224SOL     OW16570   6.391   2.938   4.461
 5224SOL    HW116571   6.328   2.945   4.538
 5224SOL    HW216572   6.351   2.882   4.389
 5225SOL     OW16573   0.173   0.681   3.812
 5225SOL    HW116574   0.150   0.586   3.830
 5225SOL    HW216575   0.120   0.740   3.873
 5226SOL     OW16576   6.979   6.948   4.736
 5226SOL    HW116577   0.029   6.929   4.800
 5226SOL    HW216578   6.900   6.983   4.786
 5227SOL     OW16579   0.286   3.293   5.369
 5227SOL    HW116580   0.313   3.234   5.293
 5227SOL    HW216581   0.314   3.387   5.351
 5228SOL     OW16582   6.499   2.602   0.834
 5228SOL    HW116583   6.507   2.645   0.744
 5228SOL    HW216584   6.402   2.584   0.853
 5229SOL     OW16585   2.621   6.292   0.505
 5229SOL    HW116586   2.641   6.388   0.490
 5229SOL    HW216587   2.529   6.282   0.543
 5230SOL     OW16588   0.315   5.665   1.928
 5230SOL    HW116589   0.370   5.619   1.858
 5230SOL    HW216590   0.358   5.752   1.952
 5231SOL     OW16591   4.781   2.348   4.563
 5231SOL    HW116592   4.732   2.431   4.538
 5231SOL    HW216593   4.717   2.281   4.600
 5232SOL     OW16594   1.800   3.807   5.934
 5232SOL    HW116595   1.818   3.778   6.028
 5232SOL    HW216596   1.726   3.874   5.933
 5233SOL     OW16597   4.280   1.138   2.316
 5233SOL    HW116598   4.251   1.189   2.397
 5233SOL    HW216599   4.339   1.196   2.260
 5234SOL     OW16600   2.771   1.884   5.938
 5234SOL    HW116601   2.836   1.811   5.957
 5234SOL    HW216602   2.678   1.848   5.940
 5235SOL     OW16603   1.756   2.616   0.645
 5235SOL    HW116604   1.838   2.603   0.590
 5235SOL    HW216605   1.770   2.692   0.709
 5236SOL     OW16606   4.805   5.170   1.689
 5236SOL    HW116607   4.901   5.141   1.685
 5236SOL    HW216608   4.791   5.227   1.769
 5237SOL     OW16609   1.343   1.132   4.983
 5237SOL    HW116610   1.346   1.097   4.890
 5237SOL    HW216611   1.292   1.218   4.985
 5238SOL     OW16612   0.710   4.502   0.384
 5238SOL    HW116613   0.794   4.534   0.341
 5238SOL    HW216614   0.674   4.574   0.444
 5239SOL     OW16615   3.454   2.871   4.948
 5239SOL    HW116616   3.385   2.944   4.950
 5239SOL    HW216617   3.428   2.798   5.012
 5240SOL     OW16618   3.212   2.603   5.589
 5240SOL    HW116619   3.235   2.700   5.597
 5240SOL    HW216620   3.127   2.584   5.638
 5241SOL     OW16621   0.723   5.145   4.678
 5241SOL    HW116622   0.681   5.096   4.753
 5241SOL    HW216623   0.655   5.166   4.608
 5242SOL     OW16624   6.308   6.820   0.060
 5242SOL    HW116625   6.297   6.723   0.081
 5242SOL    HW216626   6.364   6.830   7.002
 5243SOL     OW16627   1.580   5.382   1.265
 5243SOL    HW116628   1.532   5.294   1.258
 5243SOL    HW216629   1.516   5.452   1.297
 5244SOL     OW16630   3.059   5.393   6.795
 5244SOL    HW116631   3.032   5.476   6.844
 5244SOL    HW216632   3.136   5.414   6.735
 5245SOL     OW16633   4.179   4.522   0.277
 5245SOL    HW116634   4.080   4.529   0.284
 5245SOL    HW216635   4.219   4.522   0.369
 5246SOL     OW16636   6.132   3.773   2.057
 5246SOL    HW116637   6.076   3.819   1.989
 5246SOL    HW216638   6.111   3.675   2.057
 5247SOL     OW16639   1.844   0.927   6.727
 5247SOL    HW116640   1.852   1.018   6.770
 5247SOL    HW216641   1.823   0.938   6.630
 5248SOL     OW16642   5.755   1.734   3.402
 5248SOL    HW116643   5.758   1.656   3.340
 5248SOL    HW216644   5.825   1.725   3.472
 5249SOL     OW16645   0.735   5.263   6.284
 5249SOL    HW116646   0.705   5.198   6.354
 5249SOL    HW216647   0.721   5.223   6.193
 5250SOL     OW16648   2.060   5.496   6.645
 5250SOL    HW116649   2.073   5.500   6.546
 5250SOL    HW216650   2.009   5.577   6.675
 5251SOL     OW16651   0.580   3.545   0.200
 5251SOL    HW116652   0.522   3.516   0.276
 5251SOL    HW216653   0.615   3.464   0.152
 5252SOL     OW16654   1.906   6.648   0.534
 5252SOL    HW116655   1.935   6.687   0.621
 5252SOL    HW216656   1.868   6.557   0.549
 5253SOL     OW16657   6.069   4.904   4.731
 5253SOL    HW116658   6.097   4.997   4.707
 5253SOL    HW216659   6.029   4.904   4.823
 5254SOL     OW16660   4.514   0.727   3.071
 5254SOL    HW116661   4.543   0.634   3.049
 5254SOL    HW216662   4.484   0.773   2.988
 5255SOL     OW16663   5.723   1.810   5.262
 5255SOL    HW116664   5.653   1.741   5.246
 5255SOL    HW216665   5.769   1.831   5.176
 5256SOL     OW16666   4.330   1.533   3.568
 5256SOL    HW116667   4.341   1.531   3.469
 5256SOL    HW216668   4.256   1.472   3.595
 5257SOL     OW16669   5.154   0.043   1.926
 5257SOL    HW116670   5.110   6.982   1.956
 5257SOL    HW216671   5.085   0.104   1.888
 5258SOL     OW16672   5.971   3.236   1.692
 5258SOL    HW116673   5.988   3.308   1.759
 5258SOL    HW216674   5.952   3.277   1.602
 5259SOL     OW16675   5.168   6.248   2.331
 5259SOL    HW116676   5.232   6.178   2.299
 5259SOL    HW216677   5.161   6.321   2.262
 5260SOL     OW16678   4.509   3.398   0.384
 5260SOL    HW116679   4.440   3.333   0.416
 5260SOL    HW216680   4.599   3.371   0.420
 5261SOL     OW16681   0.460   3.729   6.697
 5261SOL    HW116682   0.514   3.814   6.698
 5261SOL    HW216683   0.382   3.741   6.636
 5262SOL     OW16684   2.962   1.006   3.465
 5262SOL    HW116685   2.950   0.938   3.392
 5262SOL    HW216686   2.945   0.962   3.554
 5263SOL     OW16687   2.184   1.666   3.817
 5263SOL    HW116688   2.218   1.637   3.727
 5263SOL    HW216689   2.120   1.597   3.852
 5264SOL     OW16690   6.728   2.382   2.443
 5264SOL    HW116691   6.639   2.427   2.449
 5264SOL    HW216692   6.796   2.438   2.491
 5265SOL     OW16693   6.549   3.956   3.947
 5265SOL    HW116694   6.603   3.939   4.030
 5265SOL    HW216695   6.598   3.920   3.868
 5266SOL     OW16696   3.214   5.410   0.723
 5266SOL    HW116697   3.128   5.441   0.683
 5266SOL    HW216698   3.290   5.448   0.672
 5267SOL     OW16699   5.727   3.719   5.393
 5267SOL    HW116700   5.733   3.632   5.442
 5267SOL    HW216701   5.631   3.738   5.372
 5268SOL     OW16702   5.625   0.998   6.578
 5268SOL    HW116703   5.598   1.014   6.482
 5268SOL    HW216704   5.687   0.920   6.582
 5269SOL     OW16705   1.684   6.431   3.148
 5269SOL    HW116706   1.695   6.332   3.148
 5269SOL    HW216707   1.752   6.472   3.209
 5270SOL     OW16708   6.050   0.868   1.018
 5270SOL    HW116709   6.073   0.900   0.926
 5270SOL    HW216710   5.960   0.902   1.044
 5271SOL     OW16711   6.166   5.645   5.230
 5271SOL    HW116712   6.185   5.653   5.328
 5271SOL    HW216713   6.103   5.718   5.203
 5272SOL     OW16714   3.132   5.558   2.220
 5272SOL    HW116715   3.086   5.481   2.265
 5272SOL    HW216716   3.108   5.559   2.123
 5273SOL     OW16717   6.936   2.999   3.696
 5273SOL    HW116718   6.861   2.957   3.748
 5273SOL    HW216719   6.935   2.963   3.603
 5274SOL     OW16720   6.808   6.384   2.712
 5274SOL    HW116721   6.780   6.433   2.795
 5274SOL    HW216722   6.884   6.433   2.669
 5275SOL     OW16723   3.590   2.080   1.193
 5275SOL    HW116724   3.499   2.114   1.170
 5275SOL    HW216725   3.593   2.056   1.290
 5276SOL     OW16726   2.006   0.548   1.162
 5276SOL    HW116727   2.055   0.548   1.075
 5276SOL    HW216728   2.014   0.638   1.205
 5277SOL     OW16729   1.574   1.357   2.600
 5277SOL    HW116730   1.672   1.377   2.608
 5277SOL    HW216731   1.524   1.442   2.582
 5278SOL     OW16732   6.339   0.192   3.634
 5278SOL    HW116733   6.405   0.236   3.573
 5278SOL    HW216734   6.305   0.108   3.592
 5279SOL     OW16735   2.140   4.711   6.431
 5279SOL    HW116736   2.220   4.754   6.473
 5279SOL    HW216737   2.169   4.627   6.384
 5280SOL     OW16738   2.408   6.213   5.092
 5280SOL    HW116739   2.453   6.189   5.178
 5280SOL    HW216740   2.477   6.229   5.021
 5281SOL     OW16741   0.034   2.430   2.932
 5281SOL    HW116742   0.042   2.473   2.842
 5281SOL    HW216743   0.019   2.501   3.001
 5282SOL     OW16744   2.758   1.964   3.403
 5282SOL    HW116745   2.665   1.988   3.431
 5282SOL    HW216746   2.789   1.884   3.454
 5283SOL     OW16747   4.401   6.815   1.164
 5283SOL    HW116748   4.354   6.730   1.140
 5283SOL    HW216749   4.416   6.818   1.263
 5284SOL     OW16750   4.763   3.978   3.498
 5284SOL    HW116751   4.808   3.892   3.473
 5284SOL    HW216752   4.781   3.999   3.594
 5285SOL     OW16753   2.634   4.879   3.838
 5285SOL    HW116754   2.698   4.861   3.912
 5285SOL    HW216755   2.618   4.977   3.830
 5286SOL     OW16756   1.432   4.726   0.471
 5286SOL    HW116757   1.395   4.819   0.475
 5286SOL    HW216758   1.523   4.724   0.511
 5287SOL     OW16759   2.624   6.709   0.737
 5287SOL    HW116760   2.557   6.635   0.739
 5287SOL    HW216761   2.674   6.711   0.824
 5288SOL     OW16762   3.298   0.497   1.694
 5288SOL    HW116763   3.253   0.583   1.667
 5288SOL    HW216764   3.244   0.452   1.764
 5289SOL     OW16765   1.587   4.853   6.154
 5289SOL    HW116766   1.551   4.861   6.247
 5289SOL    HW216767   1.641   4.769   6.147
 5290SOL     OW16768   1.362   5.146   5.103
 5290SOL    HW116769   1.334   5.220   5.042
 5290SOL    HW216770   1.457   5.160   5.131
 5291SOL     OW16771   2.300   4.887   6.171
 5291SOL    HW116772   2.315   4.985   6.164
 5291SOL    HW216773   2.271   4.851   6.082
 5292SOL     OW16774   6.196   3.265   6.990
 5292SOL    HW116775   6.201   3.219   6.902
 5292SOL    HW216776   6.113   3.321   6.993
 5293SOL     OW16777   0.578   0.537   4.876
 5293SOL    HW116778   0.549   0.447   4.910
 5293SOL    HW216779   0.513   0.606   4.906
 5294SOL     OW16780   4.856   3.170   5.525
 5294SOL    HW116781   4.880   3.215   5.611
 5294SOL    HW216782   4.811   3.235   5.464
 5295SOL     OW16783   5.859   0.749   2.833
 5295SOL    HW116784   5.931   0.707   2.889
 5295SOL    HW216785   5.857   0.848   2.851
 5296SOL     OW16786   2.581   5.219   0.084
 5296SOL    HW116787   2.554   5.156   0.012
 5296SOL    HW216788   2.502   5.237   0.143
 5297SOL     OW16789   2.103   2.199   1.820
 5297SOL    HW116790   2.132   2.181   1.914
 5297SOL    HW216791   2.149   2.281   1.786
 5298SOL     OW16792   0.906   5.596   0.549
 5298SOL    HW116793   0.998   5.600   0.510
 5298SOL    HW216794   0.869   5.504   0.536
 5299SOL     OW16795   2.829   2.398   0.687
 5299SOL    HW116796   2.904   2.456   0.718
 5299SOL    HW216797   2.805   2.333   0.759
 5300SOL     OW16798   0.603   5.789   2.604
 5300SOL    HW116799   0.627   5.768   2.699
 5300SOL    HW216800   0.591   5.704   2.554
 5301SOL     OW16801   4.407   1.777   0.711
 5301SOL    HW116802   4.385   1.860   0.661
 5301SOL    HW216803   4.468   1.720   0.656
 5302SOL     OW16804   5.682   4.441   3.045
 5302SOL    HW116805   5.761   4.499   3.027
 5302SOL    HW216806   5.707   4.345   3.031
 5303SOL     OW16807   6.487   6.212   3.395
 5303SOL    HW116808   6.475   6.157   3.477
 5303SOL    HW216809   6.432   6.295   3.401
 5304SOL     OW16810   6.839   1.701   5.795
 5304SOL    HW116811   6.896   1.665   5.868
 5304SOL    HW216812   6.770   1.763   5.833
 5305SOL     OW16813   1.495   6.790   4.608
 5305SOL    HW116814   1.487   6.731   4.689
 5305SOL    HW216815   1.461   6.882   4.631
 5306SOL     OW16816   0.366   5.717   5.159
 5306SOL    HW116817   0.374   5.658   5.240
 5306SOL    HW216818   0.316   5.668   5.087
 5307SOL     OW16819   4.404   6.933   6.798
 5307SOL    HW116820   4.486   6.880   6.820
 5307SOL    HW216821   4.430   0.002   6.775
 5308SOL     OW16822   0.618   6.864   4.853
 5308SOL    HW116823   0.679   6.890   4.779
 5308SOL    HW216824   0.593   6.767   4.843
 5309SOL     OW16825   3.185   3.367   2.377
 5309SOL    HW116826   3.194   3.286   2.319
 5309SOL    HW216827   3.207   3.343   2.472
 5310SOL     OW16828   5.596   2.874   2.056
 5310SOL    HW116829   5.663   2.819   2.006
 5310SOL    HW216830   5.519   2.896   1.996
 5311SOL     OW16831   0.070   5.921   1.165
 5311SOL    HW116832   0.145   5.886   1.221
 5311SOL    HW216833   0.044   6.012   1.198
 5312SOL     OW16834   0.286   4.121   2.468
 5312SOL    HW116835   0.202   4.076   2.437
 5312SOL    HW216836   0.357   4.114   2.398
 5313SOL     OW16837   0.900   5.628   0.014
 5313SOL    HW116838   0.963   5.619   0.091
 5313SOL    HW216839   0.855   5.540   7.023
 5314SOL     OW16840   3.557   4.839   0.368
 5314SOL    HW116841   3.498   4.804   0.295
 5314SOL    HW216842   3.502   4.878   0.441
 5315SOL     OW16843   3.849   4.059   1.095
 5315SOL    HW116844   3.876   4.153   1.114
 5315SOL    HW216845   3.906   4.021   1.022
 5316SOL     OW16846   6.734   4.987   5.076
 5316SOL    HW116847   6.642   5.026   5.086
 5316SOL    HW216848   6.795   5.027   5.145
 5317SOL     OW16849   6.755   1.036   4.871
 5317SOL    HW116850   6.802   0.985   4.800
 5317SOL    HW216851   6.674   0.986   4.901
 5318SOL     OW16852   0.644   1.934   5.718
 5318SOL    HW116853   0.616   1.867   5.786
 5318SOL    HW216854   0.670   2.019   5.763
 5319SOL     OW16855   4.866   6.765   0.150
 5319SOL    HW116856   4.801   6.712   0.096
 5319SOL    HW216857   4.865   6.860   0.118
 5320SOL     OW16858   5.749   5.012   6.969
 5320SOL    HW116859   5.679   5.046   6.907
 5320SOL    HW216860   5.714   4.932   7.019
 5321SOL     OW16861   0.970   4.523   2.893
 5321SOL    HW116862   1.041   4.515   2.963
 5321SOL    HW216863   0.998   4.590   2.824
 5322SOL     OW16864   3.782   6.603   6.166
 5322SOL    HW116865   3.810   6.673   6.232
 5322SOL    HW216866   3.775   6.645   6.075
 5323SOL     OW16867   3.536   2.911   1.216
 5323SOL    HW116868   3.537   2.862   1.130
 5323SOL    HW216869   3.480   2.994   1.207
 5324SOL     OW16870   3.626   2.592   1.755
 5324SOL    HW116871   3.640   2.653   1.832
 5324SOL    HW216872   3.673   2.505   1.771
 5325SOL     OW16873   6.146   6.411   3.205
 5325SOL    HW116874   6.070   6.406   3.140
 5325SOL    HW216875   6.116   6.377   3.294
 5326SOL     OW16876   6.667   5.163   2.802
 5326SOL    HW116877   6.693   5.110   2.721
 5326SOL    HW216878   6.749   5.181   2.857
 5327SOL     OW16879   0.382   5.519   5.812
 5327SOL    HW116880   0.418   5.432   5.780
 5327SOL    HW216881   0.430   5.594   5.767
 5328SOL     OW16882   4.263   2.795   5.805
 5328SOL    HW116883   4.330   2.781   5.878
 5328SOL    HW216884   4.191   2.857   5.836
 5329SOL     OW16885   0.038   3.862   6.304
 5329SOL    HW116886   0.092   3.934   6.260
 5329SOL    HW216887   0.079   3.840   6.393
 5330SOL     OW16888   3.120   4.758   6.770
 5330SOL    HW116889   3.030   4.792   6.798
 5330SOL    HW216890   3.144   4.679   6.827
 5331SOL     OW16891   5.395   1.644   1.172
 5331SOL    HW116892   5.324   1.715   1.164
 5331SOL    HW216893   5.371   1.567   1.113
 5332SOL     OW16894   6.405   4.253   6.811
 5332SOL    HW116895   6.402   4.157   6.840
 5332SOL    HW216896   6.444   4.308   6.884
 5333SOL     OW16897   1.177   0.427   3.594
 5333SOL    HW116898   1.186   0.328   3.579
 5333SOL    HW216899   1.138   0.443   3.685
 5334SOL     OW16900   3.612   5.214   5.226
 5334SOL    HW116901   3.582   5.119   5.232
 5334SOL    HW216902   3.604   5.245   5.131
 5335SOL     OW16903   0.519   5.258   2.367
 5335SOL    HW116904   0.478   5.342   2.403
 5335SOL    HW216905   0.618   5.260   2.379
 5336SOL     OW16906   1.950   2.267   3.536
 5336SOL    HW116907   2.003   2.236   3.458
 5336SOL    HW216908   1.860   2.221   3.535
 5337SOL     OW16909   5.845   4.576   1.383
 5337SOL    HW116910   5.840   4.484   1.343
 5337SOL    HW216911   5.752   4.608   1.404
 5338SOL     OW16912   5.241   1.106   6.483
 5338SOL    HW116913   5.216   1.018   6.442
 5338SOL    HW216914   5.165   1.170   6.474
 5339SOL     OW16915   5.905   1.322   3.138
 5339SOL    HW116916   5.975   1.320   3.066
 5339SOL    HW216917   5.935   1.264   3.214
 5340SOL     OW16918   5.635   4.057   1.208
 5340SOL    HW116919   5.680   4.131   1.159
 5340SOL    HW216920   5.664   3.969   1.169
 5341SOL     OW16921   3.220   4.949   5.279
 5341SOL    HW116922   3.288   4.932   5.207
 5341SOL    HW216923   3.149   4.879   5.276
 5342SOL     OW16924   5.402   6.415   4.745
 5342SOL    HW116925   5.422   6.322   4.775
 5342SOL    HW216926   5.303   6.427   4.736
 5343SOL     OW16927   3.799   3.659   4.384
 5343SOL    HW116928   3.836   3.641   4.293
 5343SOL    HW216929   3.761   3.751   4.388
 5344SOL     OW16930   0.413   1.490   0.280
 5344SOL    HW116931   0.349   1.555   0.321
 5344SOL    HW216932   0.487   1.471   0.345
 5345SOL     OW16933   5.139   0.712   6.517
 5345SOL    HW116934   5.130   0.768   6.434
 5345SOL    HW216935   5.211   0.751   6.575
 5346SOL     OW16936   2.715   5.300   4.552
 5346SOL    HW116937   2.704   5.208   4.589
 5346SOL    HW216938   2.763   5.357   4.620
 5347SOL     OW16939   6.508   3.638   3.416
 5347SOL    HW116940   6.445   3.575   3.462
 5347SOL    HW216941   6.456   3.711   3.371
 5348SOL     OW16942   0.020   1.059   6.222
 5348SOL    HW116943   6.966   1.037   6.165
 5348SOL    HW216944   0.093   1.096   6.164
 5349SOL     OW16945   2.485   3.328   1.213
 5349SOL    HW116946   2.518   3.346   1.306
 5349SOL    HW216947   2.508   3.405   1.154
 5350SOL     OW16948   2.493   6.559   5.248
 5350SOL    HW116949   2.406   6.518   5.224
 5350SOL    HW216950   2.477   6.638   5.307
 5351SOL     OW16951   0.092   5.315   2.394
 5351SOL    HW116952   0.192   5.311   2.396
 5351SOL    HW216953   0.057   5.316   2.488
 5352SOL     OW16954   2.463   4.742   3.147
 5352SOL    HW116955   2.485   4.713   3.240
 5352SOL    HW216956   2.454   4.842   3.145
 5353SOL     OW16957   3.623   5.684   3.937
 5353SOL    HW116958   3.679   5.723   3.863
 5353SOL    HW216959   3.654   5.590   3.956
 5354SOL     OW16960   2.269   4.883   0.541
 5354SOL    HW116961   2.344   4.823   0.516
 5354SOL    HW216962   2.214   4.841   0.613
 5355SOL     OW16963   6.068   4.886   4.447
 5355SOL    HW116964   6.072   4.882   4.547
 5355SOL    HW216965   5.979   4.922   4.419
 5356SOL     OW16966   6.675   3.409   2.298
 5356SOL    HW116967   6.733   3.486   2.269
 5356SOL    HW216968   6.581   3.441   2.309
 5357SOL     OW16969   4.187   4.511   1.025
 5357SOL    HW116970   4.187   4.412   1.044
 5357SOL    HW216971   4.167   4.560   1.110
 5358SOL     OW16972   4.552   2.128   1.343
 5358SOL    HW116973   4.483   2.081   1.288
 5358SOL    HW216974   4.586   2.066   1.413
 5359SOL     OW16975   2.519   1.787   5.930
 5359SOL    HW116976   2.532   1.726   5.852
 5359SOL    HW216977   2.431   1.833   5.924
 5360SOL     OW16978   5.352   6.109   3.529
 5360SOL    HW116979   5.336   6.205   3.504
 5360SOL    HW216980   5.266   6.069   3.563
 5361SOL     OW16981   2.326   6.725   4.171
 5361SOL    HW116982   2.230   6.749   4.182
 5361SOL    HW216983   2.376   6.749   4.254
 5362SOL     OW16984   6.535   5.843   2.650
 5362SOL    HW116985   6.495   5.787   2.722
 5362SOL    HW216986   6.478   5.924   2.635
 5363SOL     OW16987   5.508   6.449   5.730
 5363SOL    HW116988   5.521   6.548   5.727
 5363SOL    HW216989   5.568   6.410   5.800
 5364SOL     OW16990   6.243   6.778   1.761
 5364SOL    HW116991   6.259   6.702   1.697
 5364SOL    HW216992   6.145   6.786   1.779
 5365SOL     OW16993   3.304   2.944   2.379
 5365SOL    HW116994   3.330   2.946   2.476
 5365SOL    HW216995   3.378   2.904   2.325
 5366SOL     OW16996   0.056   6.913   2.261
 5366SOL    HW116997   0.004   6.921   2.347
 5366SOL    HW216998   0.139   6.968   2.268
 5367SOL     OW16999   6.566   6.390   1.212
 5367SOL    HW117000   6.593   6.485   1.228
 5367SOL    HW217001   6.642   6.340   1.170
 5368SOL     OW17002   6.472   6.762   2.489
 5368SOL    HW117003   6.416   6.843   2.510
 5368SOL    HW217004   6.497   6.763   2.392
 5369SOL     OW17005   3.013   6.119   1.110
 5369SOL    HW117006   3.062   6.049   1.059
 5369SOL    HW217007   3.073   6.158   1.180
 5370SOL     OW17008   4.223   3.678   1.086
 5370SOL    HW117009   4.291   3.611   1.056
 5370SOL    HW217010   4.132   3.641   1.072
 5371SOL     OW17011   6.860   5.132   5.264
 5371SOL    HW117012   6.788   5.164   5.325
 5371SOL    HW217013   6.929   5.082   5.317
 5372SOL     OW17014   1.146   6.325   2.671
 5372SOL    HW117015   1.092   6.251   2.630
 5372SOL    HW217016   1.188   6.379   2.598
 5373SOL     OW17017   4.276   6.677   5.616
 5373SOL    HW117018   4.331   6.621   5.677
 5373SOL    HW217019   4.179   6.663   5.636
 5374SOL     OW17020   2.358   4.335   0.480
 5374SOL    HW117021   2.381   4.339   0.577
 5374SOL    HW217022   2.443   4.334   0.426
 5375SOL     OW17023   0.575   5.760   6.037
 5375SOL    HW117024   0.575   5.688   6.106
 5375SOL    HW217025   0.598   5.847   6.081
 5376SOL     OW17026   1.120   2.697   1.550
 5376SOL    HW117027   1.170   2.745   1.478
 5376SOL    HW217028   1.180   2.630   1.593
 5377SOL     OW17029   1.381   0.119   3.277
 5377SOL    HW117030   1.471   0.155   3.252
 5377SOL    HW217031   1.317   0.194   3.289
 5378SOL     OW17032   6.927   0.071   1.659
 5378SOL    HW117033   6.997   0.009   1.694
 5378SOL    HW217034   6.943   0.089   1.562
 5379SOL     OW17035   1.224   3.682   4.953
 5379SOL    HW117036   1.256   3.657   5.044
 5379SOL    HW217037   1.248   3.778   4.934
 5380SOL     OW17038   2.516   6.946   1.185
 5380SOL    HW117039   2.559   6.959   1.275
 5380SOL    HW217040   2.578   6.896   1.125
 5381SOL     OW17041   6.833   5.924   2.317
 5381SOL    HW117042   6.761   5.962   2.376
 5381SOL    HW217043   6.797   5.843   2.270
 5382SOL     OW17044   2.760   2.277   2.555
 5382SOL    HW117045   2.741   2.295   2.459
 5382SOL    HW217046   2.732   2.356   2.610
 5383SOL     OW17047   1.141   2.616   4.182
 5383SOL    HW117048   1.092   2.655   4.260
 5383SOL    HW217049   1.239   2.616   4.200
 5384SOL     OW17050   4.317   5.567   4.705
 5384SOL    HW117051   4.336   5.503   4.779
 5384SOL    HW217052   4.280   5.652   4.743
 5385SOL     OW17053   5.475   2.804   5.300
 5385SOL    HW117054   5.424   2.826   5.217
 5385SOL    HW217055   5.434   2.849   5.378
 5386SOL     OW17056   6.103   1.255   4.261
 5386SOL    HW117057   6.093   1.296   4.352
 5386SOL    HW217058   6.100   1.327   4.192
 5387SOL     OW17059   2.561   6.543   3.414
 5387SOL    HW117060   2.637   6.604   3.393
 5387SOL    HW217061   2.480   6.570   3.362
 5388SOL     OW17062   1.424   6.767   2.614
 5388SOL    HW117063   1.459   6.804   2.700
 5388SOL    HW217064   1.491   6.705   2.575
 5389SOL     OW17065   3.807   1.853   4.570
 5389SOL    HW117066   3.727   1.796   4.552
 5389SOL    HW217067   3.780   1.949   4.573
 5390SOL     OW17068   5.339   4.486   3.529
 5390SOL    HW117069   5.269   4.521   3.466
 5390SOL    HW217070   5.377   4.401   3.492
 5391SOL     OW17071   2.709   1.730   6.884
 5391SOL    HW117072   2.721   1.646   6.831
 5391SOL    HW217073   2.767   1.802   6.846
 5392SOL     OW17074   5.541   4.056   1.470
 5392SOL    HW117075   5.559   4.046   1.373
 5392SOL    HW217076   5.442   4.060   1.485
 5393SOL     OW17077   5.035   0.707   5.162
 5393SOL    HW117078   5.027   0.749   5.071
 5393SOL    HW217079   5.128   0.719   5.196
 5394SOL     OW17080   1.029   5.569   1.109
 5394SOL    HW117081   1.075   5.585   1.197
 5394SOL    HW217082   1.065   5.632   1.041
 5395SOL     OW17083   4.806   0.717   1.285
 5395SOL    HW117084   4.844   0.807   1.265
 5395SOL    HW217085   4.880   0.652   1.302
 5396SOL     OW17086   5.489   5.034   1.792
 5396SOL    HW117087   5.460   5.124   1.827
 5396SOL    HW217088   5.532   4.982   1.866
 5397SOL     OW17089   0.273   2.273   2.020
 5397SOL    HW117090   0.190   2.223   1.996
 5397SOL    HW217091   0.257   2.371   2.008
 5398SOL     OW17092   2.912   2.213   3.545
 5398SOL    HW117093   2.822   2.254   3.529
 5398SOL    HW217094   2.948   2.177   3.458
 5399SOL     OW17095   2.820   0.213   6.367
 5399SOL    HW117096   2.854   0.141   6.427
 5399SOL    HW217097   2.836   0.189   6.271
 5400SOL     OW17098   3.036   3.524   0.571
 5400SOL    HW117099   3.030   3.618   0.606
 5400SOL    HW217100   2.944   3.488   0.558
 5401SOL     OW17101   5.755   4.143   2.292
 5401SOL    HW117102   5.676   4.107   2.242
 5401SOL    HW217103   5.837   4.136   2.234
 5402SOL     OW17104   2.452   6.496   0.675
 5402SOL    HW117105   2.356   6.476   0.694
 5402SOL    HW217106   2.467   6.498   0.576
 5403SOL     OW17107   5.161   3.549   6.437
 5403SOL    HW117108   5.066   3.537   6.408
 5403SOL    HW217109   5.186   3.645   6.427
 5404SOL     OW17110   0.937   6.930   1.464
 5404SOL    HW117111   0.997   6.907   1.541
 5404SOL    HW217112   0.848   6.886   1.476
 5405SOL     OW17113   5.984   4.740   0.025
 5405SOL    HW117114   5.896   4.762   0.068
 5405SOL    HW217115   6.057   4.790   0.073
 5406SOL     OW17116   2.056   0.946   4.906
 5406SOL    HW117117   1.976   0.922   4.960
 5406SOL    HW217118   2.058   1.045   4.892
 5407SOL     OW17119   3.432   1.416   0.865
 5407SOL    HW117120   3.461   1.321   0.873
 5407SOL    HW217121   3.335   1.420   0.844
 5408SOL     OW17122   3.679   1.240   4.917
 5408SOL    HW117123   3.768   1.246   4.961
 5408SOL    HW217124   3.610   1.284   4.974
 5409SOL     OW17125   6.458   1.416   2.458
 5409SOL    HW117126   6.432   1.433   2.553
 5409SOL    HW217127   6.547   1.373   2.455
 5410SOL     OW17128   1.011   2.516   6.485
 5410SOL    HW117129   1.090   2.505   6.546
 5410SOL    HW217130   0.927   2.496   6.536
 5411SOL     OW17131   4.929   5.041   6.277
 5411SOL    HW117132   4.980   5.032   6.191
 5411SOL    HW217133   4.831   5.042   6.257
 5412SOL     OW17134   2.666   1.226   6.537
 5412SOL    HW117135   2.709   1.260   6.453
 5412SOL    HW217136   2.566   1.229   6.526
 5413SOL     OW17137   0.706   6.832   6.869
 5413SOL    HW117138   0.634   6.885   6.914
 5413SOL    HW217139   0.787   6.830   6.927
 5414SOL     OW17140   6.319   4.615   5.108
 5414SOL    HW117141   6.364   4.564   5.182
 5414SOL    HW217142   6.329   4.713   5.124
 5415SOL     OW17143   2.648   6.289   0.819
 5415SOL    HW117144   2.711   6.227   0.772
 5415SOL    HW217145   2.577   6.318   0.756
 5416SOL     OW17146   2.445   4.669   4.981
 5416SOL    HW117147   2.352   4.660   5.018
 5416SOL    HW217148   2.508   4.617   5.038
 5417SOL     OW17149   3.765   0.100   5.099
 5417SOL    HW117150   3.830   0.158   5.049
 5417SOL    HW217151   3.688   0.156   5.130
 5418SOL     OW17152   5.535   5.608   5.189
 5418SOL    HW117153   5.625   5.565   5.192
 5418SOL    HW217154   5.494   5.604   5.281
 5419SOL     OW17155   4.041   5.962   0.447
 5419SOL    HW117156   3.942   5.977   0.438
 5419SOL    HW217157   4.076   5.920   0.363
 5420SOL     OW17158   1.835   2.344   0.967
 5420SOL    HW117159   1.773   2.322   0.892
 5420SOL    HW217160   1.796   2.313   1.054
 5421SOL     OW17161   3.134   5.374   1.255
 5421SOL    HW117162   3.049   5.339   1.216
 5421SOL    HW217163   3.172   5.306   1.318
 5422SOL     OW17164   1.391   5.438   5.136
 5422SOL    HW117165   1.457   5.374   5.174
 5422SOL    HW217166   1.437   5.521   5.108
 5423SOL     OW17167   5.467   4.854   0.611
 5423SOL    HW117168   5.477   4.951   0.635
 5423SOL    HW217169   5.535   4.800   0.661
 5424SOL     OW17170   5.079   4.064   4.405
 5424SOL    HW117171   5.100   4.158   4.431
 5424SOL    HW217172   5.100   4.003   4.481
 5425SOL     OW17173   6.514   2.471   4.551
 5425SOL    HW117174   6.420   2.443   4.532
 5425SOL    HW217175   6.524   2.569   4.535
 5426SOL     OW17176   4.708   5.540   2.197
 5426SOL    HW117177   4.749   5.541   2.106
 5426SOL    HW217178   4.608   5.538   2.188
 5427SOL     OW17179   5.479   3.036   0.343
 5427SOL    HW117180   5.419   3.107   0.305
 5427SOL    HW217181   5.500   2.969   0.272
 5428SOL     OW17182   5.252   6.448   2.146
 5428SOL    HW117183   5.316   6.516   2.182
 5428SOL    HW217184   5.169   6.494   2.114
 5429SOL     OW17185   1.996   0.234   5.019
 5429SOL    HW117186   2.039   0.304   5.075
 5429SOL    HW217187   1.921   0.192   5.070
 5430SOL     OW17188   1.974   3.080   4.678
 5430SOL    HW117189   1.914   3.022   4.623
 5430SOL    HW217190   1.919   3.138   4.738
 5431SOL     OW17191   3.223   3.551   6.670
 5431SOL    HW117192   3.228   3.454   6.647
 5431SOL    HW217193   3.127   3.578   6.676
 5432SOL     OW17194   4.442   5.365   6.552
 5432SOL    HW117195   4.525   5.361   6.497
 5432SOL    HW217196   4.363   5.335   6.499
 5433SOL     OW17197   0.755   7.021   1.259
 5433SOL    HW117198   0.825   7.014   1.330
 5433SOL    HW217199   0.786   6.972   1.177
 5434SOL     OW17200   4.341   1.036   4.856
 5434SOL    HW117201   4.253   1.004   4.820
 5434SOL    HW217202   4.397   1.070   4.781
 5435SOL     OW17203   6.266   3.933   0.624
 5435SOL    HW117204   6.268   3.929   0.724
 5435SOL    HW217205   6.342   3.989   0.591
 5436SOL     OW17206   6.557   4.231   3.880
 5436SOL    HW117207   6.522   4.145   3.917
 5436SOL    HW217208   6.480   4.287   3.850
 5437SOL     OW17209   2.910   5.032   5.506
 5437SOL    HW117210   2.951   5.102   5.565
 5437SOL    HW217211   2.850   5.076   5.440
 5438SOL     OW17212   5.301   4.627   1.897
 5438SOL    HW117213   5.345   4.692   1.959
 5438SOL    HW217214   5.250   4.677   1.827
 5439SOL     OW17215   0.732   3.636   6.860
 5439SOL    HW117216   0.799   3.689   6.911
 5439SOL    HW217217   0.642   3.679   6.869
 5440SOL     OW17218   6.469   6.578   3.902
 5440SOL    HW117219   6.389   6.599   3.844
 5440SOL    HW217220   6.507   6.490   3.875
 5441SOL     OW17221   5.176   3.674   3.008
 5441SOL    HW117222   5.240   3.600   2.989
 5441SOL    HW217223   5.191   3.709   3.100
 5442SOL     OW17224   4.165   6.849   3.735
 5442SOL    HW117225   4.172   6.875   3.638
 5442SOL    HW217226   4.254   6.858   3.779
 5443SOL     OW17227   4.875   5.714   3.891
 5443SOL    HW117228   4.790   5.700   3.943
 5443SOL    HW217229   4.883   5.811   3.866
 5444SOL     OW17230   0.060   1.231   3.632
 5444SOL    HW117231   0.108   1.315   3.604
 5444SOL    HW217232   0.025   1.185   3.551
 5445SOL     OW17233   5.642   4.670   3.698
 5445SOL    HW117234   5.603   4.698   3.610
 5445SOL    HW217235   5.688   4.581   3.687
 5446SOL     OW17236   5.909   5.180   4.558
 5446SOL    HW117237   5.885   5.179   4.461
 5446SOL    HW217238   5.842   5.128   4.610
 5447SOL     OW17239   1.768   1.545   1.147
 5447SOL    HW117240   1.735   1.465   1.096
 5447SOL    HW217241   1.828   1.599   1.088
 5448SOL     OW17242   4.221   4.727   3.743
 5448SOL    HW117243   4.219   4.827   3.740
 5448SOL    HW217244   4.159   4.695   3.816
 5449SOL     OW17245   1.733   1.163   1.282
 5449SOL    HW117246   1.649   1.127   1.240
 5449SOL    HW217247   1.720   1.259   1.305
 5450SOL     OW17248   3.247   6.634   1.226
 5450SOL    HW117249   3.288   6.723   1.203
 5450SOL    HW217250   3.155   6.629   1.188
 5451SOL     OW17251   2.239   5.639   3.890
 5451SOL    HW117252   2.270   5.731   3.917
 5451SOL    HW217253   2.311   5.573   3.910
 5452SOL     OW17254   2.702   4.563   1.457
 5452SOL    HW117255   2.637   4.504   1.409
 5452SOL    HW217256   2.698   4.544   1.555
 5453SOL     OW17257   5.445   3.734   2.201
 5453SOL    HW117258   5.369   3.791   2.232
 5453SOL    HW217259   5.409   3.651   2.157
 5454SOL     OW17260   5.577   5.701   1.286
 5454SOL    HW117261   5.621   5.624   1.332
 5454SOL    HW217262   5.544   5.672   1.196
 5455SOL     OW17263   0.595   1.881   3.572
 5455SOL    HW117264   0.593   1.873   3.671
 5455SOL    HW217265   0.643   1.803   3.533
 5456SOL     OW17266   3.269   1.802   6.407
 5456SOL    HW117267   3.306   1.781   6.316
 5456SOL    HW217268   3.302   1.892   6.436
 5457SOL     OW17269   6.719   2.145   1.125
 5457SOL    HW117270   6.719   2.078   1.051
 5457SOL    HW217271   6.811   2.181   1.138
 5458SOL     OW17272   6.805   4.859   0.758
 5458SOL    HW117273   6.752   4.779   0.786
 5458SOL    HW217274   6.767   4.941   0.799
 5459SOL     OW17275   2.067   5.046   5.132
 5459SOL    HW117276   2.042   4.971   5.071
 5459SOL    HW217277   2.125   5.112   5.083
 5460SOL     OW17278   2.950   0.091   2.290
 5460SOL    HW117279   2.970   0.147   2.370
 5460SOL    HW217280   2.954   7.019   2.315
 5461SOL     OW17281   1.020   1.106   4.584
 5461SOL    HW117282   1.021   1.084   4.681
 5461SOL    HW217283   1.026   1.021   4.531
 5462SOL     OW17284   5.593   5.929   6.705
 5462SOL    HW117285   5.681   5.962   6.672
 5462SOL    HW217286   5.607   5.853   6.769
 5463SOL     OW17287   0.376   1.776   0.148
 5463SOL    HW117288   0.344   1.734   0.233
 5463SOL    HW217289   0.475   1.768   0.142
 5464SOL     OW17290   6.180   6.121   4.955
 5464SOL    HW117291   6.199   6.068   5.037
 5464SOL    HW217292   6.211   6.071   4.875
 5465SOL     OW17293   6.503   0.465   3.102
 5465SOL    HW117294   6.432   0.415   3.151
 5465SOL    HW217295   6.568   0.400   3.062
 5466SOL     OW17296   5.887   2.687   5.871
 5466SOL    HW117297   5.799   2.734   5.880
 5466SOL    HW217298   5.928   2.676   5.962
 5467SOL     OW17299   5.803   4.102   3.090
 5467SOL    HW117300   5.724   4.096   3.028
 5467SOL    HW217301   5.845   4.011   3.099
 5468SOL     OW17302   0.297   2.131   4.282
 5468SOL    HW117303   0.241   2.102   4.360
 5468SOL    HW217304   0.271   2.225   4.257
 5469SOL     OW17305   3.078   5.571   5.850
 5469SOL    HW117306   3.093   5.615   5.761
 5469SOL    HW217307   2.983   5.583   5.877
 5470SOL     OW17308   3.890   5.238   4.105
 5470SOL    HW117309   3.910   5.336   4.104
 5470SOL    HW217310   3.937   5.193   4.030
 5471SOL     OW17311   5.783   0.396   2.243
 5471SOL    HW117312   5.692   0.409   2.282
 5471SOL    HW217313   5.784   0.312   2.188
 5472SOL     OW17314   3.034   3.785   6.667
 5472SOL    HW117315   3.105   3.850   6.696
 5472SOL    HW217316   2.946   3.812   6.705
 5473SOL     OW17317   1.404   3.709   0.312
 5473SOL    HW117318   1.349   3.640   0.264
 5473SOL    HW217319   1.501   3.691   0.295
 5474SOL     OW17320   1.094   5.420   4.426
 5474SOL    HW117321   1.046   5.506   4.443
 5474SOL    HW217322   1.046   5.345   4.472
 5475SOL     OW17323   1.593   1.964   0.361
 5475SOL    HW117324   1.497   1.944   0.376
 5475SOL    HW217325   1.628   2.021   0.435
 5476SOL     OW17326   1.811   4.356   5.011
 5476SOL    HW117327   1.718   4.392   5.021
 5476SOL    HW217328   1.868   4.423   4.963
 5477SOL     OW17329   2.215   3.992   3.245
 5477SOL    HW117330   2.277   4.053   3.197
 5477SOL    HW217331   2.174   3.927   3.181
 5478SOL     OW17332   4.556   6.695   5.442
 5478SOL    HW117333   4.476   6.731   5.394
 5478SOL    HW217334   4.576   6.603   5.408
 5479SOL     OW17335   4.954   1.926   4.904
 5479SOL    HW117336   4.909   1.965   4.824
 5479SOL    HW217337   5.045   1.966   4.914
 5480SOL     OW17338   5.477   4.989   5.308
 5480SOL    HW117339   5.389   4.944   5.294
 5480SOL    HW217340   5.476   5.078   5.264
 5481SOL     OW17341   4.691   1.530   4.679
 5481SOL    HW117342   4.702   1.605   4.743
 5481SOL    HW217343   4.684   1.566   4.586
 5482SOL     OW17344   3.784   3.884   1.977
 5482SOL    HW117345   3.743   3.813   2.034
 5482SOL    HW217346   3.743   3.973   1.999
 5483SOL     OW17347   0.590   2.182   5.401
 5483SOL    HW117348   0.674   2.206   5.352
 5483SOL    HW217349   0.512   2.228   5.359
 5484SOL     OW17350   5.514   0.499   3.985
 5484SOL    HW117351   5.428   0.448   3.988
 5484SOL    HW217352   5.496   0.593   3.956
 5485SOL     OW17353   2.912   6.892   5.094
 5485SOL    HW117354   2.875   6.979   5.127
 5485SOL    HW217355   3.009   6.886   5.116
 5486SOL     OW17356   1.722   5.733   4.515
 5486SOL    HW117357   1.681   5.779   4.436
 5486SOL    HW217358   1.757   5.802   4.579
 5487SOL     OW17359   5.171   2.927   6.850
 5487SOL    HW117360   5.139   2.864   6.778
 5487SOL    HW217361   5.262   2.961   6.825
 5488SOL     OW17362   5.360   1.111   0.607
 5488SOL    HW117363   5.371   1.176   0.682
 5488SOL    HW217364   5.449   1.070   0.586
 5489SOL     OW17365   0.941   5.314   0.855
 5489SOL    HW117366   1.040   5.320   0.858
 5489SOL    HW217367   0.913   5.240   0.794
 5490SOL     OW17368   3.514   0.370   0.776
 5490SOL    HW117369   3.442   0.328   0.831
 5490SOL    HW217370   3.477   0.393   0.685
 5491SOL     OW17371   1.929   4.078   6.944
 5491SOL    HW117372   1.939   4.039   6.852
 5491SOL    HW217373   1.882   4.012   7.003
 5492SOL     OW17374   0.835   1.760   6.553
 5492SOL    HW117375   0.819   1.775   6.456
 5492SOL    HW217376   0.765   1.698   6.589
 5493SOL     OW17377   4.034   3.641   3.797
 5493SOL    HW117378   4.077   3.634   3.707
 5493SOL    HW217379   3.956   3.579   3.802
 5494SOL     OW17380   6.564   2.730   6.746
 5494SOL    HW117381   6.508   2.685   6.677
 5494SOL    HW217382   6.620   2.662   6.793
 5495SOL     OW17383   3.708   2.593   1.444
 5495SOL    HW117384   3.611   2.571   1.432
 5495SOL    HW217385   3.729   2.599   1.541
 5496SOL     OW17386   2.466   0.492   3.375
 5496SOL    HW117387   2.392   0.525   3.433
 5496SOL    HW217388   2.463   0.392   3.370
 5497SOL     OW17389   0.384   2.147   3.831
 5497SOL    HW117390   0.456   2.132   3.763
 5497SOL    HW217391   0.420   2.199   3.908
 5498SOL     OW17392   5.446   6.560   1.421
 5498SOL    HW117393   5.450   6.484   1.487
 5498SOL    HW217394   5.480   6.528   1.333
 5499SOL     OW17395   0.172   1.080   4.045
 5499SOL    HW117396   0.241   1.101   4.115
 5499SOL    HW217397   0.090   1.045   4.090
 5500SOL     OW17398   1.821   6.948   0.300
 5500SOL    HW117399   1.772   6.877   0.350
 5500SOL    HW217400   1.808   6.936   0.202
 5501SOL     OW17401   4.061   7.015   0.869
 5501SOL    HW117402   4.065   0.068   0.804
 5501SOL    HW217403   4.151   7.002   0.910
 5502SOL     OW17404   5.523   3.888   6.860
 5502SOL    HW117405   5.567   3.810   6.905
 5502SOL    HW217406   5.495   3.954   6.929
 5503SOL     OW17407   6.601   5.420   3.468
 5503SOL    HW117408   6.640   5.483   3.401
 5503SOL    HW217409   6.615   5.457   3.560
 5504SOL     OW17410   4.274   1.290   5.013
 5504SOL    HW117411   4.281   1.193   4.989
 5504SOL    HW217412   4.301   1.346   4.934
 5505SOL     OW17413   2.010   5.564   4.485
 5505SOL    HW117414   1.958   5.650   4.494
 5505SOL    HW217415   1.962   5.502   4.424
 5506SOL     OW17416   1.015   1.246   6.295
 5506SOL    HW117417   1.067   1.187   6.357
 5506SOL    HW217418   1.077   1.291   6.231
 5507SOL     OW17419   2.515   0.406   3.776
 5507SOL    HW117420   2.512   0.306   3.772
 5507SOL    HW217421   2.548   0.434   3.866
 5508SOL     OW17422   2.256   0.786   6.511
 5508SOL    HW117423   2.186   0.855   6.529
 5508SOL    HW217424   2.283   0.791   6.415
 5509SOL     OW17425   0.529   6.413   0.545
 5509SOL    HW117426   0.584   6.476   0.490
 5509SOL    HW217427   0.584   6.383   0.624
 5510SOL     OW17428   4.938   6.426   0.844
 5510SOL    HW117429   4.860   6.409   0.784
 5510SOL    HW217430   4.920   6.505   0.901
 5511SOL     OW17431   2.751   0.542   4.277
 5511SOL    HW117432   2.806   0.505   4.352
 5511SOL    HW217433   2.669   0.586   4.314
 5512SOL     OW17434   5.988   2.265   1.783
 5512SOL    HW117435   6.057   2.250   1.854
 5512SOL    HW217436   6.033   2.279   1.695
 5513SOL     OW17437   3.829   4.605   6.353
 5513SOL    HW117438   3.734   4.584   6.376
 5513SOL    HW217439   3.854   4.694   6.392
 5514SOL     OW17440   4.656   6.185   2.926
 5514SOL    HW117441   4.642   6.251   3.001
 5514SOL    HW217442   4.664   6.093   2.964
 5515SOL     OW17443   6.918   4.537   1.375
 5515SOL    HW117444   6.886   4.605   1.441
 5515SOL    HW217445   7.016   4.521   1.389
 5516SOL     OW17446   1.256   3.743   6.202
 5516SOL    HW117447   1.331   3.741   6.136
 5516SOL    HW217448   1.290   3.718   6.293
 5517SOL     OW17449   2.119   3.351   2.155
 5517SOL    HW117450   2.188   3.386   2.091
 5517SOL    HW217451   2.130   3.395   2.244
 5518SOL     OW17452   5.890   6.997   6.576
 5518SOL    HW117453   5.967   6.964   6.631
 5518SOL    HW217454   5.908   6.980   6.480
 5519SOL     OW17455   5.140   3.080   2.966
 5519SOL    HW117456   5.189   2.995   2.985
 5519SOL    HW217457   5.181   3.126   2.888
 5520SOL     OW17458   6.707   5.701   2.222
 5520SOL    HW117459   6.657   5.666   2.302
 5520SOL    HW217460   6.664   5.666   2.138
 5521SOL     OW17461   4.757   0.043   1.502
 5521SOL    HW117462   4.727   0.039   1.407
 5521SOL    HW217463   4.689   7.023   1.560
 5522SOL     OW17464   6.828   5.207   1.052
 5522SOL    HW117465   6.824   5.302   1.019
 5522SOL    HW217466   6.759   5.152   1.005
 5523SOL     OW17467   3.940   0.205   1.869
 5523SOL    HW117468   3.856   0.244   1.907
 5523SOL    HW217469   4.012   0.275   1.869
 5524SOL     OW17470   5.145   5.084   5.063
 5524SOL    HW117471   5.216   5.147   5.094
 5524SOL    HW217472   5.055   5.124   5.081
 5525SOL     OW17473   6.976   2.762   0.315
 5525SOL    HW117474   7.008   2.756   0.409
 5525SOL    HW217475   6.970   2.859   0.288
 5526SOL     OW17476   4.897   4.852   4.774
 5526SOL    HW117477   4.865   4.929   4.718
 5526SOL    HW217478   4.907   4.771   4.715
 5527SOL     OW17479   6.424   3.491   4.542
 5527SOL    HW117480   6.508   3.510   4.491
 5527SOL    HW217481   6.406   3.392   4.542
 5528SOL     OW17482   1.082   1.728   6.771
 5528SOL    HW117483   1.030   1.807   6.737
 5528SOL    HW217484   1.098   1.664   6.695
 5529SOL     OW17485   2.208   0.558   4.038
 5529SOL    HW117486   2.246   0.592   4.123
 5529SOL    HW217487   2.108   0.552   4.046
 5530SOL     OW17488   6.976   2.340   2.346
 5530SOL    HW117489   6.889   2.346   2.395
 5530SOL    HW217490   6.988   2.422   2.290
 5531SOL     OW17491   3.981   3.015   2.254
 5531SOL    HW117492   4.034   2.930   2.246
 5531SOL    HW217493   3.973   3.041   2.350
 5532SOL     OW17494   1.361   2.433   0.366
 5532SOL    HW117495   1.321   2.491   0.437
 5532SOL    HW217496   1.382   2.343   0.404
 5533SOL     OW17497   3.711   0.934   3.107
 5533SOL    HW117498   3.679   0.842   3.129
 5533SOL    HW217499   3.803   0.947   3.143
 5534SOL     OW17500   0.840   1.907   6.042
 5534SOL    HW117501   0.878   1.899   6.134
 5534SOL    HW217502   0.881   1.839   5.982
 5535SOL     OW17503   0.401   3.358   3.921
 5535SOL    HW117504   0.465   3.282   3.933
 5535SOL    HW217505   0.335   3.357   3.997
 5536SOL     OW17506   2.667   0.912   4.188
 5536SOL    HW117507   2.727   0.840   4.154
 5536SOL    HW217508   2.627   0.962   4.112
 5537SOL     OW17509   2.801   0.562   2.922
 5537SOL    HW117510   2.778   0.609   3.007
 5537SOL    HW217511   2.783   0.622   2.845
 5538SOL     OW17512   2.831   0.084   5.222
 5538SOL    HW117513   2.834   0.184   5.212
 5538SOL    HW217514   2.851   0.059   5.316
 5539SOL     OW17515   1.379   3.184   0.189
 5539SOL    HW117516   1.442   3.249   0.147
 5539SOL    HW217517   1.318   3.232   0.252
 5540SOL     OW17518   5.646   3.567   3.636
 5540SOL    HW117519   5.569   3.514   3.672
 5540SOL    HW217520   5.721   3.505   3.615
 5541SOL     OW17521   5.892   0.924   6.202
 5541SOL    HW117522   5.858   1.016   6.216
 5541SOL    HW217523   5.875   0.895   6.107
 5542SOL     OW17524   6.280   5.392   6.225
 5542SOL    HW117525   6.199   5.336   6.208
 5542SOL    HW217526   6.335   5.350   6.297
 5543SOL     OW17527   3.477   5.468   5.686
 5543SOL    HW117528   3.421   5.426   5.757
 5543SOL    HW217529   3.498   5.401   5.615
 5544SOL     OW17530   5.641   6.682   6.005
 5544SOL    HW117531   5.700   6.701   6.083
 5544SOL    HW217532   5.696   6.644   5.931
 5545SOL     OW17533   3.990   1.886   2.864
 5545SOL    HW117534   3.922   1.815   2.882
 5545SOL    HW217535   4.076   1.844   2.837
 5546SOL     OW17536   0.992   6.584   4.800
 5546SOL    HW117537   0.996   6.606   4.898
 5546SOL    HW217538   0.901   6.549   4.777
 5547SOL     OW17539   3.532   0.304   4.446
 5547SOL    HW117540   3.439   0.338   4.432
 5547SOL    HW217541   3.574   0.351   4.524
 5548SOL     OW17542   5.868   3.549   5.702
 5548SOL    HW117543   5.876   3.480   5.630
 5548SOL    HW217544   5.848   3.504   5.789
 5549SOL     OW17545   5.045   3.829   1.023
 5549SOL    HW117546   5.031   3.926   1.044
 5549SOL    HW217547   5.033   3.775   1.106
 5550SOL     OW17548   2.236   4.604   2.318
 5550SOL    HW117549   2.255   4.653   2.233
 5550SOL    HW217550   2.255   4.506   2.305
 5551SOL     OW17551   2.133   5.605   3.179
 5551SOL    HW117552   2.112   5.650   3.091
 5551SOL    HW217553   2.088   5.656   3.253
 5552SOL     OW17554   6.411   0.305   0.189
 5552SOL    HW117555   6.366   0.321   0.277
 5552SOL    HW217556   6.510   0.298   0.203
 5553SOL     OW17557   5.171   6.352   0.284
 5553SOL    HW117558   5.252   6.303   0.316
 5553SOL    HW217559   5.111   6.288   0.235
 5554SOL     OW17560   4.893   1.644   6.040
 5554SOL    HW117561   4.961   1.621   5.971
 5554SOL    HW217562   4.824   1.705   6.001
 5555SOL     OW17563   1.790   4.043   3.803
 5555SOL    HW117564   1.854   4.075   3.872
 5555SOL    HW217565   1.831   4.049   3.712
 5556SOL     OW17566   6.785   1.334   3.411
 5556SOL    HW117567   6.810   1.384   3.328
 5556SOL    HW217568   6.752   1.399   3.480
 5557SOL     OW17569   3.558   6.719   3.176
 5557SOL    HW117570   3.525   6.794   3.119
 5557SOL    HW217571   3.482   6.678   3.226
 5558SOL     OW17572   4.703   3.613   6.168
 5558SOL    HW117573   4.654   3.610   6.255
 5558SOL    HW217574   4.745   3.524   6.151
 5559SOL     OW17575   1.650   0.185   2.201
 5559SOL    HW117576   1.683   0.102   2.245
 5559SOL    HW217577   1.725   0.249   2.191
 5560SOL     OW17578   1.142   6.732   2.584
 5560SOL    HW117579   1.134   6.671   2.505
 5560SOL    HW217580   1.238   6.741   2.610
 5561SOL     OW17581   1.037   1.871   4.007
 5561SOL    HW117582   0.953   1.852   3.956
 5561SOL    HW217583   1.109   1.809   3.977
 5562SOL     OW17584   3.649   2.236   6.451
 5562SOL    HW117585   3.551   2.253   6.444
 5562SOL    HW217586   3.672   2.212   6.546
 5563SOL     OW17587   4.300   5.308   2.267
 5563SOL    HW117588   4.209   5.298   2.226
 5563SOL    HW217589   4.322   5.225   2.318
 5564SOL     OW17590   4.403   0.606   1.575
 5564SOL    HW117591   4.449   0.590   1.488
 5564SOL    HW217592   4.422   0.699   1.607
 5565SOL     OW17593   4.583   1.506   6.177
 5565SOL    HW117594   4.639   1.567   6.234
 5565SOL    HW217595   4.582   1.540   6.083
 5566SOL     OW17596   1.472   5.077   6.996
 5566SOL    HW117597   1.564   5.090   6.960
 5566SOL    HW217598   1.438   4.986   6.969
 5567SOL     OW17599   0.286   3.202   1.662
 5567SOL    HW117600   0.342   3.263   1.606
 5567SOL    HW217601   0.190   3.209   1.632
 5568SOL     OW17602   4.406   1.559   3.952
 5568SOL    HW117603   4.388   1.477   3.897
 5568SOL    HW217604   4.355   1.553   4.038
 5569SOL     OW17605   1.739   1.577   2.325
 5569SOL    HW117606   1.768   1.483   2.309
 5569SOL    HW217607   1.654   1.578   2.377
 5570SOL     OW17608   6.106   4.629   4.652
 5570SOL    HW117609   6.024   4.593   4.607
 5570SOL    HW217610   6.086   4.718   4.693
 5571SOL     OW17611   0.069   5.637   0.975
 5571SOL    HW117612   0.145   5.628   0.911
 5571SOL    HW217613   0.055   5.734   0.997
 5572SOL     OW17614   1.389   2.337   5.255
 5572SOL    HW117615   1.324   2.274   5.297
 5572SOL    HW217616   1.340   2.415   5.217
 5573SOL     OW17617   2.074   4.436   5.980
 5573SOL    HW117618   2.118   4.508   5.926
 5573SOL    HW217619   2.110   4.438   6.074
 5574SOL     OW17620   6.547   1.659   2.643
 5574SOL    HW117621   6.485   1.584   2.666
 5574SOL    HW217622   6.495   1.735   2.603
 5575SOL     OW17623   6.930   1.278   1.117
 5575SOL    HW117624   6.919   1.211   1.191
 5575SOL    HW217625   6.858   1.265   1.049
 5576SOL     OW17626   1.277   5.438   2.327
 5576SOL    HW117627   1.227   5.360   2.289
 5576SOL    HW217628   1.286   5.509   2.257
 5577SOL     OW17629   2.825   2.926   5.477
 5577SOL    HW117630   2.728   2.903   5.462
 5577SOL    HW217631   2.883   2.864   5.424
 5578SOL     OW17632   3.538   3.689   0.024
 5578SOL    HW117633   3.582   3.724   0.107
 5578SOL    HW217634   3.554   3.753   6.973
 5579SOL     OW17635   1.010   3.310   5.932
 5579SOL    HW117636   0.987   3.306   5.835
 5579SOL    HW217637   0.944   3.255   5.984
 5580SOL     OW17638   5.096   2.337   6.098
 5580SOL    HW117639   5.093   2.350   5.999
 5580SOL    HW217640   5.144   2.415   6.140
 5581SOL     OW17641   2.078   0.446   2.098
 5581SOL    HW117642   2.074   0.525   2.036
 5581SOL    HW217643   2.147   0.462   2.168
 5582SOL     OW17644   3.360   3.496   4.684
 5582SOL    HW117645   3.339   3.593   4.691
 5582SOL    HW217646   3.275   3.444   4.673
 5583SOL     OW17647   4.291   0.673   2.741
 5583SOL    HW117648   4.226   0.733   2.695
 5583SOL    HW217649   4.374   0.724   2.763
 5584SOL     OW17650   5.955   4.228   3.883
 5584SOL    HW117651   6.006   4.237   3.798
 5584SOL    HW217652   5.996   4.287   3.953
 5585SOL     OW17653   4.962   5.972   3.904
 5585SOL    HW117654   5.047   5.999   3.949
 5585SOL    HW217655   4.892   5.956   3.973
 5586SOL     OW17656   0.197   2.392   6.900
 5586SOL    HW117657   0.119   2.447   6.929
 5586SOL    HW217658   0.174   2.295   6.908
 5587SOL     OW17659   3.851   6.072   2.684
 5587SOL    HW117660   3.772   6.132   2.672
 5587SOL    HW217661   3.934   6.121   2.657
 5588SOL     OW17662   2.153   6.267   2.756
 5588SOL    HW117663   2.082   6.285   2.825
 5588SOL    HW217664   2.242   6.295   2.792
 5589SOL     OW17665   5.608   3.956   4.991
 5589SOL    HW117666   5.665   4.006   5.057
 5589SOL    HW217667   5.659   3.878   4.956
 5590SOL     OW17668   6.351   5.268   3.960
 5590SOL    HW117669   6.340   5.276   3.861
 5590SOL    HW217670   6.261   5.274   4.004
 5591SOL     OW17671   5.538   1.330   0.077
 5591SOL    HW117672   5.586   1.399   0.132
 5591SOL    HW217673   5.599   1.252   0.060
 5592SOL     OW17674   6.805   4.802   3.126
 5592SOL    HW117675   6.902   4.802   3.151
 5592SOL    HW217676   6.797   4.804   3.026
 5593SOL     OW17677   0.218   2.769   6.106
 5593SOL    HW117678   0.131   2.795   6.065
 5593SOL    HW217679   0.287   2.759   6.034
 5594SOL     OW17680   3.496   1.038   6.572
 5594SOL    HW117681   3.514   0.952   6.622
 5594SOL    HW217682   3.486   1.113   6.638
 5595SOL     OW17683   6.301   0.614   5.584
 5595SOL    HW117684   6.357   0.532   5.599
 5595SOL    HW217685   6.311   0.644   5.489
 5596SOL     OW17686   5.046   0.383   2.896
 5596SOL    HW117687   4.955   0.343   2.902
 5596SOL    HW217688   5.040   0.473   2.852
 5597SOL     OW17689   6.111   1.933   5.508
 5597SOL    HW117690   6.020   1.900   5.484
 5597SOL    HW217691   6.103   2.008   5.574
 5598SOL     OW17692   6.010   3.343   3.853
 5598SOL    HW117693   6.040   3.393   3.772
 5598SOL    HW217694   6.061   3.376   3.933
 5599SOL     OW17695   0.858   2.891   1.859
 5599SOL    HW117696   0.899   2.978   1.887
 5599SOL    HW217697   0.885   2.869   1.766
 5600SOL     OW17698   2.264   0.114   2.507
 5600SOL    HW117699   2.289   0.211   2.501
 5600SOL    HW217700   2.166   0.104   2.492
 5601SOL     OW17701   2.937   1.067   6.393
 5601SOL    HW117702   2.927   1.164   6.370
 5601SOL    HW217703   2.970   1.057   6.487
 5602SOL     OW17704   0.617   0.323   1.723
 5602SOL    HW117705   0.640   0.356   1.632
 5602SOL    HW217706   0.621   0.399   1.788
 5603SOL     OW17707   5.450   2.324   0.126
 5603SOL    HW117708   5.367   2.348   0.176
 5603SOL    HW217709   5.491   2.243   0.166
 5604SOL     OW17710   6.578   2.505   5.200
 5604SOL    HW117711   6.488   2.474   5.170
 5604SOL    HW217712   6.569   2.556   5.286
 5605SOL     OW17713   0.930   0.659   4.409
 5605SOL    HW117714   0.978   0.608   4.480
 5605SOL    HW217715   0.874   0.730   4.451
 5606SOL     OW17716   5.311   0.488   0.625
 5606SOL    HW117717   5.313   0.568   0.686
 5606SOL    HW217718   5.225   0.439   0.637
 5607SOL     OW17719   5.967   1.180   3.921
 5607SOL    HW117720   6.036   1.252   3.935
 5607SOL    HW217721   6.010   1.102   3.875
 5608SOL     OW17722   6.419   0.923   3.113
 5608SOL    HW117723   6.467   1.010   3.102
 5608SOL    HW217724   6.344   0.934   3.179
 5609SOL     OW17725   4.875   5.857   2.223
 5609SOL    HW117726   4.889   5.956   2.226
 5609SOL    HW217727   4.794   5.836   2.168
 5610SOL     OW17728   5.201   4.268   1.634
 5610SOL    HW117729   5.273   4.301   1.695
 5610SOL    HW217730   5.117   4.321   1.649
 5611SOL     OW17731   0.862   5.167   3.598
 5611SOL    HW117732   0.922   5.241   3.625
 5611SOL    HW217733   0.779   5.169   3.654
 5612SOL     OW17734   4.437   3.088   6.661
 5612SOL    HW117735   4.502   3.074   6.736
 5612SOL    HW217736   4.433   3.186   6.639
 5613SOL     OW17737   5.220   5.412   5.166
 5613SOL    HW117738   5.151   5.368   5.222
 5613SOL    HW217739   5.311   5.389   5.200
 5614SOL     OW17740   5.504   3.116   5.218
 5614SOL    HW117741   5.520   3.118   5.317
 5614SOL    HW217742   5.582   3.075   5.172
 5615SOL     OW17743   6.808   1.224   3.999
 5615SOL    HW117744   6.906   1.236   4.013
 5615SOL    HW217745   6.766   1.195   4.085
 5616SOL     OW17746   1.936   2.619   4.898
 5616SOL    HW117747   1.936   2.719   4.895
 5616SOL    HW217748   2.023   2.586   4.935
 5617SOL     OW17749   2.016   4.784   5.343
 5617SOL    HW117750   2.005   4.843   5.423
 5617SOL    HW217751   2.018   4.839   5.260
 5618SOL     OW17752   6.869   4.831   4.112
 5618SOL    HW117753   6.946   4.885   4.144
 5618SOL    HW217754   6.836   4.868   4.025
 5619SOL     OW17755   3.814   3.611   4.106
 5619SOL    HW117756   3.823   3.516   4.075
 5619SOL    HW217757   3.899   3.660   4.088
 5620SOL     OW17758   4.271   4.366   0.059
 5620SOL    HW117759   4.369   4.378   0.074
 5620SOL    HW217760   4.220   4.428   0.117
 5621SOL     OW17761   1.736   3.242   6.996
 5621SOL    HW117762   1.753   3.205   0.063
 5621SOL    HW217763   1.696   3.171   6.938
 5622SOL     OW17764   4.254   0.057   5.966
 5622SOL    HW117765   4.321   0.102   6.027
 5622SOL    HW217766   4.278   6.985   5.956
 5623SOL     OW17767   4.638   6.342   4.773
 5623SOL    HW117768   4.688   6.278   4.831
 5623SOL    HW217769   4.617   6.299   4.686
 5624SOL     OW17770   0.320   4.513   3.854
 5624SOL    HW117771   0.353   4.567   3.932
 5624SOL    HW217772   0.233   4.469   3.878
 5625SOL     OW17773   0.200   6.866   5.738
 5625SOL    HW117774   0.233   6.783   5.693
 5625SOL    HW217775   0.111   6.891   5.700
 5626SOL     OW17776   2.622   6.090   3.880
 5626SOL    HW117777   2.553   6.161   3.866
 5626SOL    HW217778   2.576   6.002   3.896
 5627SOL     OW17779   0.289   4.865   6.505
 5627SOL    HW117780   0.249   4.951   6.471
 5627SOL    HW217781   0.279   4.861   6.604
 5628SOL     OW17782   1.653   3.274   1.493
 5628SOL    HW117783   1.720   3.205   1.467
 5628SOL    HW217784   1.620   3.257   1.585
 5629SOL     OW17785   4.641   3.276   1.687
 5629SOL    HW117786   4.725   3.232   1.658
 5629SOL    HW217787   4.588   3.214   1.745
 5630SOL     OW17788   1.671   4.433   6.821
 5630SOL    HW117789   1.737   4.387   6.880
 5630SOL    HW217790   1.578   4.410   6.852
 5631SOL     OW17791   4.920   1.608   2.100
 5631SOL    HW117792   4.927   1.517   2.059
 5631SOL    HW217793   4.825   1.626   2.126
 5632SOL     OW17794   3.121   2.239   5.387
 5632SOL    HW117795   3.175   2.232   5.470
 5632SOL    HW217796   3.175   2.285   5.316
 5633SOL     OW17797   5.673   4.751   4.604
 5633SOL    HW117798   5.574   4.748   4.592
 5633SOL    HW217799   5.714   4.667   4.568
 5634SOL     OW17800   1.783   4.985   4.353
 5634SOL    HW117801   1.796   4.914   4.284
 5634SOL    HW217802   1.872   5.019   4.384
 5635SOL     OW17803   1.805   6.713   6.827
 5635SOL    HW117804   1.743   6.779   6.786
 5635SOL    HW217805   1.763   6.675   6.909
 5636SOL     OW17806   5.899   6.948   4.974
 5636SOL    HW117807   5.912   0.008   5.027
 5636SOL    HW217808   5.822   6.960   4.912
 5637SOL     OW17809   4.293   6.348   3.610
 5637SOL    HW117810   4.276   6.324   3.706
 5637SOL    HW217811   4.390   6.334   3.589
 5638SOL     OW17812   6.755   3.742   1.167
 5638SOL    HW117813   6.798   3.725   1.078
 5638SOL    HW217814   6.807   3.811   1.217
 5639SOL     OW17815   3.041   0.294   2.503
 5639SOL    HW117816   3.138   0.294   2.529
 5639SOL    HW217817   3.009   0.388   2.495
 5640SOL     OW17818   3.698   0.863   2.612
 5640SOL    HW117819   3.673   0.948   2.565
 5640SOL    HW217820   3.706   0.789   2.546
 5641SOL     OW17821   0.565   4.598   5.433
 5641SOL    HW117822   0.663   4.614   5.430
 5641SOL    HW217823   0.536   4.549   5.351
 5642SOL     OW17824   0.157   5.762   5.423
 5642SOL    HW117825   0.058   5.760   5.408
 5642SOL    HW217826   0.188   5.857   5.425
 5643SOL     OW17827   3.886   0.941   4.385
 5643SOL    HW117828   3.787   0.929   4.383
 5643SOL    HW217829   3.931   0.863   4.342
 5644SOL     OW17830   3.584   6.921   4.674
 5644SOL    HW117831   3.663   6.980   4.694
 5644SOL    HW217832   3.500   6.973   4.687
 5645SOL     OW17833   5.107   4.901   2.726
 5645SOL    HW117834   5.099   4.802   2.737
 5645SOL    HW217835   5.199   4.930   2.751
 5646SOL     OW17836   0.505   5.664   3.529
 5646SOL    HW117837   0.514   5.748   3.475
 5646SOL    HW217838   0.565   5.594   3.491
 5647SOL     OW17839   4.670   6.988   0.580
 5647SOL    HW117840   4.715   6.901   0.600
 5647SOL    HW217841   4.627   7.023   0.663
 5648SOL     OW17842   1.810   0.082   3.837
 5648SOL    HW117843   1.779   0.084   3.742
 5648SOL    HW217844   1.752   0.141   3.893
 5649SOL     OW17845   0.564   0.257   4.909
 5649SOL    HW117846   0.565   0.204   4.824
 5649SOL    HW217847   0.656   0.290   4.929
 5650SOL     OW17848   1.325   5.299   0.593
 5650SOL    HW117849   1.296   5.300   0.689
 5650SOL    HW217850   1.424   5.313   0.588
 5651SOL     OW17851   1.235   1.217   1.326
 5651SOL    HW117852   1.236   1.117   1.319
 5651SOL    HW217853   1.241   1.257   1.235
 5652SOL     OW17854   7.010   6.629   2.076
 5652SOL    HW117855   0.005   6.727   2.083
 5652SOL    HW217856   6.912   6.613   2.081
 5653SOL     OW17857   0.062   6.506   6.715
 5653SOL    HW117858   0.071   6.519   6.617
 5653SOL    HW217859   0.064   6.408   6.736
 5654SOL     OW17860   6.503   0.420   5.624
 5654SOL    HW117861   6.580   0.401   5.562
 5654SOL    HW217862   6.530   0.397   5.718
 5655SOL     OW17863   1.157   3.766   4.591
 5655SOL    HW117864   1.232   3.771   4.657
 5655SOL    HW217865   1.085   3.830   4.618
 5656SOL     OW17866   0.098   3.787   6.564
 5656SOL    HW117867   0.021   3.738   6.603
 5656SOL    HW217868   0.135   3.850   6.632
 5657SOL     OW17869   5.668   1.888   0.407
 5657SOL    HW117870   5.763   1.886   0.376
 5657SOL    HW217871   5.640   1.983   0.420
 5658SOL     OW17872   3.795   4.256   6.238
 5658SOL    HW117873   3.865   4.290   6.300
 5658SOL    HW217874   3.799   4.307   6.152
 5659SOL     OW17875   4.051   3.225   4.317
 5659SOL    HW117876   4.086   3.135   4.343
 5659SOL    HW217877   4.015   3.271   4.398
 5660SOL     OW17878   5.410   0.200   0.685
 5660SOL    HW117879   5.486   0.264   0.673
 5660SOL    HW217880   5.445   0.111   0.711
 5661SOL     OW17881   1.619   5.154   5.232
 5661SOL    HW117882   1.651   5.060   5.228
 5661SOL    HW217883   1.697   5.216   5.238
 5662SOL     OW17884   2.699   6.071   3.542
 5662SOL    HW117885   2.638   6.125   3.485
 5662SOL    HW217886   2.740   6.130   3.612
 5663SOL     OW17887   2.055   3.200   0.500
 5663SOL    HW117888   2.143   3.223   0.541
 5663SOL    HW217889   2.025   3.276   0.442
 5664SOL     OW17890   6.883   4.053   4.809
 5664SOL    HW117891   6.825   4.060   4.890
 5664SOL    HW217892   6.832   4.007   4.736
 5665SOL     OW17893   1.796   1.360   0.019
 5665SOL    HW117894   1.774   1.268   0.052
 5665SOL    HW217895   1.823   1.418   0.096
 5666SOL     OW17896   6.158   6.333   1.872
 5666SOL    HW117897   6.129   6.428   1.879
 5666SOL    HW217898   6.222   6.312   1.946
 5667SOL     OW17899   1.014   5.310   4.182
 5667SOL    HW117900   1.033   5.353   4.270
 5667SOL    HW217901   1.065   5.224   4.176
 5668SOL     OW17902   5.440   1.939   4.312
 5668SOL    HW117903   5.401   2.028   4.335
 5668SOL    HW217904   5.374   1.867   4.332
 5669SOL     OW17905   0.035   3.284   7.005
 5669SOL    HW117906   0.012   3.258   6.911
 5669SOL    HW217907   0.108   3.224   0.014
 5670SOL     OW17908   6.866   2.656   3.618
 5670SOL    HW117909   6.852   2.636   3.715
 5670SOL    HW217910   6.796   2.719   3.586
 5671SOL     OW17911   6.642   6.501   6.990
 5671SOL    HW117912   6.740   6.490   7.009
 5671SOL    HW217913   6.618   6.598   6.991
 5672SOL     OW17914   3.593   4.400   6.567
 5672SOL    HW117915   3.575   4.448   6.481
 5672SOL    HW217916   3.525   4.427   6.635
 5673SOL     OW17917   0.735   6.996   2.224
 5673SOL    HW117918   0.655   0.018   2.187
 5673SOL    HW217919   0.784   6.950   2.150
 5674SOL     OW17920   0.569   5.009   4.873
 5674SOL    HW117921   0.654   4.973   4.912
 5674SOL    HW217922   0.495   4.943   4.885
 5675SOL     OW17923   3.814   2.657   6.485
 5675SOL    HW117924   3.822   2.614   6.575
 5675SOL    HW217925   3.841   2.753   6.492
 5676SOL     OW17926   1.867   2.940   2.197
 5676SOL    HW117927   1.951   2.887   2.182
 5676SOL    HW217928   1.789   2.878   2.200
 5677SOL     OW17929   0.831   1.267   0.968
 5677SOL    HW117930   0.766   1.277   1.044
 5677SOL    HW217931   0.831   1.350   0.913
 5678SOL     OW17932   3.942   6.350   2.819
 5678SOL    HW117933   3.936   6.449   2.831
 5678SOL    HW217934   3.864   6.306   2.864
 5679SOL     OW17935   0.427   1.373   3.761
 5679SOL    HW117936   0.395   1.283   3.790
 5679SOL    HW217937   0.387   1.395   3.672
 5680SOL     OW17938   1.484   5.039   5.704
 5680SOL    HW117939   1.580   5.048   5.731
 5680SOL    HW217940   1.426   5.083   5.772
 5681SOL     OW17941   6.814   4.414   0.568
 5681SOL    HW117942   6.886   4.388   0.504
 5681SOL    HW217943   6.812   4.351   0.645
 5682SOL     OW17944   2.367   4.891   5.551
 5682SOL    HW117945   2.388   4.806   5.600
 5682SOL    HW217946   2.396   4.883   5.456
 5683SOL     OW17947   3.936   0.863   6.064
 5683SOL    HW117948   3.978   0.938   6.115
 5683SOL    HW217949   3.905   0.792   6.128
 5684SOL     OW17950   2.742   2.941   5.868
 5684SOL    HW117951   2.818   2.944   5.803
 5684SOL    HW217952   2.660   2.906   5.822
 5685SOL     OW17953   1.867   3.234   2.145
 5685SOL    HW117954   1.965   3.247   2.133
 5685SOL    HW217955   1.848   3.139   2.170
 5686SOL     OW17956   3.444   1.352   5.986
 5686SOL    HW117957   3.352   1.313   5.976
 5686SOL    HW217958   3.466   1.406   5.905
 5687SOL     OW17959   0.784   4.886   6.858
 5687SOL    HW117960   0.859   4.820   6.868
 5687SOL    HW217961   0.700   4.837   6.835
 5688SOL     OW17962   0.733   2.573   1.094
 5688SOL    HW117963   0.707   2.668   1.077
 5688SOL    HW217964   0.821   2.554   1.049
 5689SOL     OW17965   3.995   0.937   0.473
 5689SOL    HW117966   4.041   0.987   0.399
 5689SOL    HW217967   4.057   0.866   0.509
 5690SOL     OW17968   2.524   6.188   0.163
 5690SOL    HW117969   2.445   6.153   0.213
 5690SOL    HW217970   2.606   6.178   0.219
 5691SOL     OW17971   2.940   0.504   2.016
 5691SOL    HW117972   2.926   0.571   1.944
 5691SOL    HW217973   3.015   0.443   1.991
 5692SOL     OW17974   5.957   3.643   0.867
 5692SOL    HW117975   5.860   3.623   0.878
 5692SOL    HW217976   5.973   3.740   0.883
 5693SOL     OW17977   5.878   2.319   2.304
 5693SOL    HW117978   5.870   2.330   2.205
 5693SOL    HW217979   5.793   2.347   2.348
 5694SOL     OW17980   0.793   1.476   3.266
 5694SOL    HW117981   0.879   1.527   3.272
 5694SOL    HW217982   0.812   1.379   3.250
 5695SOL     OW17983   1.361   2.745   2.896
 5695SOL    HW117984   1.374   2.819   2.830
 5695SOL    HW217985   1.265   2.743   2.925
 5696SOL     OW17986   1.286   1.519   3.087
 5696SOL    HW117987   1.287   1.426   3.123
 5696SOL    HW217988   1.319   1.582   3.157
 5697SOL     OW17989   6.045   2.226   1.500
 5697SOL    HW117990   6.069   2.153   1.436
 5697SOL    HW217991   5.966   2.276   1.464
 5698SOL     OW17992   0.929   3.732   3.954
 5698SOL    HW117993   0.842   3.765   3.916
 5698SOL    HW217994   1.004   3.774   3.903
 5699SOL     OW17995   0.856   2.305   3.131
 5699SOL    HW117996   0.788   2.370   3.096
 5699SOL    HW217997   0.809   2.229   3.176
 5700SOL     OW17998   7.000   6.771   3.459
 5700SOL    HW117999   0.071   6.764   3.487
 5700SOL    HW218000   6.962   6.679   3.447
 5701SOL     OW18001   1.290   0.872   2.173
 5701SOL    HW118002   1.335   0.834   2.093
 5701SOL    HW218003   1.325   0.828   2.256
 5702SOL     OW18004   2.466   5.934   5.247
 5702SOL    HW118005   2.392   5.944   5.181
 5702SOL    HW218006   2.532   6.008   5.236
 5703SOL     OW18007   6.818   4.403   1.649
 5703SOL    HW118008   6.766   4.375   1.730
 5703SOL    HW218009   6.809   4.335   1.577
 5704SOL     OW18010   4.798   4.625   2.222
 5704SOL    HW118011   4.824   4.626   2.319
 5704SOL    HW218012   4.720   4.564   2.209
 5705SOL     OW18013   5.201   0.699   0.203
 5705SOL    HW118014   5.263   0.623   0.183
 5705SOL    HW218015   5.151   0.680   0.287
 5706SOL     OW18016   6.831   4.003   0.774
 5706SOL    HW118017   6.924   3.991   0.738
 5706SOL    HW218018   6.818   3.942   0.852
 5707SOL     OW18019   0.266   6.569   0.269
 5707SOL    HW118020   0.231   6.511   0.196
 5707SOL    HW218021   0.266   6.519   0.356
 5708SOL     OW18022   5.282   6.095   1.700
 5708SOL    HW118023   5.195   6.142   1.689
 5708SOL    HW218024   5.285   6.052   1.790
 5709SOL     OW18025   1.260   0.510   2.463
 5709SOL    HW118026   1.266   0.610   2.453
 5709SOL    HW218027   1.341   0.468   2.423
 5710SOL     OW18028   2.975   3.249   0.491
 5710SOL    HW118029   3.070   3.268   0.469
 5710SOL    HW218030   2.933   3.197   0.417
 5711SOL     OW18031   5.603   1.113   1.939
 5711SOL    HW118032   5.617   1.211   1.933
 5711SOL    HW218033   5.561   1.080   1.854
 5712SOL     OW18034   6.767   0.041   6.521
 5712SOL    HW118035   6.744   0.136   6.544
 5712SOL    HW218036   6.850   0.039   6.466
 5713SOL     OW18037   3.180   2.605   1.700
 5713SOL    HW118038   3.089   2.645   1.708
 5713SOL    HW218039   3.249   2.677   1.704
 5714SOL     OW18040   0.157   5.771   0.353
 5714SOL    HW118041   0.177   5.675   0.376
 5714SOL    HW218042   0.136   5.821   0.436
 5715SOL     OW18043   1.055   6.925   3.217
 5715SOL    HW118044   1.000   6.851   3.178
 5715SOL    HW218045   1.148   6.893   3.232
 5716SOL     OW18046   1.500   4.338   0.099
 5716SOL    HW118047   1.439   4.416   0.085
 5716SOL    HW218048   1.447   4.254   0.103
 5717SOL     OW18049   1.819   5.156   1.023
 5717SOL    HW118050   1.745   5.129   1.084
 5717SOL    HW218051   1.786   5.223   0.957
 5718SOL     OW18052   0.358   2.823   5.289
 5718SOL    HW118053   0.379   2.793   5.382
 5718SOL    HW218054   0.414   2.771   5.224
 5719SOL     OW18055   2.915   1.930   6.616
 5719SOL    HW118056   2.937   1.839   6.581
 5719SOL    HW218057   2.854   1.977   6.552
 5720SOL     OW18058   1.649   5.237   4.330
 5720SOL    HW118059   1.674   5.306   4.261
 5720SOL    HW218060   1.679   5.147   4.299
 5721SOL     OW18061   0.196   3.822   1.046
 5721SOL    HW118062   0.179   3.735   1.094
 5721SOL    HW218063   0.278   3.865   1.084
 5722SOL     OW18064   6.292   1.387   4.810
 5722SOL    HW118065   6.281   1.429   4.720
 5722SOL    HW218066   6.305   1.458   4.879
 5723SOL     OW18067   4.044   3.490   0.900
 5723SOL    HW118068   3.959   3.476   0.951
 5723SOL    HW218069   4.028   3.551   0.823
 5724SOL     OW18070   5.553   2.897   4.938
 5724SOL    HW118071   5.453   2.900   4.930
 5724SOL    HW218072   5.594   2.921   4.851
 5725SOL     OW18073   4.978   5.434   4.242
 5725SOL    HW118074   4.942   5.436   4.149
 5725SOL    HW218075   4.904   5.417   4.306
 5726SOL     OW18076   0.473   4.720   4.558
 5726SOL    HW118077   0.562   4.739   4.600
 5726SOL    HW218078   0.410   4.795   4.577
 5727SOL     OW18079   6.752   1.454   3.848
 5727SOL    HW118080   6.666   1.478   3.891
 5727SOL    HW218081   6.779   1.362   3.876
 5728SOL     OW18082   3.997   0.698   6.722
 5728SOL    HW118083   3.976   0.674   6.817
 5728SOL    HW218084   4.094   0.681   6.704
 5729SOL     OW18085   1.248   1.163   0.552
 5729SOL    HW118086   1.261   1.197   0.644
 5729SOL    HW218087   1.164   1.202   0.514
 5730SOL     OW18088   4.335   5.323   6.106
 5730SOL    HW118089   4.430   5.296   6.124
 5730SOL    HW218090   4.289   5.249   6.057
 5731SOL     OW18091   0.288   6.791   3.607
 5731SOL    HW118092   0.381   6.763   3.585
 5731SOL    HW218093   0.289   6.867   3.671
 5732SOL     OW18094   6.742   5.466   4.664
 5732SOL    HW118095   6.642   5.472   4.655
 5732SOL    HW218096   6.771   5.371   4.652
 5733SOL     OW18097   4.335   6.552   5.110
 5733SOL    HW118098   4.344   6.648   5.138
 5733SOL    HW218099   4.423   6.518   5.077
 5734SOL     OW18100   1.325   6.807   5.355
 5734SOL    HW118101   1.365   6.716   5.361
 5734SOL    HW218102   1.377   6.870   5.413
 5735SOL     OW18103   4.296   2.217   2.296
 5735SOL    HW118104   4.358   2.139   2.288
 5735SOL    HW218105   4.350   2.302   2.300
 5736SOL     OW18106   5.994   4.467   0.224
 5736SOL    HW118107   5.948   4.379   0.237
 5736SOL    HW218108   5.992   4.519   0.310
 5737SOL     OW18109   5.101   6.742   0.801
 5737SOL    HW118110   5.075   6.759   0.896
 5737SOL    HW218111   5.025   6.765   0.741
 5738SOL     OW18112   2.499   3.244   6.000
 5738SOL    HW118113   2.415   3.191   5.986
 5738SOL    HW218114   2.564   3.190   6.053
 5739SOL     OW18115   1.391   0.518   5.474
 5739SOL    HW118116   1.397   0.578   5.554
 5739SOL    HW218117   1.478   0.518   5.425
 5740SOL     OW18118   4.509   3.689   1.693
 5740SOL    HW118119   4.433   3.624   1.681
 5740SOL    HW218120   4.472   3.781   1.706
 5741SOL     OW18121   0.419   3.671   4.460
 5741SOL    HW118122   0.451   3.660   4.554
 5741SOL    HW218123   0.358   3.750   4.455
 5742SOL     OW18124   5.381   6.663   2.222
 5742SOL    HW118125   5.430   6.709   2.148
 5742SOL    HW218126   5.442   6.656   2.302
 5743SOL     OW18127   2.606   5.019   5.427
 5743SOL    HW118128   2.612   4.940   5.487
 5743SOL    HW218129   2.617   4.990   5.332
 5744SOL     OW18130   4.789   0.998   1.999
 5744SOL    HW118131   4.698   1.016   2.037
 5744SOL    HW218132   4.796   0.901   1.974
 5745SOL     OW18133   1.568   0.792   4.505
 5745SOL    HW118134   1.651   0.736   4.507
 5745SOL    HW218135   1.574   0.859   4.431
 5746SOL     OW18136   6.207   6.938   1.547
 5746SOL    HW118137   6.248   6.876   1.613
 5746SOL    HW218138   6.124   6.897   1.509
 5747SOL     OW18139   6.970   4.186   3.046
 5747SOL    HW118140   6.881   4.203   3.089
 5747SOL    HW218141   6.981   4.246   2.967
 5748SOL     OW18142   1.382   5.494   0.292
 5748SOL    HW118143   1.316   5.487   0.218
 5748SOL    HW218144   1.417   5.588   0.297
 5749SOL     OW18145   1.400   6.758   5.055
 5749SOL    HW118146   1.331   6.827   5.080
 5749SOL    HW218147   1.482   6.771   5.111
 5750SOL     OW18148   5.845   6.276   4.610
 5750SOL    HW118149   5.760   6.315   4.646
 5750SOL    HW218150   5.892   6.344   4.554
 5751SOL     OW18151   2.923   2.004   4.206
 5751SOL    HW118152   2.885   2.032   4.118
 5751SOL    HW218153   2.871   2.047   4.280
 5752SOL     OW18154   6.403   0.783   0.525
 5752SOL    HW118155   6.323   0.839   0.547
 5752SOL    HW218156   6.379   0.686   0.536
 5753SOL     OW18157   3.800   3.282   5.129
 5753SOL    HW118158   3.764   3.214   5.192
 5753SOL    HW218159   3.733   3.356   5.118
 5754SOL     OW18160   6.477   4.211   0.917
 5754SOL    HW118161   6.461   4.113   0.924
 5754SOL    HW218162   6.527   4.231   0.833
 5755SOL     OW18163   1.979   3.250   6.369
 5755SOL    HW118164   1.895   3.293   6.335
 5755SOL    HW218165   2.013   3.186   6.300
 5756SOL     OW18166   6.129   6.896   3.748
 5756SOL    HW118167   6.157   6.890   3.652
 5756SOL    HW218168   6.111   6.804   3.783
 5757SOL     OW18169   6.728   5.995   2.963
 5757SOL    HW118170   6.637   6.031   2.942
 5757SOL    HW218171   6.792   6.025   2.892
 5758SOL     OW18172   2.441   1.017   5.111
 5758SOL    HW118173   2.384   1.098   5.128
 5758SOL    HW218174   2.404   0.939   5.163
 5759SOL     OW18175   4.824   1.420   6.749
 5759SOL    HW118176   4.855   1.514   6.755
 5759SOL    HW218177   4.900   1.361   6.724
 5760SOL     OW18178   0.620   4.720   1.095
 5760SOL    HW118179   0.576   4.738   1.182
 5760SOL    HW218180   0.674   4.799   1.068
 5761SOL     OW18181   5.794   6.600   6.590
 5761SOL    HW118182   5.733   6.673   6.559
 5761SOL    HW218183   5.813   6.612   6.688
 5762SOL     OW18184   4.795   6.088   0.182
 5762SOL    HW118185   4.744   6.087   0.269
 5762SOL    HW218186   4.749   6.028   0.116
 5763SOL     OW18187   0.194   0.449   6.955
 5763SOL    HW118188   0.161   0.357   6.934
 5763SOL    HW218189   0.222   0.454   0.026
 5764SOL     OW18190   4.621   5.079   5.737
 5764SOL    HW118191   4.638   5.114   5.829
 5764SOL    HW218192   4.690   5.114   5.675
 5765SOL     OW18193   6.642   3.475   6.951
 5765SOL    HW118194   6.628   3.493   0.025
 5765SOL    HW218195   6.683   3.556   6.909
 5766SOL     OW18196   2.440   2.508   6.963
 5766SOL    HW118197   2.504   2.435   6.987
 5766SOL    HW218198   2.352   2.467   6.935
 5767SOL     OW18199   1.937   0.387   0.382
 5767SOL    HW118200   2.000   0.399   0.458
 5767SOL    HW218201   1.967   0.311   0.325
 5768SOL     OW18202   0.064   6.468   3.262
 5768SOL    HW118203   0.094   6.497   3.353
 5768SOL    HW218204   0.050   6.369   3.261
 5769SOL     OW18205   2.182   5.798   4.710
 5769SOL    HW118206   2.183   5.749   4.622
 5769SOL    HW218207   2.115   5.873   4.705
 5770SOL     OW18208   5.664   0.242   0.436
 5770SOL    HW118209   5.584   0.300   0.427
 5770SOL    HW218210   5.737   0.292   0.482
 5771SOL     OW18211   1.460   6.102   3.418
 5771SOL    HW118212   1.373   6.134   3.456
 5771SOL    HW218213   1.528   6.174   3.427
 5772SOL     OW18214   6.234   2.525   0.887
 5772SOL    HW118215   6.195   2.473   0.962
 5772SOL    HW218216   6.202   2.620   0.892
 5773SOL     OW18217   4.389   1.264   3.894
 5773SOL    HW118218   4.454   1.261   3.969
 5773SOL    HW218219   4.438   1.248   3.807
 5774SOL     OW18220   3.077   5.560   3.956
 5774SOL    HW118221   3.073   5.584   4.053
 5774SOL    HW218222   3.151   5.495   3.940
 5775SOL     OW18223   1.783   0.840   2.127
 5775SOL    HW118224   1.787   0.894   2.043
 5775SOL    HW218225   1.719   0.883   2.191
 5776SOL     OW18226   6.477   0.807   5.777
 5776SOL    HW118227   6.510   0.901   5.767
 5776SOL    HW218228   6.402   0.791   5.713
 5777SOL     OW18229   6.377   0.575   5.176
 5777SOL    HW118230   6.470   0.610   5.177
 5777SOL    HW218231   6.378   0.476   5.159
 5778SOL     OW18232   1.882   0.108   1.427
 5778SOL    HW118233   1.867   0.127   1.524
 5778SOL    HW218234   1.880   0.194   1.376
 5779SOL     OW18235   4.075   1.701   0.597
 5779SOL    HW118236   4.156   1.673   0.546
 5779SOL    HW218237   4.031   1.620   0.638
 5780SOL     OW18238   6.046   5.274   3.065
 5780SOL    HW118239   6.042   5.187   3.114
 5780SOL    HW218240   6.018   5.349   3.125
 5781SOL     OW18241   0.626   4.137   4.557
 5781SOL    HW118242   0.712   4.126   4.507
 5781SOL    HW218243   0.627   4.081   4.640
 5782SOL     OW18244   1.634   0.797   0.979
 5782SOL    HW118245   1.678   0.744   1.052
 5782SOL    HW218246   1.570   0.739   0.929
 5783SOL     OW18247   1.733   0.486   1.671
 5783SOL    HW118248   1.686   0.507   1.586
 5783SOL    HW218249   1.819   0.536   1.676
 5784SOL     OW18250   6.422   6.697   0.330
 5784SOL    HW118251   6.339   6.651   0.297
 5784SOL    HW218252   6.403   6.794   0.341
 5785SOL     OW18253   1.528   1.645   1.127
 5785SOL    HW118254   1.627   1.638   1.139
 5785SOL    HW218255   1.482   1.609   1.208
 5786SOL     OW18256   0.667   4.237   0.475
 5786SOL    HW118257   0.677   4.335   0.457
 5786SOL    HW218258   0.580   4.220   0.520
 5787SOL     OW18259   4.503   2.406   5.092
 5787SOL    HW118260   4.526   2.374   5.184
 5787SOL    HW218261   4.404   2.404   5.079
 5788SOL     OW18262   3.102   1.094   1.610
 5788SOL    HW118263   3.109   1.183   1.655
 5788SOL    HW218264   3.120   1.105   1.512
 5789SOL     OW18265   3.554   3.640   6.314
 5789SOL    HW118266   3.460   3.623   6.284
 5789SOL    HW218267   3.613   3.566   6.281
 5790SOL     OW18268   0.368   4.827   4.943
 5790SOL    HW118269   0.292   4.785   4.893
 5790SOL    HW218270   0.408   4.758   5.004
 5791SOL     OW18271   2.981   2.157   2.465
 5791SOL    HW118272   2.921   2.236   2.479
 5791SOL    HW218273   3.006   2.150   2.369
 5792SOL     OW18274   5.657   3.154   1.892
 5792SOL    HW118275   5.643   3.055   1.892
 5792SOL    HW218276   5.632   3.192   1.803
 5793SOL     OW18277   5.948   0.642   4.262
 5793SOL    HW118278   6.010   0.622   4.338
 5793SOL    HW218279   5.866   0.686   4.297
 5794SOL     OW18280   2.781   0.420   6.543
 5794SOL    HW118281   2.789   0.351   6.471
 5794SOL    HW218282   2.685   0.448   6.552
 5795SOL     OW18283   6.739   0.193   1.399
 5795SOL    HW118284   6.837   0.183   1.417
 5795SOL    HW218285   6.725   0.211   1.302
 5796SOL     OW18286   4.422   0.962   6.391
 5796SOL    HW118287   4.457   1.004   6.475
 5796SOL    HW218288   4.344   0.904   6.413
 5797SOL     OW18289   5.192   1.841   0.506
 5797SOL    HW118290   5.236   1.751   0.513
 5797SOL    HW218291   5.204   1.891   0.592
 5798SOL     OW18292   0.223   5.186   4.598
 5798SOL    HW118293   0.174   5.222   4.518
 5798SOL    HW218294   0.189   5.230   4.681
 5799SOL     OW18295   0.220   0.468   4.434
 5799SOL    HW118296   0.129   0.508   4.450
 5799SOL    HW218297   0.272   0.527   4.372
 5800SOL     OW18298   1.114   6.734   2.002
 5800SOL    HW118299   1.153   6.732   1.910
 5800SOL    HW218300   1.132   6.646   2.048
 5801SOL     OW18301   2.248   2.332   3.505
 5801SOL    HW118302   2.214   2.339   3.598
 5801SOL    HW218303   2.307   2.252   3.496
 5802SOL     OW18304   6.374   3.076   2.792
 5802SOL    HW118305   6.396   2.987   2.754
 5802SOL    HW218306   6.282   3.074   2.830
 5803SOL     OW18307   1.880   5.904   3.109
 5803SOL    HW118308   1.863   5.854   3.194
 5803SOL    HW218309   1.921   5.993   3.131
 5804SOL     OW18310   6.977   5.572   3.633
 5804SOL    HW118311   0.046   5.595   3.603
 5804SOL    HW218312   6.923   5.656   3.641
 5805SOL     OW18313   1.531   3.050   0.681
 5805SOL    HW118314   1.615   3.106   0.679
 5805SOL    HW218315   1.549   2.961   0.638
 5806SOL     OW18316   0.302   4.917   4.600
 5806SOL    HW118317   0.254   4.891   4.684
 5806SOL    HW218318   0.289   5.015   4.583
 5807SOL     OW18319   1.080   5.766   0.234
 5807SOL    HW118320   1.099   5.693   0.300
 5807SOL    HW218321   1.154   5.770   0.167
 5808SOL     OW18322   6.866   6.574   4.329
 5808SOL    HW118323   6.796   6.521   4.280
 5808SOL    HW218324   6.948   6.519   4.340
 5809SOL     OW18325   6.701   2.008   5.083
 5809SOL    HW118326   6.687   2.105   5.062
 5809SOL    HW218327   6.704   1.996   5.182
 5810SOL     OW18328   4.895   0.869   5.356
 5810SOL    HW118329   4.923   0.798   5.421
 5810SOL    HW218330   4.936   0.850   5.266
 5811SOL     OW18331   3.638   1.454   5.078
 5811SOL    HW118332   3.555   1.475   5.129
 5811SOL    HW218333   3.703   1.530   5.088
 5812SOL     OW18334   5.018   3.209   6.058
 5812SOL    HW118335   5.042   3.112   6.057
 5812SOL    HW218336   4.952   3.226   6.131
 5813SOL     OW18337   2.721   0.519   0.674
 5813SOL    HW118338   2.631   0.476   0.669
 5813SOL    HW218339   2.782   0.461   0.729
 5814SOL     OW18340   0.234   3.214   2.088
 5814SOL    HW118341   0.287   3.168   2.016
 5814SOL    HW218342   0.293   3.277   2.138
 5815SOL     OW18343   4.307   1.530   4.207
 5815SOL    HW118344   4.378   1.480   4.256
 5815SOL    HW218345   4.258   1.589   4.272
 5816SOL     OW18346   5.136   4.582   0.317
 5816SOL    HW118347   5.180   4.547   0.234
 5816SOL    HW218348   5.068   4.651   0.293
 5817SOL     OW18349   6.047   4.926   5.318
 5817SOL    HW118350   6.046   5.013   5.268
 5817SOL    HW218351   6.138   4.911   5.356
 5818SOL     OW18352   6.886   5.723   5.407
 5818SOL    HW118353   6.887   5.630   5.443
 5818SOL    HW218354   6.866   5.720   5.309
 5819SOL     OW18355   3.581   6.393   6.834
 5819SOL    HW118356   3.523   6.462   6.792
 5819SOL    HW218357   3.663   6.437   6.872
 5820SOL     OW18358   4.171   4.717   2.656
 5820SOL    HW118359   4.262   4.696   2.690
 5820SOL    HW218360   4.111   4.740   2.733
 5821SOL     OW18361   6.714   1.106   1.832
 5821SOL    HW118362   6.634   1.048   1.847
 5821SOL    HW218363   6.761   1.077   1.749
 5822SOL     OW18364   1.749   2.879   1.662
 5822SOL    HW118365   1.770   2.933   1.581
 5822SOL    HW218366   1.662   2.832   1.650
 5823SOL     OW18367   2.894   6.974   4.436
 5823SOL    HW118368   2.977   6.952   4.383
 5823SOL    HW218369   2.896   0.045   4.463
 5824SOL     OW18370   6.991   6.101   3.381
 5824SOL    HW118371   7.022   6.101   3.286
 5824SOL    HW218372   6.902   6.145   3.387
 5825SOL     OW18373   0.257   6.336   4.601
 5825SOL    HW118374   0.266   6.237   4.590
 5825SOL    HW218375   0.167   6.365   4.569
 5826SOL     OW18376   0.580   6.302   6.068
 5826SOL    HW118377   0.482   6.324   6.069
 5826SOL    HW218378   0.623   6.342   6.149
 5827SOL     OW18379   1.873   3.565   4.497
 5827SOL    HW118380   1.871   3.560   4.597
 5827SOL    HW218381   1.966   3.584   4.466
 5828SOL     OW18382   4.939   1.466   2.521
 5828SOL    HW118383   4.965   1.424   2.608
 5828SOL    HW218384   5.013   1.453   2.455
 5829SOL     OW18385   1.797   0.588   4.601
 5829SOL    HW118386   1.710   0.550   4.633
 5829SOL    HW218387   1.872   0.538   4.643
 5830SOL     OW18388   5.485   0.037   5.781
 5830SOL    HW118389   5.544   0.006   5.706
 5830SOL    HW218390   5.511   0.129   5.808
 5831SOL     OW18391   1.236   0.772   6.033
 5831SOL    HW118392   1.264   0.709   6.106
 5831SOL    HW218393   1.189   0.850   6.072
 5832SOL     OW18394   3.203   4.505   6.890
 5832SOL    HW118395   3.235   4.508   6.985
 5832SOL    HW218396   3.252   4.433   6.841
 5833SOL     OW18397   4.072   3.288   5.095
 5833SOL    HW118398   3.975   3.302   5.112
 5833SOL    HW218399   4.102   3.206   5.144
 5834SOL     OW18400   6.821   4.044   6.637
 5834SOL    HW118401   6.826   3.982   6.558
 5834SOL    HW218402   6.756   4.117   6.618
 5835SOL     OW18403   5.346   2.535   2.711
 5835SOL    HW118404   5.324   2.541   2.614
 5835SOL    HW218405   5.351   2.438   2.737
 5836SOL     OW18406   2.988   0.440   1.613
 5836SOL    HW118407   3.030   0.530   1.606
 5836SOL    HW218408   2.996   0.406   1.707
 5837SOL     OW18409   3.703   2.933   0.130
 5837SOL    HW118410   3.663   3.009   0.080
 5837SOL    HW218411   3.631   2.867   0.152
 5838SOL     OW18412   2.749   1.748   1.000
 5838SOL    HW118413   2.673   1.710   0.947
 5838SOL    HW218414   2.832   1.745   0.945
 5839SOL     OW18415   0.860   2.137   0.660
 5839SOL    HW118416   0.844   2.063   0.725
 5839SOL    HW218417   0.900   2.099   0.576
 5840SOL     OW18418   0.963   3.889   6.760
 5840SOL    HW118419   1.026   3.954   6.717
 5840SOL    HW218420   0.888   3.869   6.698
 5841SOL     OW18421   5.368   1.223   1.669
 5841SOL    HW118422   5.295   1.189   1.728
 5841SOL    HW218423   5.430   1.147   1.646
 5842SOL     OW18424   4.728   2.922   1.554
 5842SOL    HW118425   4.770   2.983   1.621
 5842SOL    HW218426   4.632   2.908   1.579
 5843SOL     OW18427   1.243   4.704   1.866
 5843SOL    HW118428   1.259   4.689   1.768
 5843SOL    HW218429   1.279   4.627   1.918
 5844SOL     OW18430   1.719   5.926   6.344
 5844SOL    HW118431   1.620   5.935   6.339
 5844SOL    HW218432   1.750   5.860   6.276
 5845SOL     OW18433   0.557   0.058   1.586
 5845SOL    HW118434   0.528   7.017   1.656
 5845SOL    HW218435   0.529   0.150   1.612
 5846SOL     OW18436   6.372   3.595   5.545
 5846SOL    HW118437   6.319   3.675   5.571
 5846SOL    HW218438   6.370   3.528   5.620
 5847SOL     OW18439   2.581   2.366   1.937
 5847SOL    HW118440   2.681   2.373   1.939
 5847SOL    HW218441   2.553   2.284   1.987
 5848SOL     OW18442   1.533   5.481   3.229
 5848SOL    HW118443   1.566   5.413   3.163
 5848SOL    HW218444   1.488   5.435   3.305
 5849SOL     OW18445   1.888   0.527   5.311
 5849SOL    HW118446   1.913   0.617   5.347
 5849SOL    HW218447   1.971   0.474   5.292
 5850SOL     OW18448   0.362   3.520   1.888
 5850SOL    HW118449   0.289   3.456   1.864
 5850SOL    HW218450   0.337   3.569   1.972
 5851SOL     OW18451   5.221   3.838   3.866
 5851SOL    HW118452   5.282   3.840   3.787
 5851SOL    HW218453   5.233   3.752   3.916
 5852SOL     OW18454   5.229   6.516   2.719
 5852SOL    HW118455   5.193   6.439   2.665
 5852SOL    HW218456   5.195   6.602   2.681
 5853SOL     OW18457   3.875   5.330   5.232
 5853SOL    HW118458   3.940   5.263   5.268
 5853SOL    HW218459   3.782   5.293   5.237
 5854SOL     OW18460   4.365   3.724   5.638
 5854SOL    HW118461   4.283   3.675   5.609
 5854SOL    HW218462   4.422   3.743   5.559
 5855SOL     OW18463   1.600   1.012   4.336
 5855SOL    HW118464   1.690   1.041   4.370
 5855SOL    HW218465   1.530   1.072   4.373
 5856SOL     OW18466   1.390   5.893   3.635
 5856SOL    HW118467   1.410   5.803   3.672
 5856SOL    HW218468   1.406   5.893   3.536
 5857SOL     OW18469   6.293   3.326   5.046
 5857SOL    HW118470   6.324   3.368   5.131
 5857SOL    HW218471   6.372   3.300   4.991
 5858SOL     OW18472   2.371   2.312   2.728
 5858SOL    HW118473   2.305   2.368   2.679
 5858SOL    HW218474   2.404   2.240   2.667
 5859SOL     OW18475   6.335   6.242   1.309
 5859SOL    HW118476   6.247   6.250   1.262
 5859SOL    HW218477   6.407   6.283   1.254
 5860SOL     OW18478   6.983   4.912   3.515
 5860SOL    HW118479   6.983   4.895   3.613
 5860SOL    HW218480   0.038   4.967   3.490
 5861SOL     OW18481   5.740   1.136   4.052
 5861SOL    HW118482   5.822   1.148   3.996
 5861SOL    HW218483   5.726   1.039   4.070
 5862SOL     OW18484   5.921   5.309   1.130
 5862SOL    HW118485   5.937   5.263   1.043
 5862SOL    HW218486   5.886   5.243   1.197
 5863SOL     OW18487   2.706   2.344   4.747
 5863SOL    HW118488   2.634   2.277   4.730
 5863SOL    HW218489   2.793   2.296   4.759
 5864SOL     OW18490   3.137   4.060   2.669
 5864SOL    HW118491   3.056   4.025   2.623
 5864SOL    HW218492   3.118   4.070   2.767
 5865SOL     OW18493   5.524   0.525   5.013
 5865SOL    HW118494   5.541   0.533   5.111
 5865SOL    HW218495   5.492   0.613   4.977
 5866SOL     OW18496   3.355   3.119   1.227
 5866SOL    HW118497   3.381   3.144   1.320
 5866SOL    HW218498   3.337   3.202   1.174
 5867SOL     OW18499   2.319   3.618   1.424
 5867SOL    HW118500   2.332   3.616   1.523
 5867SOL    HW218501   2.229   3.583   1.401
 5868SOL     OW18502   2.154   1.527   5.780
 5868SOL    HW118503   2.093   1.550   5.856
 5868SOL    HW218504   2.165   1.607   5.721
 5869SOL     OW18505   2.246   5.849   2.962
 5869SOL    HW118506   2.332   5.807   2.932
 5869SOL    HW218507   2.169   5.794   2.928
 5870SOL     OW18508   5.548   6.385   5.013
 5870SOL    HW118509   5.528   6.311   4.949
 5870SOL    HW218510   5.505   6.470   4.981
 5871SOL     OW18511   3.543   3.505   1.944
 5871SOL    HW118512   3.598   3.499   2.027
 5871SOL    HW218513   3.601   3.491   1.864
 5872SOL     OW18514   4.371   6.801   1.459
 5872SOL    HW118515   4.279   6.765   1.445
 5872SOL    HW218516   4.365   6.896   1.490
 5873SOL     OW18517   3.489   0.178   2.225
 5873SOL    HW118518   3.418   0.184   2.155
 5873SOL    HW218519   3.531   0.268   2.238
 5874SOL     OW18520   2.216   4.416   5.242
 5874SOL    HW118521   2.255   4.324   5.245
 5874SOL    HW218522   2.123   4.414   5.277
 5875SOL     OW18523   4.256   1.601   0.383
 5875SOL    HW118524   4.331   1.648   0.336
 5875SOL    HW218525   4.173   1.609   0.328
 5876SOL     OW18526   4.039   3.515   1.631
 5876SOL    HW118527   3.994   3.602   1.651
 5876SOL    HW218528   4.034   3.497   1.533
 5877SOL     OW18529   6.712   6.385   0.897
 5877SOL    HW118530   6.713   6.473   0.848
 5877SOL    HW218531   6.806   6.354   0.909
 5878SOL     OW18532   0.120   5.588   4.552
 5878SOL    HW118533   0.113   5.494   4.586
 5878SOL    HW218534   0.032   5.634   4.562
 5879SOL     OW18535   1.786   4.303   7.018
 5879SOL    HW118536   1.827   4.216   6.990
 5879SOL    HW218537   1.721   4.287   0.068
 5880SOL     OW18538   4.415   4.485   6.876
 5880SOL    HW118539   4.362   4.477   6.791
 5880SOL    HW218540   4.356   4.465   6.954
 5881SOL     OW18541   0.691   6.606   3.043
 5881SOL    HW118542   0.629   6.608   3.120
 5881SOL    HW218543   0.671   6.527   2.984
 5882SOL     OW18544   0.362   5.888   1.601
 5882SOL    HW118545   0.348   5.916   1.696
 5882SOL    HW218546   0.275   5.889   1.552
 5883SOL     OW18547   1.136   1.018   6.088
 5883SOL    HW118548   1.134   1.017   6.188
 5883SOL    HW218549   1.155   1.111   6.056
 5884SOL     OW18550   2.876   1.736   4.571
 5884SOL    HW118551   2.944   1.809   4.559
 5884SOL    HW218552   2.786   1.770   4.544
 5885SOL     OW18553   0.717   0.701   3.262
 5885SOL    HW118554   0.685   0.608   3.280
 5885SOL    HW218555   0.741   0.710   3.166
 5886SOL     OW18556   1.109   2.108   5.070
 5886SOL    HW118557   1.076   2.152   5.154
 5886SOL    HW218558   1.061   2.022   5.058
 5887SOL     OW18559   2.764   1.651   3.390
 5887SOL    HW118560   2.679   1.609   3.421
 5887SOL    HW218561   2.818   1.678   3.470
 5888SOL     OW18562   2.931   1.080   1.903
 5888SOL    HW118563   2.850   1.126   1.939
 5888SOL    HW218564   2.907   1.032   1.819
 5889SOL     OW18565   1.391   6.620   0.638
 5889SOL    HW118566   1.404   6.687   0.564
 5889SOL    HW218567   1.306   6.571   0.623
 5890SOL     OW18568   2.240   1.169   3.881
 5890SOL    HW118569   2.333   1.202   3.894
 5890SOL    HW218570   2.241   1.080   3.836
 5891SOL     OW18571   3.871   3.222   6.030
 5891SOL    HW118572   3.905   3.229   5.936
 5891SOL    HW218573   3.776   3.191   6.028
 5892SOL     OW18574   0.715   5.185   1.629
 5892SOL    HW118575   0.657   5.223   1.702
 5892SOL    HW218576   0.744   5.093   1.655
 5893SOL     OW18577   1.928   3.908   4.119
 5893SOL    HW118578   1.842   3.862   4.097
 5893SOL    HW218579   1.947   3.900   4.217
 5894SOL     OW18580   6.701   4.804   4.345
 5894SOL    HW118581   6.667   4.716   4.313
 5894SOL    HW218582   6.753   4.848   4.272
 5895SOL     OW18583   5.380   4.124   4.295
 5895SOL    HW118584   5.315   4.158   4.363
 5895SOL    HW218585   5.358   4.162   4.206
 5896SOL     OW18586   4.367   0.578   0.047
 5896SOL    HW118587   4.365   0.618   0.139
 5896SOL    HW218588   4.426   0.497   0.047
 5897SOL     OW18589   4.144   0.621   1.493
 5897SOL    HW118590   4.237   0.627   1.528
 5897SOL    HW218591   4.142   0.557   1.416
 5898SOL     OW18592   1.892   6.529   3.285
 5898SOL    HW118593   1.893   6.611   3.229
 5898SOL    HW218594   1.986   6.500   3.304
 5899SOL     OW18595   5.091   5.944   5.950
 5899SOL    HW118596   5.133   5.976   5.865
 5899SOL    HW218597   5.123   5.852   5.970
 5900SOL     OW18598   5.448   5.156   3.699
 5900SOL    HW118599   5.471   5.157   3.602
 5900SOL    HW218600   5.491   5.078   3.744
 5901SOL     OW18601   2.615   0.715   0.526
 5901SOL    HW118602   2.519   0.734   0.547
 5901SOL    HW218603   2.643   0.630   0.571
 5902SOL     OW18604   6.456   2.723   6.050
 5902SOL    HW118605   6.464   2.755   5.956
 5902SOL    HW218606   6.548   2.706   6.087
 5903SOL     OW18607   4.593   4.639   0.133
 5903SOL    HW118608   4.600   4.682   0.042
 5903SOL    HW218609   4.684   4.637   0.175
 5904SOL     OW18610   0.946   4.215   1.614
 5904SOL    HW118611   1.007   4.294   1.625
 5904SOL    HW218612   0.967   4.147   1.685
 5905SOL     OW18613   6.493   5.853   3.187
 5905SOL    HW118614   6.432   5.782   3.153
 5905SOL    HW218615   6.513   5.918   3.114
 5906SOL     OW18616   4.145   2.196   3.670
 5906SOL    HW118617   4.137   2.231   3.763
 5906SOL    HW218618   4.185   2.104   3.672
 5907SOL     OW18619   0.377   5.324   1.197
 5907SOL    HW118620   0.447   5.311   1.267
 5907SOL    HW218621   0.321   5.403   1.219
 5908SOL     OW18622   0.532   2.649   6.296
 5908SOL    HW118623   0.432   2.652   6.289
 5908SOL    HW218624   0.568   2.580   6.235
 5909SOL     OW18625   6.749   5.775   0.569
 5909SOL    HW118626   6.654   5.785   0.598
 5909SOL    HW218627   6.763   5.824   0.483
 5910SOL     OW18628   6.773   3.541   3.653
 5910SOL    HW118629   6.779   3.453   3.605
 5910SOL    HW218630   6.806   3.530   3.747
 5911SOL     OW18631   6.531   6.686   6.434
 5911SOL    HW118632   6.624   6.721   6.451
 5911SOL    HW218633   6.476   6.695   6.517
 5912SOL     OW18634   6.818   1.005   6.084
 5912SOL    HW118635   6.760   0.930   6.117
 5912SOL    HW218636   6.835   0.994   5.987
 5913SOL     OW18637   4.774   3.012   6.335
 5913SOL    HW118638   4.681   3.024   6.368
 5913SOL    HW218639   4.838   3.058   6.396
 5914SOL     OW18640   1.319   4.877   6.606
 5914SOL    HW118641   1.247   4.912   6.546
 5914SOL    HW218642   1.373   4.954   6.641
 5915SOL     OW18643   4.699   5.797   1.233
 5915SOL    HW118644   4.781   5.743   1.253
 5915SOL    HW218645   4.679   5.856   1.311
 5916SOL     OW18646   5.514   6.307   3.884
 5916SOL    HW118647   5.506   6.284   3.981
 5916SOL    HW218648   5.426   6.339   3.850
 5917SOL     OW18649   3.053   3.300   4.435
 5917SOL    HW118650   3.146   3.289   4.401
 5917SOL    HW218651   3.054   3.302   4.535
 5918SOL     OW18652   1.964   4.134   5.362
 5918SOL    HW118653   1.992   4.131   5.266
 5918SOL    HW218654   1.910   4.052   5.384
 5919SOL     OW18655   3.926   3.025   3.057
 5919SOL    HW118656   3.924   3.080   3.140
 5919SOL    HW218657   3.857   2.953   3.063
 5920SOL     OW18658   4.479   1.052   6.637
 5920SOL    HW118659   4.505   1.042   6.733
 5920SOL    HW218660   4.476   1.149   6.613
 5921SOL     OW18661   3.440   5.285   6.293
 5921SOL    HW118662   3.456   5.347   6.217
 5921SOL    HW218663   3.466   5.192   6.267
 5922SOL     OW18664   5.236   4.230   3.170
 5922SOL    HW118665   5.291   4.305   3.208
 5922SOL    HW218666   5.152   4.220   3.223
 5923SOL     OW18667   0.170   1.774   1.857
 5923SOL    HW118668   0.118   1.799   1.939
 5923SOL    HW218669   0.124   1.814   1.776
 5924SOL     OW18670   6.811   7.020   2.870
 5924SOL    HW118671   6.882   0.067   2.871
 5924SOL    HW218672   6.748   0.014   2.794
 5925SOL     OW18673   4.075   6.771   1.977
 5925SOL    HW118674   4.029   6.726   1.900
 5925SOL    HW218675   4.056   6.721   2.061
 5926SOL     OW18676   4.069   5.703   2.032
 5926SOL    HW118677   4.004   5.626   2.022
 5926SOL    HW218678   4.041   5.777   1.971
 5927SOL     OW18679   1.549   4.739   2.622
 5927SOL    HW118680   1.465   4.721   2.673
 5927SOL    HW218681   1.557   4.675   2.546
 5928SOL     OW18682   3.522   6.752   1.396
 5928SOL    HW118683   3.491   6.814   1.324
 5928SOL    HW218684   3.539   6.662   1.358
 5929SOL     OW18685   6.617   0.410   5.874
 5929SOL    HW118686   6.589   0.317   5.848
 5929SOL    HW218687   6.700   0.435   5.823
 5930SOL     OW18688   6.579   3.735   2.924
 5930SOL    HW118689   6.664   3.686   2.904
 5930SOL    HW218690   6.546   3.710   3.015
 5931SOL     OW18691   0.075   5.828   3.194
 5931SOL    HW118692   0.149   5.890   3.172
 5931SOL    HW218693   0.112   5.743   3.232
 5932SOL     OW18694   3.315   0.278   0.949
 5932SOL    HW118695   3.250   0.309   0.880
 5932SOL    HW218696   3.293   0.319   1.037
 5933SOL     OW18697   6.631   4.908   3.821
 5933SOL    HW118698   6.631   4.808   3.826
 5933SOL    HW218699   6.581   4.937   3.739
 5934SOL     OW18700   3.682   2.974   4.729
 5934SOL    HW118701   3.639   2.930   4.807
 5934SOL    HW218702   3.687   3.073   4.745
 5935SOL     OW18703   6.371   5.192   6.423
 5935SOL    HW118704   6.338   5.124   6.357
 5935SOL    HW218705   6.471   5.189   6.427
 5936SOL     OW18706   3.101   2.323   1.609
 5936SOL    HW118707   3.161   2.399   1.631
 5936SOL    HW218708   3.006   2.351   1.622
 5937SOL     OW18709   6.242   3.416   2.147
 5937SOL    HW118710   6.275   3.328   2.181
 5937SOL    HW218711   6.185   3.459   2.217
 5938SOL     OW18712   6.536   5.272   3.083
 5938SOL    HW118713   6.572   5.236   3.169
 5938SOL    HW218714   6.565   5.214   3.007
 5939SOL     OW18715   2.558   6.517   2.957
 5939SOL    HW118716   2.637   6.491   3.012
 5939SOL    HW218717   2.579   6.600   2.905
 5940SOL     OW18718   4.626   5.224   2.336
 5940SOL    HW118719   4.546   5.172   2.308
 5940SOL    HW218720   4.607   5.322   2.329
 5941SOL     OW18721   5.558   3.165   2.170
 5941SOL    HW118722   5.620   3.151   2.092
 5941SOL    HW218723   5.474   3.210   2.137
 5942SOL     OW18724   5.351   3.922   0.274
 5942SOL    HW118725   5.344   3.825   0.301
 5942SOL    HW218726   5.284   3.975   0.326
 5943SOL     OW18727   3.304   4.140   5.700
 5943SOL    HW118728   3.206   4.162   5.705
 5943SOL    HW218729   3.344   4.145   5.791
 5944SOL     OW18730   6.996   2.440   0.968
 5944SOL    HW118731   0.042   2.510   0.977
 5944SOL    HW218732   6.906   2.483   0.967
 5945SOL     OW18733   6.724   4.734   5.174
 5945SOL    HW118734   6.691   4.668   5.107
 5945SOL    HW218735   6.763   4.814   5.127
 5946SOL     OW18736   3.704   3.498   5.947
 5946SOL    HW118737   3.623   3.447   5.977
 5946SOL    HW218738   3.689   3.596   5.961
 5947SOL     OW18739   3.251   3.242   2.618
 5947SOL    HW118740   3.223   3.297   2.696
 5947SOL    HW218741   3.193   3.160   2.612
 5948SOL     OW18742   4.168   4.729   2.374
 5948SOL    HW118743   4.157   4.716   2.472
 5948SOL    HW218744   4.193   4.824   2.355
 5949SOL     OW18745   5.249   4.079   1.440
 5949SOL    HW118746   5.221   4.120   1.353
 5949SOL    HW218747   5.211   4.133   1.516
 5950SOL     OW18748   5.475   1.012   5.399
 5950SOL    HW118749   5.405   1.037   5.466
 5950SOL    HW218750   5.473   1.077   5.323
 5951SOL     OW18751   1.470   5.339   3.474
 5951SOL    HW118752   1.550   5.282   3.493
 5951SOL    HW218753   1.437   5.380   3.559
 5952SOL     OW18754   5.252   4.964   3.355
 5952SOL    HW118755   5.289   5.044   3.402
 5952SOL    HW218756   5.166   4.937   3.397
 5953SOL     OW18757   6.319   3.540   5.281
 5953SOL    HW118758   6.222   3.547   5.259
 5953SOL    HW218759   6.331   3.540   5.380
 5954SOL     OW18760   6.178   5.218   5.464
 5954SOL    HW118761   6.136   5.190   5.378
 5954SOL    HW218762   6.107   5.248   5.528
 5955SOL     OW18763   4.764   5.555   2.479
 5955SOL    HW118764   4.762   5.539   2.380
 5955SOL    HW218765   4.760   5.653   2.497
 5956SOL     OW18766   4.531   1.851   4.628
 5956SOL    HW118767   4.543   1.788   4.704
 5956SOL    HW218768   4.573   1.813   4.546
 5957SOL     OW18769   3.282   1.077   4.835
 5957SOL    HW118770   3.264   1.165   4.791
 5957SOL    HW218771   3.221   1.067   4.914
 5958SOL     OW18772   5.352   6.356   2.899
 5958SOL    HW118773   5.292   6.414   2.844
 5958SOL    HW218774   5.400   6.292   2.839
 5959SOL     OW18775   4.232   2.973   5.354
 5959SOL    HW118776   4.164   3.047   5.351
 5959SOL    HW218777   4.187   2.887   5.332
 5960SOL     OW18778   4.122   5.318   4.842
 5960SOL    HW118779   4.184   5.375   4.898
 5960SOL    HW218780   4.071   5.256   4.902
 5961SOL     OW18781   4.756   2.010   3.059
 5961SOL    HW118782   4.794   2.101   3.078
 5961SOL    HW218783   4.708   2.010   2.972
 5962SOL     OW18784   6.037   6.006   6.967
 5962SOL    HW118785   6.103   6.081   6.964
 5962SOL    HW218786   5.959   6.028   6.908
 5963SOL     OW18787   3.713   3.547   6.703
 5963SOL    HW118788   3.711   3.530   6.801
 5963SOL    HW218789   3.670   3.635   6.683
 5964SOL     OW18790   0.988   6.048   5.440
 5964SOL    HW118791   0.902   6.024   5.484
 5964SOL    HW218792   1.063   6.034   5.504
 5965SOL     OW18793   1.827   1.569   0.187
 5965SOL    HW118794   1.762   1.578   0.263
 5965SOL    HW218795   1.791   1.615   0.106
 5966SOL     OW18796   2.206   6.314   5.916
 5966SOL    HW118797   2.107   6.300   5.918
 5966SOL    HW218798   2.245   6.262   5.841
 5967SOL     OW18799   3.019   0.334   5.985
 5967SOL    HW118800   3.038   0.416   5.930
 5967SOL    HW218801   3.041   0.253   5.931
 5968SOL     OW18802   5.450   2.192   0.665
 5968SOL    HW118803   5.395   2.247   0.728
 5968SOL    HW218804   5.487   2.113   0.714
 5969SOL     OW18805   6.173   0.061   6.766
 5969SOL    HW118806   6.143   7.010   6.824
 5969SOL    HW218807   6.168   0.146   6.818
 5970SOL     OW18808   0.321   4.441   2.882
 5970SOL    HW118809   0.278   4.520   2.837
 5970SOL    HW218810   0.305   4.359   2.827
 5971SOL     OW18811   0.343   1.588   2.456
 5971SOL    HW118812   0.256   1.582   2.408
 5971SOL    HW218813   0.372   1.684   2.459
 5972SOL     OW18814   5.624   6.027   6.194
 5972SOL    HW118815   5.647   6.031   6.097
 5972SOL    HW218816   5.680   5.958   6.239
 5973SOL     OW18817   1.538   3.516   1.915
 5973SOL    HW118818   1.468   3.495   1.983
 5973SOL    HW218819   1.626   3.530   1.961
 5974SOL     OW18820   5.641   5.548   6.648
 5974SOL    HW118821   5.640   5.616   6.722
 5974SOL    HW218822   5.601   5.463   6.681
 5975SOL     OW18823   4.493   0.097   1.251
 5975SOL    HW118824   4.542   0.010   1.261
 5975SOL    HW218825   4.403   0.080   1.211
 5976SOL     OW18826   4.068   2.599   5.943
 5976SOL    HW118827   4.077   2.520   5.882
 5976SOL    HW218828   4.151   2.607   5.999
 5977SOL     OW18829   1.677   5.940   0.068
 5977SOL    HW118830   1.623   5.976   0.144
 5977SOL    HW218831   1.669   6.002   7.014
 5978SOL     OW18832   4.250   5.495   1.982
 5978SOL    HW118833   4.176   5.563   1.986
 5978SOL    HW218834   4.321   5.519   2.048
 5979SOL     OW18835   5.747   0.626   2.553
 5979SOL    HW118836   5.803   0.551   2.517
 5979SOL    HW218837   5.803   0.684   2.612
 5980SOL     OW18838   3.287   3.930   0.996
 5980SOL    HW118839   3.306   4.027   1.013
 5980SOL    HW218840   3.374   3.881   0.988
 5981SOL     OW18841   5.598   2.060   1.468
 5981SOL    HW118842   5.662   2.102   1.532
 5981SOL    HW218843   5.575   1.968   1.499
 5982SOL     OW18844   6.305   2.369   1.602
 5982SOL    HW118845   6.377   2.313   1.643
 5982SOL    HW218846   6.283   2.334   1.511
 5983SOL     OW18847   0.975   1.444   3.576
 5983SOL    HW118848   0.980   1.544   3.582
 5983SOL    HW218849   0.896   1.411   3.628
 5984SOL     OW18850   5.861   5.682   3.362
 5984SOL    HW118851   5.816   5.710   3.448
 5984SOL    HW218852   5.795   5.686   3.287
 5985SOL     OW18853   6.834   3.305   3.829
 5985SOL    HW118854   6.932   3.307   3.850
 5985SOL    HW218855   6.821   3.276   3.734
 5986SOL     OW18856   3.291   3.955   4.311
 5986SOL    HW118857   3.333   4.021   4.373
 5986SOL    HW218858   3.226   4.001   4.251
 5987SOL     OW18859   5.697   6.920   3.749
 5987SOL    HW118860   5.760   6.938   3.824
 5987SOL    HW218861   5.676   7.006   3.702
 5988SOL     OW18862   4.325   0.476   5.812
 5988SOL    HW118863   4.313   0.550   5.878
 5988SOL    HW218864   4.407   0.424   5.834
 5989SOL     OW18865   2.362   5.863   6.512
 5989SOL    HW118866   2.420   5.785   6.538
 5989SOL    HW218867   2.414   5.948   6.524
 5990SOL     OW18868   3.268   3.543   0.724
 5990SOL    HW118869   3.197   3.510   0.662
 5990SOL    HW218870   3.227   3.571   0.811
 5991SOL     OW18871   3.604   5.261   6.686
 5991SOL    HW118872   3.653   5.325   6.626
 5991SOL    HW218873   3.603   5.170   6.643
 5992SOL     OW18874   3.739   0.374   2.018
 5992SOL    HW118875   3.764   0.453   1.962
 5992SOL    HW218876   3.646   0.345   1.995
 5993SOL     OW18877   3.652   4.441   5.915
 5993SOL    HW118878   3.631   4.409   5.823
 5993SOL    HW218879   3.718   4.516   5.910
 5994SOL     OW18880   6.766   2.398   1.521
 5994SOL    HW118881   6.852   2.407   1.573
 5994SOL    HW218882   6.763   2.308   1.478
 5995SOL     OW18883   4.973   3.443   2.383
 5995SOL    HW118884   4.998   3.386   2.305
 5995SOL    HW218885   4.911   3.516   2.352
 5996SOL     OW18886   0.651   6.130   1.100
 5996SOL    HW118887   0.553   6.128   1.119
 5996SOL    HW218888   0.691   6.042   1.128
 5997SOL     OW18889   0.151   5.366   2.666
 5997SOL    HW118890   0.057   5.385   2.694
 5997SOL    HW218891   0.194   5.451   2.633
 5998SOL     OW18892   6.305   1.337   3.387
 5998SOL    HW118893   6.343   1.267   3.448
 5998SOL    HW218894   6.336   1.321   3.293
 5999SOL     OW18895   2.351   2.681   1.709
 5999SOL    HW118896   2.331   2.592   1.666
 5999SOL    HW218897   2.397   2.666   1.796
 6000SOL     OW18898   2.719   6.855   0.476
 6000SOL    HW118899   2.807   6.819   0.508
 6000SOL    HW218900   2.696   6.815   0.387
 6001SOL     OW18901   0.161   4.632   6.855
 6001SOL    HW118902   0.213   4.687   6.790
 6001SOL    HW218903   0.066   4.626   6.825
 6002SOL     OW18904   5.765   0.747   0.609
 6002SOL    HW118905   5.688   0.804   0.580
 6002SOL    HW218906   5.821   0.797   0.675
 6003SOL     OW18907   6.097   1.787   4.509
 6003SOL    HW118908   6.023   1.734   4.469
 6003SOL    HW218909   6.148   1.835   4.437
 6004SOL     OW18910   6.828   3.602   3.006
 6004SOL    HW118911   6.922   3.635   2.994
 6004SOL    HW218912   6.803   3.607   3.103
 6005SOL     OW18913   4.859   5.057   4.267
 6005SOL    HW118914   4.832   5.148   4.298
 6005SOL    HW218915   4.783   4.993   4.281
 6006SOL     OW18916   2.821   1.417   5.186
 6006SOL    HW118917   2.798   1.335   5.132
 6006SOL    HW218918   2.844   1.389   5.279
 6007SOL     OW18919   5.314   3.956   5.893
 6007SOL    HW118920   5.326   3.905   5.978
 6007SOL    HW218921   5.268   3.899   5.826
 6008SOL     OW18922   2.477   4.494   5.186
 6008SOL    HW118923   2.557   4.460   5.236
 6008SOL    HW218924   2.411   4.532   5.251
 6009SOL     OW18925   2.370   1.037   3.058
 6009SOL    HW118926   2.271   1.024   3.067
 6009SOL    HW218927   2.400   1.110   3.119
 6010SOL     OW18928   1.112   5.068   4.215
 6010SOL    HW118929   1.116   4.984   4.162
 6010SOL    HW218930   1.181   5.067   4.287
 6011SOL     OW18931   5.408   2.963   2.936
 6011SOL    HW118932   5.453   2.900   2.999
 6011SOL    HW218933   5.359   2.911   2.866
 6012SOL     OW18934   5.588   0.908   0.481
 6012SOL    HW118935   5.576   0.992   0.428
 6012SOL    HW218936   5.499   0.866   0.498
 6013SOL     OW18937   5.090   2.020   2.788
 6013SOL    HW118938   5.130   2.086   2.852
 6013SOL    HW218939   5.082   2.062   2.698
 6014SOL     OW18940   3.932   3.882   2.868
 6014SOL    HW118941   3.899   3.956   2.810
 6014SOL    HW218942   4.014   3.842   2.828
 6015SOL     OW18943   6.477   3.787   4.350
 6015SOL    HW118944   6.398   3.736   4.313
 6015SOL    HW218945   6.445   3.854   4.417
 6016SOL     OW18946   6.339   1.754   5.504
 6016SOL    HW118947   6.256   1.810   5.509
 6016SOL    HW218948   6.351   1.705   5.591
 6017SOL     OW18949   6.640   4.648   3.738
 6017SOL    HW118950   6.652   4.610   3.646
 6017SOL    HW218951   6.556   4.612   3.778
 6018SOL     OW18952   3.889   0.660   6.216
 6018SOL    HW118953   3.898   0.576   6.163
 6018SOL    HW218954   3.891   0.637   6.314
 6019SOL     OW18955   0.596   2.833   4.335
 6019SOL    HW118956   0.654   2.903   4.377
 6019SOL    HW218957   0.589   2.850   4.237
 6020SOL     OW18958   0.780   4.918   0.934
 6020SOL    HW118959   0.852   4.946   0.998
 6020SOL    HW218960   0.805   4.829   0.894
 6021SOL     OW18961   4.325   0.405   2.823
 6021SOL    HW118962   4.320   0.500   2.793
 6021SOL    HW218963   4.407   0.362   2.785
 6022SOL     OW18964   5.456   1.559   3.790
 6022SOL    HW118965   5.499   1.488   3.735
 6022SOL    HW218966   5.523   1.600   3.852
 6023SOL     OW18967   5.894   1.388   1.575
 6023SOL    HW118968   5.912   1.291   1.592
 6023SOL    HW218969   5.967   1.425   1.517
 6024SOL     OW18970   2.244   4.725   2.893
 6024SOL    HW118971   2.243   4.669   2.810
 6024SOL    HW218972   2.214   4.818   2.871
 6025SOL     OW18973   3.947   1.703   3.368
 6025SOL    HW118974   3.897   1.778   3.412
 6025SOL    HW218975   4.011   1.663   3.434
 6026SOL     OW18976   6.853   4.072   5.263
 6026SOL    HW118977   6.933   4.133   5.260
 6026SOL    HW218978   6.803   4.078   5.177
 6027SOL     OW18979   0.800   3.006   5.732
 6027SOL    HW118980   0.711   3.045   5.710
 6027SOL    HW218981   0.866   3.033   5.661
 6028SOL     OW18982   6.578   4.791   0.376
 6028SOL    HW118983   6.661   4.762   0.423
 6028SOL    HW218984   6.504   4.728   0.399
 6029SOL     OW18985   2.230   6.830   4.945
 6029SOL    HW118986   2.254   6.879   4.861
 6029SOL    HW218987   2.170   6.753   4.922
 6030SOL     OW18988   4.074   5.492   2.676
 6030SOL    HW118989   4.152   5.534   2.629
 6030SOL    HW218990   3.994   5.552   2.668
 6031SOL     OW18991   2.753   5.591   4.449
 6031SOL    HW118992   2.748   5.494   4.428
 6031SOL    HW218993   2.673   5.638   4.411
 6032SOL     OW18994   2.414   4.373   2.673
 6032SOL    HW118995   2.437   4.422   2.589
 6032SOL    HW218996   2.469   4.409   2.748
 6033SOL     OW18997   2.550   1.897   2.704
 6033SOL    HW118998   2.625   1.861   2.648
 6033SOL    HW218999   2.581   1.908   2.798
 6034SOL     OW19000   1.213   6.973   5.178
 6034SOL    HW119001   1.253   0.038   5.198
 6034SOL    HW219002   1.253   6.904   5.239
 6035SOL     OW19003   0.614   1.506   2.052
 6035SOL    HW119004   0.516   1.498   2.072
 6035SOL    HW219005   0.651   1.589   2.094
 6036SOL     OW19006   4.860   4.811   3.086
 6036SOL    HW119007   4.837   4.751   3.009
 6036SOL    HW219008   4.959   4.827   3.087
 6037SOL     OW19009   4.427   6.202   0.467
 6037SOL    HW119010   4.515   6.157   0.477
 6037SOL    HW219011   4.369   6.150   0.405
 6038SOL     OW19012   1.757   2.974   5.897
 6038SOL    HW119013   1.705   2.969   5.811
 6038SOL    HW219014   1.707   2.925   5.968
 6039SOL     OW19015   3.107   3.038   3.031
 6039SOL    HW119016   3.178   3.107   3.027
 6039SOL    HW219017   3.093   3.008   3.125
 6040SOL     OW19018   1.268   1.524   0.444
 6040SOL    HW119019   1.254   1.525   0.543
 6040SOL    HW219020   1.362   1.496   0.424
 6041SOL     OW19021   2.868   0.346   5.122
 6041SOL    HW119022   2.837   0.428   5.170
 6041SOL    HW219023   2.917   0.373   5.039
 6042SOL     OW19024   4.524   6.524   2.464
 6042SOL    HW119025   4.443   6.562   2.507
 6042SOL    HW219026   4.553   6.582   2.388
 6043SOL     OW19027   1.058   5.290   5.674
 6043SOL    HW119028   1.110   5.207   5.692
 6043SOL    HW219029   0.969   5.266   5.634
 6044SOL     OW19030   1.239   2.906   1.351
 6044SOL    HW119031   1.331   2.940   1.330
 6044SOL    HW219032   1.171   2.971   1.317
 6045SOL     OW19033   6.226   4.094   2.570
 6045SOL    HW119034   6.143   4.038   2.580
 6045SOL    HW219035   6.243   4.110   2.473
 6046SOL     OW19036   3.820   2.469   0.167
 6046SOL    HW119037   3.729   2.486   0.205
 6046SOL    HW219038   3.869   2.405   0.226
 6047SOL     OW19039   5.253   1.804   1.933
 6047SOL    HW119040   5.228   1.898   1.912
 6047SOL    HW219041   5.242   1.787   2.031
 6048SOL     OW19042   4.466   5.269   5.391
 6048SOL    HW119043   4.397   5.199   5.410
 6048SOL    HW219044   4.470   5.333   5.468
 6049SOL     OW19045   4.890   3.384   0.227
 6049SOL    HW119046   4.976   3.389   0.176
 6049SOL    HW219047   4.814   3.378   0.162
 6050SOL     OW19048   3.613   5.853   5.949
 6050SOL    HW119049   3.625   5.791   5.871
 6050SOL    HW219050   3.628   5.802   6.034
 6051SOL     OW19051   1.891   6.183   3.975
 6051SOL    HW119052   1.822   6.250   3.949
 6051SOL    HW219053   1.982   6.221   3.959
 6052SOL     OW19054   5.844   1.187   0.327
 6052SOL    HW119055   5.886   1.140   0.249
 6052SOL    HW219056   5.748   1.161   0.333
 6053SOL     OW19057   4.605   1.301   6.507
 6053SOL    HW119058   4.689   1.350   6.532
 6053SOL    HW219059   4.554   1.356   6.441
 6054SOL     OW19060   2.248   3.267   0.184
 6054SOL    HW119061   2.340   3.232   0.166
 6054SOL    HW219062   2.254   3.347   0.244
 6055SOL     OW19063   4.968   6.720   5.338
 6055SOL    HW119064   4.871   6.698   5.336
 6055SOL    HW219065   5.019   6.645   5.379
 6056SOL     OW19066   5.126   3.221   4.772
 6056SOL    HW119067   5.042   3.188   4.815
 6056SOL    HW219068   5.131   3.320   4.781
 6057SOL     OW19069   6.406   1.923   3.163
 6057SOL    HW119070   6.483   1.907   3.102
 6057SOL    HW219071   6.420   2.009   3.213
 6058SOL     OW19072   4.744   3.542   1.647
 6058SOL    HW119073   4.706   3.454   1.677
 6058SOL    HW219074   4.674   3.613   1.653
 6059SOL     OW19075   4.925   4.946   5.743
 6059SOL    HW119076   4.857   4.999   5.693
 6059SOL    HW219077   4.917   4.849   5.718
 6060SOL     OW19078   2.523   3.393   6.442
 6060SOL    HW119079   2.505   3.319   6.378
 6060SOL    HW219080   2.512   3.359   6.536
 6061SOL     OW19081   3.567   3.010   0.701
 6061SOL    HW119082   3.563   2.925   0.754
 6061SOL    HW219083   3.595   2.989   0.607
 6062SOL     OW19084   2.297   1.284   5.132
 6062SOL    HW119085   2.202   1.291   5.162
 6062SOL    HW219086   2.358   1.299   5.210
 6063SOL     OW19087   4.334   2.893   6.132
 6063SOL    HW119088   4.257   2.957   6.124
 6063SOL    HW219089   4.406   2.920   6.069
 6064SOL     OW19090   0.795   6.247   1.387
 6064SOL    HW119091   0.731   6.170   1.383
 6064SOL    HW219092   0.815   6.278   1.294
 6065SOL     OW19093   0.752   6.462   2.077
 6065SOL    HW119094   0.689   6.534   2.049
 6065SOL    HW219095   0.838   6.471   2.025
 6066SOL     OW19096   4.873   1.232   5.876
 6066SOL    HW119097   4.932   1.225   5.956
 6066SOL    HW219098   4.921   1.281   5.803
 6067SOL     OW19099   5.895   1.093   5.346
 6067SOL    HW119100   5.877   1.137   5.257
 6067SOL    HW219101   5.972   1.031   5.337
 6068SOL     OW19102   5.297   3.294   5.092
 6068SOL    HW119103   5.209   3.257   5.120
 6068SOL    HW219104   5.369   3.228   5.115
 6069SOL     OW19105   6.010   2.833   5.069
 6069SOL    HW119106   6.107   2.851   5.082
 6069SOL    HW219107   5.959   2.919   5.072
 6070SOL     OW19108   2.936   2.688   0.976
 6070SOL    HW119109   2.938   2.634   1.060
 6070SOL    HW219110   2.981   2.638   0.902
 6071SOL     OW19111   5.612   5.715   4.685
 6071SOL    HW119112   5.567   5.794   4.644
 6071SOL    HW219113   5.543   5.651   4.719
 6072SOL     OW19114   6.452   6.801   1.326
 6072SOL    HW119115   6.499   6.788   1.413
 6072SOL    HW219116   6.490   6.882   1.279
 6073SOL     OW19117   5.665   3.347   0.149
 6073SOL    HW119118   5.757   3.309   0.164
 6073SOL    HW219119   5.615   3.288   0.086
 6074SOL     OW19120   0.856   6.183   2.507
 6074SOL    HW119121   0.835   6.278   2.483
 6074SOL    HW219122   0.783   6.146   2.564
 6075SOL     OW19123   5.543   0.578   5.678
 6075SOL    HW119124   5.607   0.594   5.602
 6075SOL    HW219125   5.558   0.646   5.749
 6076SOL     OW19126   3.366   5.565   4.269
 6076SOL    HW119127   3.363   5.596   4.364
 6076SOL    HW219128   3.437   5.495   4.260
 6077SOL     OW19129   6.134   5.576   0.890
 6077SOL    HW119130   6.180   5.661   0.915
 6077SOL    HW219131   6.074   5.593   0.811
 6078SOL     OW19132   4.894   5.010   0.586
 6078SOL    HW119133   4.844   4.980   0.504
 6078SOL    HW219134   4.898   4.934   0.651
 6079SOL     OW19135   4.492   3.848   6.051
 6079SOL    HW119136   4.522   3.942   6.068
 6079SOL    HW219137   4.568   3.785   6.068
 6080SOL     OW19138   0.191   6.410   1.281
 6080SOL    HW119139   0.225   6.385   1.190
 6080SOL    HW219140   0.198   6.509   1.293
 6081SOL     OW19141   6.693   2.638   5.435
 6081SOL    HW119142   6.680   2.605   5.528
 6081SOL    HW219143   6.776   2.598   5.397
 6082SOL     OW19144   1.887   1.296   3.470
 6082SOL    HW119145   1.869   1.202   3.443
 6082SOL    HW219146   1.971   1.300   3.524
 6083SOL     OW19147   6.228   5.835   0.092
 6083SOL    HW119148   6.302   5.902   0.093
 6083SOL    HW219149   6.164   5.857   0.018
 6084SOL     OW19150   0.628   6.943   3.396
 6084SOL    HW119151   0.613   0.006   3.442
 6084SOL    HW219152   0.595   6.948   3.302
 6085SOL     OW19153   6.888   6.091   0.434
 6085SOL    HW119154   6.790   6.110   0.433
 6085SOL    HW219155   6.909   6.022   0.365
 6086SOL     OW19156   3.462   0.979   6.034
 6086SOL    HW119157   3.453   1.048   5.962
 6086SOL    HW219158   3.421   1.014   6.118
 6087SOL     OW19159   3.503   5.670   1.076
 6087SOL    HW119160   3.499   5.664   1.176
 6087SOL    HW219161   3.411   5.664   1.038
 6088SOL     OW19162   5.269   6.105   4.533
 6088SOL    HW119163   5.193   6.166   4.510
 6088SOL    HW219164   5.354   6.157   4.536
 6089SOL     OW19165   5.159   3.087   1.972
 6089SOL    HW119166   5.080   3.054   2.023
 6089SOL    HW219167   5.130   3.158   1.908
 6090SOL     OW19168   2.070   5.733   5.444
 6090SOL    HW119169   2.138   5.700   5.378
 6090SOL    HW219170   2.094   5.825   5.474
 6091SOL     OW19171   1.770   1.117   0.148
 6091SOL    HW119172   1.685   1.080   0.111
 6091SOL    HW219173   1.844   1.051   0.134
 6092SOL     OW19174   4.076   0.199   2.219
 6092SOL    HW119175   4.091   0.164   2.311
 6092SOL    HW219176   4.005   0.145   2.174
 6093SOL     OW19177   1.969   3.457   1.885
 6093SOL    HW119178   1.958   3.395   1.808
 6093SOL    HW219179   2.063   3.453   1.918
 6094SOL     OW19180   2.218   6.688   2.110
 6094SOL    HW119181   2.204   6.597   2.070
 6094SOL    HW219182   2.228   6.755   2.037
 6095SOL     OW19183   5.375   4.038   1.111
 6095SOL    HW119184   5.459   4.069   1.155
 6095SOL    HW219185   5.298   4.093   1.144
 6096SOL     OW19186   5.964   6.511   4.098
 6096SOL    HW119187   5.913   6.597   4.099
 6096SOL    HW219188   5.917   6.443   4.154
 6097SOL     OW19189   2.137   5.734   2.050
 6097SOL    HW119190   2.106   5.818   2.006
 6097SOL    HW219191   2.195   5.756   2.128
 6098SOL     OW19192   1.565   1.340   5.287
 6098SOL    HW119193   1.621   1.405   5.236
 6098SOL    HW219194   1.472   1.342   5.250
 6099SOL     OW19195   5.875   6.353   0.288
 6099SOL    HW119196   5.969   6.351   0.253
 6099SOL    HW219197   5.813   6.379   0.214
 6100SOL     OW19198   5.458   6.061   0.751
 6100SOL    HW119199   5.399   6.076   0.831
 6100SOL    HW219200   5.404   6.023   0.676
 6101SOL     OW19201   6.330   3.367   3.788
 6101SOL    HW119202   6.269   3.445   3.776
 6101SOL    HW219203   6.423   3.400   3.805
 6102SOL     OW19204   3.136   6.450   2.831
 6102SOL    HW119205   3.118   6.404   2.918
 6102SOL    HW219206   3.230   6.432   2.802
 6103SOL     OW19207   6.541   1.885   1.430
 6103SOL    HW119208   6.551   1.864   1.332
 6103SOL    HW219209   6.445   1.896   1.452
 6104SOL     OW19210   6.118   0.808   5.691
 6104SOL    HW119211   6.146   0.902   5.674
 6104SOL    HW219212   6.179   0.746   5.641
 6105SOL     OW19213   3.380   6.526   0.095
 6105SOL    HW119214   3.315   6.457   0.062
 6105SOL    HW219215   3.401   6.589   0.020
 6106SOL     OW19216   1.575   3.848   6.512
 6106SOL    HW119217   1.562   3.902   6.596
 6106SOL    HW219218   1.673   3.841   6.493
 6107SOL     OW19219   4.112   5.561   4.501
 6107SOL    HW119220   4.110   5.627   4.576
 6107SOL    HW219221   4.204   5.555   4.464
 6108SOL     OW19222   1.890   3.174   1.795
 6108SOL    HW119223   1.940   3.150   1.878
 6108SOL    HW219224   1.792   3.172   1.813
 6109SOL     OW19225   5.913   2.056   5.221
 6109SOL    HW119226   5.955   1.968   5.202
 6109SOL    HW219227   5.952   2.125   5.159
 6110SOL     OW19228   3.614   4.087   0.693
 6110SOL    HW119229   3.571   4.020   0.632
 6110SOL    HW219230   3.616   4.176   0.648
 6111SOL     OW19231   1.895   4.067   2.428
 6111SOL    HW119232   1.810   4.072   2.374
 6111SOL    HW219233   1.949   3.989   2.397
 6112SOL     OW19234   3.654   0.126   2.422
 6112SOL    HW119235   3.724   0.194   2.445
 6112SOL    HW219236   3.599   0.160   2.345
 6113SOL     OW19237   2.694   1.177   6.797
 6113SOL    HW119238   2.631   1.106   6.828
 6113SOL    HW219239   2.693   1.181   6.698
 6114SOL     OW19240   5.471   4.836   1.612
 6114SOL    HW119241   5.458   4.908   1.681
 6114SOL    HW219242   5.395   4.771   1.619
 6115SOL     OW19243   5.504   0.092   4.160
 6115SOL    HW119244   5.467   0.158   4.225
 6115SOL    HW219245   5.590   0.126   4.123
 6116SOL     OW19246   3.981   1.443   6.189
 6116SOL    HW119247   4.047   1.372   6.211
 6116SOL    HW219248   4.029   1.526   6.161
 6117SOL     OW19249   1.410   1.094   3.383
 6117SOL    HW119250   1.464   1.130   3.307
 6117SOL    HW219251   1.385   1.000   3.365
 6118SOL     OW19252   6.837   0.597   2.051
 6118SOL    HW119253   6.936   0.607   2.060
 6118SOL    HW219254   6.792   0.673   2.099
 6119SOL     OW19255   0.646   3.961   6.613
 6119SOL    HW119256   0.622   3.976   6.517
 6119SOL    HW219257   0.620   4.041   6.667
 6120SOL     OW19258   3.386   6.567   5.220
 6120SOL    HW119259   3.409   6.592   5.314
 6120SOL    HW219260   3.342   6.477   5.219
 6121SOL     OW19261   0.556   3.382   5.598
 6121SOL    HW119262   0.644   3.379   5.551
 6121SOL    HW219263   0.503   3.461   5.566
 6122SOL     OW19264   4.394   5.238   0.389
 6122SOL    HW119265   4.298   5.209   0.393
 6122SOL    HW219266   4.425   5.239   0.294
 6123SOL     OW19267   5.200   6.948   6.732
 6123SOL    HW119268   5.262   7.016   6.769
 6123SOL    HW219269   5.162   6.981   6.645
 6124SOL     OW19270   2.103   6.967   5.877
 6124SOL    HW119271   2.061   6.947   5.789
 6124SOL    HW219272   2.097   0.040   5.896
 6125SOL     OW19273   2.074   4.683   0.657
 6125SOL    HW119274   1.980   4.696   0.626
 6125SOL    HW219275   2.094   4.585   0.661
 6126SOL     OW19276   1.008   6.909   4.348
 6126SOL    HW119277   1.096   6.866   4.327
 6126SOL    HW219278   0.945   6.895   4.271
 6127SOL     OW19279   3.142   0.362   0.757
 6127SOL    HW119280   3.157   0.419   0.677
 6127SOL    HW219281   3.050   0.377   0.793
 6128SOL     OW19282   5.484   4.046   0.076
 6128SOL    HW119283   5.430   3.995   0.143
 6128SOL    HW219284   5.496   4.140   0.107
 6129SOL     OW19285   6.932   3.345   3.175
 6129SOL    HW119286   6.866   3.417   3.150
 6129SOL    HW219287   7.006   3.385   3.228
 6130SOL     OW19288   5.807   2.411   2.759
 6130SOL    HW119289   5.792   2.490   2.699
 6130SOL    HW219290   5.837   2.444   2.849
 6131SOL     OW19291   0.308   1.535   5.213
 6131SOL    HW119292   0.373   1.467   5.245
 6131SOL    HW219293   0.217   1.494   5.204
 6132SOL     OW19294   4.796   1.918   0.238
 6132SOL    HW119295   4.882   1.939   0.284
 6132SOL    HW219296   4.813   1.858   0.160
 6133SOL     OW19297   1.759   3.469   2.055
 6133SOL    HW119298   1.759   3.384   2.109
 6133SOL    HW219299   1.838   3.469   1.994
 6134SOL     OW19300   3.921   4.874   6.314
 6134SOL    HW119301   3.895   4.937   6.387
 6134SOL    HW219302   3.966   4.925   6.241
 6135SOL     OW19303   0.380   0.655   1.042
 6135SOL    HW119304   0.315   0.718   1.086
 6135SOL    HW219305   0.471   0.697   1.040
 6136SOL     OW19306   1.429   3.171   2.005
 6136SOL    HW119307   1.449   3.221   2.090
 6136SOL    HW219308   1.353   3.215   1.958
 6137SOL     OW19309   6.608   3.217   2.817
 6137SOL    HW119310   6.539   3.145   2.803
 6137SOL    HW219311   6.636   3.253   2.729
 6138SOL     OW19312   3.475   6.349   2.963
 6138SOL    HW119313   3.440   6.353   2.869
 6138SOL    HW219314   3.575   6.348   2.961
 6139SOL     OW19315   1.755   6.685   6.316
 6139SOL    HW119316   1.664   6.650   6.291
 6139SOL    HW219317   1.745   6.752   6.390
 6140SOL     OW19318   0.777   6.107   1.693
 6140SOL    HW119319   0.715   6.185   1.686
 6140SOL    HW219320   0.752   6.038   1.626
 6141SOL     OW19321   0.245   6.731   6.737
 6141SOL    HW119322   0.157   6.716   6.692
 6141SOL    HW219323   0.259   6.660   6.806
 6142SOL     OW19324   1.177   6.778   0.073
 6142SOL    HW119325   1.193   6.741   0.165
 6142SOL    HW219326   1.193   6.706   0.005
 6143SOL     OW19327   6.903   3.638   1.598
 6143SOL    HW119328   6.835   3.711   1.598
 6143SOL    HW219329   6.866   3.557   1.644
 6144SOL     OW19330   5.300   4.609   3.035
 6144SOL    HW119331   5.264   4.702   3.032
 6144SOL    HW219332   5.236   4.547   2.989
 6145SOL     OW19333   4.805   5.108   2.976
 6145SOL    HW119334   4.830   5.016   3.006
 6145SOL    HW219335   4.763   5.157   3.053
 6146SOL     OW19336   3.199   5.902   3.974
 6146SOL    HW119337   3.201   5.882   3.876
 6146SOL    HW219338   3.278   5.859   4.019
 6147SOL     OW19339   2.227   2.052   4.443
 6147SOL    HW119340   2.145   2.097   4.407
 6147SOL    HW219341   2.239   2.078   4.539
 6148SOL     OW19342   5.416   6.633   4.961
 6148SOL    HW119343   5.426   6.651   4.863
 6148SOL    HW219344   5.464   6.704   5.013
 6149SOL     OW19345   2.622   6.027   1.508
 6149SOL    HW119346   2.624   6.104   1.444
 6149SOL    HW219347   2.545   5.967   1.486
 6150SOL     OW19348   4.454   5.299   6.812
 6150SOL    HW119349   4.433   5.385   6.858
 6150SOL    HW219350   4.464   5.315   6.714
 6151SOL     OW19351   6.031   4.563   6.522
 6151SOL    HW119352   6.116   4.540   6.473
 6151SOL    HW219353   6.028   4.512   6.608
 6152SOL     OW19354   6.374   5.174   4.578
 6152SOL    HW119355   6.427   5.256   4.600
 6152SOL    HW219356   6.406   5.136   4.491
 6153SOL     OW19357   4.870   4.354   1.380
 6153SOL    HW119358   4.909   4.375   1.470
 6153SOL    HW219359   4.793   4.415   1.362
 6154SOL     OW19360   5.448   2.258   2.725
 6154SOL    HW119361   5.433   2.193   2.800
 6154SOL    HW219362   5.545   2.260   2.702
 6155SOL     OW19363   1.538   1.634   3.820
 6155SOL    HW119364   1.610   1.663   3.883
 6155SOL    HW219365   1.569   1.554   3.768
 6156SOL     OW19366   4.193   4.056   1.492
 6156SOL    HW119367   4.162   4.115   1.418
 6156SOL    HW219368   4.119   4.044   1.559
 6157SOL     OW19369   7.007   1.041   4.684
 6157SOL    HW119370   0.065   1.047   4.741
 6157SOL    HW219371   6.972   0.948   4.684
 6158SOL     OW19372   3.580   2.041   5.799
 6158SOL    HW119373   3.648   1.985   5.846
 6158SOL    HW219374   3.608   2.137   5.802
 6159SOL     OW19375   5.360   2.685   2.189
 6159SOL    HW119376   5.388   2.761   2.129
 6159SOL    HW219377   5.434   2.619   2.195
 6160SOL     OW19378   5.054   1.818   6.446
 6160SOL    HW119379   5.153   1.825   6.432
 6160SOL    HW219380   5.011   1.789   6.361
 6161SOL     OW19381   4.613   1.346   5.052
 6161SOL    HW119382   4.662   1.291   5.120
 6161SOL    HW219383   4.525   1.375   5.089
 6162SOL     OW19384   0.611   5.871   3.361
 6162SOL    HW119385   0.661   5.854   3.277
 6162SOL    HW219386   0.525   5.917   3.340
 6163SOL     OW19387   6.502   6.811   0.829
 6163SOL    HW119388   6.503   6.910   0.847
 6163SOL    HW219389   6.594   6.774   0.843
 6164SOL     OW19390   3.897   4.042   2.215
 6164SOL    HW119391   3.892   4.137   2.183
 6164SOL    HW219392   3.953   3.988   2.151
 6165SOL     OW19393   5.025   1.565   6.929
 6165SOL    HW119394   5.028   1.465   6.938
 6165SOL    HW219395   5.020   1.589   6.832
 6166SOL     OW19396   5.518   1.464   6.669
 6166SOL    HW119397   5.617   1.452   6.679
 6166SOL    HW219398   5.474   1.375   6.661
 6167SOL     OW19399   1.024   5.658   3.318
 6167SOL    HW119400   0.987   5.653   3.225
 6167SOL    HW219401   1.035   5.565   3.354
 6168SOL     OW19402   1.911   4.133   2.013
 6168SOL    HW119403   1.977   4.060   2.028
 6168SOL    HW219404   1.883   4.133   1.917
 6169SOL     OW19405   0.669   2.283   0.510
 6169SOL    HW119406   0.727   2.252   0.585
 6169SOL    HW219407   0.725   2.299   0.429
 6170SOL     OW19408   1.494   4.047   5.326
 6170SOL    HW119409   1.483   4.091   5.237
 6170SOL    HW219410   1.432   4.089   5.393
 6171SOL     OW19411   0.622   3.085   0.618
 6171SOL    HW119412   0.635   3.095   0.519
 6171SOL    HW219413   0.709   3.104   0.665
 6172SOL     OW19414   1.557   2.968   2.485
 6172SOL    HW119415   1.502   2.937   2.407
 6172SOL    HW219416   1.639   2.912   2.492
 6173SOL     OW19417   6.768   5.393   2.085
 6173SOL    HW119418   6.795   5.318   2.024
 6173SOL    HW219419   6.833   5.401   2.160
 6174SOL     OW19420   5.852   4.840   3.740
 6174SOL    HW119421   5.771   4.783   3.729
 6174SOL    HW219422   5.865   4.895   3.658
 6175SOL     OW19423   4.626   0.494   3.588
 6175SOL    HW119424   4.610   0.461   3.681
 6175SOL    HW219425   4.543   0.482   3.533
 6176SOL     OW19426   5.050   4.056   6.205
 6176SOL    HW119427   5.010   4.125   6.264
 6176SOL    HW219428   5.025   3.965   6.238
 6177SOL     OW19429   5.465   1.066   1.130
 6177SOL    HW119430   5.524   1.082   1.209
 6177SOL    HW219431   5.390   1.005   1.155
 6178SOL     OW19432   4.819   5.178   2.529
 6178SOL    HW119433   4.746   5.181   2.460
 6178SOL    HW219434   4.874   5.095   2.515
 6179SOL     OW19435   6.748   4.248   3.435
 6179SOL    HW119436   6.720   4.340   3.462
 6179SOL    HW219437   6.821   4.217   3.495
 6180SOL     OW19438   3.440   4.406   0.145
 6180SOL    HW119439   3.484   4.407   0.055
 6180SOL    HW219440   3.484   4.336   0.202
 6181SOL     OW19441   4.230   0.012   1.143
 6181SOL    HW119442   4.303   6.968   1.134
 6181SOL    HW219443   4.185   0.000   1.232
 6182SOL     OW19444   5.440   3.401   5.358
 6182SOL    HW119445   5.430   3.362   5.266
 6182SOL    HW219446   5.529   3.447   5.365
 6183SOL     OW19447   1.374   2.269   3.022
 6183SOL    HW119448   1.401   2.321   3.103
 6183SOL    HW219449   1.389   2.172   3.039
 6184SOL     OW19450   2.099   6.937   6.752
 6184SOL    HW119451   2.161   6.921   6.675
 6184SOL    HW219452   2.074   6.849   6.793
 6185SOL     OW19453   0.636   3.709   5.786
 6185SOL    HW119454   0.667   3.647   5.858
 6185SOL    HW219455   0.695   3.699   5.706
 6186SOL     OW19456   0.099   0.209   0.198
 6186SOL    HW119457   0.067   0.163   0.281
 6186SOL    HW219458   0.161   0.283   0.223
 6187SOL     OW19459   4.910   4.670   3.358
 6187SOL    HW119460   4.869   4.694   3.271
 6187SOL    HW219461   4.929   4.753   3.411
 6188SOL     OW19462   2.197   1.192   0.607
 6188SOL    HW119463   2.264   1.217   0.677
 6188SOL    HW219464   2.106   1.187   0.648
 6189SOL     OW19465   4.596   4.389   3.275
 6189SOL    HW119466   4.624   4.431   3.189
 6189SOL    HW219467   4.532   4.450   3.323
 6190SOL     OW19468   0.881   3.970   5.671
 6190SOL    HW119469   0.852   4.050   5.725
 6190SOL    HW219470   0.916   3.900   5.732
 6191SOL     OW19471   3.103   1.755   0.042
 6191SOL    HW119472   3.055   1.809   0.111
 6191SOL    HW219473   3.062   1.664   0.037
 6192SOL     OW19474   3.482   2.492   5.581
 6192SOL    HW119475   3.390   2.526   5.599
 6192SOL    HW219476   3.502   2.501   5.483
 6193SOL     OW19477   5.138   0.926   2.044
 6193SOL    HW119478   5.234   0.914   2.071
 6193SOL    HW219479   5.130   1.007   1.986
 6194SOL     OW19480   1.368   7.018   1.836
 6194SOL    HW119481   1.453   0.037   1.807
 6194SOL    HW219482   1.366   7.011   1.936
 6195SOL     OW19483   3.790   6.141   6.122
 6195SOL    HW119484   3.744   6.111   6.206
 6195SOL    HW219485   3.783   6.240   6.113
 6196SOL     OW19486   5.638   3.141   1.491
 6196SOL    HW119487   5.730   3.167   1.463
 6196SOL    HW219488   5.571   3.202   1.448
 6197SOL     OW19489   3.998   4.676   0.889
 6197SOL    HW119490   4.074   4.622   0.925
 6197SOL    HW219491   3.922   4.675   0.954
 6198SOL     OW19492   4.017   6.178   2.461
 6198SOL    HW119493   4.105   6.214   2.432
 6198SOL    HW219494   3.945   6.244   2.438
 6199SOL     OW19495   0.787   1.151   0.506
 6199SOL    HW119496   0.780   1.086   0.582
 6199SOL    HW219497   0.820   1.103   0.424
 6200SOL     OW19498   1.506   1.567   5.987
 6200SOL    HW119499   1.480   1.507   6.063
 6200SOL    HW219500   1.602   1.593   5.996
 6201SOL     OW19501   0.769   3.719   4.977
 6201SOL    HW119502   0.816   3.783   5.038
 6201SOL    HW219503   0.834   3.686   4.908
 6202SOL     OW19504   3.631   1.628   2.128
 6202SOL    HW119505   3.535   1.656   2.119
 6202SOL    HW219506   3.637   1.555   2.196
 6203SOL     OW19507   0.097   6.069   2.688
 6203SOL    HW119508   0.136   5.990   2.737
 6203SOL    HW219509   0.170   6.134   2.667
 6204SOL     OW19510   0.705   4.785   4.675
 6204SOL    HW119511   0.700   4.800   4.774
 6204SOL    HW219512   0.765   4.853   4.634
 6205SOL     OW19513   6.278   5.584   0.177
 6205SOL    HW119514   6.254   5.557   0.271
 6205SOL    HW219515   6.253   5.680   0.163
 6206SOL     OW19516   6.183   1.735   3.577
 6206SOL    HW119517   6.100   1.692   3.540
 6206SOL    HW219518   6.251   1.665   3.597
 6207SOL     OW19519   0.745   4.824   4.947
 6207SOL    HW119520   0.844   4.837   4.960
 6207SOL    HW219521   0.710   4.761   5.016
 6208SOL     OW19522   5.373   2.384   5.951
 6208SOL    HW119523   5.333   2.469   5.917
 6208SOL    HW219524   5.359   2.312   5.883
 6209SOL     OW19525   4.197   5.734   6.648
 6209SOL    HW119526   4.259   5.807   6.620
 6209SOL    HW219527   4.108   5.747   6.604
 6210SOL     OW19528   5.424   3.445   3.739
 6210SOL    HW119529   5.398   3.450   3.642
 6210SOL    HW219530   5.342   3.445   3.796
 6211SOL     OW19531   3.104   6.305   5.535
 6211SOL    HW119532   3.124   6.250   5.616
 6211SOL    HW219533   3.005   6.305   5.518
 6212SOL     OW19534   2.199   5.280   4.437
 6212SOL    HW119535   2.199   5.336   4.520
 6212SOL    HW219536   2.261   5.202   4.450
 6213SOL     OW19537   6.398   0.502   0.633
 6213SOL    HW119538   6.446   0.549   0.708
 6213SOL    HW219539   6.300   0.497   0.654
 6214SOL     OW19540   4.633   4.927   4.312
 6214SOL    HW119541   4.543   4.929   4.269
 6214SOL    HW219542   4.625   4.887   4.403
 6215SOL     OW19543   4.087   1.936   0.494
 6215SOL    HW119544   4.185   1.956   0.499
 6215SOL    HW219545   4.069   1.846   0.534
 6216SOL     OW19546   6.329   1.504   2.226
 6216SOL    HW119547   6.385   1.484   2.305
 6216SOL    HW219548   6.268   1.426   2.207
 6217SOL     OW19549   0.405   3.475   2.532
 6217SOL    HW119550   0.481   3.489   2.595
 6217SOL    HW219551   0.383   3.377   2.528
 6218SOL     OW19552   3.870   6.042   6.926
 6218SOL    HW119553   3.858   5.947   6.955
 6218SOL    HW219554   3.965   6.055   6.896
 6219SOL     OW19555   1.371   2.211   4.620
 6219SOL    HW119556   1.281   2.244   4.649
 6219SOL    HW219557   1.442   2.255   4.675
 6220SOL     OW19558   2.144   1.539   4.382
 6220SOL    HW119559   2.106   1.619   4.430
 6220SOL    HW219560   2.075   1.501   4.321
 6221SOL     OW19561   5.877   5.722   6.908
 6221SOL    HW119562   5.878   5.775   6.992
 6221SOL    HW219563   5.943   5.760   6.844
 6222SOL     OW19564   1.057   6.185   1.578
 6222SOL    HW119565   1.033   6.173   1.674
 6222SOL    HW219566   0.975   6.179   1.521
 6223SOL     OW19567   1.275   5.103   3.780
 6223SOL    HW119568   1.333   5.046   3.837
 6223SOL    HW219569   1.180   5.096   3.811
 6224SOL     OW19570   2.808   1.544   5.946
 6224SOL    HW119571   2.870   1.586   6.012
 6224SOL    HW219572   2.729   1.506   5.994
 6225SOL     OW19573   4.019   3.615   6.720
 6225SOL    HW119574   4.090   3.626   6.650
 6225SOL    HW219575   3.969   3.529   6.703
 6226SOL     OW19576   0.179   1.918   5.544
 6226SOL    HW119577   0.269   1.962   5.546
 6226SOL    HW219578   0.186   1.831   5.495
 6227SOL     OW19579   3.002   5.424   5.103
 6227SOL    HW119580   3.066   5.349   5.118
 6227SOL    HW219581   3.049   5.498   5.054
 6228SOL     OW19582   1.398   3.290   2.250
 6228SOL    HW119583   1.466   3.318   2.318
 6228SOL    HW219584   1.321   3.247   2.297
 6229SOL     OW19585   0.766   2.092   3.254
 6229SOL    HW119586   0.802   2.006   3.290
 6229SOL    HW219587   0.667   2.094   3.268
 6230SOL     OW19588   0.570   1.811   3.187
 6230SOL    HW119589   0.515   1.819   3.103
 6230SOL    HW219590   0.667   1.819   3.164
 6231SOL     OW19591   6.138   6.091   0.377
 6231SOL    HW119592   6.114   6.154   0.451
 6231SOL    HW219593   6.074   6.013   0.377
 6232SOL     OW19594   6.590   0.977   0.584
 6232SOL    HW119595   6.530   0.898   0.599
 6232SOL    HW219596   6.600   0.993   0.486
 6233SOL     OW19597   6.881   1.717   1.159
 6233SOL    HW119598   6.940   1.797   1.150
 6233SOL    HW219599   6.938   1.634   1.157
 6234SOL     OW19600   6.759   0.966   5.477
 6234SOL    HW119601   6.815   0.882   5.478
 6234SOL    HW219602   6.811   1.040   5.520
 6235SOL     OW19603   0.115   6.708   0.959
 6235SOL    HW119604   0.165   6.649   1.023
 6235SOL    HW219605   0.046   6.761   1.010
 6236SOL     OW19606   1.086   3.792   0.900
 6236SOL    HW119607   1.094   3.697   0.931
 6236SOL    HW219608   1.021   3.841   0.958
 6237SOL     OW19609   3.900   0.568   6.486
 6237SOL    HW119610   3.938   0.596   6.574
 6237SOL    HW219611   3.920   0.471   6.471
 6238SOL     OW19612   3.847   5.084   2.810
 6238SOL    HW119613   3.848   5.140   2.727
 6238SOL    HW219614   3.906   5.125   2.879
 6239SOL     OW19615   2.916   0.894   1.669
 6239SOL    HW119616   2.979   0.968   1.646
 6239SOL    HW219617   2.850   0.882   1.594
 6240SOL     OW19618   2.062   3.510   5.688
 6240SOL    HW119619   2.082   3.445   5.615
 6240SOL    HW219620   2.136   3.577   5.693
 6241SOL     OW19621   3.128   6.957   1.307
 6241SOL    HW119622   3.042   6.952   1.256
 6241SOL    HW219623   3.122   6.900   1.389
 6242SOL     OW19624   4.375   0.498   4.002
 6242SOL    HW119625   4.352   0.465   4.094
 6242SOL    HW219626   4.292   0.503   3.947
 6243SOL     OW19627   6.435   6.655   4.912
 6243SOL    HW119628   6.486   6.716   4.851
 6243SOL    HW219629   6.337   6.668   4.897
 6244SOL     OW19630   6.469   2.544   2.448
 6244SOL    HW119631   6.380   2.547   2.493
 6244SOL    HW219632   6.513   2.634   2.454
 6245SOL     OW19633   1.644   4.304   0.325
 6245SOL    HW119634   1.572   4.300   0.256
 6245SOL    HW219635   1.696   4.219   0.324
 6246SOL     OW19636   1.454   2.155   5.576
 6246SOL    HW119637   1.518   2.221   5.535
 6246SOL    HW219638   1.478   2.142   5.672
 6247SOL     OW19639   0.055   5.257   4.399
 6247SOL    HW119640   0.068   5.285   4.304
 6247SOL    HW219641   7.000   5.196   4.405
 6248SOL     OW19642   3.290   3.217   0.061
 6248SOL    HW119643   3.345   3.172   7.014
 6248SOL    HW219644   3.287   3.158   0.142
 6249SOL     OW19645   6.764   4.058   0.495
 6249SOL    HW119646   6.807   3.973   0.462
 6249SOL    HW219647   6.803   4.083   0.583
 6250SOL     OW19648   6.672   0.314   0.196
 6250SOL    HW119649   6.733   0.380   0.241
 6250SOL    HW219650   6.725   0.234   0.168
 6251SOL     OW19651   3.692   6.021   6.335
 6251SOL    HW119652   3.734   6.087   6.397
 6251SOL    HW219653   3.685   5.932   6.381
 6252SOL     OW19654   2.282   6.193   5.678
 6252SOL    HW119655   2.359   6.194   5.613
 6252SOL    HW219656   2.272   6.102   5.716
 6253SOL     OW19657   2.301   4.992   3.894
 6253SOL    HW119658   2.364   5.026   3.965
 6253SOL    HW219659   2.334   5.022   3.804
 6254SOL     OW19660   5.638   1.366   1.496
 6254SOL    HW119661   5.729   1.396   1.523
 6254SOL    HW219662   5.571   1.394   1.565
 6255SOL     OW19663   3.142   0.534   0.546
 6255SOL    HW119664   3.135   0.625   0.587
 6255SOL    HW219665   3.073   0.524   0.475
 6256SOL     OW19666   3.604   5.297   1.457
 6256SOL    HW119667   3.681   5.362   1.462
 6256SOL    HW219668   3.637   5.205   1.477
 6257SOL     OW19669   4.982   2.037   0.875
 6257SOL    HW119670   4.997   1.938   0.881
 6257SOL    HW219671   4.992   2.067   0.781
 6258SOL     OW19672   3.619   0.703   3.275
 6258SOL    HW119673   3.595   0.786   3.324
 6258SOL    HW219674   3.543   0.639   3.277
 6259SOL     OW19675   1.731   2.529   0.029
 6259SOL    HW119676   1.667   2.509   0.103
 6259SOL    HW219677   1.709   2.618   7.013
 6260SOL     OW19678   3.401   5.742   0.231
 6260SOL    HW119679   3.500   5.735   0.247
 6260SOL    HW219680   3.352   5.701   0.308
 6261SOL     OW19681   3.948   1.536   6.979
 6261SOL    HW119682   3.856   1.528   7.016
 6261SOL    HW219683   3.944   1.561   6.882
 6262SOL     OW19684   2.623   6.258   1.890
 6262SOL    HW119685   2.608   6.333   1.826
 6262SOL    HW219686   2.643   6.174   1.838
 6263SOL     OW19687   6.985   0.551   4.711
 6263SOL    HW119688   0.058   0.544   4.733
 6263SOL    HW219689   6.969   0.514   4.619
 6264SOL     OW19690   1.633   0.240   1.912
 6264SOL    HW119691   1.714   0.209   1.863
 6264SOL    HW219692   1.647   0.228   2.010
 6265SOL     OW19693   3.895   3.259   0.616
 6265SOL    HW119694   3.923   3.172   0.576
 6265SOL    HW219695   3.809   3.247   0.666
 6266SOL     OW19696   4.077   0.736   4.127
 6266SOL    HW119697   4.119   0.669   4.066
 6266SOL    HW219698   4.149   0.788   4.174
 6267SOL     OW19699   2.384   6.935   5.939
 6267SOL    HW119700   2.314   6.971   5.877
 6267SOL    HW219701   2.349   6.855   5.987
 6268SOL     OW19702   2.847   0.133   3.205
 6268SOL    HW119703   2.945   0.115   3.211
 6268SOL    HW219704   2.825   0.170   3.115
 6269SOL     OW19705   0.378   6.592   2.098
 6269SOL    HW119706   0.313   6.637   2.037
 6269SOL    HW219707   0.468   6.633   2.087
 6270SOL     OW19708   1.826   0.281   6.243
 6270SOL    HW119709   1.792   0.345   6.311
 6270SOL    HW219710   1.800   0.188   6.268
 6271SOL     OW19711   6.288   2.233   6.510
 6271SOL    HW119712   6.301   2.309   6.446
 6271SOL    HW219713   6.204   2.247   6.562
 6272SOL     OW19714   0.575   2.479   0.186
 6272SOL    HW119715   0.500   2.464   0.122
 6272SOL    HW219716   0.538   2.488   0.279
 6273SOL     OW19717   0.865   6.392   2.764
 6273SOL    HW119718   0.937   6.324   2.778
 6273SOL    HW219719   0.784   6.366   2.816
 6274SOL     OW19720   3.565   6.251   5.904
 6274SOL    HW119721   3.648   6.199   5.886
 6274SOL    HW219722   3.488   6.209   5.856
 6275SOL     OW19723   2.483   6.560   6.635
 6275SOL    HW119724   2.480   6.591   6.540
 6275SOL    HW219725   2.442   6.469   6.643
 6276SOL     OW19726   2.131   4.225   3.859
 6276SOL    HW119727   2.139   4.311   3.807
 6276SOL    HW219728   2.067   4.238   3.934
 6277SOL     OW19729   4.802   3.160   1.060
 6277SOL    HW119730   4.878   3.106   1.024
 6277SOL    HW219731   4.780   3.129   1.153
 6278SOL     OW19732   5.673   6.870   4.824
 6278SOL    HW119733   5.600   6.871   4.757
 6278SOL    HW219734   5.748   6.813   4.791
 6279SOL     OW19735   4.085   6.355   6.836
 6279SOL    HW119736   4.116   6.414   6.761
 6279SOL    HW219737   4.107   6.260   6.815
 6280SOL     OW19738   1.091   1.868   5.346
 6280SOL    HW119739   1.131   1.794   5.400
 6280SOL    HW219740   1.162   1.933   5.320
 6281SOL     OW19741   0.164   4.750   4.275
 6281SOL    HW119742   0.261   4.775   4.275
 6281SOL    HW219743   0.153   4.657   4.241
 6282SOL     OW19744   0.120   5.888   5.974
 6282SOL    HW119745   0.024   5.895   6.003
 6282SOL    HW219746   0.146   5.792   5.965
 6283SOL     OW19747   6.881   3.408   4.924
 6283SOL    HW119748   6.925   3.329   4.881
 6283SOL    HW219749   6.894   3.404   5.023
 6284SOL     OW19750   0.954   5.316   4.697
 6284SOL    HW119751   0.871   5.260   4.692
 6284SOL    HW219752   0.962   5.357   4.787
 6285SOL     OW19753   0.167   3.466   4.435
 6285SOL    HW119754   0.247   3.525   4.434
 6285SOL    HW219755   0.144   3.441   4.529
 6286SOL     OW19756   6.264   1.649   4.254
 6286SOL    HW119757   6.316   1.565   4.236
 6286SOL    HW219758   6.196   1.661   4.182
 6287SOL     OW19759   3.531   4.935   4.956
 6287SOL    HW119760   3.458   4.878   4.918
 6287SOL    HW219761   3.532   5.024   4.911
 6288SOL     OW19762   5.286   4.509   2.484
 6288SOL    HW119763   5.302   4.421   2.528
 6288SOL    HW219764   5.231   4.567   2.544
 6289SOL     OW19765   2.038   4.748   1.120
 6289SOL    HW119766   2.000   4.841   1.125
 6289SOL    HW219767   2.109   4.745   1.049
 6290SOL     OW19768   6.596   5.157   5.947
 6290SOL    HW119769   6.678   5.147   5.890
 6290SOL    HW219770   6.604   5.240   6.002
 6291SOL     OW19771   4.122   3.475   4.166
 6291SOL    HW119772   4.058   3.397   4.166
 6291SOL    HW219773   4.203   3.451   4.113
 6292SOL     OW19774   1.348   2.025   4.950
 6292SOL    HW119775   1.414   2.095   4.924
 6292SOL    HW219776   1.270   2.068   4.994
 6293SOL     OW19777   4.285   1.019   0.675
 6293SOL    HW119778   4.366   1.039   0.619
 6293SOL    HW219779   4.215   1.087   0.658
 6294SOL     OW19780   3.511   6.395   4.048
 6294SOL    HW119781   3.592   6.438   4.009
 6294SOL    HW219782   3.453   6.465   4.091
 6295SOL     OW19783   5.684   4.335   5.689
 6295SOL    HW119784   5.752   4.262   5.690
 6295SOL    HW219785   5.682   4.381   5.778
 6296SOL     OW19786   0.727   6.352   5.842
 6296SOL    HW119787   0.747   6.448   5.862
 6296SOL    HW219788   0.669   6.314   5.914
 6297SOL     OW19789   5.398   0.819   4.434
 6297SOL    HW119790   5.410   0.872   4.518
 6297SOL    HW219791   5.353   0.732   4.456
 6298SOL     OW19792   1.632   3.596   6.909
 6298SOL    HW119793   1.573   3.674   6.888
 6298SOL    HW219794   1.666   3.556   6.824
 6299SOL     OW19795   5.988   2.013   0.857
 6299SOL    HW119796   5.904   1.982   0.902
 6299SOL    HW219797   5.970   2.100   0.811
 6300SOL     OW19798   6.699   1.243   7.010
 6300SOL    HW119799   6.786   1.244   6.961
 6300SOL    HW219800   6.714   1.267   0.081
 6301SOL     OW19801   4.019   6.878   0.329
 6301SOL    HW119802   3.979   6.967   0.349
 6301SOL    HW219803   4.116   6.878   0.355
 6302SOL     OW19804   1.511   0.399   3.575
 6302SOL    HW119805   1.509   0.318   3.516
 6302SOL    HW219806   1.495   0.371   3.670
 6303SOL     OW19807   1.826   1.039   3.623
 6303SOL    HW119808   1.807   1.091   3.706
 6303SOL    HW219809   1.853   0.945   3.648
 6304SOL     OW19810   2.267   1.445   1.218
 6304SOL    HW119811   2.300   1.494   1.137
 6304SOL    HW219812   2.317   1.358   1.226
 6305SOL     OW19813   6.347   6.893   0.601
 6305SOL    HW119814   6.256   6.854   0.612
 6305SOL    HW219815   6.402   6.872   0.682
 6306SOL     OW19816   0.315   4.226   4.237
 6306SOL    HW119817   0.405   4.203   4.201
 6306SOL    HW219818   0.324   4.297   4.307
 6307SOL     OW19819   3.499   4.090   4.764
 6307SOL    HW119820   3.560   4.016   4.791
 6307SOL    HW219821   3.431   4.106   4.835
 6308SOL     OW19822   2.123   1.805   4.522
 6308SOL    HW119823   2.193   1.873   4.546
 6308SOL    HW219824   2.067   1.784   4.602
 6309SOL     OW19825   5.924   4.702   5.200
 6309SOL    HW119826   5.981   4.785   5.205
 6309SOL    HW219827   5.828   4.728   5.205
 6310SOL     OW19828   2.267   5.917   3.278
 6310SOL    HW119829   2.190   5.974   3.305
 6310SOL    HW219830   2.256   5.889   3.183
 6311SOL     OW19831   5.356   1.227   5.785
 6311SOL    HW119832   5.422   1.177   5.840
 6311SOL    HW219833   5.350   1.322   5.817
 6312SOL     OW19834   6.760   6.478   5.495
 6312SOL    HW119835   6.691   6.551   5.485
 6312SOL    HW219836   6.812   6.493   5.580
 6313SOL     OW19837   6.690   5.794   4.377
 6313SOL    HW119838   6.673   5.740   4.294
 6313SOL    HW219839   6.737   5.879   4.352
 6314SOL     OW19840   3.973   6.789   1.406
 6314SOL    HW119841   3.918   6.760   1.328
 6314SOL    HW219842   3.928   6.761   1.491
 6315SOL     OW19843   2.135   2.610   5.317
 6315SOL    HW119844   2.195   2.537   5.283
 6315SOL    HW219845   2.177   2.699   5.296
 6316SOL     OW19846   5.260   2.115   6.884
 6316SOL    HW119847   5.197   2.040   6.867
 6316SOL    HW219848   5.345   2.099   6.834
 6317SOL     OW19849   4.551   4.982   1.454
 6317SOL    HW119850   4.554   4.886   1.428
 6317SOL    HW219851   4.459   5.005   1.486
 6318SOL     OW19852   3.792   7.006   5.871
 6318SOL    HW119853   3.882   7.014   5.915
 6318SOL    HW219854   3.721   0.010   5.936
 6319SOL     OW19855   6.448   1.899   4.674
 6319SOL    HW119856   6.527   1.896   4.736
 6319SOL    HW219857   6.434   1.994   4.643
 6320SOL     OW19858   6.417   6.483   5.343
 6320SOL    HW119859   6.435   6.390   5.375
 6320SOL    HW219860   6.331   6.515   5.383
 6321SOL     OW19861   3.898   4.193   0.764
 6321SOL    HW119862   3.981   4.143   0.788
 6321SOL    HW219863   3.819   4.132   0.772
 6322SOL     OW19864   2.155   2.684   0.761
 6322SOL    HW119865   2.201   2.696   0.673
 6322SOL    HW219866   2.062   2.652   0.745
 6323SOL     OW19867   2.531   2.547   1.419
 6323SOL    HW119868   2.526   2.522   1.515
 6323SOL    HW219869   2.583   2.477   1.370
 6324SOL     OW19870   4.828   0.715   0.586
 6324SOL    HW119871   4.858   0.762   0.670
 6324SOL    HW219872   4.734   0.742   0.565
 6325SOL     OW19873   1.879   3.125   2.547
 6325SOL    HW119874   1.886   3.039   2.598
 6325SOL    HW219875   1.967   3.146   2.505
 6326SOL     OW19876   5.161   4.746   1.666
 6326SOL    HW119877   5.102   4.676   1.708
 6326SOL    HW219878   5.159   4.736   1.567
 6327SOL     OW19879   0.353   1.128   5.003
 6327SOL    HW119880   0.282   1.149   5.071
 6327SOL    HW219881   0.410   1.209   4.988
 6328SOL     OW19882   3.428   3.562   0.363
 6328SOL    HW119883   3.497   3.566   0.435
 6328SOL    HW219884   3.353   3.502   0.392
 6329SOL     OW19885   1.779   2.727   3.151
 6329SOL    HW119886   1.699   2.675   3.122
 6329SOL    HW219887   1.751   2.805   3.207
 6330SOL     OW19888   5.180   0.384   1.609
 6330SOL    HW119889   5.094   0.377   1.658
 6330SOL    HW219890   5.170   0.346   1.518
 6331SOL     OW19891   6.256   2.471   5.541
 6331SOL    HW119892   6.188   2.510   5.602
 6331SOL    HW219893   6.268   2.530   5.461
 6332SOL     OW19894   0.089   3.001   0.660
 6332SOL    HW119895   0.131   2.983   0.749
 6332SOL    HW219896   0.058   2.915   0.620
 6333SOL     OW19897   4.669   6.118   5.084
 6333SOL    HW119898   4.729   6.115   5.005
 6333SOL    HW219899   4.653   6.026   5.119
 6334SOL     OW19900   3.003   1.088   2.177
 6334SOL    HW119901   2.980   1.071   2.081
 6334SOL    HW219902   3.041   1.005   2.217
 6335SOL     OW19903   4.261   0.600   0.340
 6335SOL    HW119904   4.227   0.508   0.360
 6335SOL    HW219905   4.212   0.667   0.397
 6336SOL     OW19906   1.343   2.652   6.490
 6336SOL    HW119907   1.321   2.748   6.474
 6336SOL    HW219908   1.298   2.621   6.574
 6337SOL     OW19909   4.879   4.801   5.460
 6337SOL    HW119910   4.906   4.777   5.367
 6337SOL    HW219911   4.930   4.743   5.524
 6338SOL     OW19912   3.535   2.076   4.136
 6338SOL    HW119913   3.470   2.052   4.208
 6338SOL    HW219914   3.487   2.083   4.048
 6339SOL     OW19915   0.641   3.728   3.481
 6339SOL    HW119916   0.706   3.803   3.494
 6339SOL    HW219917   0.680   3.660   3.420
 6340SOL     OW19918   1.798   5.079   1.776
 6340SOL    HW119919   1.719   5.043   1.825
 6340SOL    HW219920   1.874   5.091   1.840
 6341SOL     OW19921   0.230   3.869   4.545
 6341SOL    HW119922   0.223   3.882   4.644
 6341SOL    HW219923   0.294   3.936   4.507
 6342SOL     OW19924   1.922   0.794   2.382
 6342SOL    HW119925   1.866   0.759   2.307
 6342SOL    HW219926   1.897   0.748   2.467
 6343SOL     OW19927   4.713   1.651   6.386
 6343SOL    HW119928   4.657   1.627   6.465
 6343SOL    HW219929   4.794   1.593   6.383
 6344SOL     OW19930   5.173   2.077   4.651
 6344SOL    HW119931   5.203   2.087   4.556
 6344SOL    HW219932   5.073   2.067   4.653
 6345SOL     OW19933   6.112   2.966   2.590
 6345SOL    HW119934   6.040   2.923   2.536
 6345SOL    HW219935   6.123   3.061   2.561
 6346SOL     OW19936   6.899   5.522   4.084
 6346SOL    HW119937   6.915   5.423   4.080
 6346SOL    HW219938   6.831   5.541   4.156
 6347SOL     OW19939   1.823   1.083   0.912
 6347SOL    HW119940   1.827   1.020   0.989
 6347SOL    HW219941   1.737   1.133   0.913
 6348SOL     OW19942   1.631   2.852   6.129
 6348SOL    HW119943   1.708   2.840   6.192
 6348SOL    HW219944   1.587   2.940   6.146
 6349SOL     OW19945   2.336   0.791   1.402
 6349SOL    HW119946   2.253   0.739   1.421
 6349SOL    HW219947   2.392   0.795   1.485
 6350SOL     OW19948   0.586   5.096   4.293
 6350SOL    HW119949   0.557   5.140   4.378
 6350SOL    HW219950   0.505   5.070   4.240
 6351SOL     OW19951   6.131   3.595   3.744
 6351SOL    HW119952   6.156   3.691   3.756
 6351SOL    HW219953   6.074   3.566   3.820
 6352SOL     OW19954   3.436   6.592   4.541
 6352SOL    HW119955   3.377   6.623   4.616
 6352SOL    HW219956   3.447   6.666   4.474
 6353SOL     OW19957   1.432   6.933   6.042
 6353SOL    HW119958   1.532   6.929   6.048
 6353SOL    HW219959   1.404   0.002   6.022
 6354SOL     OW19960   2.594   5.121   2.958
 6354SOL    HW119961   2.633   5.158   3.042
 6354SOL    HW219962   2.667   5.078   2.904
 6355SOL     OW19963   0.957   5.209   6.926
 6355SOL    HW119964   0.998   5.126   6.888
 6355SOL    HW219965   0.917   5.189   7.016
 6356SOL     OW19966   5.168   5.680   1.902
 6356SOL    HW119967   5.236   5.638   1.842
 6356SOL    HW219968   5.185   5.778   1.908
 6357SOL     OW19969   6.155   3.641   2.583
 6357SOL    HW119970   6.108   3.728   2.568
 6357SOL    HW219971   6.102   3.584   2.646
 6358SOL     OW19972   0.377   2.401   6.692
 6358SOL    HW119973   0.456   2.368   6.744
 6358SOL    HW219974   0.303   2.425   6.755
 6359SOL     OW19975   6.243   0.571   0.252
 6359SOL    HW119976   6.297   0.497   0.294
 6359SOL    HW219977   6.303   0.628   0.196
 6360SOL     OW19978   1.313   4.735   4.350
 6360SOL    HW119979   1.222   4.769   4.327
 6360SOL    HW219980   1.325   4.736   4.449
 6361SOL     OW19981   1.210   6.559   0.935
 6361SOL    HW119982   1.263   6.633   0.895
 6361SOL    HW219983   1.223   6.475   0.882
 6362SOL     OW19984   6.942   6.194   6.944
 6362SOL    HW119985   6.904   6.242   7.023
 6362SOL    HW219986   6.959   6.099   6.968
 6363SOL     OW19987   1.856   5.226   3.886
 6363SOL    HW119988   1.759   5.248   3.886
 6363SOL    HW219989   1.893   5.239   3.794
 6364SOL     OW19990   2.422   1.672   5.369
 6364SOL    HW119991   2.394   1.727   5.291
 6364SOL    HW219992   2.342   1.654   5.427
 6365SOL     OW19993   5.870   0.270   3.878
 6365SOL    HW119994   5.841   0.362   3.848
 6365SOL    HW219995   5.957   0.247   3.835
 6366SOL     OW19996   1.334   6.054   5.836
 6366SOL    HW119997   1.427   6.053   5.872
 6366SOL    HW219998   1.296   5.962   5.839
 6367SOL     OW19999   3.634   1.271   4.636
 6367SOL    HW120000   3.650   1.276   4.735
 6367SOL    HW220001   3.701   1.328   4.589
 6368SOL     OW20002   3.375   5.245   3.538
 6368SOL    HW120003   3.334   5.163   3.578
 6368SOL    HW220004   3.395   5.228   3.442
 6369SOL     OW20005   2.424   6.268   4.412
 6369SOL    HW120006   2.373   6.353   4.422
 6369SOL    HW220007   2.456   6.260   4.317
 6370SOL     OW20008   0.152   3.416   3.313
 6370SOL    HW120009   0.226   3.375   3.367
 6370SOL    HW220010   0.176   3.510   3.289
 6371SOL     OW20011   4.655   4.509   3.045
 6371SOL    HW120012   4.640   4.456   2.962
 6371SOL    HW220013   4.611   4.599   3.036
 6372SOL     OW20014   1.827   0.868   1.596
 6372SOL    HW120015   1.763   0.858   1.521
 6372SOL    HW220016   1.840   0.965   1.617
 6373SOL     OW20017   4.748   4.246   2.445
 6373SOL    HW120018   4.708   4.181   2.509
 6373SOL    HW220019   4.846   4.255   2.463
 6374SOL     OW20020   4.058   3.872   3.122
 6374SOL    HW120021   3.991   3.874   3.047
 6374SOL    HW220022   4.100   3.962   3.131
 6375SOL     OW20023   0.369   1.663   3.460
 6375SOL    HW120024   0.426   1.745   3.460
 6375SOL    HW220025   0.286   1.680   3.513
 6376SOL     OW20026   5.329   2.493   4.954
 6376SOL    HW120027   5.403   2.550   4.990
 6376SOL    HW220028   5.250   2.551   4.932
 6377SOL     OW20029   0.009   1.740   5.221
 6377SOL    HW120030   0.059   1.752   5.307
 6377SOL    HW220031   0.004   1.643   5.199
 6378SOL     OW20032   4.511   4.811   3.946
 6378SOL    HW120033   4.588   4.748   3.950
 6378SOL    HW220034   4.460   4.807   4.031
 6379SOL     OW20035   1.210   4.554   4.625
 6379SOL    HW120036   1.122   4.595   4.649
 6379SOL    HW220037   1.218   4.464   4.669
 6380SOL     OW20038   0.594   1.898   5.260
 6380SOL    HW120039   0.602   1.998   5.262
 6380SOL    HW220040   0.541   1.870   5.180
 6381SOL     OW20041   3.948   3.093   1.800
 6381SOL    HW120042   3.892   3.088   1.883
 6381SOL    HW220043   4.009   3.014   1.797
 6382SOL     OW20044   2.262   2.167   0.506
 6382SOL    HW120045   2.279   2.240   0.571
 6382SOL    HW220046   2.333   2.167   0.436
 6383SOL     OW20047   2.121   2.547   2.873
 6383SOL    HW120048   2.072   2.554   2.960
 6383SOL    HW220049   2.213   2.584   2.884
 6384SOL     OW20050   6.364   3.949   2.923
 6384SOL    HW120051   6.424   3.877   2.890
 6384SOL    HW220052   6.394   4.038   2.888
 6385SOL     OW20053   0.147   3.926   3.361
 6385SOL    HW120054   0.049   3.927   3.380
 6385SOL    HW220055   0.198   3.942   3.445
 6386SOL     OW20056   2.203   4.632   5.830
 6386SOL    HW120057   2.195   4.726   5.866
 6386SOL    HW220058   2.173   4.631   5.735
 6387SOL     OW20059   6.838   1.636   6.364
 6387SOL    HW120060   6.839   1.698   6.286
 6387SOL    HW220061   6.748   1.592   6.370
 6388SOL     OW20062   3.990   6.498   2.170
 6388SOL    HW120063   4.047   6.428   2.127
 6388SOL    HW220064   4.048   6.563   2.219
 6389SOL     OW20065   6.915   5.472   2.299
 6389SOL    HW120066   7.005   5.439   2.328
 6389SOL    HW220067   6.870   5.515   2.377
 6390SOL     OW20068   0.334   0.811   5.769
 6390SOL    HW120069   0.324   0.713   5.754
 6390SOL    HW220070   0.347   0.857   5.681
 6391SOL     OW20071   2.668   0.116   6.042
 6391SOL    HW120072   2.618   0.165   6.113
 6391SOL    HW220073   2.655   0.017   6.054
 6392SOL     OW20074   2.966   5.474   2.714
 6392SOL    HW120075   2.888   5.511   2.765
 6392SOL    HW220076   3.018   5.549   2.674
 6393SOL     OW20077   6.988   6.270   2.310
 6393SOL    HW120078   0.012   6.187   2.337
 6393SOL    HW220079   6.921   6.248   2.239
 6394SOL     OW20080   2.223   5.410   0.759
 6394SOL    HW120081   2.248   5.415   0.663
 6394SOL    HW220082   2.151   5.341   0.771
 6395SOL     OW20083   0.011   2.608   1.728
 6395SOL    HW120084   7.012   2.697   1.688
 6395SOL    HW220085   0.079   2.563   1.671
 6396SOL     OW20086   5.395   3.619   6.893
 6396SOL    HW120087   5.315   3.560   6.888
 6396SOL    HW220088   5.414   3.657   6.803
 6397SOL     OW20089   6.164   1.598   0.913
 6397SOL    HW120090   6.208   1.687   0.927
 6397SOL    HW220091   6.213   1.529   0.966
 6398SOL     OW20092   2.959   6.914   1.547
 6398SOL    HW120093   3.052   6.919   1.584
 6398SOL    HW220094   2.916   6.830   1.579
 6399SOL     OW20095   1.745   6.558   6.587
 6399SOL    HW120096   1.747   6.631   6.655
 6399SOL    HW220097   1.797   6.587   6.506
 6400SOL     OW20098   2.838   5.870   2.030
 6400SOL    HW120099   2.803   5.788   2.077
 6400SOL    HW220100   2.780   5.890   1.951
 6401SOL     OW20101   5.312   5.642   3.462
 6401SOL    HW120102   5.300   5.544   3.447
 6401SOL    HW220103   5.405   5.661   3.491
 6402SOL     OW20104   3.027   2.220   3.301
 6402SOL    HW120105   3.103   2.207   3.365
 6402SOL    HW220106   3.047   2.298   3.242
 6403SOL     OW20107   6.952   5.890   6.411
 6403SOL    HW120108   7.021   5.829   6.449
 6403SOL    HW220109   6.896   5.927   6.486
 6404SOL     OW20110   4.415   0.619   2.492
 6404SOL    HW120111   4.377   0.678   2.421
 6404SOL    HW220112   4.356   0.621   2.572
 6405SOL     OW20113   3.368   0.304   3.799
 6405SOL    HW120114   3.325   0.234   3.857
 6405SOL    HW220115   3.353   0.281   3.703
 6406SOL     OW20116   0.845   2.799   2.319
 6406SOL    HW120117   0.829   2.728   2.388
 6406SOL    HW220118   0.780   2.788   2.245
 6407SOL     OW20119   2.771   6.638   3.975
 6407SOL    HW120120   2.715   6.564   4.013
 6407SOL    HW220121   2.777   6.629   3.876
 6408SOL     OW20122   5.563   1.159   0.380
 6408SOL    HW120123   5.573   1.247   0.427
 6408SOL    HW220124   5.520   1.173   0.291
 6409SOL     OW20125   6.466   4.151   3.558
 6409SOL    HW120126   6.541   4.171   3.495
 6409SOL    HW220127   6.447   4.232   3.614
 6410SOL     OW20128   2.074   1.485   6.803
 6410SOL    HW120129   1.984   1.515   6.771
 6410SOL    HW220130   2.078   1.492   6.903
 6411SOL     OW20131   0.914   3.081   3.269
 6411SOL    HW120132   0.910   3.177   3.298
 6411SOL    HW220133   0.958   3.026   3.341
 6412SOL     OW20134   0.845   1.767   4.802
 6412SOL    HW120135   0.852   1.731   4.709
 6412SOL    HW220136   0.749   1.786   4.823
 6413SOL     OW20137   3.665   4.912   3.763
 6413SOL    HW120138   3.725   4.894   3.842
 6413SOL    HW220139   3.571   4.924   3.794
 6414SOL     OW20140   5.761   0.837   0.268
 6414SOL    HW120141   5.718   0.840   0.358
 6414SOL    HW220142   5.861   0.842   0.279
 6415SOL     OW20143   2.039   3.470   2.993
 6415SOL    HW120144   2.062   3.516   2.907
 6415SOL    HW220145   1.941   3.476   3.008
 6416SOL     OW20146   0.825   1.097   6.772
 6416SOL    HW120147   0.750   1.041   6.806
 6416SOL    HW220148   0.846   1.072   6.677
 6417SOL     OW20149   5.897   5.045   0.739
 6417SOL    HW120150   5.874   5.064   0.643
 6417SOL    HW220151   5.818   5.064   0.796
 6418SOL     OW20152   4.950   3.974   2.269
 6418SOL    HW120153   5.016   4.048   2.259
 6418SOL    HW220154   4.867   3.996   2.217
 6419SOL     OW20155   1.827   4.549   3.213
 6419SOL    HW120156   1.769   4.469   3.205
 6419SOL    HW220157   1.874   4.548   3.301
 6420SOL     OW20158   2.468   5.992   4.461
 6420SOL    HW120159   2.480   6.091   4.464
 6420SOL    HW220160   2.404   5.968   4.388
 6421SOL     OW20161   5.109   0.257   3.213
 6421SOL    HW120162   5.160   0.241   3.297
 6421SOL    HW220163   5.075   0.170   3.178
 6422SOL     OW20164   0.070   0.798   4.249
 6422SOL    HW120165   7.011   0.748   4.274
 6422SOL    HW220166   0.045   0.889   4.214
 6423SOL     OW20167   5.009   5.196   3.356
 6423SOL    HW120168   5.060   5.200   3.270
 6423SOL    HW220169   5.045   5.265   3.419
 6424SOL     OW20170   0.416   5.267   5.942
 6424SOL    HW120171   0.353   5.314   6.003
 6424SOL    HW220172   0.385   5.173   5.929
 6425SOL     OW20173   6.341   5.823   3.423
 6425SOL    HW120174   6.376   5.888   3.490
 6425SOL    HW220175   6.392   5.832   3.338
 6426SOL     OW20176   1.295   4.917   2.944
 6426SOL    HW120177   1.332   5.009   2.930
 6426SOL    HW220178   1.322   4.858   2.868
 6427SOL     OW20179   3.391   3.771   4.633
 6427SOL    HW120180   3.349   3.808   4.550
 6427SOL    HW220181   3.487   3.799   4.636
 6428SOL     OW20182   5.951   3.785   5.769
 6428SOL    HW120183   5.875   3.828   5.818
 6428SOL    HW220184   5.933   3.688   5.758
 6429SOL     OW20185   1.382   1.802   5.695
 6429SOL    HW120186   1.386   1.898   5.723
 6429SOL    HW220187   1.412   1.744   5.770
 6430SOL     OW20188   6.039   0.960   3.017
 6430SOL    HW120189   6.093   0.948   2.933
 6430SOL    HW220190   6.096   0.937   3.096
 6431SOL     OW20191   5.027   6.942   4.054
 6431SOL    HW120192   5.125   6.927   4.042
 6431SOL    HW220193   5.008   6.970   4.148
 6432SOL     OW20194   4.568   4.527   5.959
 6432SOL    HW120195   4.529   4.440   5.929
 6432SOL    HW220196   4.494   4.590   5.982
 6433SOL     OW20197   1.707   5.341   6.029
 6433SOL    HW120198   1.703   5.370   5.933
 6433SOL    HW220199   1.665   5.251   6.039
 6434SOL     OW20200   2.562   4.790   6.544
 6434SOL    HW120201   2.555   4.695   6.573
 6434SOL    HW220202   2.557   4.795   6.444
 6435SOL     OW20203   4.920   6.626   1.018
 6435SOL    HW120204   4.834   6.591   1.055
 6435SOL    HW220205   4.963   6.687   1.085
 6436SOL     OW20206   1.505   3.131   2.992
 6436SOL    HW120207   1.512   3.073   2.911
 6436SOL    HW220208   1.467   3.220   2.966
 6437SOL     OW20209   2.504   1.456   0.594
 6437SOL    HW120210   2.454   1.437   0.678
 6437SOL    HW220211   2.572   1.385   0.577
 6438SOL     OW20212   6.188   4.317   5.470
 6438SOL    HW120213   6.105   4.370   5.450
 6438SOL    HW220214   6.165   4.241   5.531
 6439SOL     OW20215   5.922   1.451   1.845
 6439SOL    HW120216   5.958   1.543   1.858
 6439SOL    HW220217   5.924   1.428   1.747
 6440SOL     OW20218   2.222   1.771   5.682
 6440SOL    HW120219   2.256   1.826   5.758
 6440SOL    HW220220   2.246   1.815   5.595
 6441SOL     OW20221   6.684   6.524   1.808
 6441SOL    HW120222   6.765   6.491   1.761
 6441SOL    HW220223   6.710   6.562   1.897
 6442SOL     OW20224   2.443   1.657   4.367
 6442SOL    HW120225   2.483   1.567   4.350
 6442SOL    HW220226   2.349   1.646   4.400
 6443SOL     OW20227   3.880   2.388   5.649
 6443SOL    HW120228   3.848   2.483   5.640
 6443SOL    HW220229   3.802   2.326   5.645
 6444SOL     OW20230   5.816   2.599   4.313
 6444SOL    HW120231   5.814   2.675   4.378
 6444SOL    HW220232   5.838   2.634   4.222
 6445SOL     OW20233   4.086   3.316   4.812
 6445SOL    HW120234   4.081   3.316   4.912
 6445SOL    HW220235   4.174   3.278   4.782
 6446SOL     OW20236   1.134   1.130   6.971
 6446SOL    HW120237   1.095   1.123   0.038
 6446SOL    HW220238   1.180   1.044   6.948
 6447SOL     OW20239   5.110   4.884   3.698
 6447SOL    HW120240   5.188   4.824   3.720
 6447SOL    HW220241   5.031   4.857   3.753
 6448SOL     OW20242   4.241   5.730   2.254
 6448SOL    HW120243   4.157   5.729   2.199
 6448SOL    HW220244   4.234   5.799   2.326
 6449SOL     OW20245   3.813   6.241   1.099
 6449SOL    HW120246   3.898   6.236   1.152
 6449SOL    HW220247   3.739   6.197   1.150
 6450SOL     OW20248   0.474   3.881   0.752
 6450SOL    HW120249   0.558   3.936   0.754
 6450SOL    HW220250   0.493   3.792   0.794
 6451SOL     OW20251   2.181   0.826   4.543
 6451SOL    HW120252   2.246   0.892   4.505
 6451SOL    HW220253   2.128   0.784   4.469
 6452SOL     OW20254   4.697   5.791   4.083
 6452SOL    HW120255   4.746   5.790   4.170
 6452SOL    HW220256   4.625   5.722   4.085
 6453SOL     OW20257   2.368   6.460   1.724
 6453SOL    HW120258   2.403   6.379   1.678
 6453SOL    HW220259   2.441   6.528   1.732
 6454SOL     OW20260   1.065   2.158   2.991
 6454SOL    HW120261   0.996   2.201   3.050
 6454SOL    HW220262   1.155   2.199   3.010
 6455SOL     OW20263   6.769   3.275   3.565
 6455SOL    HW120264   6.693   3.211   3.554
 6455SOL    HW220265   6.834   3.262   3.489
 6456SOL     OW20266   0.944   0.688   3.439
 6456SOL    HW120267   1.005   0.732   3.373
 6456SOL    HW220268   0.849   0.698   3.407
 6457SOL     OW20269   5.029   1.786   1.467
 6457SOL    HW120270   4.939   1.813   1.436
 6457SOL    HW220271   5.078   1.866   1.502
 6458SOL     OW20272   1.128   6.307   4.500
 6458SOL    HW120273   1.164   6.353   4.581
 6458SOL    HW220274   1.078   6.373   4.444
 6459SOL     OW20275   6.542   3.143   1.451
 6459SOL    HW120276   6.464   3.093   1.489
 6459SOL    HW220277   6.511   3.232   1.418
 6460SOL     OW20278   6.050   6.274   6.048
 6460SOL    HW120279   5.981   6.217   6.092
 6460SOL    HW220280   6.056   6.250   5.951
 6461SOL     OW20281   2.047   4.767   6.104
 6461SOL    HW120282   2.085   4.857   6.085
 6461SOL    HW220283   2.108   4.717   6.165
 6462SOL     OW20284   2.245   2.547   4.420
 6462SOL    HW120285   2.224   2.644   4.410
 6462SOL    HW220286   2.218   2.498   4.337
 6463SOL     OW20287   6.062   2.841   7.013
 6463SOL    HW120288   6.046   2.806   0.081
 6463SOL    HW220289   5.977   2.837   6.960
 6464SOL     OW20290   1.128   5.530   5.078
 6464SOL    HW120291   1.070   5.510   5.157
 6464SOL    HW220292   1.221   5.496   5.096
 6465SOL     OW20293   7.009   2.943   2.832
 6465SOL    HW120294   7.021   3.026   2.778
 6465SOL    HW220295   0.018   2.959   2.925
 6466SOL     OW20296   0.861   1.020   6.510
 6466SOL    HW120297   0.863   1.068   6.422
 6466SOL    HW220298   0.801   0.941   6.503
 6467SOL     OW20299   3.356   1.823   0.266
 6467SOL    HW120300   3.351   1.807   0.167
 6467SOL    HW220301   3.274   1.872   0.296
 6468SOL     OW20302   2.942   6.500   0.456
 6468SOL    HW120303   2.999   6.502   0.538
 6468SOL    HW220304   2.958   6.414   0.407
 6469SOL     OW20305   4.411   1.436   4.803
 6469SOL    HW120306   4.373   1.422   4.712
 6469SOL    HW220307   4.511   1.434   4.798
 6470SOL     OW20308   6.124   3.086   0.445
 6470SOL    HW120309   6.145   3.090   0.347
 6470SOL    HW220310   6.048   3.147   0.466
 6471SOL     OW20311   6.704   6.458   5.959
 6471SOL    HW120312   6.695   6.378   5.899
 6471SOL    HW220313   6.742   6.534   5.907
 6472SOL     OW20314   0.185   5.309   1.993
 6472SOL    HW120315   0.169   5.273   1.901
 6472SOL    HW220316   0.122   5.265   2.057
 6473SOL     OW20317   3.116   1.470   4.204
 6473SOL    HW120318   3.210   1.441   4.185
 6473SOL    HW220319   3.064   1.473   4.119
 6474SOL     OW20320   2.799   4.135   5.586
 6474SOL    HW120321   2.737   4.170   5.516
 6474SOL    HW220322   2.871   4.202   5.604
 6475SOL     OW20323   5.674   5.382   4.078
 6475SOL    HW120324   5.709   5.291   4.057
 6475SOL    HW220325   5.574   5.381   4.078
 6476SOL     OW20326   3.971   3.408   1.374
 6476SOL    HW120327   3.991   3.326   1.321
 6476SOL    HW220328   3.976   3.489   1.314
 6477SOL     OW20329   6.059   5.125   0.955
 6477SOL    HW120330   6.124   5.193   0.921
 6477SOL    HW220331   6.032   5.064   0.881
 6478SOL     OW20332   3.533   0.514   1.538
 6478SOL    HW120333   3.450   0.530   1.591
 6478SOL    HW220334   3.553   0.595   1.483
 6479SOL     OW20335   4.268   5.195   3.691
 6479SOL    HW120336   4.341   5.263   3.678
 6479SOL    HW220337   4.307   5.103   3.690
 6480SOL     OW20338   2.779   1.329   6.313
 6480SOL    HW120339   2.857   1.382   6.346
 6480SOL    HW220340   2.740   1.374   6.232
 6481SOL     OW20341   3.537   2.029   2.141
 6481SOL    HW120342   3.458   2.058   2.196
 6481SOL    HW220343   3.566   2.104   2.082
 6482SOL     OW20344   6.619   0.650   6.419
 6482SOL    HW120345   6.692   0.718   6.417
 6482SOL    HW220346   6.656   0.560   6.399
 6483SOL     OW20347   0.921   6.745   2.296
 6483SOL    HW120348   0.872   6.831   2.314
 6483SOL    HW220349   0.866   6.668   2.328
 6484SOL     OW20350   3.385   6.917   1.214
 6484SOL    HW120351   3.296   6.938   1.256
 6484SOL    HW220352   3.385   6.949   1.119
 6485SOL     OW20353   1.958   4.864   3.431
 6485SOL    HW120354   1.985   4.768   3.438
 6485SOL    HW220355   1.918   4.894   3.517
 6486SOL     OW20356   2.222   4.456   3.757
 6486SOL    HW120357   2.163   4.511   3.817
 6486SOL    HW220358   2.314   4.495   3.756
 6487SOL     OW20359   0.414   6.418   5.264
 6487SOL    HW120360   0.511   6.439   5.256
 6487SOL    HW220361   0.361   6.502   5.249
 6488SOL     OW20362   3.398   5.926   4.267
 6488SOL    HW120363   3.443   6.015   4.260
 6488SOL    HW220364   3.370   5.896   4.176
 6489SOL     OW20365   3.240   2.572   6.145
 6489SOL    HW120366   3.203   2.608   6.231
 6489SOL    HW220367   3.210   2.477   6.134
 6490SOL     OW20368   4.445   0.640   6.830
 6490SOL    HW120369   4.523   0.700   6.850
 6490SOL    HW220370   4.391   0.627   6.913
 6491SOL     OW20371   4.144   0.750   0.576
 6491SOL    HW120372   4.166   0.661   0.616
 6491SOL    HW220373   4.170   0.822   0.641
 6492SOL     OW20374   3.965   4.592   6.738
 6492SOL    HW120375   3.988   4.586   6.835
 6492SOL    HW220376   4.025   4.658   6.694
 6493SOL     OW20377   1.117   4.714   5.229
 6493SOL    HW120378   1.176   4.768   5.169
 6493SOL    HW220379   1.116   4.754   5.320
 6494SOL     OW20380   0.139   0.394   3.839
 6494SOL    HW120381   0.102   0.349   3.758
 6494SOL    HW220382   0.237   0.374   3.847
 6495SOL     OW20383   5.699   0.178   4.806
 6495SOL    HW120384   5.795   0.172   4.779
 6495SOL    HW220385   5.693   0.197   4.904
 6496SOL     OW20386   6.343   0.590   2.659
 6496SOL    HW120387   6.326   0.534   2.740
 6496SOL    HW220388   6.422   0.649   2.675
 6497SOL     OW20389   1.248   1.464   0.727
 6497SOL    HW120390   1.280   1.374   0.755
 6497SOL    HW220391   1.318   1.533   0.748
 6498SOL     OW20392   1.632   3.079   3.831
 6498SOL    HW120393   1.718   3.028   3.830
 6498SOL    HW220394   1.648   3.171   3.793
 6499SOL     OW20395   5.492   3.185   5.546
 6499SOL    HW120396   5.488   3.275   5.503
 6499SOL    HW220397   5.565   3.184   5.615
 6500SOL     OW20398   0.007   3.778   4.416
 6500SOL    HW120399   6.946   3.754   4.462
 6500SOL    HW220400   0.071   3.818   4.481
 6501SOL     OW20401   6.831   1.875   6.582
 6501SOL    HW120402   6.859   1.964   6.545
 6501SOL    HW220403   6.817   1.811   6.507
 6502SOL     OW20404   0.044   1.863   1.634
 6502SOL    HW120405   0.027   1.796   1.562
 6502SOL    HW220406   0.120   1.923   1.607
 6503SOL     OW20407   5.361   0.823   3.161
 6503SOL    HW120408   5.294   0.803   3.232
 6503SOL    HW220409   5.419   0.899   3.191
 6504SOL     OW20410   4.212   6.156   5.345
 6504SOL    HW120411   4.294   6.187   5.298
 6504SOL    HW220412   4.207   6.198   5.436
 6505SOL     OW20413   5.297   5.956   0.551
 6505SOL    HW120414   5.214   5.939   0.604
 6505SOL    HW220415   5.334   5.869   0.517
 6506SOL     OW20416   6.456   2.298   2.679
 6506SOL    HW120417   6.377   2.353   2.706
 6506SOL    HW220418   6.510   2.275   2.759
 6507SOL     OW20419   1.410   5.137   5.454
 6507SOL    HW120420   1.476   5.160   5.382
 6507SOL    HW220421   1.460   5.108   5.536
 6508SOL     OW20422   1.614   0.610   2.661
 6508SOL    HW120423   1.593   0.526   2.611
 6508SOL    HW220424   1.643   0.587   2.754
 6509SOL     OW20425   3.685   2.065   4.409
 6509SOL    HW120426   3.608   2.050   4.346
 6509SOL    HW220427   3.652   2.115   4.489
 6510SOL     OW20428   6.494   5.458   6.996
 6510SOL    HW120429   6.427   5.497   0.036
 6510SOL    HW220430   6.518   5.366   0.001
 6511SOL     OW20431   4.190   1.696   4.374
 6511SOL    HW120432   4.124   1.763   4.340
 6511SOL    HW220433   4.224   1.725   4.464
 6512SOL     OW20434   4.364   6.566   2.135
 6512SOL    HW120435   4.411   6.607   2.213
 6512SOL    HW220436   4.340   6.638   2.070
 6513SOL     OW20437   2.774   5.010   2.785
 6513SOL    HW120438   2.864   5.048   2.767
 6513SOL    HW220439   2.775   4.911   2.767
 6514SOL     OW20440   6.578   0.944   3.645
 6514SOL    HW120441   6.674   0.970   3.641
 6514SOL    HW220442   6.565   0.876   3.717
 6515SOL     OW20443   0.105   4.493   4.236
 6515SOL    HW120444   0.029   4.435   4.205
 6515SOL    HW220445   0.110   4.490   4.336
 6516SOL     OW20446   0.018   3.494   1.408
 6516SOL    HW120447   7.017   3.397   1.406
 6516SOL    HW220448   6.977   3.544   1.464
 6517SOL     OW20449   6.312   1.161   1.355
 6517SOL    HW120450   6.278   1.096   1.288
 6517SOL    HW220451   6.378   1.223   1.312
 6518SOL     OW20452   7.024   0.883   0.110
 6518SOL    HW120453   6.954   0.824   0.070
 6518SOL    HW220454   0.081   0.828   0.132
 6519SOL     OW20455   1.275   2.112   3.427
 6519SOL    HW120456   1.281   2.212   3.429
 6519SOL    HW220457   1.344   2.073   3.487
 6520SOL     OW20458   5.729   5.711   1.977
 6520SOL    HW120459   5.760   5.617   1.992
 6520SOL    HW220460   5.672   5.714   1.895
 6521SOL     OW20461   1.989   2.202   3.813
 6521SOL    HW120462   1.973   2.224   3.717
 6521SOL    HW220463   1.901   2.186   3.859
 6522SOL     OW20464   3.110   5.326   6.137
 6522SOL    HW120465   3.169   5.261   6.185
 6522SOL    HW220466   3.014   5.297   6.145
 6523SOL     OW20467   3.910   1.124   6.491
 6523SOL    HW120468   3.938   1.215   6.523
 6523SOL    HW220469   3.932   1.057   6.562
 6524SOL     OW20470   3.244   3.756   1.578
 6524SOL    HW120471   3.163   3.724   1.529
 6524SOL    HW220472   3.261   3.696   1.657
 6525SOL     OW20473   2.644   5.105   2.503
 6525SOL    HW120474   2.717   5.140   2.445
 6525SOL    HW220475   2.680   5.036   2.565
 6526SOL     OW20476   2.122   0.111   6.929
 6526SOL    HW120477   2.054   0.183   6.916
 6526SOL    HW220478   2.124   0.054   6.847
 6527SOL     OW20479   0.870   1.993   4.628
 6527SOL    HW120480   0.945   2.025   4.570
 6527SOL    HW220481   0.904   1.921   4.689
 6528SOL     OW20482   0.049   0.788   5.747
 6528SOL    HW120483   0.038   0.754   5.841
 6528SOL    HW220484   0.146   0.795   5.725
 6529SOL     OW20485   1.463   0.845   2.645
 6529SOL    HW120486   1.480   0.747   2.640
 6529SOL    HW220487   1.478   0.877   2.739
 6530SOL     OW20488   6.599   3.793   0.236
 6530SOL    HW120489   6.524   3.859   0.246
 6530SOL    HW220490   6.562   3.703   0.216
 6531SOL     OW20491   5.782   3.066   5.411
 6531SOL    HW120492   5.761   3.057   5.508
 6531SOL    HW220493   5.758   2.982   5.363
 6532SOL     OW20494   0.060   1.282   0.839
 6532SOL    HW120495   6.985   1.295   0.838
 6532SOL    HW220496   0.098   1.326   0.921
 6533SOL     OW20497   4.678   6.907   1.303
 6533SOL    HW120498   4.721   6.908   1.212
 6533SOL    HW220499   4.655   6.812   1.327
 6534SOL     OW20500   3.691   4.649   1.467
 6534SOL    HW120501   3.734   4.734   1.499
 6534SOL    HW220502   3.664   4.595   1.546
 6535SOL     OW20503   6.056   4.028   4.080
 6535SOL    HW120504   5.983   4.043   4.014
 6535SOL    HW220505   6.019   4.029   4.173
 6536SOL     OW20506   1.362   1.152   5.811
 6536SOL    HW120507   1.273   1.178   5.850
 6536SOL    HW220508   1.421   1.232   5.807
 6537SOL     OW20509   6.777   5.517   0.173
 6537SOL    HW120510   6.701   5.566   0.131
 6537SOL    HW220511   6.756   5.498   0.268
 6538SOL     OW20512   2.562   4.084   6.675
 6538SOL    HW120513   2.533   4.015   6.608
 6538SOL    HW220514   2.655   4.063   6.706
 6539SOL     OW20515   4.070   0.349   5.778
 6539SOL    HW120516   4.154   0.404   5.772
 6539SOL    HW220517   4.070   0.280   5.706
 6540SOL     OW20518   4.722   1.819   5.930
 6540SOL    HW120519   4.724   1.914   5.899
 6540SOL    HW220520   4.628   1.792   5.949
 6541SOL     OW20521   4.975   2.512   5.273
 6541SOL    HW120522   5.009   2.427   5.231
 6541SOL    HW220523   4.997   2.589   5.213
 6542SOL     OW20524   6.395   3.726   3.973
 6542SOL    HW120525   6.302   3.729   4.009
 6542SOL    HW220526   6.423   3.819   3.947
 6543SOL     OW20527   5.492   3.019   5.881
 6543SOL    HW120528   5.414   2.961   5.857
 6543SOL    HW220529   5.572   2.990   5.827
 6544SOL     OW20530   0.816   6.338   3.166
 6544SOL    HW120531   0.857   6.340   3.074
 6544SOL    HW220532   0.859   6.265   3.220
 6545SOL     OW20533   3.989   2.447   0.657
 6545SOL    HW120534   3.964   2.355   0.626
 6545SOL    HW220535   3.907   2.504   0.659
 6546SOL     OW20536   2.752   4.569   0.305
 6546SOL    HW120537   2.744   4.530   0.397
 6546SOL    HW220538   2.844   4.605   0.292
 6547SOL     OW20539   4.683   0.962   5.448
 6547SOL    HW120540   4.755   0.921   5.393
 6547SOL    HW220541   4.720   0.990   5.537
 6548SOL     OW20542   0.949   4.221   0.388
 6548SOL    HW120543   0.864   4.272   0.397
 6548SOL    HW220544   1.003   4.233   0.472
 6549SOL     OW20545   4.577   1.058   1.600
 6549SOL    HW120546   4.619   1.015   1.520
 6549SOL    HW220547   4.646   1.110   1.650
 6550SOL     OW20548   0.133   6.327   4.125
 6550SOL    HW120549   0.112   6.231   4.102
 6550SOL    HW220550   0.110   6.385   4.047
 6551SOL     OW20551   1.886   5.078   2.495
 6551SOL    HW120552   1.942   5.069   2.577
 6551SOL    HW220553   1.849   5.170   2.489
 6552SOL     OW20554   2.063   6.658   6.899
 6552SOL    HW120555   1.976   6.668   6.850
 6552SOL    HW220556   2.099   6.566   6.885
 6553SOL     OW20557   0.261   2.144   3.308
 6553SOL    HW120558   0.202   2.201   3.364
 6553SOL    HW220559   0.206   2.089   3.246
 6554SOL     OW20560   0.602   1.101   4.626
 6554SOL    HW120561   0.612   1.186   4.575
 6554SOL    HW220562   0.673   1.096   4.696
 6555SOL     OW20563   5.999   2.230   2.688
 6555SOL    HW120564   5.968   2.139   2.661
 6555SOL    HW220565   5.921   2.292   2.691
 6556SOL     OW20566   5.391   4.698   4.893
 6556SOL    HW120567   5.413   4.648   4.976
 6556SOL    HW220568   5.294   4.721   4.893
 6557SOL     OW20569   3.353   6.936   2.185
 6557SOL    HW120570   3.379   6.939   2.088
 6557SOL    HW220571   3.382   7.021   2.230
 6558SOL     OW20572   6.970   4.694   6.498
 6558SOL    HW120573   6.947   4.728   6.589
 6558SOL    HW220574   6.970   4.770   6.433
 6559SOL     OW20575   0.632   3.538   6.235
 6559SOL    HW120576   0.647   3.603   6.309
 6559SOL    HW220577   0.533   3.523   6.223
 6560SOL     OW20578   4.412   5.247   1.261
 6560SOL    HW120579   4.412   5.314   1.334
 6560SOL    HW220580   4.506   5.234   1.228
 6561SOL     OW20581   3.322   3.979   1.434
 6561SOL    HW120582   3.421   3.993   1.440
 6561SOL    HW220583   3.297   3.898   1.488
 6562SOL     OW20584   5.957   3.567   1.183
 6562SOL    HW120585   6.023   3.641   1.195
 6562SOL    HW220586   5.972   3.522   1.095
 6563SOL     OW20587   5.532   6.348   0.477
 6563SOL    HW120588   5.518   6.427   0.416
 6563SOL    HW220589   5.451   6.290   0.473
 6564SOL     OW20590   6.737   4.269   3.175
 6564SOL    HW120591   6.728   4.247   3.271
 6564SOL    HW220592   6.751   4.368   3.165
 6565SOL     OW20593   6.056   2.162   3.689
 6565SOL    HW120594   6.070   2.205   3.600
 6565SOL    HW220595   6.113   2.080   3.696
 6566SOL     OW20596   3.287   6.056   2.693
 6566SOL    HW120597   3.224   5.984   2.723
 6566SOL    HW220598   3.366   6.013   2.649
 6567SOL     OW20599   4.127   1.087   2.093
 6567SOL    HW120600   4.038   1.132   2.102
 6567SOL    HW220601   4.172   1.081   2.182
 6568SOL     OW20602   3.835   1.165   3.717
 6568SOL    HW120603   3.913   1.142   3.777
 6568SOL    HW220604   3.813   1.086   3.660
 6569SOL     OW20605   3.141   3.257   6.280
 6569SOL    HW120606   3.212   3.239   6.348
 6569SOL    HW220607   3.177   3.235   6.189
 6570SOL     OW20608   3.728   0.731   2.380
 6570SOL    HW120609   3.827   0.734   2.374
 6570SOL    HW220610   3.688   0.753   2.291
 6571SOL     OW20611   2.989   5.852   1.647
 6571SOL    HW120612   3.009   5.820   1.739
 6571SOL    HW220613   3.033   5.940   1.632
 6572SOL     OW20614   6.376   5.055   5.761
 6572SOL    HW120615   6.377   4.959   5.736
 6572SOL    HW220616   6.443   5.071   5.834
 6573SOL     OW20617   2.100   1.383   2.181
 6573SOL    HW120618   2.074   1.476   2.155
 6573SOL    HW220619   2.045   1.353   2.258
 6574SOL     OW20620   3.118   5.796   3.046
 6574SOL    HW120621   3.064   5.718   3.080
 6574SOL    HW220622   3.145   5.778   2.951
 6575SOL     OW20623   1.041   0.123   2.798
 6575SOL    HW120624   1.009   0.177   2.876
 6575SOL    HW220625   1.020   0.027   2.812
 6576SOL     OW20626   2.096   5.873   6.462
 6576SOL    HW120627   2.086   5.902   6.367
 6576SOL    HW220628   2.191   5.845   6.479
 6577SOL     OW20629   0.927   1.231   4.259
 6577SOL    HW120630   0.870   1.204   4.182
 6577SOL    HW220631   0.869   1.275   4.328
 6578SOL     OW20632   1.451   5.084   3.267
 6578SOL    HW120633   1.360   5.071   3.230
 6578SOL    HW220634   1.450   5.066   3.365
 6579SOL     OW20635   6.450   3.786   4.996
 6579SOL    HW120636   6.414   3.861   4.942
 6579SOL    HW220637   6.544   3.767   4.969
 6580SOL     OW20638   0.454   2.145   0.381
 6580SOL    HW120639   0.467   2.073   0.449
 6580SOL    HW220640   0.543   2.181   0.354
 6581SOL     OW20641   2.754   0.743   6.786
 6581SOL    HW120642   2.839   0.727   6.736
 6581SOL    HW220643   2.679   0.755   6.721
 6582SOL     OW20644   0.854   1.595   1.924
 6582SOL    HW120645   0.907   1.605   2.008
 6582SOL    HW220646   0.757   1.591   1.945
 6583SOL     OW20647   4.046   0.945   5.249
 6583SOL    HW120648   3.996   1.030   5.233
 6583SOL    HW220649   4.143   0.966   5.265
 6584SOL     OW20650   4.652   2.226   1.066
 6584SOL    HW120651   4.556   2.214   1.094
 6584SOL    HW220652   4.705   2.261   1.143
 6585SOL     OW20653   5.350   6.780   0.061
 6585SOL    HW120654   5.270   6.732   0.097
 6585SOL    HW220655   5.358   6.762   6.987
 6586SOL     OW20656   0.550   1.599   5.438
 6586SOL    HW120657   0.546   1.698   5.426
 6586SOL    HW220658   0.633   1.575   5.487
 6587SOL     OW20659   2.042   0.010   4.823
 6587SOL    HW120660   2.014   0.080   4.889
 6587SOL    HW220661   2.031   6.944   4.864
 6588SOL     OW20662   0.658   3.991   1.693
 6588SOL    HW120663   0.649   3.891   1.688
 6588SOL    HW220664   0.621   4.032   1.609
 6589SOL     OW20665   5.102   1.071   0.337
 6589SOL    HW120666   5.170   1.086   0.266
 6589SOL    HW220667   5.129   0.993   0.394
 6590SOL     OW20668   1.085   0.735   5.808
 6590SOL    HW120669   1.108   0.783   5.892
 6590SOL    HW220670   0.987   0.746   5.789
 6591SOL     OW20671   5.385   5.478   2.074
 6591SOL    HW120672   5.327   5.549   2.035
 6591SOL    HW220673   5.372   5.474   2.174
 6592SOL     OW20674   6.251   0.487   3.737
 6592SOL    HW120675   6.300   0.425   3.798
 6592SOL    HW220676   6.284   0.476   3.644
 6593SOL     OW20677   2.146   2.002   2.330
 6593SOL    HW120678   2.119   2.049   2.414
 6593SOL    HW220679   2.132   2.062   2.252
 6594SOL     OW20680   3.425   2.008   6.889
 6594SOL    HW120681   3.342   2.041   6.934
 6594SOL    HW220682   3.446   1.916   6.922
 6595SOL     OW20683   0.625   3.835   0.055
 6595SOL    HW120684   0.634   3.880   0.144
 6595SOL    HW220685   0.606   3.738   0.069
 6596SOL     OW20686   3.314   6.408   4.330
 6596SOL    HW120687   3.367   6.436   4.411
 6596SOL    HW220688   3.313   6.482   4.264
 6597SOL     OW20689   1.816   5.295   1.377
 6597SOL    HW120690   1.723   5.326   1.358
 6597SOL    HW220691   1.833   5.298   1.475
 6598SOL     OW20692   1.712   6.205   4.609
 6598SOL    HW120693   1.617   6.233   4.609
 6598SOL    HW220694   1.723   6.125   4.669
 6599SOL     OW20695   4.475   6.216   5.966
 6599SOL    HW120696   4.395   6.275   5.974
 6599SOL    HW220697   4.450   6.133   5.916
 6600SOL     OW20698   5.051   5.161   5.467
 6600SOL    HW120699   5.048   5.064   5.444
 6600SOL    HW220700   5.146   5.191   5.476
 6601SOL     OW20701   1.199   1.484   5.618
 6601SOL    HW120702   1.233   1.557   5.559
 6601SOL    HW220703   1.246   1.398   5.598
 6602SOL     OW20704   0.597   0.973   2.286
 6602SOL    HW120705   0.514   1.018   2.253
 6602SOL    HW220706   0.577   0.878   2.308
 6603SOL     OW20707   6.822   2.610   3.888
 6603SOL    HW120708   6.755   2.555   3.938
 6603SOL    HW220709   6.801   2.707   3.900
 6604SOL     OW20710   2.093   7.022   1.272
 6604SOL    HW120711   2.013   0.056   1.257
 6604SOL    HW220712   2.072   6.929   1.243
 6605SOL     OW20713   5.557   3.662   1.558
 6605SOL    HW120714   5.508   3.698   1.637
 6605SOL    HW220715   5.595   3.573   1.580
 6606SOL     OW20716   6.893   5.887   1.584
 6606SOL    HW120717   6.817   5.823   1.586
 6606SOL    HW220718   6.875   5.959   1.517
 6607SOL     OW20719   1.887   3.410   2.348
 6607SOL    HW120720   1.894   3.340   2.277
 6607SOL    HW220721   1.798   3.403   2.393
 6608SOL     OW20722   5.988   6.087   0.866
 6608SOL    HW120723   5.943   6.006   0.903
 6608SOL    HW220724   6.087   6.079   0.878
 6609SOL     OW20725   4.480   1.190   5.692
 6609SOL    HW120726   4.444   1.233   5.609
 6609SOL    HW220727   4.429   1.106   5.710
 6610SOL     OW20728   3.152   0.108   7.016
 6610SOL    HW120729   3.188   0.121   6.923
 6610SOL    HW220730   3.058   0.143   7.020
 6611SOL     OW20731   5.479   3.040   3.545
 6611SOL    HW120732   5.403   3.021   3.483
 6611SOL    HW220733   5.564   3.005   3.505
 6612SOL     OW20734   6.058   2.145   6.242
 6612SOL    HW120735   6.002   2.121   6.321
 6612SOL    HW220736   6.147   2.177   6.273
 6613SOL     OW20737   6.498   6.130   4.867
 6613SOL    HW120738   6.584   6.141   4.915
 6613SOL    HW220739   6.429   6.191   4.907
 6614SOL     OW20740   5.401   6.679   0.495
 6614SOL    HW120741   5.438   6.615   0.428
 6614SOL    HW220742   5.401   6.771   0.455
 6615SOL     OW20743   1.219   4.954   2.456
 6615SOL    HW120744   1.255   4.879   2.401
 6615SOL    HW220745   1.291   5.021   2.472
 6616SOL     OW20746   4.170   1.065   5.651
 6616SOL    HW120747   4.115   1.134   5.696
 6616SOL    HW220748   4.201   0.997   5.717
 6617SOL     OW20749   4.237   4.966   3.039
 6617SOL    HW120750   4.248   5.016   2.953
 6617SOL    HW220751   4.229   5.030   3.115
 6618SOL     OW20752   1.513   2.534   2.365
 6618SOL    HW120753   1.534   2.462   2.430
 6618SOL    HW220754   1.597   2.565   2.321
 6619SOL     OW20755   6.496   6.931   4.107
 6619SOL    HW120756   6.499   0.004   4.084
 6619SOL    HW220757   6.508   6.921   4.206
 6620SOL     OW20758   1.720   3.243   4.825
 6620SOL    HW120759   1.639   3.200   4.865
 6620SOL    HW220760   1.790   3.254   4.895
 6621SOL     OW20761   3.002   2.984   6.214
 6621SOL    HW120762   3.037   3.029   6.132
 6621SOL    HW220763   3.029   3.035   6.295
 6622SOL     OW20764   5.791   6.676   1.126
 6622SOL    HW120765   5.731   6.678   1.047
 6622SOL    HW220766   5.817   6.581   1.146
 6623SOL     OW20767   3.104   3.175   5.746
 6623SOL    HW120768   3.176   3.201   5.681
 6623SOL    HW220769   3.033   3.246   5.746
 6624SOL     OW20770   0.728   5.108   6.065
 6624SOL    HW120771   0.659   5.036   6.066
 6624SOL    HW220772   0.741   5.141   5.972
 6625SOL     OW20773   5.020   1.918   5.457
 6625SOL    HW120774   4.993   1.867   5.539
 6625SOL    HW220775   4.963   1.891   5.380
 6626SOL     OW20776   4.807   5.198   5.598
 6626SOL    HW120777   4.743   5.237   5.533
 6626SOL    HW220778   4.892   5.174   5.551
 6627SOL     OW20779   2.232   6.519   4.933
 6627SOL    HW120780   2.318   6.551   4.894
 6627SOL    HW220781   2.155   6.560   4.882
 6628SOL     OW20782   4.574   4.582   5.003
 6628SOL    HW120783   4.612   4.593   5.095
 6628SOL    HW220784   4.474   4.581   5.008
 6629SOL     OW20785   4.482   5.819   0.270
 6629SOL    HW120786   4.412   5.883   0.239
 6629SOL    HW220787   4.439   5.731   0.293
 6630SOL     OW20788   3.833   1.080   1.755
 6630SOL    HW120789   3.859   0.985   1.769
 6630SOL    HW220790   3.912   1.139   1.772
 6631SOL     OW20791   2.747   5.577   3.597
 6631SOL    HW120792   2.702   5.663   3.622
 6631SOL    HW220793   2.846   5.587   3.609
 6632SOL     OW20794   6.947   6.442   1.357
 6632SOL    HW120795   0.007   6.398   1.327
 6632SOL    HW220796   6.934   6.526   1.305
 6633SOL     OW20797   0.629   4.452   6.295
 6633SOL    HW120798   0.680   4.389   6.236
 6633SOL    HW220799   0.542   4.475   6.252
 6634SOL     OW20800   5.366   2.271   4.045
 6634SOL    HW120801   5.277   2.254   4.088
 6634SOL    HW220802   5.428   2.311   4.112
 6635SOL     OW20803   4.468   4.708   3.046
 6635SOL    HW120804   4.402   4.703   3.121
 6635SOL    HW220805   4.473   4.803   3.013
 6636SOL     OW20806   5.269   2.635   5.883
 6636SOL    HW120807   5.265   2.699   5.960
 6636SOL    HW220808   5.274   2.686   5.797
 6637SOL     OW20809   1.423   0.270   6.459
 6637SOL    HW120810   1.328   0.287   6.431
 6637SOL    HW220811   1.428   0.266   6.559
 6638SOL     OW20812   3.282   3.620   3.872
 6638SOL    HW120813   3.289   3.655   3.966
 6638SOL    HW220814   3.318   3.688   3.808
 6639SOL     OW20815   5.162   4.601   6.735
 6639SOL    HW120816   5.187   4.568   6.644
 6639SOL    HW220817   5.245   4.623   6.787
 6640SOL     OW20818   1.680   1.550   5.116
 6640SOL    HW120819   1.668   1.648   5.132
 6640SOL    HW220820   1.769   1.534   5.073
 6641SOL     OW20821   2.174   1.863   6.490
 6641SOL    HW120822   2.185   1.882   6.588
 6641SOL    HW220823   2.263   1.871   6.445
 6642SOL     OW20824   2.660   5.756   6.819
 6642SOL    HW120825   2.585   5.695   6.846
 6642SOL    HW220826   2.747   5.711   6.835
 6643SOL     OW20827   5.830   5.019   0.228
 6643SOL    HW120828   5.783   5.059   0.150
 6643SOL    HW220829   5.928   5.012   0.208
 6644SOL     OW20830   2.347   5.401   2.083
 6644SOL    HW120831   2.401   5.446   2.012
 6644SOL    HW220832   2.355   5.452   2.168
 6645SOL     OW20833   6.350   5.163   0.625
 6645SOL    HW120834   6.332   5.079   0.677
 6645SOL    HW220835   6.422   5.215   0.672
 6646SOL     OW20836   4.412   6.958   4.917
 6646SOL    HW120837   4.479   6.972   4.990
 6646SOL    HW220838   4.405   6.860   4.896
 6647SOL     OW20839   4.741   1.167   1.764
 6647SOL    HW120840   4.810   1.213   1.709
 6647SOL    HW220841   4.785   1.104   1.827
 6648SOL     OW20842   4.551   6.492   3.363
 6648SOL    HW120843   4.631   6.548   3.384
 6648SOL    HW220844   4.548   6.414   3.426
 6649SOL     OW20845   4.764   0.892   6.533
 6649SOL    HW120846   4.715   0.837   6.601
 6649SOL    HW220847   4.797   0.976   6.576
 6650SOL     OW20848   3.838   1.426   5.305
 6650SOL    HW120849   3.779   1.354   5.269
 6650SOL    HW220850   3.849   1.498   5.237
 6651SOL     OW20851   2.204   1.965   5.472
 6651SOL    HW120852   2.139   1.940   5.399
 6651SOL    HW220853   2.159   2.026   5.537
 6652SOL     OW20854   0.627   4.540   0.719
 6652SOL    HW120855   0.722   4.510   0.732
 6652SOL    HW220856   0.585   4.554   0.809
 6653SOL     OW20857   2.933   3.305   2.589
 6653SOL    HW120858   2.931   3.261   2.499
 6653SOL    HW220859   2.948   3.403   2.579
 6654SOL     OW20860   0.971   4.432   1.344
 6654SOL    HW120861   0.967   4.475   1.434
 6654SOL    HW220862   1.030   4.485   1.283
 6655SOL     OW20863   0.883   6.893   3.466
 6655SOL    HW120864   0.939   6.870   3.386
 6655SOL    HW220865   0.795   6.929   3.435
 6656SOL     OW20866   5.649   1.703   3.907
 6656SOL    HW120867   5.749   1.708   3.902
 6656SOL    HW220868   5.612   1.794   3.926
 6657SOL     OW20869   5.611   5.599   6.376
 6657SOL    HW120870   5.627   5.509   6.336
 6657SOL    HW220871   5.616   5.593   6.476
 6658SOL     OW20872   6.633   1.109   4.498
 6658SOL    HW120873   6.594   1.169   4.567
 6658SOL    HW220874   6.733   1.106   4.508
 6659SOL     OW20875   2.269   2.483   0.401
 6659SOL    HW120876   2.213   2.425   0.341
 6659SOL    HW220877   2.287   2.434   0.487
 6660SOL     OW20878   0.989   4.958   1.101
 6660SOL    HW120879   0.955   4.930   1.191
 6660SOL    HW220880   1.080   4.998   1.111
 6661SOL     OW20881   0.999   6.454   5.072
 6661SOL    HW120882   1.083   6.493   5.109
 6661SOL    HW220883   0.973   6.375   5.126
 6662SOL     OW20884   1.049   0.411   0.242
 6662SOL    HW120885   1.078   0.499   0.205
 6662SOL    HW220886   1.032   0.347   0.167
 6663SOL     OW20887   6.496   4.605   4.215
 6663SOL    HW120888   6.580   4.593   4.162
 6663SOL    HW220889   6.425   4.644   4.157
 6664SOL     OW20890   2.028   6.251   0.406
 6664SOL    HW120891   2.060   6.241   0.312
 6664SOL    HW220892   1.957   6.184   0.425
 6665SOL     OW20893   2.063   6.282   4.298
 6665SOL    HW120894   1.965   6.288   4.314
 6665SOL    HW220895   2.085   6.194   4.256
 6666SOL     OW20896   6.401   6.910   5.568
 6666SOL    HW120897   6.365   6.858   5.491
 6666SOL    HW220898   6.423   7.003   5.539
 6667SOL     OW20899   6.541   6.026   6.535
 6667SOL    HW120900   6.591   6.103   6.495
 6667SOL    HW220901   6.493   5.976   6.463
 6668SOL     OW20902   0.239   5.380   1.688
 6668SOL    HW120903   0.188   5.463   1.669
 6668SOL    HW220904   0.201   5.304   1.635
 6669SOL     OW20905   1.605   2.901   3.534
 6669SOL    HW120906   1.574   2.987   3.494
 6669SOL    HW220907   1.557   2.885   3.620
 6670SOL     OW20908   3.606   1.957   5.157
 6670SOL    HW120909   3.576   2.048   5.188
 6670SOL    HW220910   3.675   1.922   5.221
 6671SOL     OW20911   6.213   5.934   0.628
 6671SOL    HW120912   6.259   6.022   0.640
 6671SOL    HW220913   6.120   5.949   0.594
 6672SOL     OW20914   6.640   1.950   6.260
 6672SOL    HW120915   6.633   2.023   6.192
 6672SOL    HW220916   6.558   1.950   6.317
 6673SOL     OW20917   5.397   5.558   4.702
 6673SOL    HW120918   5.298   5.568   4.687
 6673SOL    HW220919   5.437   5.506   4.627
 6674SOL     OW20920   0.591   4.822   6.062
 6674SOL    HW120921   0.554   4.791   6.150
 6674SOL    HW220922   0.592   4.746   5.997
 6675SOL     OW20923   4.822   3.855   1.904
 6675SOL    HW120924   4.830   3.757   1.921
 6675SOL    HW220925   4.830   3.873   1.805
 6676SOL     OW20926   7.019   3.270   5.411
 6676SOL    HW120927   0.093   3.251   5.417
 6676SOL    HW220928   6.992   3.332   5.485
 6677SOL     OW20929   1.289   1.393   6.533
 6677SOL    HW120930   1.266   1.298   6.510
 6677SOL    HW220931   1.388   1.402   6.540
 6678SOL     OW20932   3.334   3.206   6.502
 6678SOL    HW120933   3.348   3.109   6.522
 6678SOL    HW220934   3.418   3.257   6.525
 6679SOL     OW20935   2.989   1.188   4.242
 6679SOL    HW120936   3.061   1.244   4.282
 6679SOL    HW220937   3.026   1.138   4.164
 6680SOL     OW20938   4.781   6.947   6.801
 6680SOL    HW120939   4.699   6.963   6.746
 6680SOL    HW220940   4.770   6.864   6.855
 6681SOL     OW20941   3.962   5.943   1.626
 6681SOL    HW120942   3.990   5.993   1.544
 6681SOL    HW220943   4.031   5.954   1.698
 6682SOL     OW20944   0.258   4.679   2.715
 6682SOL    HW120945   0.350   4.700   2.681
 6682SOL    HW220946   0.235   4.741   2.790
 6683SOL     OW20947   6.109   2.811   5.457
 6683SOL    HW120948   6.158   2.745   5.401
 6683SOL    HW220949   6.011   2.793   5.453
 6684SOL     OW20950   2.721   0.483   1.585
 6684SOL    HW120951   2.816   0.454   1.588
 6684SOL    HW220952   2.695   0.503   1.490
 6685SOL     OW20953   6.639   3.709   5.497
 6685SOL    HW120954   6.640   3.806   5.474
 6685SOL    HW220955   6.560   3.666   5.454
 6686SOL     OW20956   5.540   5.884   4.202
 6686SOL    HW120957   5.521   5.797   4.248
 6686SOL    HW220958   5.520   5.875   4.105
 6687SOL     OW20959   0.916   3.429   7.012
 6687SOL    HW120960   0.920   3.508   0.049
 6687SOL    HW220961   1.001   3.422   6.960
 6688SOL     OW20962   0.391   3.930   2.766
 6688SOL    HW120963   0.468   3.891   2.816
 6688SOL    HW220964   0.405   3.918   2.668
 6689SOL     OW20965   4.606   2.741   0.587
 6689SOL    HW120966   4.666   2.701   0.656
 6689SOL    HW220967   4.659   2.764   0.505
 6690SOL     OW20968   1.947   1.214   0.718
 6690SOL    HW120969   1.878   1.218   0.645
 6690SOL    HW220970   1.908   1.169   0.798
 6691SOL     OW20971   2.539   6.541   1.371
 6691SOL    HW120972   2.466   6.594   1.328
 6691SOL    HW220973   2.627   6.586   1.352
 6692SOL     OW20974   3.882   4.161   5.110
 6692SOL    HW120975   3.928   4.236   5.159
 6692SOL    HW220976   3.816   4.117   5.171
 6693SOL     OW20977   4.085   3.793   4.889
 6693SOL    HW120978   4.163   3.855   4.881
 6693SOL    HW220979   4.105   3.707   4.843
 6694SOL     OW20980   4.043   6.240   1.211
 6694SOL    HW120981   4.110   6.217   1.140
 6694SOL    HW220982   4.051   6.337   1.234
 6695SOL     OW20983   3.374   1.569   0.369
 6695SOL    HW120984   3.363   1.656   0.319
 6695SOL    HW220985   3.336   1.578   0.461
 6696SOL     OW20986   2.142   2.947   5.582
 6696SOL    HW120987   2.088   2.897   5.514
 6696SOL    HW220988   2.149   3.043   5.555
 6697SOL     OW20989   4.657   2.294   2.478
 6697SOL    HW120990   4.612   2.285   2.567
 6697SOL    HW220991   4.595   2.338   2.413
 6698SOL     OW20992   2.920   2.552   1.489
 6698SOL    HW120993   3.015   2.564   1.461
 6698SOL    HW220994   2.862   2.545   1.408
 6699SOL     OW20995   2.422   5.243   6.424
 6699SOL    HW120996   2.365   5.185   6.483
 6699SOL    HW220997   2.514   5.250   6.462
 6700SOL     OW20998   6.587   7.003   1.183
 6700SOL    HW120999   6.520   7.002   1.109
 6700SOL    HW221000   6.661   0.041   1.159
 6701SOL     OW21001   5.574   3.407   1.927
 6701SOL    HW121002   5.479   3.424   1.953
 6701SOL    HW221003   5.594   3.309   1.933
 6702SOL     OW21004   3.318   1.810   1.887
 6702SOL    HW121005   3.246   1.752   1.848
 6702SOL    HW221006   3.352   1.770   1.971
 6703SOL     OW21007   6.440   1.890   6.870
 6703SOL    HW121008   6.410   1.903   6.964
 6703SOL    HW221009   6.465   1.978   6.830
 6704SOL     OW21010   3.472   2.109   3.411
 6704SOL    HW121011   3.462   2.082   3.315
 6704SOL    HW221012   3.390   2.159   3.440
 6705SOL     OW21013   6.658   2.632   1.653
 6705SOL    HW121014   6.668   2.544   1.607
 6705SOL    HW221015   6.572   2.634   1.704
 6706SOL     OW21016   1.307   4.249   1.932
 6706SOL    HW121017   1.278   4.161   1.894
 6706SOL    HW221018   1.406   4.259   1.921
 6707SOL     OW21019   6.508   5.548   3.703
 6707SOL    HW121020   6.438   5.562   3.634
 6707SOL    HW221021   6.473   5.572   3.794
 6708SOL     OW21022   6.580   4.890   1.748
 6708SOL    HW121023   6.517   4.845   1.685
 6708SOL    HW221024   6.529   4.943   1.815
 6709SOL     OW21025   2.746   6.773   3.384
 6709SOL    HW121026   2.729   6.816   3.296
 6709SOL    HW221027   2.838   6.796   3.415
 6710SOL     OW21028   3.497   0.808   6.345
 6710SOL    HW121029   3.562   0.765   6.407
 6710SOL    HW221030   3.547   0.865   6.279
 6711SOL     OW21031   4.744   5.500   6.120
 6711SOL    HW121032   4.800   5.543   6.191
 6711SOL    HW221033   4.739   5.560   6.040
 6712SOL     OW21034   5.237   4.151   0.024
 6712SOL    HW121035   5.299   4.073   0.029
 6712SOL    HW221036   5.183   4.156   0.108
 6713SOL     OW21037   2.031   0.269   2.424
 6713SOL    HW121038   1.946   0.228   2.456
 6713SOL    HW221039   2.019   0.302   2.330
 6714SOL     OW21040   6.422   1.391   6.166
 6714SOL    HW121041   6.487   1.448   6.117
 6714SOL    HW221042   6.406   1.306   6.115
 6715SOL     OW21043   0.283   0.099   6.849
 6715SOL    HW121044   0.205   0.045   6.882
 6715SOL    HW221045   0.287   0.095   6.749
 6716SOL     OW21046   0.480   5.928   1.344
 6716SOL    HW121047   0.442   5.918   1.435
 6716SOL    HW221048   0.472   5.842   1.294
 6717SOL     OW21049   4.489   2.744   6.756
 6717SOL    HW121050   4.542   2.809   6.702
 6717SOL    HW221051   4.398   2.734   6.716
 6718SOL     OW21052   4.836   0.195   0.321
 6718SOL    HW121053   4.767   0.259   0.288
 6718SOL    HW221054   4.922   0.210   0.272
 6719SOL     OW21055   2.716   0.175   6.859
 6719SOL    HW121056   2.617   0.175   6.874
 6719SOL    HW221057   2.748   0.269   6.846
 6720SOL     OW21058   0.774   6.868   3.919
 6720SOL    HW121059   0.821   6.852   3.832
 6720SOL    HW221060   0.690   6.815   3.922
 6721SOL     OW21061   6.469   0.235   6.145
 6721SOL    HW121062   6.524   0.219   6.063
 6721SOL    HW221063   6.404   0.308   6.128
 6722SOL     OW21064   0.136   2.994   1.279
 6722SOL    HW121065   0.217   3.037   1.238
 6722SOL    HW221066   0.065   3.063   1.294
 6723SOL     OW21067   2.408   6.913   3.159
 6723SOL    HW121068   2.386   7.011   3.160
 6723SOL    HW221069   2.506   6.901   3.143
 6724SOL     OW21070   1.555   3.624   5.571
 6724SOL    HW121071   1.595   3.694   5.513
 6724SOL    HW221072   1.628   3.579   5.625
 6725SOL     OW21073   0.326   3.890   1.358
 6725SOL    HW121074   0.309   3.946   1.438
 6725SOL    HW221075   0.336   3.948   1.277
 6726SOL     OW21076   0.804   2.284   5.255
 6726SOL    HW121077   0.823   2.381   5.239
 6726SOL    HW221078   0.771   2.242   5.171
 6727SOL     OW21079   6.169   4.086   5.123
 6727SOL    HW121080   6.119   4.172   5.132
 6727SOL    HW221081   6.147   4.026   5.200
 6728SOL     OW21082   4.027   1.420   3.245
 6728SOL    HW121083   4.026   1.416   3.345
 6728SOL    HW221084   3.988   1.507   3.216
 6729SOL     OW21085   6.963   1.120   2.455
 6729SOL    HW121086   6.957   1.020   2.455
 6729SOL    HW221087   6.963   1.153   2.549
 6730SOL     OW21088   2.557   6.483   0.084
 6730SOL    HW121089   2.545   6.491   7.009
 6730SOL    HW221090   2.526   6.392   0.114
 6731SOL     OW21091   0.995   6.062   1.834
 6731SOL    HW121092   0.976   5.995   1.906
 6731SOL    HW221093   0.919   6.065   1.770
 6732SOL     OW21094   5.580   5.200   5.671
 6732SOL    HW121095   5.625   5.248   5.747
 6732SOL    HW221096   5.624   5.111   5.657
 6733SOL     OW21097   3.970   4.918   7.009
 6733SOL    HW121098   3.888   4.924   6.953
 6733SOL    HW221099   4.012   4.828   6.997
 6734SOL     OW21100   6.657   2.285   5.017
 6734SOL    HW121101   6.656   2.370   5.069
 6734SOL    HW221102   6.634   2.304   4.921
 6735SOL     OW21103   0.096   4.177   4.451
 6735SOL    HW121104   0.115   4.152   4.546
 6735SOL    HW221105   0.161   4.131   4.391
 6736SOL     OW21106   3.273   3.667   6.908
 6736SOL    HW121107   3.291   3.617   6.993
 6736SOL    HW221108   3.250   3.602   6.836
 6737SOL     OW21109   2.034   2.623   0.484
 6737SOL    HW121110   1.981   2.676   0.418
 6737SOL    HW221111   2.114   2.584   0.439
 6738SOL     OW21112   1.637   5.001   2.659
 6738SOL    HW121113   1.728   5.003   2.699
 6738SOL    HW221114   1.606   4.906   2.652
 6739SOL     OW21115   3.643   5.970   5.505
 6739SOL    HW121116   3.634   5.901   5.434
 6739SOL    HW221117   3.564   6.031   5.503
 6740SOL     OW21118   1.629   0.949   3.974
 6740SOL    HW121119   1.587   0.994   4.054
 6740SOL    HW221120   1.577   0.866   3.953
 6741SOL     OW21121   4.041   1.201   5.447
 6741SOL    HW121122   4.038   1.301   5.446
 6741SOL    HW221123   4.125   1.170   5.492
 6742SOL     OW21124   6.437   5.698   2.857
 6742SOL    HW121125   6.437   5.697   2.957
 6742SOL    HW221126   6.365   5.637   2.824
 6743SOL     OW21127   4.258   4.872   0.421
 6743SOL    HW121128   4.216   4.945   0.367
 6743SOL    HW221129   4.190   4.801   0.440
 6744SOL     OW21130   5.527   5.072   6.813
 6744SOL    HW121131   5.536   5.016   6.731
 6744SOL    HW221132   5.431   5.079   6.839
 6745SOL     OW21133   6.985   0.219   2.835
 6745SOL    HW121134   0.020   0.241   2.913
 6745SOL    HW221135   0.008   0.155   2.775
 6746SOL     OW21136   1.268   1.268   3.175
 6746SOL    HW121137   1.264   1.204   3.252
 6746SOL    HW221138   1.241   1.220   3.092
 6747SOL     OW21139   5.858   0.874   5.043
 6747SOL    HW121140   5.937   0.932   5.063
 6747SOL    HW221141   5.870   0.785   5.087
 6748SOL     OW21142   1.407   0.630   3.519
 6748SOL    HW121143   1.314   0.618   3.553
 6748SOL    HW221144   1.457   0.544   3.529
 6749SOL     OW21145   2.656   6.052   0.384
 6749SOL    HW121146   2.657   6.149   0.406
 6749SOL    HW221147   2.749   6.016   0.387
 6750SOL     OW21148   4.150   2.247   5.459
 6750SOL    HW121149   4.071   2.186   5.451
 6750SOL    HW221150   4.178   2.253   5.555
 6751SOL     OW21151   4.470   0.129   3.732
 6751SOL    HW121152   4.461   0.052   3.796
 6751SOL    HW221153   4.524   0.100   3.653
 6752SOL     OW21154   0.348   2.385   2.970
 6752SOL    HW121155   0.277   2.451   2.996
 6752SOL    HW221156   0.310   2.320   2.905
 6753SOL     OW21157   4.542   0.866   6.092
 6753SOL    HW121158   4.567   0.957   6.059
 6753SOL    HW221159   4.498   0.872   6.181
 6754SOL     OW21160   0.393   1.453   0.023
 6754SOL    HW121161   0.388   1.460   0.123
 6754SOL    HW221162   0.414   1.543   7.009
 6755SOL     OW21163   4.062   0.607   3.506
 6755SOL    HW121164   4.083   0.606   3.409
 6755SOL    HW221165   3.985   0.669   3.523
 6756SOL     OW21166   3.915   5.564   5.115
 6756SOL    HW121167   3.928   5.552   5.016
 6756SOL    HW221168   3.909   5.474   5.158
 6757SOL     OW21169   4.428   0.287   1.661
 6757SOL    HW121170   4.475   0.365   1.701
 6757SOL    HW221171   4.351   0.320   1.606
 6758SOL     OW21172   0.043   2.420   1.381
 6758SOL    HW121173   0.015   2.516   1.377
 6758SOL    HW221174   0.040   2.389   1.476
 6759SOL     OW21175   0.705   4.746   3.864
 6759SOL    HW121176   0.685   4.717   3.958
 6759SOL    HW221177   0.708   4.666   3.805
 6760SOL     OW21178   6.715   4.528   3.504
 6760SOL    HW121179   6.649   4.589   3.459
 6760SOL    HW221180   6.806   4.542   3.465
 6761SOL     OW21181   6.339   2.257   6.062
 6761SOL    HW121182   6.399   2.219   6.133
 6761SOL    HW221183   6.315   2.185   5.997
 6762SOL     OW21184   0.135   5.319   3.641
 6762SOL    HW121185   0.188   5.376   3.579
 6762SOL    HW221186   0.041   5.311   3.607
 6763SOL     OW21187   0.156   5.059   3.261
 6763SOL    HW121188   0.255   5.069   3.257
 6763SOL    HW221189   0.113   5.127   3.202
 6764SOL     OW21190   2.699   5.263   6.596
 6764SOL    HW121191   2.733   5.248   6.689
 6764SOL    HW221192   2.681   5.360   6.583
 6765SOL     OW21193   4.723   4.663   3.976
 6765SOL    HW121194   4.689   4.643   4.068
 6765SOL    HW221195   4.821   4.643   3.971
 6766SOL     OW21196   5.091   6.156   6.170
 6766SOL    HW121197   5.181   6.113   6.163
 6766SOL    HW221198   5.036   6.131   6.090
 6767SOL     OW21199   0.950   2.638   0.269
 6767SOL    HW121200   0.872   2.700   0.282
 6767SOL    HW221201   0.936   2.555   0.324
 6768SOL     OW21202   0.842   6.495   3.407
 6768SOL    HW121203   0.827   6.447   3.320
 6768SOL    HW221204   0.931   6.467   3.444
 6769SOL     OW21205   2.998   0.096   5.841
 6769SOL    HW121206   2.922   0.161   5.834
 6769SOL    HW221207   3.030   0.071   5.750
 6770SOL     OW21208   5.913   1.986   3.176
 6770SOL    HW121209   5.928   1.894   3.213
 6770SOL    HW221210   5.815   1.999   3.158
 6771SOL     OW21211   3.928   1.222   2.191
 6771SOL    HW121212   3.845   1.180   2.155
 6771SOL    HW221213   3.940   1.194   2.287
 6772SOL     OW21214   4.594   2.005   2.481
 6772SOL    HW121215   4.518   1.969   2.536
 6772SOL    HW221216   4.599   2.104   2.492
 6773SOL     OW21217   0.128   6.481   1.857
 6773SOL    HW121218   0.164   6.396   1.896
 6773SOL    HW221219   0.063   6.521   1.921
 6774SOL     OW21220   1.245   3.200   4.381
 6774SOL    HW121221   1.231   3.206   4.283
 6774SOL    HW221222   1.323   3.139   4.400
 6775SOL     OW21223   1.095   1.877   2.995
 6775SOL    HW121224   1.081   1.976   2.999
 6775SOL    HW221225   1.192   1.856   3.013
 6776SOL     OW21226   4.328   3.635   1.344
 6776SOL    HW121227   4.260   3.651   1.273
 6776SOL    HW221228   4.356   3.539   1.343
 6777SOL     OW21229   4.392   5.408   0.649
 6777SOL    HW121230   4.398   5.328   0.590
 6777SOL    HW221231   4.317   5.467   0.618
 6778SOL     OW21232   6.142   3.859   2.337
 6778SOL    HW121233   6.069   3.820   2.394
 6778SOL    HW221234   6.103   3.889   2.249
 6779SOL     OW21235   5.229   4.600   6.211
 6779SOL    HW121236   5.237   4.666   6.136
 6779SOL    HW221237   5.190   4.514   6.176
 6780SOL     OW21238   0.761   3.539   2.890
 6780SOL    HW121239   0.684   3.555   2.952
 6780SOL    HW221240   0.817   3.463   2.925
 6781SOL     OW21241   6.749   1.931   3.864
 6781SOL    HW121242   6.749   2.014   3.920
 6781SOL    HW221243   6.819   1.868   3.897
 6782SOL     OW21244   0.584   1.517   3.078
 6782SOL    HW121245   0.495   1.556   3.100
 6782SOL    HW221246   0.642   1.517   3.160
 6783SOL     OW21247   1.194   3.288   6.153
 6783SOL    HW121248   1.143   3.317   6.071
 6783SOL    HW221249   1.179   3.191   6.169
 6784SOL     OW21250   2.627   4.191   0.907
 6784SOL    HW121251   2.588   4.263   0.964
 6784SOL    HW221252   2.593   4.201   0.813
 6785SOL     OW21253   5.834   5.020   5.479
 6785SOL    HW121254   5.886   4.960   5.418
 6785SOL    HW221255   5.747   4.977   5.501
 6786SOL     OW21256   0.605   2.920   6.581
 6786SOL    HW121257   0.622   2.821   6.584
 6786SOL    HW221258   0.622   2.953   6.488
 6787SOL     OW21259   3.255   2.058   1.131
 6787SOL    HW121260   3.280   2.108   1.214
 6787SOL    HW221261   3.300   2.100   1.052
 6788SOL     OW21262   0.349   4.427   2.460
 6788SOL    HW121263   0.440   4.437   2.499
 6788SOL    HW221264   0.331   4.330   2.441
 6789SOL     OW21265   0.111   4.176   4.079
 6789SOL    HW121266   0.188   4.199   4.138
 6789SOL    HW221267   0.097   4.077   4.080
 6790SOL     OW21268   0.320   4.390   6.949
 6790SOL    HW121269   0.419   4.381   6.961
 6790SOL    HW221270   0.298   4.484   6.923
 6791SOL     OW21271   4.218   2.241   2.561
 6791SOL    HW121272   4.215   2.231   2.462
 6791SOL    HW221273   4.125   2.235   2.598
 6792SOL     OW21274   5.190   0.015   5.478
 6792SOL    HW121275   5.171   0.021   5.576
 6792SOL    HW221276   5.287   0.035   5.462
 6793SOL     OW21277   3.197   0.459   6.962
 6793SOL    HW121278   3.100   0.432   6.963
 6793SOL    HW221279   3.253   0.380   6.985
 6794SOL     OW21280   5.240   1.340   5.359
 6794SOL    HW121281   5.236   1.252   5.406
 6794SOL    HW221282   5.162   1.348   5.296
 6795SOL     OW21283   0.694   6.265   0.236
 6795SOL    HW121284   0.754   6.312   0.171
 6795SOL    HW221285   0.620   6.219   0.186
 6796SOL     OW21286   5.935   0.054   2.177
 6796SOL    HW121287   5.955   0.084   2.270
 6796SOL    HW221288   6.003   7.011   2.148
 6797SOL     OW21289   6.518   1.653   0.681
 6797SOL    HW121290   6.518   1.750   0.706
 6797SOL    HW221291   6.545   1.643   0.585
 6798SOL     OW21292   6.078   0.543   1.603
 6798SOL    HW121293   6.042   0.450   1.606
 6798SOL    HW221294   6.168   0.543   1.561
 6799SOL     OW21295   5.717   6.933   2.282
 6799SOL    HW121296   5.799   6.981   2.250
 6799SOL    HW221297   5.641   6.997   2.289
 6800SOL     OW21298   2.450   2.613   1.987
 6800SOL    HW121299   2.488   2.523   1.968
 6800SOL    HW221300   2.460   2.634   2.084
 6801SOL     OW21301   0.850   6.663   3.657
 6801SOL    HW121302   0.781   6.735   3.645
 6801SOL    HW221303   0.864   6.615   3.571
 6802SOL     OW21304   3.691   6.040   1.294
 6802SOL    HW121305   3.716   5.956   1.246
 6802SOL    HW221306   3.699   6.026   1.393
 6803SOL     OW21307   4.092   4.252   6.617
 6803SOL    HW121308   4.125   4.169   6.663
 6803SOL    HW221309   3.993   4.249   6.610
 6804SOL     OW21310   3.483   5.249   3.239
 6804SOL    HW121311   3.558   5.184   3.244
 6804SOL    HW221312   3.406   5.208   3.191
 6805SOL     OW21313   0.547   5.334   6.787
 6805SOL    HW121314   0.569   5.250   6.836
 6805SOL    HW221315   0.557   5.412   6.849
 6806SOL     OW21316   6.807   0.719   4.352
 6806SOL    HW121317   6.777   0.756   4.264
 6806SOL    HW221318   6.749   0.756   4.425
 6807SOL     OW21319   3.663   4.004   3.073
 6807SOL    HW121320   3.750   3.981   3.030
 6807SOL    HW221321   3.608   3.921   3.082
 6808SOL     OW21322   6.681   1.271   5.009
 6808SOL    HW121323   6.755   1.336   5.025
 6808SOL    HW221324   6.714   1.196   4.951
 6809SOL     OW21325   6.604   3.371   0.455
 6809SOL    HW121326   6.642   3.403   0.542
 6809SOL    HW221327   6.504   3.383   0.457
 6810SOL     OW21328   3.064   0.860   2.328
 6810SOL    HW121329   3.156   0.897   2.332
 6810SOL    HW221330   3.066   0.767   2.291
 6811SOL     OW21331   6.380   2.942   2.303
 6811SOL    HW121332   6.317   2.875   2.344
 6811SOL    HW221333   6.375   2.935   2.204
 6812SOL     OW21334   3.545   4.226   5.144
 6812SOL    HW121335   3.463   4.199   5.193
 6812SOL    HW221336   3.538   4.196   5.048
 6813SOL     OW21337   5.841   3.293   2.583
 6813SOL    HW121338   5.813   3.237   2.661
 6813SOL    HW221339   5.875   3.233   2.510
 6814SOL     OW21340   4.536   1.640   6.573
 6814SOL    HW121341   4.546   1.690   6.660
 6814SOL    HW221342   4.439   1.633   6.550
 6815SOL     OW21343   2.649   6.254   6.769
 6815SOL    HW121344   2.737   6.216   6.742
 6815SOL    HW221345   2.663   6.346   6.807
 6816SOL     OW21346   6.866   1.372   5.341
 6816SOL    HW121347   6.875   1.280   5.302
 6816SOL    HW221348   6.784   1.375   5.400
 6817SOL     OW21349   2.492   2.602   4.116
 6817SOL    HW121350   2.425   2.604   4.041
 6817SOL    HW221351   2.478   2.520   4.171
 6818SOL     OW21352   2.037   6.634   0.290
 6818SOL    HW121353   2.018   6.702   0.220
 6818SOL    HW221354   1.975   6.648   0.368
 6819SOL     OW21355   4.838   1.401   3.041
 6819SOL    HW121356   4.794   1.484   3.075
 6819SOL    HW221357   4.808   1.384   2.947
 6820SOL     OW21358   1.178   5.747   1.753
 6820SOL    HW121359   1.116   5.669   1.751
 6820SOL    HW221360   1.271   5.717   1.732
 6821SOL     OW21361   4.476   2.827   5.317
 6821SOL    HW121362   4.501   2.858   5.409
 6821SOL    HW221363   4.380   2.850   5.300
 6822SOL     OW21364   6.056   2.565   5.704
 6822SOL    HW121365   6.076   2.471   5.732
 6822SOL    HW221366   5.995   2.607   5.770
 6823SOL     OW21367   5.844   4.324   6.547
 6823SOL    HW121368   5.794   4.244   6.512
 6823SOL    HW221369   5.888   4.372   6.470
 6824SOL     OW21370   1.552   1.333   0.402
 6824SOL    HW121371   1.540   1.414   0.345
 6824SOL    HW221372   1.649   1.323   0.425
 6825SOL     OW21373   5.996   0.197   0.221
 6825SOL    HW121374   5.932   0.209   0.146
 6825SOL    HW221375   6.084   0.165   0.185
 6826SOL     OW21376   1.485   3.841   3.292
 6826SOL    HW121377   1.387   3.837   3.274
 6826SOL    HW221378   1.526   3.752   3.273
 6827SOL     OW21379   5.073   5.538   6.056
 6827SOL    HW121380   5.029   5.598   6.123
 6827SOL    HW221381   5.078   5.585   5.968
 6828SOL     OW21382   3.871   1.590   2.734
 6828SOL    HW121383   3.809   1.613   2.808
 6828SOL    HW221384   3.868   1.661   2.664
 6829SOL     OW21385   5.461   6.663   5.348
 6829SOL    HW121386   5.527   6.734   5.325
 6829SOL    HW221387   5.381   6.704   5.390
 6830SOL     OW21388   5.606   0.653   3.470
 6830SOL    HW121389   5.589   0.654   3.372
 6830SOL    HW221390   5.612   0.558   3.502
 6831SOL     OW21391   1.788   1.002   5.458
 6831SOL    HW121392   1.837   1.055   5.528
 6831SOL    HW221393   1.712   0.954   5.501
 6832SOL     OW21394   2.582   4.202   0.646
 6832SOL    HW121395   2.546   4.134   0.582
 6832SOL    HW221396   2.664   4.245   0.607
 6833SOL     OW21397   2.484   4.549   6.203
 6833SOL    HW121398   2.515   4.636   6.242
 6833SOL    HW221399   2.543   4.475   6.235
 6834SOL     OW21400   6.070   6.980   0.859
 6834SOL    HW121401   6.104   0.044   0.829
 6834SOL    HW221402   6.139   6.935   0.916
 6835SOL     OW21403   3.449   1.588   4.311
 6835SOL    HW121404   3.526   1.530   4.285
 6835SOL    HW221405   3.479   1.654   4.380
 6836SOL     OW21406   2.409   3.917   6.293
 6836SOL    HW121407   2.448   3.830   6.264
 6836SOL    HW221408   2.482   3.984   6.306
 6837SOL     OW21409   0.638   1.874   2.859
 6837SOL    HW121410   0.723   1.860   2.909
 6837SOL    HW221411   0.635   1.968   2.825
 6838SOL     OW21412   2.896   4.001   6.296
 6838SOL    HW121413   2.801   4.029   6.307
 6838SOL    HW221414   2.942   4.065   6.234
 6839SOL     OW21415   5.055   1.332   5.047
 6839SOL    HW121416   4.982   1.329   4.978
 6839SOL    HW221417   5.016   1.359   5.135
 6840SOL     OW21418   3.200   6.739   5.406
 6840SOL    HW121419   3.100   6.741   5.402
 6840SOL    HW221420   3.230   6.689   5.487
 6841SOL     OW21421   3.916   5.173   0.636
 6841SOL    HW121422   3.958   5.096   0.682
 6841SOL    HW221423   3.942   5.258   0.683
 6842SOL     OW21424   2.480   2.552   0.221
 6842SOL    HW121425   2.442   2.555   0.128
 6842SOL    HW221426   2.411   2.518   0.284
 6843SOL     OW21427   5.142   0.367   2.216
 6843SOL    HW121428   5.131   0.277   2.258
 6843SOL    HW221429   5.072   0.381   2.146
 6844SOL     OW21430   5.997   6.336   3.895
 6844SOL    HW121431   6.073   6.274   3.912
 6844SOL    HW221432   6.005   6.416   3.955
 6845SOL     OW21433   5.298   4.238   2.629
 6845SOL    HW121434   5.322   4.155   2.578
 6845SOL    HW221435   5.269   4.213   2.722
 6846SOL     OW21436   4.083   3.137   1.564
 6846SOL    HW121437   4.131   3.150   1.477
 6846SOL    HW221438   4.107   3.048   1.602
 6847SOL     OW21439   6.973   4.157   1.998
 6847SOL    HW121440   6.930   4.137   2.086
 6847SOL    HW221441   6.904   4.155   1.926
 6848SOL     OW21442   3.357   6.700   3.512
 6848SOL    HW121443   3.292   6.700   3.435
 6848SOL    HW221444   3.372   6.606   3.543
 6849SOL     OW21445   2.902   5.428   4.712
 6849SOL    HW121446   2.922   5.516   4.668
 6849SOL    HW221447   2.880   5.443   4.808
 6850SOL     OW21448   5.324   3.366   2.357
 6850SOL    HW121449   5.392   3.293   2.361
 6850SOL    HW221450   5.246   3.335   2.303
 6851SOL     OW21451   1.445   2.849   3.811
 6851SOL    HW121452   1.378   2.794   3.860
 6851SOL    HW221453   1.463   2.933   3.862
 6852SOL     OW21454   1.068   4.639   1.198
 6852SOL    HW121455   1.049   4.713   1.263
 6852SOL    HW221456   1.106   4.678   1.114
 6853SOL     OW21457   6.769   3.457   6.233
 6853SOL    HW121458   6.700   3.424   6.168
 6853SOL    HW221459   6.744   3.549   6.265
 6854SOL     OW21460   6.409   2.002   5.835
 6854SOL    HW121461   6.427   1.997   5.737
 6854SOL    HW221462   6.319   1.960   5.854
 6855SOL     OW21463   3.347   5.703   2.571
 6855SOL    HW121464   3.405   5.785   2.565
 6855SOL    HW221465   3.325   5.671   2.479
 6856SOL     OW21466   5.390   4.776   5.684
 6856SOL    HW121467   5.361   4.859   5.733
 6856SOL    HW221468   5.398   4.701   5.749
 6857SOL     OW21469   3.366   1.750   7.012
 6857SOL    HW121470   3.401   1.661   6.984
 6857SOL    HW221471   3.268   1.743   0.006
 6858SOL     OW21472   3.868   3.336   4.039
 6858SOL    HW121473   3.770   3.346   4.057
 6858SOL    HW221474   3.907   3.271   4.105
 6859SOL     OW21475   1.220   6.693   1.252
 6859SOL    HW121476   1.282   6.631   1.299
 6859SOL    HW221477   1.129   6.688   1.295
 6860SOL     OW21478   5.971   5.527   1.389
 6860SOL    HW121479   5.968   5.431   1.417
 6860SOL    HW221480   6.005   5.583   1.465
 6861SOL     OW21481   5.873   4.261   0.830
 6861SOL    HW121482   5.871   4.351   0.788
 6861SOL    HW221483   5.820   4.197   0.775
 6862SOL     OW21484   2.106   4.450   4.751
 6862SOL    HW121485   2.185   4.447   4.811
 6862SOL    HW221486   2.128   4.502   4.669
 6863SOL     OW21487   5.594   1.417   4.868
 6863SOL    HW121488   5.691   1.436   4.885
 6863SOL    HW221489   5.562   1.471   4.790
 6864SOL     OW21490   3.668   5.960   3.610
 6864SOL    HW121491   3.682   5.870   3.652
 6864SOL    HW221492   3.594   5.954   3.543
 6865SOL     OW21493   6.756   5.484   3.030
 6865SOL    HW121494   6.662   5.452   3.029
 6865SOL    HW221495   6.770   5.544   3.108
 6866SOL     OW21496   6.398   4.487   2.237
 6866SOL    HW121497   6.344   4.474   2.320
 6866SOL    HW221498   6.495   4.480   2.258
 6867SOL     OW21499   1.317   4.709   1.329
 6867SOL    HW121500   1.411   4.681   1.312
 6867SOL    HW221501   1.257   4.669   1.259
 6868SOL     OW21502   1.271   5.421   5.988
 6868SOL    HW121503   1.238   5.407   6.081
 6868SOL    HW221504   1.199   5.462   5.933
 6869SOL     OW21505   6.218   1.265   5.179
 6869SOL    HW121506   6.298   1.323   5.160
 6869SOL    HW221507   6.144   1.321   5.216
 6870SOL     OW21508   6.931   4.929   2.103
 6870SOL    HW121509   6.852   4.892   2.056
 6870SOL    HW221510   6.958   4.867   2.177
 6871SOL     OW21511   5.578   4.740   2.222
 6871SOL    HW121512   5.639   4.706   2.293
 6871SOL    HW221513   5.485   4.708   2.238
 6872SOL     OW21514   1.133   3.556   0.709
 6872SOL    HW121515   1.043   3.600   0.715
 6872SOL    HW221516   1.193   3.592   0.780
 6873SOL     OW21517   6.364   4.048   4.926
 6873SOL    HW121518   6.297   4.080   4.992
 6873SOL    HW221519   6.444   4.108   4.927
 6874SOL     OW21520   0.920   4.867   2.902
 6874SOL    HW121521   1.012   4.854   2.865
 6874SOL    HW221522   0.918   4.841   2.999
 6875SOL     OW21523   1.047   2.573   3.516
 6875SOL    HW121524   1.063   2.517   3.435
 6875SOL    HW221525   0.968   2.538   3.566
 6876SOL     OW21526   4.133   6.172   4.997
 6876SOL    HW121527   4.223   6.159   4.956
 6876SOL    HW221528   4.113   6.269   5.003
 6877SOL     OW21529   2.786   4.292   6.550
 6877SOL    HW121530   2.690   4.312   6.572
 6877SOL    HW221531   2.831   4.252   6.629
 6878SOL     OW21532   2.612   2.572   5.208
 6878SOL    HW121533   2.696   2.559   5.260
 6878SOL    HW221534   2.617   2.520   5.123
 6879SOL     OW21535   0.762   2.288   0.240
 6879SOL    HW121536   0.703   2.366   0.220
 6879SOL    HW221537   0.856   2.320   0.253
 6880SOL     OW21538   1.855   3.459   5.452
 6880SOL    HW121539   1.915   3.538   5.466
 6880SOL    HW221540   1.894   3.378   5.496
 6881SOL     OW21541   0.459   3.861   2.490
 6881SOL    HW121542   0.468   3.941   2.431
 6881SOL    HW221543   0.520   3.788   2.457
 6882SOL     OW21544   3.062   0.590   5.925
 6882SOL    HW121545   3.028   0.610   5.833
 6882SOL    HW221546   3.123   0.663   5.954
 6883SOL     OW21547   3.861   2.006   0.919
 6883SOL    HW121548   3.849   2.028   0.822
 6883SOL    HW221549   3.784   1.950   0.950
 6884SOL     OW21550   1.632   3.914   4.537
 6884SOL    HW121551   1.609   3.843   4.470
 6884SOL    HW221552   1.686   3.874   4.611
 6885SOL     OW21553   4.219   5.826   4.799
 6885SOL    HW121554   4.134   5.870   4.771
 6885SOL    HW221555   4.297   5.878   4.763
 6886SOL     OW21556   6.881   0.610   3.913
 6886SOL    HW121557   6.927   0.521   3.920
 6886SOL    HW221558   6.806   0.603   3.846
 6887SOL     OW21559   5.228   6.463   5.686
 6887SOL    HW121560   5.204   6.506   5.599
 6887SOL    HW221561   5.326   6.471   5.701
 6888SOL     OW21562   5.332   6.450   6.887
 6888SOL    HW121563   5.286   6.365   6.862
 6888SOL    HW221564   5.272   6.528   6.868
 6889SOL     OW21565   1.729   2.548   5.087
 6889SOL    HW121566   1.786   2.605   5.146
 6889SOL    HW221567   1.768   2.547   4.994
 6890SOL     OW21568   3.462   6.472   1.301
 6890SOL    HW121569   3.397   6.531   1.254
 6890SOL    HW221570   3.544   6.462   1.245
 6891SOL     OW21571   2.286   4.181   4.500
 6891SOL    HW121572   2.342   4.112   4.454
 6891SOL    HW221573   2.198   4.190   4.454
 6892SOL     OW21574   3.474   1.304   3.335
 6892SOL    HW121575   3.494   1.276   3.241
 6892SOL    HW221576   3.432   1.395   3.335
 6893SOL     OW21577   5.398   5.427   0.087
 6893SOL    HW121578   5.408   5.414   7.013
 6893SOL    HW221579   5.340   5.507   0.104
 6894SOL     OW21580   6.096   4.932   0.147
 6894SOL    HW121581   6.152   4.910   0.227
 6894SOL    HW221582   6.150   4.986   0.082
 6895SOL     OW21583   2.552   5.521   6.567
 6895SOL    HW121584   2.608   5.601   6.550
 6895SOL    HW221585   2.486   5.509   6.492
 6896SOL     OW21586   2.219   6.833   3.774
 6896SOL    HW121587   2.310   6.804   3.804
 6896SOL    HW221588   2.182   6.898   3.840
 6897SOL     OW21589   3.020   3.412   0.168
 6897SOL    HW121590   2.921   3.405   0.177
 6897SOL    HW221591   3.042   3.453   0.079
 6898SOL     OW21592   3.797   1.776   2.544
 6898SOL    HW121593   3.711   1.725   2.547
 6898SOL    HW221594   3.793   1.844   2.471
 6899SOL     OW21595   5.182   6.604   1.295
 6899SOL    HW121596   5.274   6.603   1.335
 6899SOL    HW221597   5.176   6.535   1.223
 6900SOL     OW21598   6.341   0.758   6.005
 6900SOL    HW121599   6.338   0.659   6.017
 6900SOL    HW221600   6.386   0.780   5.919
 6901SOL     OW21601   0.564   7.018   6.149
 6901SOL    HW121602   0.500   0.061   6.111
 6901SOL    HW221603   0.654   0.007   6.108
 6902SOL     OW21604   6.025   6.784   0.407
 6902SOL    HW121605   6.047   6.798   0.504
 6902SOL    HW221606   6.061   6.695   0.378
 6903SOL     OW21607   4.051   5.288   4.588
 6903SOL    HW121608   4.084   5.286   4.682
 6903SOL    HW221609   4.055   5.382   4.553
 6904SOL     OW21610   5.835   2.124   3.968
 6904SOL    HW121611   5.879   2.095   4.053
 6904SOL    HW221612   5.830   2.224   3.966
 6905SOL     OW21613   5.848   6.662   6.858
 6905SOL    HW121614   5.776   6.686   6.923
 6905SOL    HW221615   5.888   6.574   6.884
 6906SOL     OW21616   4.354   1.094   4.563
 6906SOL    HW121617   4.438   1.047   4.536
 6906SOL    HW221618   4.285   1.026   4.588
 6907SOL     OW21619   5.030   2.099   1.120
 6907SOL    HW121620   4.950   2.078   1.176
 6907SOL    HW221621   5.013   2.070   1.026
 6908SOL     OW21622   1.108   6.485   5.858
 6908SOL    HW121623   1.149   6.411   5.911
 6908SOL    HW221624   1.148   6.572   5.886
 6909SOL     OW21625   5.794   4.320   1.650
 6909SOL    HW121626   5.706   4.309   1.698
 6909SOL    HW221627   5.801   4.413   1.616
 6910SOL     OW21628   0.184   2.072   3.661
 6910SOL    HW121629   0.267   2.094   3.711
 6910SOL    HW221630   0.169   2.139   3.588
 6911SOL     OW21631   4.966   6.444   3.459
 6911SOL    HW121632   5.016   6.401   3.534
 6911SOL    HW221633   4.995   6.403   3.372
 6912SOL     OW21634   4.091   5.147   6.920
 6912SOL    HW121635   4.168   5.101   6.875
 6912SOL    HW221636   4.031   5.078   6.961
 6913SOL     OW21637   5.224   4.982   5.777
 6913SOL    HW121638   5.269   5.056   5.726
 6913SOL    HW221639   5.126   4.985   5.760
 6914SOL     OW21640   5.370   4.814   0.078
 6914SOL    HW121641   5.333   4.903   0.050
 6914SOL    HW221642   5.355   4.801   0.176
 6915SOL     OW21643   6.442   4.051   1.774
 6915SOL    HW121644   6.384   4.068   1.854
 6915SOL    HW221645   6.398   4.090   1.692
 6916SOL     OW21646   5.997   3.716   6.832
 6916SOL    HW121647   6.007   3.794   6.894
 6916SOL    HW221648   5.933   3.650   6.871
 6917SOL     OW21649   3.322   5.788   0.754
 6917SOL    HW121650   3.306   5.884   0.779
 6917SOL    HW221651   3.327   5.733   0.838
 6918SOL     OW21652   0.857   3.059   4.396
 6918SOL    HW121653   0.904   3.116   4.328
 6918SOL    HW221654   0.769   3.100   4.419
 6919SOL     OW21655   0.398   6.013   3.296
 6919SOL    HW121656   0.337   6.064   3.357
 6919SOL    HW221657   0.349   5.990   3.212
 6920SOL     OW21658   4.158   5.541   5.364
 6920SOL    HW121659   4.102   5.533   5.446
 6920SOL    HW221660   4.107   5.508   5.285
 6921SOL     OW21661   5.098   6.213   3.309
 6921SOL    HW121662   5.168   6.284   3.323
 6921SOL    HW221663   5.094   6.189   3.212
 6922SOL     OW21664   2.506   5.485   6.874
 6922SOL    HW121665   2.411   5.509   6.888
 6922SOL    HW221666   2.516   5.441   6.784
 6923SOL     OW21667   4.904   5.171   3.632
 6923SOL    HW121668   5.000   5.152   3.653
 6923SOL    HW221669   4.884   5.268   3.651
 6924SOL     OW21670   1.111   4.314   6.868
 6924SOL    HW121671   1.198   4.364   6.873
 6924SOL    HW221672   1.089   4.276   6.958
 6925SOL     OW21673   3.949   5.987   4.493
 6925SOL    HW121674   4.038   6.030   4.508
 6925SOL    HW221675   3.903   5.973   4.580
 6926SOL     OW21676   2.961   3.153   2.370
 6926SOL    HW121677   2.909   3.230   2.334
 6926SOL    HW221678   2.980   3.088   2.297
 6927SOL     OW21679   5.316   3.412   5.939
 6927SOL    HW121680   5.228   3.452   5.965
 6927SOL    HW221681   5.385   3.485   5.933
 6928SOL     OW21682   6.805   5.997   0.721
 6928SOL    HW121683   6.825   6.087   0.682
 6928SOL    HW221684   6.756   5.942   0.653
 6929SOL     OW21685   4.686   5.299   1.142
 6929SOL    HW121686   4.705   5.303   1.241
 6929SOL    HW221687   4.645   5.385   1.113
 6930SOL     OW21688   6.724   0.100   2.130
 6930SOL    HW121689   6.670   0.016   2.119
 6930SOL    HW221690   6.740   0.140   2.040
 6931SOL     OW21691   1.575   0.347   2.549
 6931SOL    HW121692   1.511   0.338   2.472
 6931SOL    HW221693   1.611   0.257   2.573
 6932SOL     OW21694   4.044   0.202   0.692
 6932SOL    HW121695   4.120   0.222   0.630
 6932SOL    HW221696   3.959   0.233   0.650
 6933SOL     OW21697   2.963   5.626   5.280
 6933SOL    HW121698   2.897   5.697   5.256
 6933SOL    HW221699   2.966   5.557   5.208
 6934SOL     OW21700   4.872   4.139   5.982
 6934SOL    HW121701   4.867   4.216   6.046
 6934SOL    HW221702   4.954   4.085   6.001
 6935SOL     OW21703   4.522   5.819   3.333
 6935SOL    HW121704   4.503   5.916   3.321
 6935SOL    HW221705   4.466   5.765   3.271
 6936SOL     OW21706   6.563   2.568   3.004
 6936SOL    HW121707   6.573   2.476   3.040
 6936SOL    HW221708   6.465   2.592   3.000
 6937SOL     OW21709   6.674   6.120   0.227
 6937SOL    HW121710   6.680   6.020   0.227
 6937SOL    HW221711   6.579   6.147   0.243
 6938SOL     OW21712   4.931   3.241   5.767
 6938SOL    HW121713   4.894   3.234   5.860
 6938SOL    HW221714   5.031   3.244   5.771
 6939SOL     OW21715   0.081   4.292   0.953
 6939SOL    HW121716   0.161   4.238   0.925
 6939SOL    HW221717   0.111   4.363   1.017
 6940SOL     OW21718   4.659   1.303   0.550
 6940SOL    HW121719   4.609   1.331   0.632
 6940SOL    HW221720   4.757   1.297   0.570
 6941SOL     OW21721   3.375   2.925   3.248
 6941SOL    HW121722   3.423   2.863   3.310
 6941SOL    HW221723   3.414   2.918   3.157
 6942SOL     OW21724   6.126   2.786   0.908
 6942SOL    HW121725   6.198   2.821   0.969
 6942SOL    HW221726   6.095   2.860   0.848
 6943SOL     OW21727   4.985   6.153   6.695
 6943SOL    HW121728   4.921   6.227   6.677
 6943SOL    HW221729   4.956   6.102   6.776
 6944SOL     OW21730   1.724   4.135   6.149
 6944SOL    HW121731   1.817   4.162   6.174
 6944SOL    HW221732   1.659   4.179   6.211
 6945SOL     OW21733   5.999   3.443   6.255
 6945SOL    HW121734   5.916   3.400   6.218
 6945SOL    HW221735   6.079   3.400   6.215
 6946SOL     OW21736   5.997   6.703   1.560
 6946SOL    HW121737   6.080   6.647   1.558
 6946SOL    HW221738   5.917   6.645   1.548
 6947SOL     OW21739   3.440   6.971   5.639
 6947SOL    HW121740   3.391   6.986   5.553
 6947SOL    HW221741   3.409   0.014   5.707
 6948SOL     OW21742   5.733   0.465   6.327
 6948SOL    HW121743   5.809   0.530   6.330
 6948SOL    HW221744   5.696   0.452   6.419
 6949SOL     OW21745   5.096   0.226   3.926
 6949SOL    HW121746   5.023   0.222   3.857
 6949SOL    HW221747   5.168   0.161   3.902
 6950SOL     OW21748   2.167   0.346   3.604
 6950SOL    HW121749   2.179   0.247   3.599
 6950SOL    HW221750   2.108   0.368   3.681
 6951SOL     OW21751   6.764   6.313   6.179
 6951SOL    HW121752   6.747   6.371   6.100
 6951SOL    HW221753   6.850   6.263   6.165
 6952SOL     OW21754   6.833   5.829   3.998
 6952SOL    HW121755   6.881   5.780   4.071
 6952SOL    HW221756   6.888   5.827   3.914
 6953SOL     OW21757   5.067   0.487   6.667
 6953SOL    HW121758   5.074   0.511   6.764
 6953SOL    HW221759   5.107   0.559   6.611
 6954SOL     OW21760   0.678   3.896   4.414
 6954SOL    HW121761   0.580   3.879   4.423
 6954SOL    HW221762   0.707   3.873   4.320
 6955SOL     OW21763   6.472   0.438   2.137
 6955SOL    HW121764   6.551   0.407   2.191
 6955SOL    HW221765   6.468   0.538   2.139
 6956SOL     OW21766   4.840   6.146   3.429
 6956SOL    HW121767   4.838   6.049   3.405
 6956SOL    HW221768   4.927   6.186   3.401
 6957SOL     OW21769   5.810   4.810   1.025
 6957SOL    HW121770   5.867   4.801   1.107
 6957SOL    HW221771   5.714   4.822   1.052
 6958SOL     OW21772   2.899   3.970   5.030
 6958SOL    HW121773   2.908   3.938   4.936
 6958SOL    HW221774   2.849   4.057   5.030
 6959SOL     OW21775   2.388   1.442   4.910
 6959SOL    HW121776   2.410   1.380   4.834
 6959SOL    HW221777   2.332   1.395   4.977
 6960SOL     OW21778   1.277   5.698   1.203
 6960SOL    HW121779   1.330   5.644   1.268
 6960SOL    HW221780   1.249   5.785   1.246
 6961SOL     OW21781   6.681   2.494   4.106
 6961SOL    HW121782   6.730   2.476   4.191
 6961SOL    HW221783   6.606   2.429   4.096
 6962SOL     OW21784   5.925   6.164   1.935
 6962SOL    HW121785   5.965   6.073   1.944
 6962SOL    HW221786   5.994   6.227   1.899
 6963SOL     OW21787   6.425   5.325   1.024
 6963SOL    HW121788   6.470   5.329   1.114
 6963SOL    HW221789   6.357   5.252   1.025
 6964SOL     OW21790   3.577   6.216   4.864
 6964SOL    HW121791   3.587   6.197   4.767
 6964SOL    HW221792   3.521   6.145   4.906
 6965SOL     OW21793   0.290   3.657   6.913
 6965SOL    HW121794   0.356   3.687   6.843
 6965SOL    HW221795   0.323   3.571   6.954
 6966SOL     OW21796   6.702   2.347   3.690
 6966SOL    HW121797   6.738   2.305   3.774
 6966SOL    HW221798   6.775   2.351   3.622
 6967SOL     OW21799   1.623   0.425   5.338
 6967SOL    HW121800   1.612   0.449   5.242
 6967SOL    HW221801   1.716   0.447   5.367
 6968SOL     OW21802   4.511   6.593   2.867
 6968SOL    HW121803   4.468   6.537   2.796
 6968SOL    HW221804   4.486   6.558   2.957
 6969SOL     OW21805   2.657   2.313   1.357
 6969SOL    HW121806   2.607   2.230   1.332
 6969SOL    HW221807   2.740   2.320   1.301
 6970SOL     OW21808   3.536   4.092   6.687
 6970SOL    HW121809   3.440   4.098   6.662
 6970SOL    HW221810   3.592   4.080   6.604
 6971SOL     OW21811   6.550   4.344   1.332
 6971SOL    HW121812   6.595   4.316   1.247
 6971SOL    HW221813   6.454   4.316   1.329
 6972SOL     OW21814   5.527   4.736   3.450
 6972SOL    HW121815   5.438   4.741   3.495
 6972SOL    HW221816   5.522   4.672   3.373
 6973SOL     OW21817   1.108   3.554   5.598
 6973SOL    HW121818   1.132   3.579   5.691
 6973SOL    HW221819   1.192   3.545   5.543
 6974SOL     OW21820   3.489   2.905   2.987
 6974SOL    HW121821   3.397   2.921   2.951
 6974SOL    HW221822   3.556   2.949   2.928
 6975SOL     OW21823   1.933   5.739   6.621
 6975SOL    HW121824   1.842   5.748   6.580
 6975SOL    HW221825   2.000   5.784   6.562
 6976SOL     OW21826   4.584   5.517   5.146
 6976SOL    HW121827   4.502   5.476   5.105
 6976SOL    HW221828   4.558   5.578   5.220
 6977SOL     OW21829   4.332   2.410   1.955
 6977SOL    HW121830   4.253   2.357   1.987
 6977SOL    HW221831   4.351   2.386   1.860
 6978SOL     OW21832   4.659   1.629   2.210
 6978SOL    HW121833   4.601   1.566   2.261
 6978SOL    HW221834   4.689   1.704   2.270
 6979SOL     OW21835   1.370   4.191   0.814
 6979SOL    HW121836   1.399   4.203   0.908
 6979SOL    HW221837   1.350   4.094   0.797
 6980SOL     OW21838   1.084   1.288   3.379
 6980SOL    HW121839   1.035   1.341   3.448
 6980SOL    HW221840   1.136   1.350   3.320
 6981SOL     OW21841   3.740   3.433   6.337
 6981SOL    HW121842   3.668   3.411   6.403
 6981SOL    HW221843   3.736   3.369   6.260
 6982SOL     OW21844   1.459   0.544   4.401
 6982SOL    HW121845   1.419   0.567   4.313
 6982SOL    HW221846   1.476   0.628   4.453
 6983SOL     OW21847   4.537   1.912   4.239
 6983SOL    HW121848   4.487   1.942   4.157
 6983SOL    HW221849   4.504   1.821   4.266
 6984SOL     OW21850   2.383   1.713   4.058
 6984SOL    HW121851   2.332   1.683   3.978
 6984SOL    HW221852   2.318   1.740   4.130
 6985SOL     OW21853   4.032   5.698   1.476
 6985SOL    HW121854   3.982   5.759   1.538
 6985SOL    HW221855   4.110   5.658   1.525
 6986SOL     OW21856   2.467   6.602   6.329
 6986SOL    HW121857   2.530   6.575   6.256
 6986SOL    HW221858   2.414   6.682   6.299
 6987SOL     OW21859   0.623   2.104   5.933
 6987SOL    HW121860   0.668   2.017   5.954
 6987SOL    HW221861   0.528   2.101   5.963
 6988SOL     OW21862   6.855   1.185   5.635
 6988SOL    HW121863   6.913   1.250   5.685
 6988SOL    HW221864   6.785   1.235   5.584
 6989SOL     OW21865   0.554   3.582   4.251
 6989SOL    HW121866   0.540   3.645   4.175
 6989SOL    HW221867   0.500   3.611   4.330
 6990SOL     OW21868   5.274   2.499   1.758
 6990SOL    HW121869   5.230   2.411   1.775
 6990SOL    HW221870   5.205   2.566   1.731
 6991SOL     OW21871   2.919   4.947   4.281
 6991SOL    HW121872   2.920   4.899   4.369
 6991SOL    HW221873   2.910   5.045   4.297
 6992SOL     OW21874   5.429   6.708   5.662
 6992SOL    HW121875   5.408   6.744   5.753
 6992SOL    HW221876   5.353   6.728   5.601
 6993SOL     OW21877   6.764   0.790   2.974
 6993SOL    HW121878   6.755   0.695   2.943
 6993SOL    HW221879   6.760   0.792   3.074
 6994SOL     OW21880   0.403   2.853   4.764
 6994SOL    HW121881   0.441   2.787   4.699
 6994SOL    HW221882   0.400   2.944   4.722
 6995SOL     OW21883   6.650   4.688   5.688
 6995SOL    HW121884   6.552   4.701   5.674
 6995SOL    HW221885   6.701   4.748   5.626
 6996SOL     OW21886   2.405   0.564   6.831
 6996SOL    HW121887   2.368   0.654   6.853
 6996SOL    HW221888   2.450   0.527   6.912
 6997SOL     OW21889   6.109   6.311   5.286
 6997SOL    HW121890   6.137   6.405   5.264
 6997SOL    HW221891   6.040   6.281   5.220
 6998SOL     OW21892   1.453   1.905   1.144
 6998SOL    HW121893   1.477   1.808   1.145
 6998SOL    HW221894   1.534   1.959   1.168
 6999SOL     OW21895   2.501   2.429   5.790
 6999SOL    HW121896   2.462   2.508   5.838
 6999SOL    HW221897   2.430   2.360   5.777
 7000SOL     OW21898   6.430   6.070   1.489
 7000SOL    HW121899   6.399   6.137   1.422
 7000SOL    HW221900   6.455   6.116   1.574
 7001SOL     OW21901   2.331   3.130   5.376
 7001SOL    HW121902   2.393   3.087   5.310
 7001SOL    HW221903   2.306   3.221   5.344
 7002SOL     OW21904   2.653   4.852   3.551
 7002SOL    HW121905   2.655   4.842   3.650
 7002SOL    HW221906   2.612   4.940   3.527
 7003SOL     OW21907   3.941   5.415   6.726
 7003SOL    HW121908   4.036   5.393   6.704
 7003SOL    HW221909   3.927   5.405   6.825
 7004SOL     OW21910   1.610   4.989   1.957
 7004SOL    HW121911   1.641   5.042   2.036
 7004SOL    HW221912   1.589   4.896   1.986
 7005SOL     OW21913   1.425   6.831   0.467
 7005SOL    HW121914   1.415   6.924   0.502
 7005SOL    HW221915   1.508   6.826   0.410
 7006SOL     OW21916   4.569   4.791   4.542
 7006SOL    HW121917   4.579   4.842   4.628
 7006SOL    HW221918   4.473   4.789   4.515
 7007SOL     OW21919   4.452   6.547   4.149
 7007SOL    HW121920   4.461   6.630   4.093
 7007SOL    HW221921   4.506   6.474   4.108
 7008SOL     OW21922   1.081   4.514   5.067
 7008SOL    HW121923   1.122   4.425   5.085
 7008SOL    HW221924   1.115   4.581   5.133
 7009SOL     OW21925   6.588   5.608   2.453
 7009SOL    HW121926   6.549   5.525   2.493
 7009SOL    HW221927   6.591   5.681   2.522
 7010SOL     OW21928   5.067   4.650   5.606
 7010SOL    HW121929   5.098   4.666   5.700
 7010SOL    HW221930   5.031   4.557   5.598
 7011SOL     OW21931   4.145   6.704   6.162
 7011SOL    HW121932   4.220   6.664   6.215
 7011SOL    HW221933   4.122   6.794   6.198
 7012SOL     OW21934   1.618   1.505   2.052
 7012SOL    HW121935   1.676   1.433   2.092
 7012SOL    HW221936   1.648   1.594   2.086
 7013SOL     OW21937   0.843   0.555   0.869
 7013SOL    HW121938   0.755   0.535   0.826
 7013SOL    HW221939   0.906   0.479   0.853
 7014SOL     OW21940   4.237   3.108   1.331
 7014SOL    HW121941   4.253   3.138   1.237
 7014SOL    HW221942   4.309   3.044   1.358
 7015SOL     OW21943   5.795   4.362   2.112
 7015SOL    HW121944   5.838   4.451   2.096
 7015SOL    HW221945   5.736   4.367   2.192
 7016SOL     OW21946   3.525   4.935   1.714
 7016SOL    HW121947   3.542   4.842   1.749
 7016SOL    HW221948   3.431   4.941   1.682
 7017SOL     OW21949   2.622   6.138   2.465
 7017SOL    HW121950   2.670   6.216   2.504
 7017SOL    HW221951   2.665   6.053   2.497
 7018SOL     OW21952   6.084   4.276   3.628
 7018SOL    HW121953   6.116   4.361   3.669
 7018SOL    HW221954   6.082   4.285   3.528
 7019SOL     OW21955   2.290   3.921   6.920
 7019SOL    HW121956   2.256   3.848   6.862
 7019SOL    HW221957   2.247   4.007   6.894
 7020SOL     OW21958   5.642   6.953   6.754
 7020SOL    HW121959   5.611   6.859   6.741
 7020SOL    HW221960   5.694   6.983   6.673
 7021SOL     OW21961   1.497   1.376   6.202
 7021SOL    HW121962   1.533   1.288   6.231
 7021SOL    HW221963   1.483   1.434   6.282
 7022SOL     OW21964   4.640   6.005   0.417
 7022SOL    HW121965   4.686   5.967   0.497
 7022SOL    HW221966   4.588   5.933   0.371
 7023SOL     OW21967   0.408   1.800   2.969
 7023SOL    HW121968   0.497   1.826   2.932
 7023SOL    HW221969   0.336   1.826   2.905
 7024SOL     OW21970   1.753   4.700   5.452
 7024SOL    HW121971   1.769   4.796   5.427
 7024SOL    HW221972   1.695   4.657   5.383
 7025SOL     OW21973   2.534   0.974   6.890
 7025SOL    HW121974   2.447   0.926   6.897
 7025SOL    HW221975   2.605   0.911   6.859
 7026SOL     OW21976   3.306   2.068   1.913
 7026SOL    HW121977   3.377   2.098   1.976
 7026SOL    HW221978   3.299   1.969   1.915
 7027SOL     OW21979   2.487   5.146   4.073
 7027SOL    HW121980   2.409   5.209   4.083
 7027SOL    HW221981   2.571   5.198   4.064
 7028SOL     OW21982   4.960   0.272   4.152
 7028SOL    HW121983   4.871   0.290   4.109
 7028SOL    HW221984   5.026   0.245   4.081
 7029SOL     OW21985   5.374   5.243   6.281
 7029SOL    HW121986   5.311   5.293   6.221
 7029SOL    HW221987   5.390   5.151   6.245
 7030SOL     OW21988   0.448   1.719   5.085
 7030SOL    HW121989   0.424   1.650   5.153
 7030SOL    HW221990   0.365   1.759   5.047
 7031SOL     OW21991   1.915   6.507   5.275
 7031SOL    HW121992   1.994   6.488   5.334
 7031SOL    HW221993   1.911   6.440   5.202
 7032SOL     OW21994   3.425   0.461   3.247
 7032SOL    HW121995   3.508   0.406   3.257
 7032SOL    HW221996   3.383   0.475   3.337
 7033SOL     OW21997   1.520   2.657   3.116
 7033SOL    HW121998   1.486   2.700   3.199
 7033SOL    HW221999   1.476   2.698   3.036
 7034SOL     OW22000   6.289   0.422   2.884
 7034SOL    HW122001   6.236   0.492   2.932
 7034SOL    HW222002   6.377   0.409   2.930
 7035SOL     OW22003   1.973   6.732   1.799
 7035SOL    HW122004   2.040   6.683   1.742
 7035SOL    HW222005   1.932   6.668   1.863
 7036SOL     OW22006   0.488   0.844   2.738
 7036SOL    HW122007   0.424   0.919   2.721
 7036SOL    HW222008   0.501   0.833   2.837
 7037SOL     OW22009   1.782   0.998   6.452
 7037SOL    HW122010   1.777   0.918   6.393
 7037SOL    HW222011   1.692   1.018   6.490
 7038SOL     OW22012   1.434   3.518   4.492
 7038SOL    HW122013   1.394   3.495   4.403
 7038SOL    HW222014   1.366   3.503   4.563
 7039SOL     OW22015   2.746   4.819   1.460
 7039SOL    HW122016   2.831   4.830   1.409
 7039SOL    HW222017   2.719   4.722   1.459
 7040SOL     OW22018   6.621   2.361   4.771
 7040SOL    HW122019   6.578   2.384   4.683
 7040SOL    HW222020   6.675   2.438   4.803
 7041SOL     OW22021   0.554   2.326   1.752
 7041SOL    HW122022   0.531   2.296   1.659
 7041SOL    HW222023   0.598   2.251   1.801
 7042SOL     OW22024   5.356   5.452   5.994
 7042SOL    HW122025   5.270   5.402   5.983
 7042SOL    HW222026   5.357   5.498   6.082
 7043SOL     OW22027   2.095   3.569   2.335
 7043SOL    HW122028   2.113   3.596   2.429
 7043SOL    HW222029   2.015   3.509   2.332
 7044SOL     OW22030   4.725   5.146   3.273
 7044SOL    HW122031   4.820   5.166   3.295
 7044SOL    HW222032   4.701   5.056   3.308
 7045SOL     OW22033   5.427   5.601   3.091
 7045SOL    HW122034   5.436   5.614   2.992
 7045SOL    HW222035   5.447   5.687   3.138
 7046SOL     OW22036   3.220   1.624   3.480
 7046SOL    HW122037   3.286   1.568   3.429
 7046SOL    HW222038   3.157   1.668   3.415
 7047SOL     OW22039   0.702   2.810   2.056
 7047SOL    HW122040   0.675   2.715   2.041
 7047SOL    HW222041   0.755   2.842   1.978
 7048SOL     OW22042   6.445   6.021   2.967
 7048SOL    HW122043   6.387   5.999   2.889
 7048SOL    HW222044   6.396   6.083   3.029
 7049SOL     OW22045   3.253   1.278   1.101
 7049SOL    HW122046   3.195   1.347   1.057
 7049SOL    HW222047   3.252   1.195   1.045
 7050SOL     OW22048   3.731   4.245   1.817
 7050SOL    HW122049   3.709   4.343   1.818
 7050SOL    HW222050   3.679   4.199   1.889
 7051SOL     OW22051   6.879   0.693   1.431
 7051SOL    HW122052   6.959   0.639   1.405
 7051SOL    HW222053   6.809   0.685   1.359
 7052SOL     OW22054   5.418   2.824   4.075
 7052SOL    HW122055   5.357   2.819   4.153
 7052SOL    HW222056   5.510   2.850   4.106
 7053SOL     OW22057   0.675   3.427   4.681
 7053SOL    HW122058   0.684   3.521   4.649
 7053SOL    HW222059   0.765   3.390   4.704
 7054SOL     OW22060   0.473   6.393   0.949
 7054SOL    HW122061   0.499   6.453   1.024
 7054SOL    HW222062   0.555   6.362   0.901
 7055SOL     OW22063   3.594   6.240   5.222
 7055SOL    HW122064   3.586   6.321   5.164
 7055SOL    HW222065   3.653   6.261   5.300
 7056SOL     OW22066   6.292   6.066   2.067
 7056SOL    HW122067   6.198   6.036   2.050
 7056SOL    HW222068   6.290   6.146   2.128
 7057SOL     OW22069   1.191   6.077   3.739
 7057SOL    HW122070   1.166   6.097   3.644
 7057SOL    HW222071   1.275   6.024   3.741
 7058SOL     OW22072   6.705   5.531   6.198
 7058SOL    HW122073   6.729   5.496   6.289
 7058SOL    HW222074   6.708   5.630   6.198
 7059SOL     OW22075   6.404   1.112   4.221
 7059SOL    HW122076   6.346   1.141   4.145
 7059SOL    HW222077   6.399   1.012   4.230
 7060SOL     OW22078   4.288   0.019   1.587
 7060SOL    HW122079   4.226   7.007   1.657
 7060SOL    HW222080   4.292   0.118   1.594
 7061SOL     OW22081   1.241   3.341   3.700
 7061SOL    HW122082   1.271   3.263   3.645
 7061SOL    HW222083   1.171   3.392   3.651
 7062SOL     OW22084   4.697   1.221   5.320
 7062SOL    HW122085   4.636   1.145   5.342
 7062SOL    HW222086   4.673   1.300   5.376
 7063SOL     OW22087   0.704   0.355   2.062
 7063SOL    HW122088   0.782   0.296   2.043
 7063SOL    HW222089   0.712   0.439   2.009
 7064SOL     OW22090   3.833   2.199   1.124
 7064SOL    HW122091   3.752   2.171   1.176
 7064SOL    HW222092   3.855   2.128   1.056
 7065SOL     OW22093   3.713   3.764   6.004
 7065SOL    HW122094   3.811   3.778   5.995
 7065SOL    HW222095   3.672   3.844   6.049
 7066SOL     OW22096   4.396   0.047   0.409
 7066SOL    HW122097   4.373   6.994   0.468
 7066SOL    HW222098   4.488   0.033   0.371
 7067SOL     OW22099   1.566   1.933   4.775
 7067SOL    HW122100   1.498   1.982   4.829
 7067SOL    HW222101   1.635   1.998   4.743
 7068SOL     OW22102   0.100   4.399   3.905
 7068SOL    HW122103   0.002   4.403   3.883
 7068SOL    HW222104   0.117   4.319   3.963
 7069SOL     OW22105   5.440   1.422   4.492
 7069SOL    HW122106   5.508   1.466   4.432
 7069SOL    HW222107   5.466   1.327   4.507
 7070SOL     OW22108   6.694   6.156   5.043
 7070SOL    HW122109   6.767   6.209   5.085
 7070SOL    HW222110   6.632   6.122   5.114
 7071SOL     OW22111   1.917   6.193   6.736
 7071SOL    HW122112   1.867   6.146   6.664
 7071SOL    HW222113   1.855   6.251   6.789
 7072SOL     OW22114   1.222   6.229   6.844
 7072SOL    HW122115   1.297   6.293   6.832
 7072SOL    HW222116   1.169   6.254   6.925
 7073SOL     OW22117   4.637   0.136   4.473
 7073SOL    HW122118   4.656   0.073   4.548
 7073SOL    HW222119   4.719   0.190   4.454
 7074SOL     OW22120   4.523   2.203   2.136
 7074SOL    HW122121   4.449   2.212   2.069
 7074SOL    HW222122   4.570   2.115   2.122
 7075SOL     OW22123   2.021   4.809   4.975
 7075SOL    HW122124   2.064   4.792   4.886
 7075SOL    HW222125   1.952   4.738   4.992
 7076SOL     OW22126   5.636   1.937   6.987
 7076SOL    HW122127   5.607   1.998   6.913
 7076SOL    HW222128   5.561   1.874   7.010
 7077SOL     OW22129   2.390   4.427   4.307
 7077SOL    HW122130   2.328   4.350   4.323
 7077SOL    HW222131   2.400   4.442   4.208
 7078SOL     OW22132   0.271   0.117   1.732
 7078SOL    HW122133   0.234   0.169   1.809
 7078SOL    HW222134   0.315   0.034   1.766
 7079SOL     OW22135   6.573   6.091   4.604
 7079SOL    HW122136   6.524   6.138   4.530
 7079SOL    HW222137   6.530   6.112   4.692
 7080SOL     OW22138   2.858   2.140   3.919
 7080SOL    HW122139   2.889   2.060   3.866
 7080SOL    HW222140   2.882   2.224   3.871
 7081SOL     OW22141   3.159   0.460   0.228
 7081SOL    HW122142   3.227   0.519   0.271
 7081SOL    HW222143   3.151   0.482   0.131
 7082SOL     OW22144   6.377   4.261   6.420
 7082SOL    HW122145   6.341   4.298   6.506
 7082SOL    HW222146   6.384   4.335   6.353
 7083SOL     OW22147   2.802   0.315   0.442
 7083SOL    HW122148   2.846   0.404   0.441
 7083SOL    HW222149   2.756   0.298   0.355
 7084SOL     OW22150   0.239   6.480   5.815
 7084SOL    HW122151   0.238   6.405   5.750
 7084SOL    HW222152   0.148   6.492   5.854
 7085SOL     OW22153   0.854   2.069   1.758
 7085SOL    HW122154   0.903   2.146   1.716
 7085SOL    HW222155   0.918   1.994   1.774
 7086SOL     OW22156   5.299   0.843   5.214
 7086SOL    HW122157   5.262   0.926   5.172
 7086SOL    HW222158   5.348   0.867   5.297
 7087SOL     OW22159   6.043   3.157   3.626
 7087SOL    HW122160   6.047   3.155   3.726
 7087SOL    HW222161   5.996   3.075   3.594
 7088SOL     OW22162   5.620   3.260   3.429
 7088SOL    HW122163   5.677   3.306   3.498
 7088SOL    HW222164   5.524   3.264   3.457
 7089SOL     OW22165   2.993   2.207   4.769
 7089SOL    HW122166   3.068   2.244   4.824
 7089SOL    HW222167   3.014   2.217   4.672
 7090SOL     OW22168   2.795   0.463   6.832
 7090SOL    HW122169   2.801   0.456   6.732
 7090SOL    HW222170   2.761   0.554   6.857
 7091SOL     OW22171   0.581   1.298   6.891
 7091SOL    HW122172   0.522   1.349   6.954
 7091SOL    HW222173   0.552   1.315   6.797
 7092SOL     OW22174   4.760   2.840   6.143
 7092SOL    HW122175   4.762   2.902   6.221
 7092SOL    HW222176   4.689   2.870   6.079
 7093SOL     OW22177   3.000   3.711   3.240
 7093SOL    HW122178   3.045   3.648   3.304
 7093SOL    HW222179   2.977   3.796   3.289
 7094SOL     OW22180   0.541   5.720   5.776
 7094SOL    HW122181   0.539   5.738   5.874
 7094SOL    HW222182   0.508   5.800   5.727
 7095SOL     OW22183   3.195   3.789   6.183
 7095SOL    HW122184   3.255   3.806   6.105
 7095SOL    HW222185   3.168   3.876   6.225
 7096SOL     OW22186   6.547   0.775   3.881
 7096SOL    HW122187   6.586   0.693   3.838
 7096SOL    HW222188   6.481   0.747   3.951
 7097SOL     OW22189   5.770   1.418   0.696
 7097SOL    HW122190   5.826   1.501   0.697
 7097SOL    HW222191   5.823   1.342   0.734
 7098SOL     OW22192   1.771   0.122   5.133
 7098SOL    HW122193   1.778   0.076   5.221
 7098SOL    HW222194   1.708   0.072   5.074
 7099SOL     OW22195   3.094   1.174   5.194
 7099SOL    HW122196   3.042   1.202   5.274
 7099SOL    HW222197   3.137   1.253   5.152
 7100SOL     OW22198   5.513   2.680   1.183
 7100SOL    HW122199   5.519   2.606   1.249
 7100SOL    HW222200   5.426   2.673   1.134
 7101SOL     OW22201   2.000   1.297   4.669
 7101SOL    HW122202   1.953   1.210   4.680
 7101SOL    HW222203   1.942   1.359   4.616
 7102SOL     OW22204   4.914   6.946   0.814
 7102SOL    HW122205   4.854   6.888   0.758
 7102SOL    HW222206   4.954   7.017   0.756
 7103SOL     OW22207   4.546   4.791   1.827
 7103SOL    HW122208   4.578   4.762   1.737
 7103SOL    HW222209   4.496   4.716   1.871
 7104SOL     OW22210   0.355   2.817   4.462
 7104SOL    HW122211   0.304   2.778   4.385
 7104SOL    HW222212   0.450   2.829   4.435
 7105SOL     OW22213   3.016   2.803   5.311
 7105SOL    HW122214   3.049   2.897   5.301
 7105SOL    HW222215   3.083   2.739   5.274
 7106SOL     OW22216   3.402   4.032   2.736
 7106SOL    HW122217   3.324   4.063   2.682
 7106SOL    HW222218   3.382   4.045   2.833
 7107SOL     OW22219   3.669   1.422   0.566
 7107SOL    HW122220   3.615   1.362   0.505
 7107SOL    HW222221   3.714   1.366   0.635
 7108SOL     OW22222   5.020   5.731   2.871
 7108SOL    HW122223   5.052   5.672   2.946
 7108SOL    HW222224   4.920   5.729   2.867
 7109SOL     OW22225   2.752   0.505   5.888
 7109SOL    HW122226   2.838   0.523   5.840
 7109SOL    HW222227   2.729   0.582   5.948
 7110SOL     OW22228   3.292   6.147   4.627
 7110SOL    HW122229   3.300   6.139   4.726
 7110SOL    HW222230   3.227   6.080   4.593
 7111SOL     OW22231   1.108   2.211   4.249
 7111SOL    HW122232   1.027   2.223   4.192
 7111SOL    HW222233   1.080   2.191   4.343
 7112SOL     OW22234   1.318   5.333   4.500
 7112SOL    HW122235   1.374   5.406   4.540
 7112SOL    HW222236   1.226   5.369   4.482
 7113SOL     OW22237   3.886   3.963   4.631
 7113SOL    HW122238   3.823   4.039   4.615
 7113SOL    HW222239   3.920   3.967   4.726
 7114SOL     OW22240   3.493   6.925   1.875
 7114SOL    HW122241   3.496   6.884   1.784
 7114SOL    HW222242   3.422   6.995   1.879
 7115SOL     OW22243   5.445   3.000   1.631
 7115SOL    HW122244   5.366   2.998   1.569
 7115SOL    HW222245   5.518   3.054   1.590
 7116SOL     OW22246   6.101   4.321   3.350
 7116SOL    HW122247   6.073   4.346   3.258
 7116SOL    HW222248   6.147   4.232   3.347
 7117SOL     OW22249   0.033   6.488   5.389
 7117SOL    HW122250   0.088   6.443   5.319
 7117SOL    HW222251   6.964   6.452   5.386
 7118SOL     OW22252   2.790   3.711   1.531
 7118SOL    HW122253   2.879   3.705   1.486
 7118SOL    HW222254   2.760   3.619   1.558
 7119SOL     OW22255   4.860   2.258   2.890
 7119SOL    HW122256   4.953   2.294   2.881
 7119SOL    HW222257   4.827   2.275   2.983
 7120SOL     OW22258   3.514   1.660   2.456
 7120SOL    HW122259   3.522   1.574   2.405
 7120SOL    HW222260   3.419   1.674   2.481
 7121SOL     OW22261   1.406   6.498   3.062
 7121SOL    HW122262   1.397   6.492   2.963
 7121SOL    HW222263   1.502   6.484   3.087
 7122SOL     OW22264   0.925   0.290   5.849
 7122SOL    HW122265   0.958   0.198   5.832
 7122SOL    HW222266   0.870   0.322   5.771
 7123SOL     OW22267   2.184   4.650   3.171
 7123SOL    HW122268   2.104   4.688   3.124
 7123SOL    HW222269   2.267   4.682   3.126
 7124SOL     OW22270   6.962   2.278   1.171
 7124SOL    HW122271   6.977   2.334   1.089
 7124SOL    HW222272   6.998   2.326   1.251
 7125SOL     OW22273   6.962   6.880   1.077
 7125SOL    HW122274   6.950   6.854   1.173
 7125SOL    HW222275   0.000   6.957   1.071
 7126SOL     OW22276   3.237   5.559   0.094
 7126SOL    HW122277   3.307   5.611   0.142
 7126SOL    HW222278   3.151   5.563   0.147
 7127SOL     OW22279   1.205   5.682   5.489
 7127SOL    HW122280   1.239   5.596   5.526
 7127SOL    HW222281   1.278   5.750   5.489
 7128SOL     OW22282   3.107   4.773   0.459
 7128SOL    HW122283   3.080   4.869   0.460
 7128SOL    HW222284   3.102   4.736   0.552
 7129SOL     OW22285   2.194   1.796   6.960
 7129SOL    HW122286   2.122   1.837   6.904
 7129SOL    HW222287   2.278   1.789   6.906
 7130SOL     OW22288   3.969   5.976   4.974
 7130SOL    HW122289   4.027   6.055   4.995
 7130SOL    HW222290   3.922   5.992   4.887
 7131SOL     OW22291   2.595   0.736   1.212
 7131SOL    HW122292   2.519   0.793   1.243
 7131SOL    HW222293   2.564   0.671   1.143
 7132SOL     OW22294   3.511   4.385   6.887
 7132SOL    HW122295   3.423   4.380   6.841
 7132SOL    HW222296   3.556   4.472   6.864
 7133SOL     OW22297   5.132   5.672   5.764
 7133SOL    HW122298   5.201   5.617   5.716
 7133SOL    HW222299   5.130   5.764   5.726
 7134SOL     OW22300   5.510   6.827   2.029
 7134SOL    HW122301   5.605   6.804   2.008
 7134SOL    HW222302   5.499   6.927   2.031
 7135SOL     OW22303   1.326   3.560   3.374
 7135SOL    HW122304   1.289   3.596   3.460
 7135SOL    HW222305   1.377   3.476   3.392
 7136SOL     OW22306   2.103   3.024   1.114
 7136SOL    HW122307   2.137   3.027   1.019
 7136SOL    HW222308   2.141   3.101   1.165
 7137SOL     OW22309   3.899   6.982   6.806
 7137SOL    HW122310   3.983   6.929   6.822
 7137SOL    HW222311   3.826   6.920   6.776
 7138SOL     OW22312   1.524   2.450   6.520
 7138SOL    HW122313   1.455   2.523   6.520
 7138SOL    HW222314   1.494   2.376   6.580
 7139SOL     OW22315   5.958   3.938   1.306
 7139SOL    HW122316   5.961   3.961   1.404
 7139SOL    HW222317   5.879   3.880   1.288
 7140SOL     OW22318   5.837   4.471   3.694
 7140SOL    HW122319   5.922   4.518   3.717
 7140SOL    HW222320   5.834   4.452   3.596
 7141SOL     OW22321   3.667   6.009   1.579
 7141SOL    HW122322   3.766   5.997   1.583
 7141SOL    HW222323   3.639   6.081   1.642
 7142SOL     OW22324   4.289   0.280   3.600
 7142SOL    HW122325   4.350   0.236   3.665
 7142SOL    HW222326   4.271   0.375   3.629
 7143SOL     OW22327   1.680   2.538   5.756
 7143SOL    HW122328   1.670   2.609   5.826
 7143SOL    HW222329   1.604   2.545   5.691
 7144SOL     OW22330   1.920   2.553   2.049
 7144SOL    HW122331   1.984   2.534   2.124
 7144SOL    HW222332   1.972   2.577   1.966
 7145SOL     OW22333   4.660   7.022   0.283
 7145SOL    HW122334   4.647   6.979   0.372
 7145SOL    HW222335   4.735   0.063   0.288
 7146SOL     OW22336   2.365   0.134   1.223
 7146SOL    HW122337   2.270   0.104   1.223
 7146SOL    HW222338   2.424   0.059   1.194
 7147SOL     OW22339   0.294   0.438   3.434
 7147SOL    HW122340   0.360   0.482   3.495
 7147SOL    HW222341   0.343   0.388   3.363
 7148SOL     OW22342   1.064   6.152   0.749
 7148SOL    HW122343   1.002   6.173   0.825
 7148SOL    HW222344   1.013   6.111   0.674
 7149SOL     OW22345   6.308   6.794   2.888
 7149SOL    HW122346   6.395   6.764   2.850
 7149SOL    HW222347   6.254   6.838   2.816
 7150SOL     OW22348   3.058   2.138   2.164
 7150SOL    HW122349   3.052   2.063   2.099
 7150SOL    HW222350   3.003   2.215   2.133
 7151SOL     OW22351   1.958   6.258   0.707
 7151SOL    HW122352   1.977   6.182   0.644
 7151SOL    HW222353   1.939   6.222   0.798
 7152SOL     OW22354   0.977   0.602   5.227
 7152SOL    HW122355   0.884   0.597   5.190
 7152SOL    HW222356   1.012   0.695   5.219
 7153SOL     OW22357   3.536   5.428   1.801
 7153SOL    HW122358   3.592   5.384   1.872
 7153SOL    HW222359   3.548   5.527   1.806
 7154SOL     OW22360   3.562   0.137   3.411
 7154SOL    HW122361   3.631   0.192   3.364
 7154SOL    HW222362   3.576   0.040   3.390
 7155SOL     OW22363   1.830   3.816   1.213
 7155SOL    HW122364   1.907   3.834   1.273
 7155SOL    HW222365   1.837   3.723   1.175
 7156SOL     OW22366   0.233   3.757   4.069
 7156SOL    HW122367   0.228   3.699   3.988
 7156SOL    HW222368   0.328   3.781   4.087
 7157SOL     OW22369   0.012   4.091   1.544
 7157SOL    HW122370   6.961   4.120   1.604
 7157SOL    HW222371   0.018   3.991   1.545
 7158SOL     OW22372   0.964   6.986   3.717
 7158SOL    HW122373   1.039   6.923   3.739
 7158SOL    HW222374   0.940   6.978   3.620
 7159SOL     OW22375   0.700   5.090   2.895
 7159SOL    HW122376   0.766   5.015   2.888
 7159SOL    HW222377   0.615   5.065   2.850
 7160SOL     OW22378   5.746   6.988   2.584
 7160SOL    HW122379   5.737   6.932   2.665
 7160SOL    HW222380   5.779   6.933   2.507
 7161SOL     OW22381   2.975   3.751   4.210
 7161SOL    HW122382   2.992   3.798   4.297
 7161SOL    HW222383   2.940   3.659   4.229
 7162SOL     OW22384   1.556   5.506   6.207
 7162SOL    HW122385   1.571   5.425   6.151
 7162SOL    HW222386   1.489   5.565   6.162
 7163SOL     OW22387   2.800   6.433   3.062
 7163SOL    HW122388   2.837   6.492   2.990
 7163SOL    HW222389   2.869   6.422   3.134
 7164SOL     OW22390   1.848   0.624   3.497
 7164SOL    HW122391   1.808   0.561   3.564
 7164SOL    HW222392   1.776   0.678   3.455
 7165SOL     OW22393   6.698   1.089   2.229
 7165SOL    HW122394   6.644   1.050   2.303
 7165SOL    HW222395   6.641   1.151   2.175
 7166SOL     OW22396   6.135   2.581   0.616
 7166SOL    HW122397   6.203   2.555   0.684
 7166SOL    HW222398   6.148   2.677   0.590
 7167SOL     OW22399   5.177   3.437   3.881
 7167SOL    HW122400   5.079   3.433   3.860
 7167SOL    HW222401   5.199   3.526   3.922
 7168SOL     OW22402   1.481   2.408   3.241
 7168SOL    HW122403   1.531   2.493   3.224
 7168SOL    HW222404   1.435   2.413   3.329
 7169SOL     OW22405   6.940   2.252   4.747
 7169SOL    HW122406   6.906   2.337   4.787
 7169SOL    HW222407   7.005   2.209   4.810
 7170SOL     OW22408   4.975   6.649   3.979
 7170SOL    HW122409   5.072   6.674   3.990
 7170SOL    HW222410   4.933   6.707   3.910
 7171SOL     OW22411   5.212   3.807   0.024
 7171SOL    HW122412   5.256   3.843   0.106
 7171SOL    HW222413   5.278   3.752   6.996
 7172SOL     OW22414   1.508   0.386   5.071
 7172SOL    HW122415   1.600   0.420   5.053
 7172SOL    HW222416   1.472   0.342   4.989
 7173SOL     OW22417   6.639   4.600   5.944
 7173SOL    HW122418   6.680   4.509   5.952
 7173SOL    HW222419   6.642   4.630   5.849
 7174SOL     OW22420   0.556   4.467   0.158
 7174SOL    HW122421   0.590   4.400   0.092
 7174SOL    HW222422   0.607   4.458   0.244
 7175SOL     OW22423   5.631   2.345   6.704
 7175SOL    HW122424   5.598   2.406   6.775
 7175SOL    HW222425   5.727   2.366   6.684
 7176SOL     OW22426   0.514   0.311   2.956
 7176SOL    HW122427   0.528   0.409   2.968
 7176SOL    HW222428   0.602   0.267   2.939
 7177SOL     OW22429   1.543   5.473   4.556
 7177SOL    HW122430   1.600   5.400   4.519
 7177SOL    HW222431   1.574   5.561   4.519
 7178SOL     OW22432   2.281   1.969   5.846
 7178SOL    HW122433   2.291   2.045   5.782
 7178SOL    HW222434   2.312   1.996   5.936
 7179SOL     OW22435   1.850   3.843   4.698
 7179SOL    HW122436   1.939   3.888   4.700
 7179SOL    HW222437   1.861   3.746   4.720
 7180SOL     OW22438   2.970   5.331   0.383
 7180SOL    HW122439   3.055   5.286   0.413
 7180SOL    HW222440   2.942   5.293   0.295
 7181SOL     OW22441   2.351   6.653   0.428
 7181SOL    HW122442   2.356   6.723   0.357
 7181SOL    HW222443   2.376   6.693   0.516
 7182SOL     OW22444   0.877   2.665   4.936
 7182SOL    HW122445   0.854   2.568   4.927
 7182SOL    HW222446   0.794   2.717   4.954
 7183SOL     OW22447   2.085   6.193   0.107
 7183SOL    HW122448   2.098   6.104   0.065
 7183SOL    HW222449   2.173   6.240   0.114
 7184SOL     OW22450   6.759   0.862   3.240
 7184SOL    HW122451   6.677   0.804   3.233
 7184SOL    HW222452   6.775   0.883   3.337
 7185SOL     OW22453   5.552   0.527   5.287
 7185SOL    HW122454   5.602   0.582   5.354
 7185SOL    HW222455   5.575   0.431   5.298
 7186SOL     OW22456   6.764   1.339   0.236
 7186SOL    HW122457   6.791   1.430   0.267
 7186SOL    HW222458   6.835   1.273   0.260
 7187SOL     OW22459   3.549   5.047   6.240
 7187SOL    HW122460   3.500   4.972   6.287
 7187SOL    HW222461   3.586   5.013   6.153
 7188SOL     OW22462   6.317   1.043   0.942
 7188SOL    HW122463   6.291   0.948   0.924
 7188SOL    HW222464   6.404   1.064   0.897
 7189SOL     OW22465   0.574   1.819   5.956
 7189SOL    HW122466   0.632   1.831   6.036
 7189SOL    HW222467   0.479   1.805   5.985
 7190SOL     OW22468   0.110   3.665   2.908
 7190SOL    HW122469   0.116   3.764   2.910
 7190SOL    HW222470   0.129   3.632   2.815
 7191SOL     OW22471   0.774   4.341   2.801
 7191SOL    HW122472   0.713   4.283   2.854
 7191SOL    HW222473   0.838   4.387   2.862
 7192SOL     OW22474   3.199   4.641   5.648
 7192SOL    HW122475   3.250   4.586   5.714
 7192SOL    HW222476   3.188   4.734   5.684
 7193SOL     OW22477   1.446   2.854   1.890
 7193SOL    HW122478   1.348   2.846   1.867
 7193SOL    HW222479   1.501   2.820   1.814
 7194SOL     OW22480   2.580   2.052   0.498
 7194SOL    HW122481   2.644   2.005   0.438
 7194SOL    HW222482   2.541   2.132   0.451
 7195SOL     OW22483   0.103   4.350   0.101
 7195SOL    HW122484   0.190   4.356   0.051
 7195SOL    HW222485   0.065   4.258   0.091
 7196SOL     OW22486   3.377   4.176   1.017
 7196SOL    HW122487   3.476   4.188   1.003
 7196SOL    HW222488   3.328   4.252   0.974
 7197SOL     OW22489   0.706   2.724   5.620
 7197SOL    HW122490   0.731   2.756   5.711
 7197SOL    HW222491   0.771   2.761   5.553
 7198SOL     OW22492   0.252   0.388   0.576
 7198SOL    HW122493   0.295   0.473   0.545
 7198SOL    HW222494   0.159   0.383   0.540
 7199SOL     OW22495   2.397   0.880   2.474
 7199SOL    HW122496   2.414   0.972   2.439
 7199SOL    HW222497   2.341   0.887   2.557
 7200SOL     OW22498   2.369   2.146   0.055
 7200SOL    HW122499   2.376   2.156   6.980
 7200SOL    HW222500   2.366   2.049   0.079
 7201SOL     OW22501   0.872   5.842   4.610
 7201SOL    HW122502   0.924   5.904   4.669
 7201SOL    HW222503   0.814   5.783   4.667
 7202SOL     OW22504   4.578   0.400   6.135
 7202SOL    HW122505   4.568   0.484   6.187
 7202SOL    HW222506   4.676   0.382   6.120
 7203SOL     OW22507   0.714   1.791   1.014
 7203SOL    HW122508   0.735   1.796   1.111
 7203SOL    HW222509   0.621   1.754   1.002
 7204SOL     OW22510   0.855   0.007   5.307
 7204SOL    HW122511   0.823   0.015   5.212
 7204SOL    HW222512   0.934   6.971   5.310
 7205SOL     OW22513   1.159   5.452   4.011
 7205SOL    HW122514   1.078   5.411   4.052
 7205SOL    HW222515   1.234   5.386   4.011
 7206SOL     OW22516   1.576   0.075   1.645
 7206SOL    HW122517   1.628   0.154   1.677
 7206SOL    HW222518   1.638   7.023   1.630
 7207SOL     OW22519   3.854   0.018   2.631
 7207SOL    HW122520   3.756   0.029   2.619
 7207SOL    HW222521   3.892   0.102   2.669
 7208SOL     OW22522   4.184   6.884   3.176
 7208SOL    HW122523   4.281   6.901   3.189
 7208SOL    HW222524   4.152   6.930   3.093
 7209SOL     OW22525   2.988   3.727   2.053
 7209SOL    HW122526   3.055   3.654   2.066
 7209SOL    HW222527   2.922   3.700   1.983
 7210SOL     OW22528   4.681   0.911   3.907
 7210SOL    HW122529   4.663   0.848   3.983
 7210SOL    HW222530   4.705   0.859   3.825
 7211SOL     OW22531   2.946   6.296   4.096
 7211SOL    HW122532   2.937   6.257   4.187
 7211SOL    HW222533   2.973   6.225   4.031
 7212SOL     OW22534   0.179   6.310   5.194
 7212SOL    HW122535   0.274   6.337   5.212
 7212SOL    HW222536   0.175   6.247   5.117
 7213SOL     OW22537   5.376   6.774   0.759
 7213SOL    HW122538   5.409   6.719   0.682
 7213SOL    HW222539   5.278   6.762   0.769
 7214SOL     OW22540   6.992   5.385   5.231
 7214SOL    HW122541   6.953   5.451   5.295
 7214SOL    HW222542   6.948   5.296   5.245
 7215SOL     OW22543   6.722   3.734   5.012
 7215SOL    HW122544   6.762   3.737   5.104
 7215SOL    HW222545   6.786   3.689   4.950
 7216SOL     OW22546   3.790   6.605   6.570
 7216SOL    HW122547   3.843   6.655   6.637
 7216SOL    HW222548   3.693   6.624   6.583
 7217SOL     OW22549   2.789   4.734   2.766
 7217SOL    HW122550   2.726   4.681   2.709
 7217SOL    HW222551   2.774   4.712   2.862
 7218SOL     OW22552   5.014   2.776   5.178
 7218SOL    HW122553   5.034   2.799   5.274
 7218SOL    HW222554   5.080   2.822   5.119
 7219SOL     OW22555   4.709   0.347   4.051
 7219SOL    HW122556   4.670   0.333   3.960
 7219SOL    HW222557   4.667   0.283   4.116
 7220SOL     OW22558   0.478   5.262   4.961
 7220SOL    HW122559   0.470   5.174   4.914
 7220SOL    HW222560   0.484   5.246   5.059
 7221SOL     OW22561   3.609   6.122   4.613
 7221SOL    HW122562   3.591   6.208   4.566
 7221SOL    HW222563   3.538   6.056   4.589
 7222SOL     OW22564   5.984   0.423   2.937
 7222SOL    HW122565   5.985   0.521   2.955
 7222SOL    HW222566   5.890   0.389   2.939
 7223SOL     OW22567   2.779   1.657   1.712
 7223SOL    HW122568   2.797   1.754   1.695
 7223SOL    HW222569   2.835   1.602   1.650
 7224SOL     OW22570   5.183   2.041   3.905
 7224SOL    HW122571   5.229   1.955   3.880
 7224SOL    HW222572   5.246   2.098   3.957
 7225SOL     OW22573   0.738   5.803   0.538
 7225SOL    HW122574   0.740   5.826   0.440
 7225SOL    HW222575   0.804   5.730   0.556
 7226SOL     OW22576   6.200   1.235   1.084
 7226SOL    HW122577   6.107   1.227   1.049
 7226SOL    HW222578   6.258   1.168   1.038
 7227SOL     OW22579   1.627   1.761   0.719
 7227SOL    HW122580   1.557   1.724   0.780
 7227SOL    HW222581   1.638   1.859   0.736
 7228SOL     OW22582   0.701   1.618   2.650
 7228SOL    HW122583   0.670   1.711   2.672
 7228SOL    HW222584   0.659   1.553   2.712
 7229SOL     OW22585   1.554   6.009   5.945
 7229SOL    HW122586   1.582   5.916   5.922
 7229SOL    HW222587   1.632   6.071   5.932
 7230SOL     OW22588   4.766   5.402   4.418
 7230SOL    HW122589   4.670   5.423   4.431
 7230SOL    HW222590   4.820   5.440   4.494
 7231SOL     OW22591   4.564   0.593   0.343
 7231SOL    HW122592   4.464   0.593   0.346
 7231SOL    HW222593   4.598   0.685   0.327
 7232SOL     OW22594   5.163   5.285   2.929
 7232SOL    HW122595   5.075   5.324   2.902
 7232SOL    HW222596   5.229   5.298   2.854
 7233SOL     OW22597   0.316   1.871   4.027
 7233SOL    HW122598   0.262   1.940   3.977
 7233SOL    HW222599   0.281   1.864   4.121
 7234SOL     OW22600   5.357   3.452   3.458
 7234SOL    HW122601   5.412   3.486   3.381
 7234SOL    HW222602   5.293   3.382   3.425
 7235SOL     OW22603   6.600   4.001   2.018
 7235SOL    HW122604   6.699   4.014   2.020
 7235SOL    HW222605   6.566   4.019   1.926
 7236SOL     OW22606   2.233   1.954   1.978
 7236SOL    HW122607   2.191   1.872   1.940
 7236SOL    HW222608   2.298   1.928   2.050
 7237SOL     OW22609   4.882   1.099   4.386
 7237SOL    HW122610   4.961   1.141   4.433
 7237SOL    HW222611   4.913   1.019   4.336
 7238SOL     OW22612   2.696   1.409   0.826
 7238SOL    HW122613   2.648   1.322   0.810
 7238SOL    HW222614   2.772   1.393   0.889
 7239SOL     OW22615   1.732   2.637   2.234
 7239SOL    HW122616   1.788   2.591   2.166
 7239SOL    HW222617   1.669   2.701   2.189
 7240SOL     OW22618   2.740   4.975   6.150
 7240SOL    HW122619   2.731   4.994   6.052
 7240SOL    HW222620   2.723   5.059   6.202
 7241SOL     OW22621   2.036   0.706   0.531
 7241SOL    HW122622   1.975   0.734   0.605
 7241SOL    HW222623   2.126   0.749   0.544
 7242SOL     OW22624   6.641   6.252   0.546
 7242SOL    HW122625   6.587   6.259   0.463
 7242SOL    HW222626   6.704   6.330   0.553
 7243SOL     OW22627   6.428   4.704   6.066
 7243SOL    HW122628   6.457   4.784   6.119
 7243SOL    HW222629   6.509   4.658   6.029
 7244SOL     OW22630   5.837   0.485   1.418
 7244SOL    HW122631   5.753   0.510   1.371
 7244SOL    HW222632   5.854   0.550   1.493
 7245SOL     OW22633   0.782   2.091   5.020
 7245SOL    HW122634   0.830   2.003   5.012
 7245SOL    HW222635   0.805   2.149   4.942
 7246SOL     OW22636   6.417   0.592   4.115
 7246SOL    HW122637   6.329   0.573   4.158
 7246SOL    HW222638   6.490   0.549   4.169
 7247SOL     OW22639   3.193   0.114   3.898
 7247SOL    HW122640   3.255   0.094   3.974
 7247SOL    HW222641   3.100   0.125   3.933
 7248SOL     OW22642   3.038   1.596   3.817
 7248SOL    HW122643   2.946   1.562   3.837
 7248SOL    HW222644   3.093   1.522   3.778
 7249SOL     OW22645   6.553   4.212   2.182
 7249SOL    HW122646   6.588   4.135   2.129
 7249SOL    HW222647   6.606   4.294   2.161
 7250SOL     OW22648   4.028   0.048   6.292
 7250SOL    HW122649   4.046   0.077   6.198
 7250SOL    HW222650   3.954   7.004   6.291
 7251SOL     OW22651   0.681   0.237   5.721
 7251SOL    HW122652   0.605   0.180   5.689
 7251SOL    HW222653   0.722   0.195   5.802
 7252SOL     OW22654   2.995   3.269   2.837
 7252SOL    HW122655   2.969   3.189   2.892
 7252SOL    HW222656   2.964   3.256   2.743
 7253SOL     OW22657   2.735   6.237   6.144
 7253SOL    HW122658   2.715   6.333   6.162
 7253SOL    HW222659   2.785   6.229   6.057
 7254SOL     OW22660   3.958   5.103   3.864
 7254SOL    HW122661   4.056   5.083   3.870
 7254SOL    HW222662   3.932   5.112   3.769
 7255SOL     OW22663   3.520   3.799   0.907
 7255SOL    HW122664   3.576   3.726   0.869
 7255SOL    HW222665   3.486   3.858   0.833
 7256SOL     OW22666   3.770   4.864   4.326
 7256SOL    HW122667   3.702   4.853   4.399
 7256SOL    HW222668   3.778   4.961   4.303
 7257SOL     OW22669   4.879   3.278   4.021
 7257SOL    HW122670   4.850   3.306   4.112
 7257SOL    HW222671   4.894   3.179   4.019
 7258SOL     OW22672   4.194   0.838   3.077
 7258SOL    HW122673   4.276   0.798   3.037
 7258SOL    HW222674   4.165   0.916   3.021
 7259SOL     OW22675   3.199   3.366   1.127
 7259SOL    HW122676   3.125   3.332   1.185
 7259SOL    HW222677   3.196   3.465   1.124
 7260SOL     OW22678   2.989   1.914   2.751
 7260SOL    HW122679   3.002   2.010   2.772
 7260SOL    HW222680   3.076   1.872   2.726
 7261SOL     OW22681   1.274   3.525   1.603
 7261SOL    HW122682   1.343   3.583   1.558
 7261SOL    HW222683   1.320   3.461   1.664
 7262SOL     OW22684   5.143   1.581   5.448
 7262SOL    HW122685   5.191   1.506   5.403
 7262SOL    HW222686   5.201   1.619   5.520
 7263SOL     OW22687   0.612   6.323   1.653
 7263SOL    HW122688   0.523   6.295   1.617
 7263SOL    HW222689   0.632   6.416   1.623
 7264SOL     OW22690   5.754   1.307   6.659
 7264SOL    HW122691   5.754   1.232   6.593
 7264SOL    HW222692   5.790   1.274   6.746
 7265SOL     OW22693   5.339   5.533   6.274
 7265SOL    HW122694   5.409   5.570   6.335
 7265SOL    HW222695   5.276   5.606   6.248
 7266SOL     OW22696   5.120   0.278   1.336
 7266SOL    HW122697   5.031   0.252   1.299
 7266SOL    HW222698   5.187   0.206   1.317
 7267SOL     OW22699   6.858   6.005   5.771
 7267SOL    HW122700   6.862   5.957   5.683
 7267SOL    HW222701   6.885   5.942   5.844
 7268SOL     OW22702   4.524   4.940   2.913
 7268SOL    HW122703   4.623   4.928   2.906
 7268SOL    HW222704   4.504   5.029   2.954
 7269SOL     OW22705   6.868   6.131   1.401
 7269SOL    HW122706   6.819   6.097   1.321
 7269SOL    HW222707   6.820   6.211   1.438
 7270SOL     OW22708   0.810   3.265   5.263
 7270SOL    HW122709   0.716   3.296   5.278
 7270SOL    HW222710   0.810   3.188   5.199
 7271SOL     OW22711   0.060   5.760   4.306
 7271SOL    HW122712   0.150   5.778   4.266
 7271SOL    HW222713   0.070   5.696   4.382
 7272SOL     OW22714   5.334   4.908   2.297
 7272SOL    HW122715   5.308   4.812   2.284
 7272SOL    HW222716   5.352   4.950   2.207
 7273SOL     OW22717   5.360   4.383   1.819
 7273SOL    HW122718   5.328   4.472   1.852
 7273SOL    HW222719   5.459   4.377   1.829
 7274SOL     OW22720   0.901   6.175   6.941
 7274SOL    HW122721   0.951   6.132   6.866
 7274SOL    HW222722   0.827   6.114   6.971
 7275SOL     OW22723   6.858   0.846   2.489
 7275SOL    HW122724   6.835   0.898   2.571
 7275SOL    HW222725   6.779   0.793   2.459
 7276SOL     OW22726   3.724   1.400   3.121
 7276SOL    HW122727   3.677   1.314   3.100
 7276SOL    HW222728   3.701   1.429   3.214
 7277SOL     OW22729   4.621   1.158   4.015
 7277SOL    HW122730   4.625   1.067   3.973
 7277SOL    HW222731   4.653   1.152   4.109
 7278SOL     OW22732   3.414   2.239   1.690
 7278SOL    HW122733   3.510   2.231   1.717
 7278SOL    HW222734   3.357   2.184   1.751
 7279SOL     OW22735   4.394   3.187   6.014
 7279SOL    HW122736   4.349   3.254   5.954
 7279SOL    HW222737   4.329   3.156   6.083
 7280SOL     OW22738   6.992   1.856   4.153
 7280SOL    HW122739   0.044   1.813   4.202
 7280SOL    HW222740   0.004   1.916   4.082
 7281SOL     OW22741   1.893   0.744   0.303
 7281SOL    HW122742   1.953   0.706   0.373
 7281SOL    HW222743   1.819   0.680   0.284
 7282SOL     OW22744   6.080   6.805   0.662
 7282SOL    HW122745   6.085   6.869   0.738
 7282SOL    HW222746   6.020   6.729   0.685
 7283SOL     OW22747   3.521   0.274   1.878
 7283SOL    HW122748   3.488   0.308   1.790
 7283SOL    HW222749   3.452   0.217   1.921
 7284SOL     OW22750   6.915   2.511   4.831
 7284SOL    HW122751   6.848   2.534   4.901
 7284SOL    HW222752   6.994   2.572   4.839
 7285SOL     OW22753   5.973   3.889   1.606
 7285SOL    HW122754   6.031   3.938   1.671
 7285SOL    HW222755   5.962   3.794   1.635
 7286SOL     OW22756   0.629   0.260   1.322
 7286SOL    HW122757   0.611   0.181   1.263
 7286SOL    HW222758   0.690   0.233   1.396
 7287SOL     OW22759   6.435   2.936   4.832
 7287SOL    HW122760   6.349   2.931   4.780
 7287SOL    HW222761   6.505   2.884   4.784
 7288SOL     OW22762   1.109   1.803   2.119
 7288SOL    HW122763   1.069   1.715   2.146
 7288SOL    HW222764   1.191   1.787   2.065
 7289SOL     OW22765   6.617   1.652   3.227
 7289SOL    HW122766   6.715   1.637   3.230
 7289SOL    HW222767   6.590   1.713   3.302
 7290SOL     OW22768   2.796   1.001   5.409
 7290SOL    HW122769   2.784   0.958   5.499
 7290SOL    HW222770   2.832   0.933   5.345
 7291SOL     OW22771   2.292   0.366   0.995
 7291SOL    HW122772   2.333   0.276   0.991
 7291SOL    HW222773   2.245   0.378   1.082
 7292SOL     OW22774   3.012   6.830   2.343
 7292SOL    HW122775   2.931   6.792   2.386
 7292SOL    HW222776   3.040   6.773   2.266
 7293SOL     OW22777   1.761   1.225   5.873
 7293SOL    HW122778   1.678   1.270   5.842
 7293SOL    HW222779   1.802   1.175   5.796
 7294SOL     OW22780   3.351   4.061   0.229
 7294SOL    HW122781   3.436   4.101   0.264
 7294SOL    HW222782   3.360   3.962   0.225
 7295SOL     OW22783   6.906   4.501   1.095
 7295SOL    HW122784   7.006   4.507   1.085
 7295SOL    HW222785   6.882   4.512   1.192
 7296SOL     OW22786   4.644   5.245   2.747
 7296SOL    HW122787   4.655   5.194   2.833
 7296SOL    HW222788   4.698   5.202   2.675
 7297SOL     OW22789   2.574   7.020   1.715
 7297SOL    HW122790   2.530   6.946   1.666
 7297SOL    HW222791   2.639   0.043   1.654
 7298SOL     OW22792   5.002   5.276   6.843
 7298SOL    HW122793   5.054   5.193   6.822
 7298SOL    HW222794   4.910   5.252   6.873
 7299SOL     OW22795   0.841   1.908   0.819
 7299SOL    HW122796   0.874   1.852   0.742
 7299SOL    HW222797   0.792   1.850   0.883
 7300SOL     OW22798   0.677   6.046   2.670
 7300SOL    HW122799   0.658   5.962   2.619
 7300SOL    HW222800   0.633   6.041   2.760
 7301SOL     OW22801   6.612   2.262   5.833
 7301SOL    HW122802   6.646   2.331   5.770
 7301SOL    HW222803   6.635   2.171   5.798
 7302SOL     OW22804   0.459   2.381   5.835
 7302SOL    HW122805   0.449   2.343   5.743
 7302SOL    HW222806   0.372   2.374   5.883
 7303SOL     OW22807   3.617   0.791   6.990
 7303SOL    HW122808   3.684   0.728   0.004
 7303SOL    HW222809   3.665   0.872   6.954
 7304SOL     OW22810   2.749   5.629   1.872
 7304SOL    HW122811   2.794   5.598   1.956
 7304SOL    HW222812   2.793   5.585   1.793
 7305SOL     OW22813   5.337   2.062   1.383
 7305SOL    HW122814   5.434   2.082   1.398
 7305SOL    HW222815   5.297   2.133   1.326
 7306SOL     OW22816   3.520   1.739   1.646
 7306SOL    HW122817   3.584   1.760   1.572
 7306SOL    HW222818   3.431   1.780   1.626
 7307SOL     OW22819   4.276   0.002   2.529
 7307SOL    HW122820   4.236   0.031   2.616
 7307SOL    HW222821   4.364   0.047   2.516
 7308SOL     OW22822   6.532   1.557   3.973
 7308SOL    HW122823   6.510   1.654   3.986
 7308SOL    HW222824   6.475   1.502   4.034
 7309SOL     OW22825   3.203   7.012   1.635
 7309SOL    HW122826   3.274   6.943   1.647
 7309SOL    HW222827   3.242   0.068   1.589
 7310SOL     OW22828   2.476   3.565   0.127
 7310SOL    HW122829   2.411   3.603   0.193
 7310SOL    HW222830   2.566   3.606   0.142
 7311SOL     OW22831   1.593   0.398   0.176
 7311SOL    HW122832   1.622   0.382   0.271
 7311SOL    HW222833   1.550   0.315   0.141
 7312SOL     OW22834   0.977   1.890   5.005
 7312SOL    HW122835   0.943   1.841   4.925
 7312SOL    HW222836   0.966   1.833   5.087
 7313SOL     OW22837   1.861   1.692   0.902
 7313SOL    HW122838   1.960   1.676   0.904
 7313SOL    HW222839   1.843   1.790   0.905
 7314SOL     OW22840   6.974   4.124   6.089
 7314SOL    HW122841   6.928   4.065   6.022
 7314SOL    HW222842   6.906   4.164   6.150
 7315SOL     OW22843   5.229   5.877   2.127
 7315SOL    HW122844   5.177   5.804   2.171
 7315SOL    HW222845   5.273   5.934   2.196
 7316SOL     OW22846   3.148   2.862   6.723
 7316SOL    HW122847   3.070   2.924   6.715
 7316SOL    HW222848   3.118   2.768   6.703
 7317SOL     OW22849   3.628   1.899   1.827
 7317SOL    HW122850   3.581   1.831   1.772
 7317SOL    HW222851   3.587   1.903   1.918
 7318SOL     OW22852   3.211   6.737   3.287
 7318SOL    HW122853   3.233   6.829   3.256
 7318SOL    HW222854   3.241   6.670   3.220
 7319SOL     OW22855   5.806   3.086   6.714
 7319SOL    HW122856   5.840   2.999   6.677
 7319SOL    HW222857   5.872   3.158   6.693
 7320SOL     OW22858   0.497   3.445   0.633
 7320SOL    HW122859   0.570   3.406   0.577
 7320SOL    HW222860   0.412   3.393   0.619
 7321SOL     OW22861   2.536   0.017   6.361
 7321SOL    HW122862   2.603   6.994   6.304
 7321SOL    HW222863   2.560   0.006   6.458
 7322SOL     OW22864   0.352   2.807   2.755
 7322SOL    HW122865   0.313   2.859   2.679
 7322SOL    HW222866   0.447   2.782   2.733
 7323SOL     OW22867   2.338   2.945   1.632
 7323SOL    HW122868   2.263   2.971   1.572
 7323SOL    HW222869   2.338   2.845   1.643
 7324SOL     OW22870   5.756   4.650   2.426
 7324SOL    HW122871   5.724   4.694   2.510
 7324SOL    HW222872   5.767   4.552   2.443
 7325SOL     OW22873   2.898   0.064   5.482
 7325SOL    HW122874   2.821   0.120   5.514
 7325SOL    HW222875   2.981   0.119   5.483
 7326SOL     OW22876   3.385   7.006   6.133
 7326SOL    HW122877   3.323   0.060   6.137
 7326SOL    HW222878   3.401   6.971   6.225
 7327SOL     OW22879   5.884   2.658   4.067
 7327SOL    HW122880   5.947   2.724   4.027
 7327SOL    HW222881   5.793   2.670   4.027
 7328SOL     OW22882   4.507   6.378   5.387
 7328SOL    HW122883   4.479   6.344   5.476
 7328SOL    HW222884   4.603   6.405   5.389
 7329SOL     OW22885   1.222   3.297   0.424
 7329SOL    HW122886   1.245   3.387   0.387
 7329SOL    HW222887   1.256   3.291   0.518
 7330SOL     OW22888   2.233   3.191   1.284
 7330SOL    HW122889   2.330   3.212   1.293
 7330SOL    HW222890   2.202   3.141   1.365
 7331SOL     OW22891   5.445   6.503   1.849
 7331SOL    HW122892   5.436   6.447   1.767
 7331SOL    HW222893   5.457   6.444   1.929
 7332SOL     OW22894   3.234   4.118   6.592
 7332SOL    HW122895   3.222   4.065   6.676
 7332SOL    HW222896   3.206   4.063   6.514
 7333SOL     OW22897   6.162   3.283   2.534
 7333SOL    HW122898   6.229   3.315   2.601
 7333SOL    HW222899   6.106   3.359   2.503
 7334SOL     OW22900   2.412   5.822   5.944
 7334SOL    HW122901   2.336   5.862   5.892
 7334SOL    HW222902   2.450   5.892   6.005
 7335SOL     OW22903   0.338   2.684   3.352
 7335SOL    HW122904   0.248   2.725   3.339
 7335SOL    HW222905   0.391   2.693   3.268
 7336SOL     OW22906   2.362   6.711   1.237
 7336SOL    HW122907   2.392   6.806   1.244
 7336SOL    HW222908   2.316   6.697   1.149
 7337SOL     OW22909   2.137   3.098   1.530
 7337SOL    HW122910   2.086   3.043   1.595
 7337SOL    HW222911   2.185   3.172   1.579
 7338SOL     OW22912   5.171   1.991   1.585
 7338SOL    HW122913   5.248   2.004   1.522
 7338SOL    HW222914   5.200   2.012   1.678
 7339SOL     OW22915   6.691   0.685   5.160
 7339SOL    HW122916   6.672   0.783   5.158
 7339SOL    HW222917   6.703   0.655   5.255
 7340SOL     OW22918   3.687   1.624   0.096
 7340SOL    HW122919   3.654   1.700   0.039
 7340SOL    HW222920   3.659   1.538   0.054
 7341SOL     OW22921   0.964   5.022   5.005
 7341SOL    HW122922   0.975   5.119   4.985
 7341SOL    HW222923   1.012   4.968   4.935
 7342SOL     OW22924   6.444   6.395   6.790
 7342SOL    HW122925   6.400   6.309   6.812
 7342SOL    HW222926   6.507   6.421   6.863
 7343SOL     OW22927   5.549   3.720   1.850
 7343SOL    HW122928   5.615   3.647   1.830
 7343SOL    HW222929   5.595   3.809   1.846
 7344SOL     OW22930   2.312   0.452   6.320
 7344SOL    HW122931   2.351   0.391   6.390
 7344SOL    HW222932   2.377   0.525   6.300
 7345SOL     OW22933   5.469   6.201   5.515
 7345SOL    HW122934   5.498   6.108   5.537
 7345SOL    HW222935   5.446   6.250   5.599
 7346SOL     OW22936   3.484   4.448   1.273
 7346SOL    HW122937   3.560   4.425   1.334
 7346SOL    HW222938   3.399   4.447   1.326
 7347SOL     OW22939   6.664   3.408   0.721
 7347SOL    HW122940   6.580   3.391   0.774
 7347SOL    HW222941   6.730   3.334   0.738
 7348SOL     OW22942   1.726   3.323   3.702
 7348SOL    HW122943   1.657   3.375   3.752
 7348SOL    HW222944   1.785   3.386   3.651
 7349SOL     OW22945   4.076   1.727   1.214
 7349SOL    HW122946   4.057   1.672   1.295
 7349SOL    HW222947   4.117   1.668   1.144
 7350SOL     OW22948   1.677   3.822   4.126
 7350SOL    HW122949   1.630   3.786   4.206
 7350SOL    HW222950   1.636   3.909   4.099
 7351SOL     OW22951   4.439   5.580   5.382
 7351SOL    HW122952   4.453   5.534   5.470
 7351SOL    HW222953   4.341   5.590   5.365
 7352SOL     OW22954   1.530   3.398   2.692
 7352SOL    HW122955   1.471   3.410   2.772
 7352SOL    HW222956   1.616   3.356   2.719
 7353SOL     OW22957   0.301   0.517   5.765
 7353SOL    HW122958   0.390   0.487   5.798
 7353SOL    HW222959   0.229   0.478   5.823
 7354SOL     OW22960   0.863   1.423   6.436
 7354SOL    HW122961   0.910   1.356   6.379
 7354SOL    HW222962   0.878   1.402   6.532
 7355SOL     OW22963   1.431   1.105   0.346
 7355SOL    HW122964   1.495   1.176   0.377
 7355SOL    HW222965   1.362   1.089   0.416
 7356SOL     OW22966   5.095   2.750   6.658
 7356SOL    HW122967   5.026   2.718   6.723
 7356SOL    HW222968   5.069   2.722   6.566
 7357SOL     OW22969   4.290   1.087   1.312
 7357SOL    HW122970   4.290   0.987   1.302
 7357SOL    HW222971   4.347   1.127   1.240
 7358SOL     OW22972   1.597   2.816   2.113
 7358SOL    HW122973   1.536   2.852   2.183
 7358SOL    HW222974   1.551   2.820   2.024
 7359SOL     OW22975   2.971   3.003   0.726
 7359SOL    HW122976   2.949   3.093   0.762
 7359SOL    HW222977   2.894   2.941   0.740
 7360SOL     OW22978   3.237   2.854   5.709
 7360SOL    HW122979   3.171   2.928   5.694
 7360SOL    HW222980   3.240   2.832   5.806
 7361SOL     OW22981   4.565   0.470   1.832
 7361SOL    HW122982   4.661   0.443   1.820
 7361SOL    HW222983   4.561   0.565   1.864
 7362SOL     OW22984   0.720   6.556   4.669
 7362SOL    HW122985   0.661   6.527   4.744
 7362SOL    HW222986   0.774   6.478   4.637
 7363SOL     OW22987   3.844   1.620   1.052
 7363SOL    HW122988   3.792   1.696   1.013
 7363SOL    HW222989   3.919   1.657   1.109
 7364SOL     OW22990   4.073   0.424   1.319
 7364SOL    HW122991   4.124   0.434   1.233
 7364SOL    HW222992   3.978   0.399   1.299
 7365SOL     OW22993   1.581   6.075   1.846
 7365SOL    HW122994   1.483   6.090   1.841
 7365SOL    HW222995   1.626   6.157   1.881
 7366SOL     OW22996   2.074   5.276   0.491
 7366SOL    HW122997   2.016   5.328   0.554
 7366SOL    HW222998   2.090   5.330   0.408
 7367SOL     OW22999   4.889   4.046   1.378
 7367SOL    HW123000   4.810   4.095   1.413
 7367SOL    HW223001   4.887   4.048   1.278
 7368SOL     OW23002   3.859   2.980   3.595
 7368SOL    HW123003   3.808   2.912   3.647
 7368SOL    HW223004   3.869   3.063   3.650
 7369SOL     OW23005   4.326   3.243   0.498
 7369SOL    HW123006   4.229   3.267   0.489
 7369SOL    HW223007   4.336   3.144   0.494
 7370SOL     OW23008   2.344   0.783   5.340
 7370SOL    HW123009   2.279   0.718   5.379
 7370SOL    HW223010   2.391   0.832   5.413
 7371SOL     OW23011   2.201   6.078   4.111
 7371SOL    HW123012   2.128   6.042   4.051
 7371SOL    HW223013   2.244   6.156   4.066
 7372SOL     OW23014   2.872   1.435   5.627
 7372SOL    HW123015   2.894   1.523   5.584
 7372SOL    HW223016   2.950   1.404   5.681
 7373SOL     OW23017   5.602   1.174   4.446
 7373SOL    HW123018   5.659   1.151   4.525
 7373SOL    HW223019   5.631   1.120   4.367
 7374SOL     OW23020   2.866   2.319   5.333
 7374SOL    HW123021   2.957   2.323   5.291
 7374SOL    HW223022   2.840   2.410   5.365
 7375SOL     OW23023   1.784   3.140   3.018
 7375SOL    HW123024   1.691   3.106   3.008
 7375SOL    HW223025   1.826   3.100   3.099
 7376SOL     OW23026   4.080   1.785   6.944
 7376SOL    HW123027   4.024   1.856   6.986
 7376SOL    HW223028   4.050   1.695   6.976
 7377SOL     OW23029   5.408   5.282   1.908
 7377SOL    HW123030   5.381   5.347   1.979
 7377SOL    HW223031   5.494   5.311   1.867
 7378SOL     OW23032   0.190   1.693   5.421
 7378SOL    HW123033   0.137   1.616   5.456
 7378SOL    HW223034   0.239   1.665   5.339
 7379SOL     OW23035   3.738   2.118   3.063
 7379SOL    HW123036   3.799   2.154   2.992
 7379SOL    HW223037   3.792   2.097   3.145
 7380SOL     OW23038   6.641   3.040   5.190
 7380SOL    HW123039   6.614   3.101   5.116
 7380SOL    HW223040   6.662   2.949   5.153
 7381SOL     OW23041   5.107   4.214   2.265
 7381SOL    HW123042   5.207   4.222   2.264
 7381SOL    HW223043   5.070   4.254   2.182
 7382SOL     OW23044   0.295   5.746   6.199
 7382SOL    HW123045   0.261   5.690   6.123
 7382SOL    HW223046   0.388   5.776   6.179
 7383SOL     OW23047   0.726   6.524   1.472
 7383SOL    HW123048   0.693   6.488   1.385
 7383SOL    HW223049   0.817   6.487   1.492
 7384SOL     OW23050   5.786   0.764   2.156
 7384SOL    HW123051   5.700   0.719   2.181
 7384SOL    HW223052   5.846   0.698   2.112
 7385SOL     OW23053   4.104   6.078   2.095
 7385SOL    HW123054   4.150   6.023   2.165
 7385SOL    HW223055   4.121   6.175   2.113
 7386SOL     OW23056   0.058   2.174   5.531
 7386SOL    HW123057   7.000   2.151   5.583
 7386SOL    HW223058   0.104   2.090   5.502
 7387SOL     OW23059   4.419   6.709   4.370
 7387SOL    HW123060   4.447   6.638   4.305
 7387SOL    HW223061   4.319   6.719   4.368
 7388SOL     OW23062   0.245   5.000   2.968
 7388SOL    HW123063   0.182   5.070   3.000
 7388SOL    HW223064   0.197   4.936   2.908
 7389SOL     OW23065   0.896   4.282   6.426
 7389SOL    HW123066   0.827   4.343   6.466
 7389SOL    HW223067   0.854   4.224   6.357
 7390SOL     OW23068   2.147   1.123   6.752
 7390SOL    HW123069   2.059   1.142   6.794
 7390SOL    HW223070   2.220   1.151   6.814
 7391SOL     OW23071   5.167   4.493   5.196
 7391SOL    HW123072   5.261   4.518   5.173
 7391SOL    HW223073   5.140   4.414   5.141
 7392SOL     OW23074   2.986   6.115   6.993
 7392SOL    HW123075   2.952   6.209   6.995
 7392SOL    HW223076   2.915   6.053   0.001
 7393SOL     OW23077   5.681   4.777   1.443
 7393SOL    HW123078   5.756   4.802   1.503
 7393SOL    HW223079   5.594   4.802   1.486
 7394SOL     OW23080   2.953   2.769   5.911
 7394SOL    HW123081   2.974   2.847   5.853
 7394SOL    HW223082   2.870   2.789   5.963
 7395SOL     OW23083   2.419   1.704   6.835
 7395SOL    HW123084   2.515   1.716   6.859
 7395SOL    HW223085   2.396   1.607   6.834
 7396SOL     OW23086   0.636   6.757   0.582
 7396SOL    HW123087   0.537   6.771   0.589
 7396SOL    HW223088   0.656   6.709   0.497
 7397SOL     OW23089   4.673   4.986   5.405
 7397SOL    HW123090   4.765   4.951   5.388
 7397SOL    HW223091   4.618   4.973   5.323
 7398SOL     OW23092   2.878   5.219   4.351
 7398SOL    HW123093   2.968   5.250   4.379
 7398SOL    HW223094   2.811   5.240   4.422
 7399SOL     OW23095   1.329   3.126   5.891
 7399SOL    HW123096   1.261   3.062   5.927
 7399SOL    HW223097   1.413   3.076   5.870
 7400SOL     OW23098   3.460   3.411   6.083
 7400SOL    HW123099   3.406   3.388   6.002
 7400SOL    HW223100   3.399   3.444   6.155
 7401SOL     OW23101   1.034   0.697   3.880
 7401SOL    HW123102   1.076   0.766   3.822
 7401SOL    HW223103   1.038   0.726   3.976
 7402SOL     OW23104   2.551   5.277   5.977
 7402SOL    HW123105   2.649   5.270   5.961
 7402SOL    HW223106   2.521   5.371   5.963
 7403SOL     OW23107   1.753   3.984   2.680
 7403SOL    HW123108   1.825   4.006   2.614
 7403SOL    HW223109   1.673   3.948   2.632
 7404SOL     OW23110   2.898   5.200   1.200
 7404SOL    HW123111   2.932   5.189   1.107
 7404SOL    HW223112   2.804   5.168   1.205
 7405SOL     OW23113   2.958   4.848   4.541
 7405SOL    HW123114   3.007   4.764   4.563
 7405SOL    HW223115   2.859   4.831   4.547
 7406SOL     OW23116   0.962   2.984   3.520
 7406SOL    HW123117   0.892   3.013   3.586
 7406SOL    HW223118   1.040   2.947   3.570
 7407SOL     OW23119   0.220   6.152   4.972
 7407SOL    HW123120   0.265   6.066   4.996
 7407SOL    HW223121   0.156   6.137   4.897
 7408SOL     OW23122   1.434   3.401   6.238
 7408SOL    HW123123   1.354   3.346   6.215
 7408SOL    HW223124   1.454   3.463   6.161
 7409SOL     OW23125   0.781   1.386   5.137
 7409SOL    HW123126   0.808   1.356   5.228
 7409SOL    HW223127   0.774   1.486   5.135
 7410SOL     OW23128   0.447   4.773   1.286
 7410SOL    HW123129   0.390   4.845   1.247
 7410SOL    HW223130   0.470   4.795   1.381
 7411SOL     OW23131   2.643   6.785   4.237
 7411SOL    HW123132   2.669   6.717   4.306
 7411SOL    HW223133   2.634   6.740   4.148
 7412SOL     OW23134   4.248   0.029   2.969
 7412SOL    HW123135   4.273   6.964   2.933
 7412SOL    HW223136   4.224   0.090   2.893
 7413SOL     OW23137   4.937   5.380   5.266
 7413SOL    HW123138   4.863   5.317   5.244
 7413SOL    HW223139   4.906   5.444   5.336
 7414SOL     OW23140   0.184   6.690   4.021
 7414SOL    HW123141   0.260   6.627   4.004
 7414SOL    HW223142   0.205   6.745   4.102
 7415SOL     OW23143   1.102   3.580   2.891
 7415SOL    HW123144   1.062   3.669   2.909
 7415SOL    HW223145   1.067   3.513   2.956
 7416SOL     OW23146   3.215   1.058   3.621
 7416SOL    HW123147   3.285   1.102   3.565
 7416SOL    HW223148   3.260   1.005   3.693
 7417SOL     OW23149   2.051   0.541   5.951
 7417SOL    HW123150   2.033   0.491   6.036
 7417SOL    HW223151   1.966   0.550   5.899
 7418SOL     OW23152   3.557   5.757   0.599
 7418SOL    HW123153   3.473   5.762   0.654
 7418SOL    HW223154   3.599   5.667   0.609
 7419SOL     OW23155   6.384   2.246   5.488
 7419SOL    HW123156   6.470   2.289   5.460
 7419SOL    HW223157   6.324   2.315   5.529
 7420SOL     OW23158   0.068   6.874   1.743
 7420SOL    HW123159   0.052   6.910   1.835
 7420SOL    HW223160   0.151   6.819   1.742
 7421SOL     OW23161   3.473   3.486   1.150
 7421SOL    HW123162   3.387   3.442   1.127
 7421SOL    HW223163   3.549   3.430   1.119
 7422SOL     OW23164   0.288   2.938   2.518
 7422SOL    HW123165   0.265   2.911   2.425
 7422SOL    HW223166   0.291   3.038   2.524
 7423SOL     OW23167   0.044   4.251   5.306
 7423SOL    HW123168   7.002   4.319   5.275
 7423SOL    HW223169   0.084   4.281   5.393
 7424SOL     OW23170   0.085   0.346   5.072
 7424SOL    HW123171   0.131   0.332   4.984
 7424SOL    HW223172   0.150   0.386   5.137
 7425SOL     OW23173   4.809   5.940   6.263
 7425SOL    HW123174   4.816   6.008   6.190
 7425SOL    HW223175   4.864   5.971   6.341
 7426SOL     OW23176   1.585   1.397   6.637
 7426SOL    HW123177   1.643   1.446   6.703
 7426SOL    HW223178   1.637   1.382   6.553
 7427SOL     OW23179   3.305   6.593   4.086
 7427SOL    HW123180   3.225   6.538   4.060
 7427SOL    HW223181   3.283   6.690   4.077
 7428SOL     OW23182   3.773   1.335   6.027
 7428SOL    HW123183   3.853   1.365   6.078
 7428SOL    HW223184   3.707   1.294   6.090
 7429SOL     OW23185   6.313   6.692   3.411
 7429SOL    HW123186   6.229   6.651   3.376
 7429SOL    HW223187   6.292   6.774   3.464
 7430SOL     OW23188   0.209   4.074   6.221
 7430SOL    HW123189   0.150   4.136   6.170
 7430SOL    HW223190   0.281   4.127   6.266
 7431SOL     OW23191   0.428   3.046   2.927
 7431SOL    HW123192   0.414   2.955   2.889
 7431SOL    HW223193   0.362   3.110   2.888
 7432SOL     OW23194   6.948   7.016   3.313
 7432SOL    HW123195   6.976   6.930   3.356
 7432SOL    HW223196   7.021   0.024   3.253
 7433SOL     OW23197   5.279   5.094   0.007
 7433SOL    HW123198   5.259   5.117   6.936
 7433SOL    HW223199   5.195   5.066   0.054
 7434SOL     OW23200   4.873   0.372   6.061
 7434SOL    HW123201   4.942   0.445   6.060
 7434SOL    HW223202   4.889   0.310   5.984
 7435SOL     OW23203   3.792   5.603   0.905
 7435SOL    HW123204   3.874   5.572   0.951
 7435SOL    HW223205   3.801   5.700   0.882
 7436SOL     OW23206   5.790   3.301   6.170
 7436SOL    HW123207   5.700   3.293   6.214
 7436SOL    HW223208   5.808   3.220   6.114
 7437SOL     OW23209   0.343   6.148   0.464
 7437SOL    HW123210   0.310   6.105   0.548
 7437SOL    HW223211   0.324   6.246   0.467
 7438SOL     OW23212   0.737   5.478   0.213
 7438SOL    HW123213   0.835   5.465   0.226
 7438SOL    HW223214   0.693   5.490   0.303
 7439SOL     OW23215   1.582   6.345   4.979
 7439SOL    HW123216   1.677   6.355   4.947
 7439SOL    HW223217   1.577   6.371   5.075
 7440SOL     OW23218   0.629   3.200   4.503
 7440SOL    HW123219   0.674   3.269   4.559
 7440SOL    HW223220   0.578   3.137   4.561
 7441SOL     OW23221   4.470   5.984   4.763
 7441SOL    HW123222   4.538   5.949   4.827
 7441SOL    HW223223   4.512   5.994   4.673
 7442SOL     OW23224   0.897   0.892   6.107
 7442SOL    HW123225   0.932   0.820   6.167
 7442SOL    HW223226   0.968   0.962   6.095
 7443SOL     OW23227   0.419   0.825   1.960
 7443SOL    HW123228   0.413   0.803   2.057
 7443SOL    HW223229   0.509   0.865   1.940
 7444SOL     OW23230   6.414   3.225   4.460
 7444SOL    HW123231   6.410   3.127   4.483
 7444SOL    HW223232   6.390   3.237   4.364
 7445SOL     OW23233   3.119   1.066   1.345
 7445SOL    HW123234   3.162   0.986   1.303
 7445SOL    HW223235   3.135   1.146   1.287
 7446SOL     OW23236   5.454   3.581   1.098
 7446SOL    HW123237   5.389   3.559   1.024
 7446SOL    HW223238   5.405   3.630   1.171
 7447SOL     OW23239   1.197   3.266   5.696
 7447SOL    HW123240   1.259   3.258   5.618
 7447SOL    HW223241   1.234   3.213   5.773
 7448SOL     OW23242   6.235   6.780   5.359
 7448SOL    HW123243   6.203   6.713   5.425
 7448SOL    HW223244   6.289   6.734   5.288
 7449SOL     OW23245   6.852   2.597   1.957
 7449SOL    HW123246   6.773   2.535   1.960
 7449SOL    HW223247   6.914   2.568   1.884
 7450SOL     OW23248   5.307   1.696   4.365
 7450SOL    HW123249   5.233   1.663   4.307
 7450SOL    HW223250   5.375   1.624   4.377
 7451SOL     OW23251   1.269   6.285   3.194
 7451SOL    HW123252   1.309   6.193   3.191
 7451SOL    HW223253   1.317   6.344   3.129
 7452SOL     OW23254   0.394   6.249   5.479
 7452SOL    HW123255   0.396   6.322   5.412
 7452SOL    HW223256   0.475   6.253   5.537
 7453SOL     OW23257   4.663   5.975   5.591
 7453SOL    HW123258   4.707   6.063   5.608
 7453SOL    HW223259   4.568   5.990   5.562
 7454SOL     OW23260   1.090   2.281   1.877
 7454SOL    HW123261   1.130   2.286   1.785
 7454SOL    HW223262   1.149   2.329   1.942
 7455SOL     OW23263   0.313   2.012   2.251
 7455SOL    HW123264   0.215   1.994   2.256
 7455SOL    HW223265   0.338   2.085   2.315
 7456SOL     OW23266   0.691   2.369   4.153
 7456SOL    HW123267   0.756   2.404   4.086
 7456SOL    HW223268   0.671   2.439   4.221
 7457SOL     OW23269   3.628   0.939   5.197
 7457SOL    HW123270   3.650   0.842   5.181
 7457SOL    HW223271   3.587   0.978   5.115
 7458SOL     OW23272   2.533   6.831   6.679
 7458SOL    HW123273   2.491   6.740   6.680
 7458SOL    HW223274   2.621   6.826   6.727
 7459SOL     OW23275   4.588   0.921   1.322
 7459SOL    HW123276   4.678   0.963   1.317
 7459SOL    HW223277   4.553   0.907   1.229
 7460SOL     OW23278   1.807   4.574   1.128
 7460SOL    HW123279   1.881   4.627   1.086
 7460SOL    HW223280   1.835   4.478   1.135
 7461SOL     OW23281   6.319   1.610   5.784
 7461SOL    HW123282   6.301   1.696   5.833
 7461SOL    HW223283   6.241   1.549   5.796
 7462SOL     OW23284   1.202   4.162   2.877
 7462SOL    HW123285   1.173   4.142   2.784
 7462SOL    HW223286   1.249   4.083   2.916
 7463SOL     OW23287   2.971   5.139   0.936
 7463SOL    HW123288   3.040   5.082   0.891
 7463SOL    HW223289   2.955   5.220   0.881
 7464SOL     OW23290   4.542   0.498   6.618
 7464SOL    HW123291   4.630   0.531   6.584
 7464SOL    HW223292   4.522   0.541   6.706
 7465SOL     OW23293   1.173   6.793   0.346
 7465SOL    HW123294   1.249   6.818   0.406
 7465SOL    HW223295   1.087   6.804   0.395
 7466SOL     OW23296   0.477   0.679   5.979
 7466SOL    HW123297   0.576   0.675   5.965
 7466SOL    HW223298   0.434   0.729   5.904
 7467SOL     OW23299   6.957   1.963   0.178
 7467SOL    HW123300   6.948   2.047   0.125
 7467SOL    HW223301   6.877   1.905   0.164
 7468SOL     OW23302   6.689   2.623   2.773
 7468SOL    HW123303   6.607   2.598   2.824
 7468SOL    HW223304   6.744   2.541   2.756
 7469SOL     OW23305   0.029   0.593   0.324
 7469SOL    HW123306   0.082   0.672   0.354
 7469SOL    HW223307   6.956   0.616   0.323
 7470SOL     OW23308   0.108   2.584   3.744
 7470SOL    HW123309   0.122   2.668   3.797
 7470SOL    HW223310   0.010   2.573   3.724
 7471SOL     OW23311   6.644   6.222   5.811
 7471SOL    HW123312   6.684   6.136   5.842
 7471SOL    HW223313   6.574   6.204   5.742
 7472SOL     OW23314   6.067   6.900   4.278
 7472SOL    HW123315   6.125   6.955   4.218
 7472SOL    HW223316   5.990   6.955   4.309
 7473SOL     OW23317   6.761   4.545   2.784
 7473SOL    HW123318   6.809   4.481   2.845
 7473SOL    HW223319   6.685   4.497   2.739
 7474SOL     OW23320   2.177   1.568   5.198
 7474SOL    HW123321   2.245   1.529   5.260
 7474SOL    HW223322   2.212   1.653   5.159
 7475SOL     OW23323   3.884   0.728   2.738
 7475SOL    HW123324   3.813   0.793   2.709
 7475SOL    HW223325   3.972   0.756   2.700
 7476SOL     OW23326   3.326   5.258   3.897
 7476SOL    HW123327   3.251   5.230   3.957
 7476SOL    HW223328   3.338   5.357   3.903
 7477SOL     OW23329   6.903   1.303   4.694
 7477SOL    HW123330   6.943   1.213   4.708
 7477SOL    HW223331   6.803   1.296   4.694
 7478SOL     OW23332   4.154   4.713   6.588
 7478SOL    HW123333   4.199   4.625   6.572
 7478SOL    HW223334   4.222   4.786   6.588
 7479SOL     OW23335   4.071   2.591   1.677
 7479SOL    HW123336   4.118   2.586   1.589
 7479SOL    HW223337   4.031   2.502   1.698
 7480SOL     OW23338   6.953   3.710   1.903
 7480SOL    HW123339   6.949   3.712   1.803
 7480SOL    HW223340   6.862   3.691   1.940
 7481SOL     OW23341   6.307   5.708   1.642
 7481SOL    HW123342   6.349   5.662   1.720
 7481SOL    HW223343   6.244   5.645   1.596
 7482SOL     OW23344   4.734   2.278   3.598
 7482SOL    HW123345   4.734   2.377   3.613
 7482SOL    HW223346   4.827   2.242   3.610
 7483SOL     OW23347   4.941   2.284   5.104
 7483SOL    HW123348   4.882   2.231   5.166
 7483SOL    HW223349   4.883   2.337   5.041
 7484SOL     OW23350   0.798   1.111   3.638
 7484SOL    HW123351   0.870   1.045   3.615
 7484SOL    HW223352   0.709   1.065   3.639
 7485SOL     OW23353   3.509   0.326   4.165
 7485SOL    HW123354   3.427   0.384   4.163
 7485SOL    HW223355   3.528   0.300   4.260
 7486SOL     OW23356   2.773   0.250   5.844
 7486SOL    HW123357   2.773   0.345   5.873
 7486SOL    HW223358   2.736   0.192   5.917
 7487SOL     OW23359   2.629   6.042   2.749
 7487SOL    HW123360   2.582   6.131   2.744
 7487SOL    HW223361   2.723   6.053   2.715
 7488SOL     OW23362   2.036   6.635   4.455
 7488SOL    HW123363   1.999   6.707   4.396
 7488SOL    HW223364   1.962   6.575   4.484
 7489SOL     OW23365   5.511   2.110   4.928
 7489SOL    HW123366   5.555   2.142   5.012
 7489SOL    HW223367   5.528   2.175   4.854
 7490SOL     OW23368   0.336   0.720   1.419
 7490SOL    HW123369   0.424   0.723   1.372
 7490SOL    HW223370   0.333   0.794   1.487
 7491SOL     OW23371   6.161   3.320   6.051
 7491SOL    HW123372   6.261   3.318   6.040
 7491SOL    HW223373   6.126   3.227   6.054
 7492SOL     OW23374   2.228   0.691   3.814
 7492SOL    HW123375   2.269   0.652   3.732
 7492SOL    HW223376   2.241   0.628   3.891
 7493SOL     OW23377   6.407   3.988   6.896
 7493SOL    HW123378   6.357   3.902   6.883
 7493SOL    HW223379   6.505   3.967   6.906
 7494SOL     OW23380   5.421   0.731   2.733
 7494SOL    HW123381   5.428   0.658   2.665
 7494SOL    HW223382   5.446   0.818   2.691
 7495SOL     OW23383   1.842   0.825   0.693
 7495SOL    HW123384   1.832   0.845   0.596
 7495SOL    HW223385   1.783   0.887   0.746
 7496SOL     OW23386   0.130   3.302   5.690
 7496SOL    HW123387   0.192   3.359   5.742
 7496SOL    HW223388   0.178   3.220   5.658
 7497SOL     OW23389   2.496   4.714   0.766
 7497SOL    HW123390   2.536   4.784   0.825
 7497SOL    HW223391   2.505   4.742   0.670
 7498SOL     OW23392   2.273   1.235   5.425
 7498SOL    HW123393   2.227   1.158   5.381
 7498SOL    HW223394   2.366   1.207   5.450
 7499SOL     OW23395   3.966   2.173   2.889
 7499SOL    HW123396   4.043   2.220   2.931
 7499SOL    HW223397   3.996   2.083   2.857
 7500SOL     OW23398   3.624   5.292   4.490
 7500SOL    HW123399   3.713   5.273   4.450
 7500SOL    HW223400   3.573   5.207   4.501
 7501SOL     OW23401   5.606   3.950   3.779
 7501SOL    HW123402   5.624   4.047   3.764
 7501SOL    HW223403   5.622   3.900   3.694
 7502SOL     OW23404   1.405   0.038   4.614
 7502SOL    HW123405   1.475   0.108   4.612
 7502SOL    HW223406   1.356   0.037   4.527
 7503SOL     OW23407   2.877   1.921   0.707
 7503SOL    HW123408   2.791   1.971   0.709
 7503SOL    HW223409   2.858   1.823   0.704
 7504SOL     OW23410   2.157   7.023   2.907
 7504SOL    HW123411   2.220   6.986   2.838
 7504SOL    HW223412   2.145   0.097   2.892
 7505SOL     OW23413   2.499   1.962   5.494
 7505SOL    HW123414   2.413   1.984   5.448
 7505SOL    HW223415   2.561   2.040   5.486
 7506SOL     OW23416   4.850   0.471   3.428
 7506SOL    HW123417   4.830   0.433   3.338
 7506SOL    HW223418   4.765   0.490   3.476
 7507SOL     OW23419   0.756   0.516   2.570
 7507SOL    HW123420   0.835   0.477   2.522
 7507SOL    HW223421   0.755   0.483   2.664
 7508SOL     OW23422   0.324   6.627   2.375
 7508SOL    HW123423   0.332   6.624   2.275
 7508SOL    HW223424   0.247   6.569   2.403
 7509SOL     OW23425   5.689   3.989   0.407
 7509SOL    HW123426   5.733   3.922   0.466
 7509SOL    HW223427   5.604   3.950   0.370
 7510SOL     OW23428   3.648   4.443   5.274
 7510SOL    HW123429   3.619   4.369   5.213
 7510SOL    HW223430   3.712   4.407   5.342
 7511SOL     OW23431   1.849   6.835   3.840
 7511SOL    HW123432   1.856   6.935   3.845
 7511SOL    HW223433   1.902   6.802   3.762
 7512SOL     OW23434   2.778   5.465   6.906
 7512SOL    HW123435   2.822   5.388   6.860
 7512SOL    HW223436   2.679   5.460   6.892
 7513SOL     OW23437   2.019   1.187   1.821
 7513SOL    HW123438   2.067   1.150   1.741
 7513SOL    HW223439   1.987   1.279   1.801
 7514SOL     OW23440   2.007   5.994   1.327
 7514SOL    HW123441   1.953   5.911   1.317
 7514SOL    HW223442   1.946   6.073   1.327
 7515SOL     OW23443   0.457   4.916   1.958
 7515SOL    HW123444   0.493   4.978   2.028
 7515SOL    HW223445   0.357   4.912   1.965
 7516SOL     OW23446   6.539   5.839   5.384
 7516SOL    HW123447   6.619   5.892   5.411
 7516SOL    HW223448   6.567   5.748   5.352
 7517SOL     OW23449   6.939   3.040   0.942
 7517SOL    HW123450   7.016   3.102   0.955
 7517SOL    HW223451   6.947   2.963   1.004
 7518SOL     OW23452   4.132   5.176   3.206
 7518SOL    HW123453   4.041   5.210   3.183
 7518SOL    HW223454   4.199   5.249   3.193
 7519SOL     OW23455   6.570   6.924   4.409
 7519SOL    HW123456   6.651   6.969   4.372
 7519SOL    HW223457   6.582   6.825   4.406
 7520SOL     OW23458   3.615   0.412   2.258
 7520SOL    HW123459   3.593   0.509   2.273
 7520SOL    HW223460   3.693   0.404   2.196
 7521SOL     OW23461   4.619   4.526   6.261
 7521SOL    HW123462   4.572   4.537   6.174
 7521SOL    HW223463   4.553   4.516   6.335
 7522SOL     OW23464   2.098   0.277   6.555
 7522SOL    HW123465   2.133   0.317   6.639
 7522SOL    HW223466   2.174   0.251   6.496
 7523SOL     OW23467   5.855   6.901   6.047
 7523SOL    HW123468   5.835   6.830   6.116
 7523SOL    HW223469   5.773   6.957   6.034
 7524SOL     OW23470   1.779   1.697   5.886
 7524SOL    HW123471   1.815   1.723   5.796
 7524SOL    HW223472   1.852   1.702   5.954
 7525SOL     OW23473   3.236   0.736   6.296
 7525SOL    HW123474   3.334   0.741   6.314
 7525SOL    HW223475   3.202   0.828   6.275
 7526SOL     OW23476   2.845   3.374   1.627
 7526SOL    HW123477   2.923   3.332   1.582
 7526SOL    HW223478   2.792   3.304   1.675
 7527SOL     OW23479   4.184   5.730   2.853
 7527SOL    HW123480   4.242   5.654   2.883
 7527SOL    HW223481   4.094   5.696   2.828
 7528SOL     OW23482   5.449   1.782   0.076
 7528SOL    HW123483   5.505   1.746   0.150
 7528SOL    HW223484   5.370   1.723   0.061
 7529SOL     OW23485   5.883   0.298   4.347
 7529SOL    HW123486   5.849   0.275   4.255
 7529SOL    HW223487   5.842   0.385   4.376
 7530SOL     OW23488   0.314   3.636   2.125
 7530SOL    HW123489   0.240   3.603   2.184
 7530SOL    HW223490   0.319   3.736   2.129
 7531SOL     OW23491   4.518   2.414   4.324
 7531SOL    HW123492   4.573   2.341   4.283
 7531SOL    HW223493   4.484   2.384   4.413
 7532SOL     OW23494   5.296   4.424   1.439
 7532SOL    HW123495   5.390   4.398   1.461
 7532SOL    HW223496   5.233   4.372   1.496
 7533SOL     OW23497   2.233   2.299   2.052
 7533SOL    HW123498   2.207   2.392   2.078
 7533SOL    HW223499   2.255   2.246   2.134
 7534SOL     OW23500   4.443   5.983   5.445
 7534SOL    HW123501   4.385   6.063   5.429
 7534SOL    HW223502   4.389   5.910   5.487
 7535SOL     OW23503   2.376   0.174   5.992
 7535SOL    HW123504   2.410   0.191   6.084
 7535SOL    HW223505   2.376   0.075   5.974
 7536SOL     OW23506   4.777   4.441   4.892
 7536SOL    HW123507   4.851   4.444   4.959
 7536SOL    HW223508   4.699   4.495   4.924
 7537SOL     OW23509   3.418   5.189   2.625
 7537SOL    HW123510   3.354   5.113   2.638
 7537SOL    HW223511   3.409   5.253   2.700
 7538SOL     OW23512   2.732   3.169   1.742
 7538SOL    HW123513   2.774   3.090   1.696
 7538SOL    HW223514   2.635   3.174   1.716
 7539SOL     OW23515   0.911   2.835   4.203
 7539SOL    HW123516   0.846   2.867   4.272
 7539SOL    HW223517   0.865   2.824   4.115
 7540SOL     OW23518   4.374   6.812   5.282
 7540SOL    HW123519   4.312   6.842   5.355
 7540SOL    HW223520   4.418   6.891   5.241
 7541SOL     OW23521   6.913   4.355   4.127
 7541SOL    HW123522   6.977   4.286   4.095
 7541SOL    HW223523   6.824   4.313   4.144
 7542SOL     OW23524   0.539   5.993   6.812
 7542SOL    HW123525   0.555   5.940   6.728
 7542SOL    HW223526   0.445   6.025   6.814
 7543SOL     OW23527   3.603   2.417   0.334
 7543SOL    HW123528   3.562   2.504   0.361
 7543SOL    HW223529   3.536   2.343   0.344
 7544SOL     OW23530   0.549   2.233   3.082
 7544SOL    HW123531   0.528   2.205   3.176
 7544SOL    HW223532   0.482   2.300   3.051
 7545SOL     OW23533   6.427   5.819   1.417
 7545SOL    HW123534   6.402   5.915   1.432
 7545SOL    HW223535   6.401   5.765   1.496
 7546SOL     OW23536   3.018   1.794   2.197
 7546SOL    HW123537   2.992   1.836   2.109
 7546SOL    HW223538   2.950   1.817   2.266
 7547SOL     OW23539   4.682   1.220   0.256
 7547SOL    HW123540   4.695   1.219   0.355
 7547SOL    HW223541   4.622   1.296   0.231
 7548SOL     OW23542   4.050   2.259   0.273
 7548SOL    HW123543   4.091   2.339   0.228
 7548SOL    HW223544   4.083   2.175   0.229
 7549SOL     OW23545   5.753   1.958   0.988
 7549SOL    HW123546   5.680   1.937   0.922
 7549SOL    HW223547   5.730   1.918   1.076
 7550SOL     OW23548   2.546   4.507   2.475
 7550SOL    HW123549   2.618   4.511   2.543
 7550SOL    HW223550   2.578   4.547   2.389
 7551SOL     OW23551   4.934   3.855   6.784
 7551SOL    HW123552   4.879   3.772   6.783
 7551SOL    HW223553   4.948   3.884   6.878
 7552SOL     OW23554   1.132   5.291   3.071
 7552SOL    HW123555   1.116   5.222   3.141
 7552SOL    HW223556   1.050   5.303   3.015
 7553SOL     OW23557   4.505   5.819   5.028
 7553SOL    HW123558   4.410   5.840   5.004
 7553SOL    HW223559   4.517   5.827   5.127
 7554SOL     OW23560   4.203   1.828   1.744
 7554SOL    HW123561   4.128   1.763   1.757
 7554SOL    HW223562   4.185   1.885   1.664
 7555SOL     OW23563   1.872   5.251   5.756
 7555SOL    HW123564   1.965   5.222   5.738
 7555SOL    HW223565   1.817   5.173   5.784
 7556SOL     OW23566   0.978   2.915   6.405
 7556SOL    HW123567   1.014   2.919   6.498
 7556SOL    HW223568   0.913   2.990   6.391
 7557SOL     OW23569   5.357   2.163   6.163
 7557SOL    HW123570   5.309   2.245   6.134
 7557SOL    HW223571   5.441   2.153   6.109
 7558SOL     OW23572   1.667   2.616   4.445
 7558SOL    HW123573   1.673   2.678   4.366
 7558SOL    HW223574   1.625   2.665   4.522
 7559SOL     OW23575   5.867   4.812   6.568
 7559SOL    HW123576   5.789   4.792   6.628
 7559SOL    HW223577   5.919   4.728   6.553
 7560SOL     OW23578   4.998   6.592   1.514
 7560SOL    HW123579   4.966   6.686   1.528
 7560SOL    HW223580   5.053   6.588   1.431
 7561SOL     OW23581   1.228   3.510   6.950
 7561SOL    HW123582   1.176   3.581   6.902
 7561SOL    HW223583   1.302   3.478   6.892
 7562SOL     OW23584   5.794   6.349   4.237
 7562SOL    HW123585   5.848   6.382   4.314
 7562SOL    HW223586   5.739   6.271   4.267
 7563SOL     OW23587   2.006   6.863   0.761
 7563SOL    HW123588   1.957   6.854   0.847
 7563SOL    HW223589   2.079   6.795   0.757
 7564SOL     OW23590   4.620   1.204   3.035
 7564SOL    HW123591   4.662   1.129   2.984
 7564SOL    HW223592   4.691   1.269   3.063
 7565SOL     OW23593   5.994   3.546   0.576
 7565SOL    HW123594   5.971   3.563   0.672
 7565SOL    HW223595   6.085   3.584   0.556
 7566SOL     OW23596   6.528   4.550   3.123
 7566SOL    HW123597   6.622   4.514   3.119
 7566SOL    HW223598   6.464   4.476   3.104
 7567SOL     OW23599   1.633   2.289   5.177
 7567SOL    HW123600   1.672   2.380   5.161
 7567SOL    HW223601   1.541   2.299   5.215
 7568SOL     OW23602   5.614   6.798   2.799
 7568SOL    HW123603   5.654   6.723   2.853
 7568SOL    HW223604   5.514   6.793   2.806
 7569SOL     OW23605   3.741   6.376   6.296
 7569SOL    HW123606   3.651   6.344   6.325
 7569SOL    HW223607   3.730   6.455   6.235
 7570SOL     OW23608   5.447   4.563   5.135
 7570SOL    HW123609   5.501   4.602   5.210
 7570SOL    HW223610   5.476   4.469   5.119
 7571SOL     OW23611   5.315   5.788   3.762
 7571SOL    HW123612   5.238   5.793   3.698
 7571SOL    HW223613   5.352   5.695   3.761
 7572SOL     OW23614   4.010   0.876   1.808
 7572SOL    HW123615   4.101   0.913   1.829
 7572SOL    HW223616   4.015   0.776   1.800
 7573SOL     OW23617   0.079   6.420   4.829
 7573SOL    HW123618   7.014   6.390   4.798
 7573SOL    HW223619   0.151   6.377   4.774
 7574SOL     OW23620   6.242   0.726   4.476
 7574SOL    HW123621   6.194   0.805   4.514
 7574SOL    HW223622   6.309   0.758   4.408
 7575SOL     OW23623   4.366   0.247   6.187
 7575SOL    HW123624   4.439   0.312   6.164
 7575SOL    HW223625   4.291   0.297   6.231
 7576SOL     OW23626   4.883   4.630   6.484
 7576SOL    HW123627   4.930   4.709   6.444
 7576SOL    HW223628   4.806   4.605   6.425
 7577SOL     OW23629   0.039   0.025   6.441
 7577SOL    HW123630   0.040   0.116   6.399
 7577SOL    HW223631   0.117   0.017   6.504
 7578SOL     OW23632   2.351   6.093   2.068
 7578SOL    HW123633   2.379   6.063   2.159
 7578SOL    HW223634   2.258   6.130   2.072
 7579SOL     OW23635   6.461   1.561   1.686
 7579SOL    HW123636   6.371   1.589   1.718
 7579SOL    HW223637   6.526   1.636   1.698
 7580SOL     OW23638   1.004   3.982   3.820
 7580SOL    HW123639   0.928   4.030   3.775
 7580SOL    HW223640   1.082   3.979   3.758
 7581SOL     OW23641   6.500   0.849   1.143
 7581SOL    HW123642   6.464   0.941   1.127
 7581SOL    HW223643   6.480   0.821   1.237
 7582SOL     OW23644   2.877   1.059   0.876
 7582SOL    HW123645   2.884   1.102   0.966
 7582SOL    HW223646   2.940   0.981   0.871
 7583SOL     OW23647   6.509   3.018   0.888
 7583SOL    HW123648   6.514   2.945   0.956
 7583SOL    HW223649   6.476   3.102   0.930
 7584SOL     OW23650   2.768   0.091   1.562
 7584SOL    HW123651   2.758   0.129   1.470
 7584SOL    HW223652   2.819   0.005   1.557
 7585SOL     OW23653   1.697   2.601   6.038
 7585SOL    HW123654   1.712   2.682   6.095
 7585SOL    HW223655   1.672   2.524   6.097
 7586SOL     OW23656   3.387   0.949   3.837
 7586SOL    HW123657   3.344   1.001   3.911
 7586SOL    HW223658   3.486   0.963   3.841
 7587SOL     OW23659   2.487   2.189   6.775
 7587SOL    HW123660   2.458   2.224   6.687
 7587SOL    HW223661   2.461   2.092   6.783
 7588SOL     OW23662   1.295   3.280   2.597
 7588SOL    HW123663   1.383   3.253   2.637
 7588SOL    HW223664   1.279   3.377   2.614
 7589SOL     OW23665   0.860   6.849   2.022
 7589SOL    HW123666   0.837   6.861   1.925
 7589SOL    HW223667   0.948   6.801   2.030
 7590SOL     OW23668   4.781   1.837   6.785
 7590SOL    HW123669   4.821   1.926   6.806
 7590SOL    HW223670   4.683   1.846   6.771
 7591SOL     OW23671   6.874   3.842   0.151
 7591SOL    HW123672   6.774   3.846   0.147
 7591SOL    HW223673   6.904   3.828   0.245
 7592SOL     OW23674   6.815   3.927   5.942
 7592SOL    HW123675   6.856   3.855   5.886
 7592SOL    HW223676   6.792   4.005   5.884
 7593SOL     OW23677   6.095   2.931   1.488
 7593SOL    HW123678   6.049   2.879   1.416
 7593SOL    HW223679   6.034   2.942   1.566
 7594SOL     OW23680   0.872   5.256   2.619
 7594SOL    HW123681   0.924   5.186   2.670
 7594SOL    HW223682   0.925   5.284   2.539
 7595SOL     OW23683   0.317   2.266   5.605
 7595SOL    HW123684   0.379   2.190   5.586
 7595SOL    HW223685   0.222   2.236   5.592
 7596SOL     OW23686   4.630   5.479   3.625
 7596SOL    HW123687   4.554   5.531   3.586
 7596SOL    HW223688   4.598   5.389   3.654
 7597SOL     OW23689   3.736   6.220   2.959
 7597SOL    HW123690   3.714   6.125   2.940
 7597SOL    HW223691   3.810   6.225   3.027
 7598SOL     OW23692   6.592   1.171   2.690
 7598SOL    HW123693   6.526   1.214   2.751
 7598SOL    HW223694   6.677   1.222   2.691
 7599SOL     OW23695   5.396   1.676   2.598
 7599SOL    HW123696   5.312   1.697   2.649
 7599SOL    HW223697   5.475   1.692   2.657
 7600SOL     OW23698   2.371   1.601   2.786
 7600SOL    HW123699   2.285   1.650   2.775
 7600SOL    HW223700   2.367   1.513   2.738
 7601SOL     OW23701   2.020   5.292   3.138
 7601SOL    HW123702   2.066   5.217   3.185
 7601SOL    HW223703   2.053   5.380   3.175
 7602SOL     OW23704   0.398   4.499   6.179
 7602SOL    HW123705   0.378   4.553   6.097
 7602SOL    HW223706   0.332   4.522   6.251
 7603SOL     OW23707   1.930   5.313   6.163
 7603SOL    HW123708   1.849   5.336   6.109
 7603SOL    HW223709   1.902   5.263   6.245
 7604SOL     OW23710   1.601   4.778   4.407
 7604SOL    HW123711   1.646   4.867   4.415
 7604SOL    HW223712   1.505   4.786   4.436
 7605SOL     OW23713   0.475   6.995   1.278
 7605SOL    HW123714   0.571   6.995   1.306
 7605SOL    HW223715   0.422   6.939   1.342
 7606SOL     OW23716   5.994   3.408   4.436
 7606SOL    HW123717   5.947   3.472   4.496
 7606SOL    HW223718   5.940   3.393   4.353
 7607SOL     OW23719   3.805   4.782   0.234
 7607SOL    HW123720   3.796   4.820   0.142
 7607SOL    HW223721   3.721   4.802   0.286
 7608SOL     OW23722   4.002   3.729   2.603
 7608SOL    HW123723   4.010   3.727   2.503
 7608SOL    HW223724   3.912   3.765   2.629
 7609SOL     OW23725   1.111   3.433   4.106
 7609SOL    HW123726   1.025   3.417   4.155
 7609SOL    HW223727   1.147   3.346   4.072
 7610SOL     OW23728   5.637   6.173   0.042
 7610SOL    HW123729   5.565   6.128   7.013
 7610SOL    HW223730   5.638   6.136   0.135
 7611SOL     OW23731   0.428   2.012   0.690
 7611SOL    HW123732   0.338   2.049   0.667
 7611SOL    HW223733   0.429   1.982   0.785
 7612SOL     OW23734   5.285   3.325   4.113
 7612SOL    HW123735   5.274   3.336   4.014
 7612SOL    HW223736   5.203   3.282   4.151
 7613SOL     OW23737   6.457   3.429   1.387
 7613SOL    HW123738   6.434   3.442   1.483
 7613SOL    HW223739   6.381   3.462   1.330
 7614SOL     OW23740   4.690   3.384   0.730
 7614SOL    HW123741   4.650   3.302   0.769
 7614SOL    HW223742   4.690   3.377   0.630
 7615SOL     OW23743   3.446   4.905   6.894
 7615SOL    HW123744   3.524   4.968   6.898
 7615SOL    HW223745   3.364   4.952   6.926
 7616SOL     OW23746   6.084   5.156   5.154
 7616SOL    HW123747   6.051   5.250   5.152
 7616SOL    HW223748   6.144   5.140   5.075
 7617SOL     OW23749   3.920   5.225   2.543
 7617SOL    HW123750   3.955   5.317   2.530
 7617SOL    HW223751   3.824   5.221   2.516
 7618SOL     OW23752   0.363   1.562   5.637
 7618SOL    HW123753   0.299   1.637   5.622
 7618SOL    HW223754   0.415   1.544   5.554
 7619SOL     OW23755   5.558   2.624   5.060
 7619SOL    HW123756   5.655   2.603   5.071
 7619SOL    HW223757   5.547   2.722   5.040
 7620SOL     OW23758   4.325   5.638   1.015
 7620SOL    HW123759   4.299   5.681   0.928
 7620SOL    HW223760   4.419   5.606   1.010
 7621SOL     OW23761   7.006   1.934   1.125
 7621SOL    HW123762   0.037   1.987   1.189
 7621SOL    HW223763   0.023   1.940   1.034
 7622SOL     OW23764   4.725   5.739   1.556
 7622SOL    HW123765   4.731   5.777   1.648
 7622SOL    HW223766   4.734   5.640   1.560
 7623SOL     OW23767   4.699   4.571   6.903
 7623SOL    HW123768   4.609   4.530   6.886
 7623SOL    HW223769   4.762   4.546   6.829
 7624SOL     OW23770   0.218   3.362   5.066
 7624SOL    HW123771   0.220   3.274   5.019
 7624SOL    HW223772   0.129   3.375   5.109
 7625SOL     OW23773   4.444   0.844   1.681
 7625SOL    HW123774   4.502   0.918   1.650
 7625SOL    HW223775   4.354   0.880   1.707
 7626SOL     OW23776   5.772   0.191   4.124
 7626SOL    HW123777   5.800   0.238   4.040
 7626SOL    HW223778   5.784   0.093   4.112
 7627SOL     OW23779   5.354   2.448   0.452
 7627SOL    HW123780   5.377   2.535   0.408
 7627SOL    HW223781   5.434   2.413   0.501
 7628SOL     OW23782   3.671   1.305   2.601
 7628SOL    HW123783   3.591   1.327   2.657
 7628SOL    HW223784   3.752   1.349   2.639
 7629SOL     OW23785   6.826   6.578   3.357
 7629SOL    HW123786   6.732   6.611   3.346
 7629SOL    HW223787   6.836   6.490   3.309
 7630SOL     OW23788   6.724   6.594   1.294
 7630SOL    HW123789   6.779   6.671   1.263
 7630SOL    HW223790   6.687   6.614   1.385
 7631SOL     OW23791   1.228   1.296   6.133
 7631SOL    HW123792   1.188   1.363   6.070
 7631SOL    HW223793   1.322   1.323   6.155
 7632SOL     OW23794   3.187   2.843   2.000
 7632SOL    HW123795   3.174   2.874   1.906
 7632SOL    HW223796   3.148   2.751   2.010
 7633SOL     OW23797   5.077   1.132   1.407
 7633SOL    HW123798   5.128   1.100   1.487
 7633SOL    HW223799   5.126   1.208   1.364
 7634SOL     OW23800   1.432   2.350   2.581
 7634SOL    HW123801   1.458   2.386   2.670
 7634SOL    HW223802   1.333   2.334   2.579
 7635SOL     OW23803   3.732   5.242   4.763
 7635SOL    HW123804   3.782   5.263   4.847
 7635SOL    HW223805   3.754   5.310   4.693
 7636SOL     OW23806   1.205   2.537   3.750
 7636SOL    HW123807   1.141   2.528   3.673
 7636SOL    HW223808   1.209   2.451   3.800
 7637SOL     OW23809   2.400   5.207   2.563
 7637SOL    HW123810   2.472   5.156   2.516
 7637SOL    HW223811   2.440   5.270   2.630
 7638SOL     OW23812   2.948   6.174   0.836
 7638SOL    HW123813   2.992   6.118   0.765
 7638SOL    HW223814   2.977   6.143   0.926
 7639SOL     OW23815   1.409   2.473   0.782
 7639SOL    HW123816   1.442   2.566   0.769
 7639SOL    HW223817   1.309   2.472   0.777
 7640SOL     OW23818   3.052   2.016   6.158
 7640SOL    HW123819   3.128   2.056   6.107
 7640SOL    HW223820   3.030   2.074   6.237
 7641SOL     OW23821   1.395   4.919   2.173
 7641SOL    HW123822   1.442   4.878   2.251
 7641SOL    HW223823   1.447   4.998   2.141
 7642SOL     OW23824   3.932   0.256   2.725
 7642SOL    HW123825   3.923   0.312   2.807
 7642SOL    HW223826   3.894   0.306   2.646
 7643SOL     OW23827   4.888   3.412   4.275
 7643SOL    HW123828   4.897   3.494   4.331
 7643SOL    HW223829   4.974   3.361   4.276
 7644SOL     OW23830   6.229   2.481   2.147
 7644SOL    HW123831   6.148   2.498   2.092
 7644SOL    HW223832   6.209   2.412   2.216
 7645SOL     OW23833   4.075   4.126   5.658
 7645SOL    HW123834   4.109   4.073   5.735
 7645SOL    HW223835   4.085   4.073   5.573
 7646SOL     OW23836   1.183   3.852   3.202
 7646SOL    HW123837   1.241   3.780   3.164
 7646SOL    HW223838   1.118   3.882   3.132
 7647SOL     OW23839   6.326   3.611   2.853
 7647SOL    HW123840   6.414   3.658   2.858
 7647SOL    HW223841   6.324   3.554   2.771
 7648SOL     OW23842   2.499   1.469   2.987
 7648SOL    HW123843   2.510   1.543   3.053
 7648SOL    HW223844   2.457   1.505   2.903
 7649SOL     OW23845   1.117   0.554   2.705
 7649SOL    HW123846   1.036   0.496   2.719
 7649SOL    HW223847   1.166   0.524   2.623
 7650SOL     OW23848   4.566   1.868   1.161
 7650SOL    HW123849   4.575   1.887   1.064
 7650SOL    HW223850   4.474   1.891   1.192
 7651SOL     OW23851   2.456   0.948   4.025
 7651SOL    HW123852   2.376   0.945   4.085
 7651SOL    HW223853   2.466   1.040   3.986
 7652SOL     OW23854   5.826   3.383   4.850
 7652SOL    HW123855   5.740   3.386   4.900
 7652SOL    HW223856   5.867   3.475   4.848
 7653SOL     OW23857   1.356   2.256   6.666
 7653SOL    HW123858   1.350   2.271   6.765
 7653SOL    HW223859   1.293   2.183   6.640
 7654SOL     OW23860   4.910   3.120   3.596
 7654SOL    HW123861   4.883   3.216   3.594
 7654SOL    HW223862   4.994   3.110   3.649
 7655SOL     OW23863   4.837   0.364   3.137
 7655SOL    HW123864   4.935   0.374   3.155
 7655SOL    HW223865   4.824   0.304   3.058
 7656SOL     OW23866   2.381   4.118   5.954
 7656SOL    HW123867   2.479   4.102   5.944
 7656SOL    HW223868   2.340   4.130   5.863
 7657SOL     OW23869   1.487   3.032   4.408
 7657SOL    HW123870   1.537   3.069   4.487
 7657SOL    HW223871   1.535   3.056   4.324
 7658SOL     OW23872   3.855   6.727   5.756
 7658SOL    HW123873   3.814   6.787   5.825
 7658SOL    HW223874   3.868   6.779   5.671
 7659SOL     OW23875   5.312   5.589   6.623
 7659SOL    HW123876   5.289   5.565   6.717
 7659SOL    HW223877   5.354   5.510   6.578
 7660SOL     OW23878   0.374   5.819   4.261
 7660SOL    HW123879   0.466   5.787   4.238
 7660SOL    HW223880   0.352   5.793   4.356
 7661SOL     OW23881   6.295   2.390   4.397
 7661SOL    HW123882   6.213   2.440   4.369
 7661SOL    HW223883   6.352   2.371   4.317
 7662SOL     OW23884   1.145   3.537   2.629
 7662SOL    HW123885   1.112   3.566   2.719
 7662SOL    HW223886   1.232   3.583   2.609
 7663SOL     OW23887   1.212   5.802   5.859
 7663SOL    HW123888   1.144   5.835   5.924
 7663SOL    HW223889   1.191   5.708   5.834
 7664SOL     OW23890   3.694   6.950   1.543
 7664SOL    HW123891   3.639   6.876   1.504
 7664SOL    HW223892   3.644   0.012   1.537
 7665SOL     OW23893   5.560   6.883   5.074
 7665SOL    HW123894   5.632   6.845   5.131
 7665SOL    HW223895   5.585   6.874   4.978
 7666SOL     OW23896   0.067   5.686   1.773
 7666SOL    HW123897   7.015   5.738   1.812
 7666SOL    HW223898   0.150   5.704   1.827
 7667SOL     OW23899   5.365   6.097   2.222
 7667SOL    HW123900   5.432   6.030   2.191
 7667SOL    HW223901   5.407   6.154   2.293
 7668SOL     OW23902   3.035   4.675   0.233
 7668SOL    HW123903   3.086   4.728   0.165
 7668SOL    HW223904   3.069   4.697   0.325
 7669SOL     OW23905   5.041   1.632   5.799
 7669SOL    HW123906   4.964   1.656   5.740
 7669SOL    HW223907   5.121   1.686   5.774
 7670SOL     OW23908   0.785   5.120   6.679
 7670SOL    HW123909   0.718   5.139   6.751
 7670SOL    HW223910   0.844   5.045   6.708
 7671SOL     OW23911   4.500   0.851   2.802
 7671SOL    HW123912   4.583   0.813   2.762
 7671SOL    HW223913   4.490   0.947   2.774
 7672SOL     OW23914   0.349   0.144   3.074
 7672SOL    HW123915   0.254   0.177   3.073
 7672SOL    HW223916   0.405   0.200   3.013
 7673SOL     OW23917   1.592   5.674   0.039
 7673SOL    HW123918   1.629   5.767   0.048
 7673SOL    HW223919   1.668   5.608   0.038
 7674SOL     OW23920   5.739   1.486   3.284
 7674SOL    HW123921   5.810   1.454   3.222
 7674SOL    HW223922   5.650   1.454   3.253
 7675SOL     OW23923   6.421   6.666   2.213
 7675SOL    HW123924   6.334   6.680   2.259
 7675SOL    HW223925   6.406   6.642   2.117
 7676SOL     OW23926   1.743   1.674   0.494
 7676SOL    HW123927   1.672   1.670   0.565
 7676SOL    HW223928   1.826   1.630   0.527
 7677SOL     OW23929   0.584   5.058   2.191
 7677SOL    HW123930   0.533   5.106   2.262
 7677SOL    HW223931   0.634   5.124   2.135
 7678SOL     OW23932   2.039   2.767   4.444
 7678SOL    HW123933   2.014   2.729   4.355
 7678SOL    HW223934   2.040   2.693   4.512
 7679SOL     OW23935   3.097   5.669   6.621
 7679SOL    HW123936   3.013   5.624   6.589
 7679SOL    HW223937   3.169   5.658   6.553
 7680SOL     OW23938   1.765   1.492   0.745
 7680SOL    HW123939   1.845   1.497   0.685
 7680SOL    HW223940   1.740   1.584   0.774
 7681SOL     OW23941   2.126   0.106   0.997
 7681SOL    HW123942   2.218   0.119   0.961
 7681SOL    HW223943   2.124   0.025   1.056
 7682SOL     OW23944   3.510   6.936   2.465
 7682SOL    HW123945   3.560   7.019   2.441
 7682SOL    HW223946   3.545   6.859   2.411
 7683SOL     OW23947   5.592   1.311   3.911
 7683SOL    HW123948   5.492   1.310   3.903
 7683SOL    HW223949   5.623   1.228   3.957
 7684SOL     OW23950   3.546   2.045   1.465
 7684SOL    HW123951   3.598   2.079   1.544
 7684SOL    HW223952   3.481   1.975   1.495
 7685SOL     OW23953   3.374   2.209   6.436
 7685SOL    HW123954   3.373   2.134   6.502
 7685SOL    HW223955   3.382   2.172   6.344
 7686SOL     OW23956   0.010   6.744   3.134
 7686SOL    HW123957   6.936   6.761   3.143
 7686SOL    HW223958   0.031   6.653   3.172
 7687SOL     OW23959   5.519   5.123   4.193
 7687SOL    HW123960   5.462   5.206   4.190
 7687SOL    HW223961   5.461   5.044   4.176
 7688SOL     OW23962   1.482   6.027   6.228
 7688SOL    HW123963   1.396   6.078   6.224
 7688SOL    HW223964   1.526   6.028   6.139
 7689SOL     OW23965   5.943   6.391   2.997
 7689SOL    HW123966   5.950   6.433   2.907
 7689SOL    HW223967   5.867   6.432   3.048
 7690SOL     OW23968   5.629   4.441   0.477
 7690SOL    HW123969   5.606   4.491   0.393
 7690SOL    HW223970   5.545   4.405   0.518
 7691SOL     OW23971   5.231   3.018   5.156
 7691SOL    HW123972   5.147   3.048   5.201
 7691SOL    HW223973   5.309   3.071   5.190
 7692SOL     OW23974   0.353   6.319   2.228
 7692SOL    HW123975   0.309   6.338   2.316
 7692SOL    HW223976   0.355   6.403   2.173
 7693SOL     OW23977   3.915   0.037   1.194
 7693SOL    HW123978   3.972   0.024   1.276
 7693SOL    HW223979   3.966   0.005   1.113
 7694SOL     OW23980   0.010   4.573   4.732
 7694SOL    HW123981   0.062   4.530   4.658
 7694SOL    HW223982   6.971   4.506   4.771
 7695SOL     OW23983   4.746   0.415   1.142
 7695SOL    HW123984   4.763   0.466   1.057
 7695SOL    HW223985   4.813   0.444   1.211
 7696SOL     OW23986   6.996   1.044   5.012
 7696SOL    HW123987   6.906   1.042   4.968
 7696SOL    HW223988   0.041   1.018   4.945
 7697SOL     OW23989   3.093   6.665   2.133
 7697SOL    HW123990   3.022   6.625   2.075
 7697SOL    HW223991   3.160   6.712   2.076
 7698SOL     OW23992   6.338   1.559   3.769
 7698SOL    HW123993   6.383   1.561   3.680
 7698SOL    HW223994   6.407   1.568   3.841
 7699SOL     OW23995   3.597   6.100   6.935
 7699SOL    HW123996   3.689   6.109   6.896
 7699SOL    HW223997   3.555   6.191   6.942
 7700SOL     OW23998   5.218   6.004   3.965
 7700SOL    HW123999   5.249   6.023   3.872
 7700SOL    HW224000   5.296   5.977   4.021
 7701SOL     OW24001   6.823   1.392   6.772
 7701SOL    HW124002   6.866   1.302   6.769
 7701SOL    HW224003   6.881   1.455   6.825
 7702SOL     OW24004   3.595   6.925   5.139
 7702SOL    HW124005   3.539   6.867   5.080
 7702SOL    HW224006   3.637   6.997   5.085
 7703SOL     OW24007   6.034   0.200   6.325
 7703SOL    HW124008   6.033   0.100   6.327
 7703SOL    HW224009   6.061   0.236   6.415
 7704SOL     OW24010   5.975   5.522   4.837
 7704SOL    HW124011   5.908   5.591   4.863
 7704SOL    HW224012   5.930   5.434   4.824
 7705SOL     OW24013   3.733   5.487   6.562
 7705SOL    HW124014   3.812   5.467   6.621
 7705SOL    HW224015   3.755   5.462   6.468
 7706SOL     OW24016   4.486   3.222   5.324
 7706SOL    HW124017   4.536   3.276   5.391
 7706SOL    HW224018   4.399   3.191   5.363
 7707SOL     OW24019   0.430   5.520   6.416
 7707SOL    HW124020   0.372   5.601   6.427
 7707SOL    HW224021   0.468   5.518   6.324
 7708SOL     OW24022   0.234   0.304   5.595
 7708SOL    HW124023   0.261   0.386   5.645
 7708SOL    HW224024   0.315   0.262   5.554
 7709SOL     OW24025   6.393   4.655   1.776
 7709SOL    HW124026   6.412   4.665   1.874
 7709SOL    HW224027   6.480   4.648   1.727
 7710SOL     OW24028   2.750   1.129   0.457
 7710SOL    HW124029   2.735   1.123   0.555
 7710SOL    HW224030   2.704   1.210   0.421
 7711SOL     OW24031   6.380   6.683   5.961
 7711SOL    HW124032   6.430   6.763   5.927
 7711SOL    HW224033   6.438   6.631   6.023
 7712SOL     OW24034   6.123   5.423   1.966
 7712SOL    HW124035   6.102   5.333   2.004
 7712SOL    HW224036   6.219   5.446   1.985
 7713SOL     OW24037   1.332   4.306   0.477
 7713SOL    HW124038   1.360   4.357   0.558
 7713SOL    HW224039   1.375   4.216   0.477
 7714SOL     OW24040   5.923   4.219   5.592
 7714SOL    HW124041   5.963   4.135   5.630
 7714SOL    HW224042   5.876   4.197   5.506
 7715SOL     OW24043   3.929   2.188   0.496
 7715SOL    HW124044   3.964   2.213   0.405
 7715SOL    HW224045   3.964   2.098   0.521
 7716SOL     OW24046   5.915   4.503   2.899
 7716SOL    HW124047   5.852   4.479   2.825
 7716SOL    HW224048   5.966   4.585   2.875
 7717SOL     OW24049   1.838   1.048   4.737
 7717SOL    HW124050   1.865   1.068   4.831
 7717SOL    HW224051   1.764   0.982   4.737
 7718SOL     OW24052   1.187   2.841   3.164
 7718SOL    HW124053   1.164   2.747   3.190
 7718SOL    HW224054   1.111   2.880   3.111
 7719SOL     OW24055   6.717   4.585   4.905
 7719SOL    HW124056   6.732   4.637   4.822
 7719SOL    HW224057   6.623   4.553   4.908
 7720SOL     OW24058   6.912   1.113   0.232
 7720SOL    HW124059   6.960   1.057   0.165
 7720SOL    HW224060   6.822   1.075   0.250
 7721SOL     OW24061   0.214   5.468   2.942
 7721SOL    HW124062   0.208   5.433   2.848
 7721SOL    HW224063   0.189   5.565   2.943
 7722SOL     OW24064   1.374   5.069   3.532
 7722SOL    HW124065   1.470   5.096   3.539
 7722SOL    HW224066   1.330   5.084   3.621
 7723SOL     OW24067   4.489   3.163   0.243
 7723SOL    HW124068   4.399   3.156   0.199
 7723SOL    HW224069   4.509   3.259   0.263
 7724SOL     OW24070   3.103   4.012   0.780
 7724SOL    HW124071   3.017   4.032   0.828
 7724SOL    HW224072   3.172   3.983   0.847
 7725SOL     OW24073   6.518   1.816   3.418
 7725SOL    HW124074   6.539   1.893   3.358
 7725SOL    HW224075   6.513   1.848   3.513
 7726SOL     OW24076   1.599   5.657   5.317
 7726SOL    HW124077   1.578   5.573   5.368
 7726SOL    HW224078   1.522   5.680   5.258
 7727SOL     OW24079   0.204   0.985   2.831
 7727SOL    HW124080   0.166   1.053   2.769
 7727SOL    HW224081   0.170   0.894   2.806
 7728SOL     OW24082   1.472   4.658   3.708
 7728SOL    HW124083   1.378   4.626   3.717
 7728SOL    HW224084   1.509   4.677   3.799
 7729SOL     OW24085   5.464   2.945   0.767
 7729SOL    HW124086   5.520   2.901   0.837
 7729SOL    HW224087   5.419   2.875   0.712
 7730SOL     OW24088   5.975   5.674   0.536
 7730SOL    HW124089   5.877   5.657   0.536
 7730SOL    HW224090   5.994   5.762   0.495
 7731SOL     OW24091   6.474   1.147   0.221
 7731SOL    HW124092   6.554   1.087   0.212
 7731SOL    HW224093   6.437   1.168   0.131
 7732SOL     OW24094   4.801   6.759   0.659
 7732SOL    HW124095   4.797   6.683   0.723
 7732SOL    HW224096   4.858   6.734   0.581
 7733SOL     OW24097   4.926   6.336   2.775
 7733SOL    HW124098   5.003   6.306   2.718
 7733SOL    HW224099   4.855   6.376   2.717
 7734SOL     OW24100   2.702   4.671   3.024
 7734SOL    HW124101   2.619   4.681   3.079
 7734SOL    HW224102   2.778   4.719   3.068
 7735SOL     OW24103   4.609   7.012   6.594
 7735SOL    HW124104   4.515   0.003   6.563
 7735SOL    HW224105   4.671   0.049   6.545
 7736SOL     OW24106   3.403   3.417   6.847
 7736SOL    HW124107   3.448   3.463   6.924
 7736SOL    HW224108   3.451   3.439   6.762
 7737SOL     OW24109   3.206   6.976   2.474
 7737SOL    HW124110   3.296   6.933   2.477
 7737SOL    HW224111   3.159   6.950   2.389
 7738SOL     OW24112   2.900   6.188   6.715
 7738SOL    HW124113   2.932   6.145   6.799
 7738SOL    HW224114   2.928   6.133   6.636
 7739SOL     OW24115   0.458   2.782   1.227
 7739SOL    HW124116   0.359   2.774   1.216
 7739SOL    HW224117   0.481   2.774   1.324
 7740SOL     OW24118   2.296   1.201   2.392
 7740SOL    HW124119   2.212   1.183   2.442
 7740SOL    HW224120   2.283   1.279   2.331
 7741SOL     OW24121   1.284   5.165   5.915
 7741SOL    HW124122   1.272   5.256   5.955
 7741SOL    HW224123   1.195   5.124   5.897
 7742SOL     OW24124   4.526   2.566   3.799
 7742SOL    HW124125   4.459   2.540   3.729
 7742SOL    HW224126   4.500   2.526   3.887
 7743SOL     OW24127   5.739   1.142   6.942
 7743SOL    HW124128   5.802   1.076   6.901
 7743SOL    HW224129   5.790   1.217   6.982
 7744SOL     OW24130   0.769   6.018   4.147
 7744SOL    HW124131   0.788   6.102   4.097
 7744SOL    HW224132   0.718   6.039   4.230
 7745SOL     OW24133   3.636   1.464   6.887
 7745SOL    HW124134   3.568   1.528   6.850
 7745SOL    HW224135   3.726   1.488   6.851
 7746SOL     OW24136   2.028   0.111   0.357
 7746SOL    HW124137   2.110   0.069   0.396
 7746SOL    HW224138   1.956   0.042   0.348
 7747SOL     OW24139   5.454   5.603   1.025
 7747SOL    HW124140   5.496   5.513   1.038
 7747SOL    HW224141   5.507   5.655   0.958
 7748SOL     OW24142   3.290   4.145   4.960
 7748SOL    HW124143   3.224   4.114   5.029
 7748SOL    HW224144   3.264   4.236   4.928
 7749SOL     OW24145   2.525   2.849   6.074
 7749SOL    HW124146   2.576   2.935   6.081
 7749SOL    HW224147   2.522   2.805   6.164
 7750SOL     OW24148   0.169   6.202   1.939
 7750SOL    HW124149   0.131   6.135   1.876
 7750SOL    HW224150   0.174   6.163   2.031
 7751SOL     OW24151   1.278   2.405   2.032
 7751SOL    HW124152   1.373   2.410   2.004
 7751SOL    HW224153   1.237   2.496   2.027
 7752SOL     OW24154   5.624   6.885   5.588
 7752SOL    HW124155   5.562   6.821   5.542
 7752SOL    HW224156   5.719   6.858   5.569
 7753SOL     OW24157   2.729   1.126   3.775
 7753SOL    HW124158   2.736   1.027   3.770
 7753SOL    HW224159   2.814   1.164   3.812
 7754SOL     OW24160   3.424   6.056   1.323
 7754SOL    HW124161   3.384   5.965   1.324
 7754SOL    HW224162   3.513   6.052   1.277
 7755SOL     OW24163   2.410   2.453   5.321
 7755SOL    HW124164   2.411   2.366   5.271
 7755SOL    HW224165   2.479   2.514   5.282
 7756SOL     OW24166   2.848   5.866   2.941
 7756SOL    HW124167   2.793   5.921   3.004
 7756SOL    HW224168   2.909   5.926   2.889
 7757SOL     OW24169   5.355   4.783   0.358
 7757SOL    HW124170   5.386   4.817   0.447
 7757SOL    HW224171   5.257   4.762   0.363
 7758SOL     OW24172   2.227   0.468   5.750
 7758SOL    HW124173   2.158   0.476   5.822
 7758SOL    HW224174   2.318   0.458   5.793
 7759SOL     OW24175   1.898   2.256   5.568
 7759SOL    HW124176   1.935   2.194   5.637
 7759SOL    HW224177   1.924   2.223   5.477
 7760SOL     OW24178   5.757   3.507   2.451
 7760SOL    HW124179   5.662   3.533   2.470
 7760SOL    HW224180   5.781   3.425   2.503
 7761SOL     OW24181   6.728   0.158   4.599
 7761SOL    HW124182   6.784   0.130   4.677
 7761SOL    HW224183   6.634   0.176   4.629
 7762SOL     OW24184   2.414   0.324   4.075
 7762SOL    HW124185   2.333   0.269   4.054
 7762SOL    HW224186   2.389   0.420   4.085
 7763SOL     OW24187   2.453   0.247   6.925
 7763SOL    HW124188   2.362   0.205   6.923
 7763SOL    HW224189   2.458   0.312   7.000
 7764SOL     OW24190   3.629   3.493   5.069
 7764SOL    HW124191   3.701   3.536   5.014
 7764SOL    HW224192   3.548   3.480   5.012
 7765SOL     OW24193   5.802   4.126   5.074
 7765SOL    HW124194   5.833   4.127   5.169
 7765SOL    HW224195   5.861   4.185   5.019
 7766SOL     OW24196   6.707   3.960   6.875
 7766SOL    HW124197   6.739   3.985   6.784
 7766SOL    HW224198   6.739   4.028   6.941
 7767SOL     OW24199   4.867   6.146   2.519
 7767SOL    HW124200   4.884   6.110   2.427
 7767SOL    HW224201   4.954   6.160   2.566
 7768SOL     OW24202   4.438   4.606   3.384
 7768SOL    HW124203   4.364   4.667   3.356
 7768SOL    HW224204   4.417   4.569   3.475
 7769SOL     OW24205   4.601   1.585   3.644
 7769SOL    HW124206   4.645   1.500   3.616
 7769SOL    HW224207   4.510   1.590   3.603
 7770SOL     OW24208   1.792   4.149   4.504
 7770SOL    HW124209   1.854   4.148   4.582
 7770SOL    HW224210   1.730   4.071   4.508
 7771SOL     OW24211   3.790   1.880   5.345
 7771SOL    HW124212   3.880   1.855   5.308
 7771SOL    HW224213   3.729   1.801   5.339
 7772SOL     OW24214   4.584   0.204   2.092
 7772SOL    HW124215   4.509   0.271   2.090
 7772SOL    HW224216   4.671   0.253   2.094
 7773SOL     OW24217   2.224   5.143   5.366
 7773SOL    HW124218   2.151   5.171   5.304
 7773SOL    HW224219   2.247   5.047   5.349
 7774SOL     OW24220   4.935   1.765   4.453
 7774SOL    HW124221   4.979   1.675   4.449
 7774SOL    HW224222   4.985   1.829   4.393
 7775SOL     OW24223   4.811   6.249   0.563
 7775SOL    HW124224   4.775   6.157   0.549
 7775SOL    HW224225   4.746   6.303   0.616
 7776SOL     OW24226   0.244   6.054   6.728
 7776SOL    HW124227   0.239   5.955   6.740
 7776SOL    HW224228   0.285   6.075   6.640
 7777SOL     OW24229   6.001   5.636   3.855
 7777SOL    HW124230   5.923   5.637   3.916
 7777SOL    HW224231   5.981   5.689   3.772
 7778SOL     OW24232   5.679   3.820   0.794
 7778SOL    HW124233   5.692   3.832   0.892
 7778SOL    HW224234   5.610   3.749   0.777
 7779SOL     OW24235   2.451   2.153   1.491
 7779SOL    HW124236   2.385   2.104   1.548
 7779SOL    HW224237   2.410   2.174   1.402
 7780SOL     OW24238   0.566   5.254   5.605
 7780SOL    HW124239   0.496   5.233   5.536
 7780SOL    HW224240   0.587   5.171   5.656
 7781SOL     OW24241   2.285   4.479   1.503
 7781SOL    HW124242   2.219   4.550   1.481
 7781SOL    HW224243   2.251   4.424   1.579
 7782SOL     OW24244   5.428   5.012   4.925
 7782SOL    HW124245   5.347   5.050   4.881
 7782SOL    HW224246   5.408   4.919   4.957
 7783SOL     OW24247   0.778   6.823   5.600
 7783SOL    HW124248   0.734   6.737   5.575
 7783SOL    HW224249   0.862   6.834   5.547
 7784SOL     OW24250   3.754   2.883   1.860
 7784SOL    HW124251   3.802   2.932   1.933
 7784SOL    HW224252   3.657   2.878   1.883
 7785SOL     OW24253   1.843   6.145   5.011
 7785SOL    HW124254   1.892   6.114   5.093
 7785SOL    HW224255   1.876   6.236   4.986
 7786SOL     OW24256   3.744   6.974   0.707
 7786SOL    HW124257   3.803   6.911   0.756
 7786SOL    HW224258   3.694   0.007   0.772
 7787SOL     OW24259   2.383   2.943   0.135
 7787SOL    HW124260   2.371   3.013   0.064
 7787SOL    HW224261   2.327   2.966   0.214
 7788SOL     OW24262   2.137   4.991   1.441
 7788SOL    HW124263   2.053   5.020   1.395
 7788SOL    HW224264   2.214   5.043   1.404
 7789SOL     OW24265   2.604   0.051   6.626
 7789SOL    HW124266   2.555   6.993   6.653
 7789SOL    HW224267   2.692   0.054   6.672
 7790SOL     OW24268   5.463   5.532   2.370
 7790SOL    HW124269   5.550   5.484   2.381
 7790SOL    HW224270   5.388   5.472   2.396
 7791SOL     OW24271   2.261   5.376   2.878
 7791SOL    HW124272   2.273   5.392   2.976
 7791SOL    HW224273   2.174   5.414   2.848
 7792SOL     OW24274   2.119   5.397   4.696
 7792SOL    HW124275   2.077   5.307   4.687
 7792SOL    HW224276   2.076   5.460   4.631
 7793SOL     OW24277   4.088   1.093   0.251
 7793SOL    HW124278   4.024   1.047   0.189
 7793SOL    HW224279   4.047   1.178   0.285
 7794SOL     OW24280   6.672   3.863   2.399
 7794SOL    HW124281   6.688   3.832   2.493
 7794SOL    HW224282   6.578   3.845   2.373
 7795SOL     OW24283   1.965   4.520   5.299
 7795SOL    HW124284   1.879   4.489   5.341
 7795SOL    HW224285   1.976   4.618   5.314
 7796SOL     OW24286   3.776   2.938   5.021
 7796SOL    HW124287   3.797   2.937   4.923
 7796SOL    HW224288   3.692   2.990   5.037
 7797SOL     OW24289   1.670   6.587   1.607
 7797SOL    HW124290   1.693   6.491   1.617
 7797SOL    HW224291   1.571   6.600   1.619
 7798SOL     OW24292   1.164   3.230   3.417
 7798SOL    HW124293   1.201   3.216   3.325
 7798SOL    HW224294   1.198   3.158   3.478
 7799SOL     OW24295   1.450   5.099   2.449
 7799SOL    HW124296   1.510   5.069   2.524
 7799SOL    HW224297   1.457   5.199   2.440
 7800SOL     OW24298   0.959   5.616   3.024
 7800SOL    HW124299   0.962   5.522   2.990
 7800SOL    HW224300   0.971   5.679   2.947
 7801SOL     OW24301   1.953   1.779   1.584
 7801SOL    HW124302   2.025   1.778   1.653
 7801SOL    HW224303   1.962   1.699   1.525
 7802SOL     OW24304   6.605   2.852   1.128
 7802SOL    HW124305   6.686   2.809   1.088
 7802SOL    HW224306   6.611   2.847   1.228
 7803SOL     OW24307   4.278   2.203   6.500
 7803SOL    HW124308   4.314   2.296   6.513
 7803SOL    HW224309   4.353   2.137   6.505
 7804SOL     OW24310   4.747   2.158   5.274
 7804SOL    HW124311   4.691   2.240   5.283
 7804SOL    HW224312   4.717   2.089   5.340
 7805SOL     OW24313   5.164   3.240   1.716
 7805SOL    HW124314   5.260   3.265   1.702
 7805SOL    HW224315   5.150   3.145   1.691
 7806SOL     OW24316   5.985   1.381   6.084
 7806SOL    HW124317   5.942   1.467   6.111
 7806SOL    HW224318   6.039   1.345   6.161
 7807SOL     OW24319   1.033   4.395   6.172
 7807SOL    HW124320   0.955   4.381   6.234
 7807SOL    HW224321   1.079   4.307   6.157
 7808SOL     OW24322   5.872   3.113   3.896
 7808SOL    HW124323   5.772   3.104   3.899
 7808SOL    HW224324   5.896   3.207   3.873
 7809SOL     OW24325   4.795   4.836   5.021
 7809SOL    HW124326   4.838   4.762   5.073
 7809SOL    HW224327   4.845   4.851   4.936
 7810SOL     OW24328   3.443   6.727   4.985
 7810SOL    HW124329   3.500   6.696   4.908
 7810SOL    HW224330   3.440   6.656   5.055
 7811SOL     OW24331   1.363   5.222   1.557
 7811SOL    HW124332   1.272   5.248   1.585
 7811SOL    HW224333   1.401   5.157   1.623
 7812SOL     OW24334   1.009   2.466   4.374
 7812SOL    HW124335   1.052   2.421   4.296
 7812SOL    HW224336   0.953   2.542   4.342
 7813SOL     OW24337   4.097   1.961   1.067
 7813SOL    HW124338   4.017   1.990   1.015
 7813SOL    HW224339   4.078   1.875   1.114
 7814SOL     OW24340   6.735   3.175   3.105
 7814SOL    HW124341   6.745   3.134   3.015
 7814SOL    HW224342   6.821   3.217   3.133
 7815SOL     OW24343   5.590   1.950   3.976
 7815SOL    HW124344   5.534   1.948   4.058
 7815SOL    HW224345   5.651   2.029   3.979
 7816SOL     OW24346   1.453   2.170   6.179
 7816SOL    HW124347   1.526   2.105   6.200
 7816SOL    HW224348   1.365   2.127   6.198
 7817SOL     OW24349   4.728   4.559   4.469
 7817SOL    HW124350   4.667   4.630   4.504
 7817SOL    HW224351   4.706   4.471   4.512
 7818SOL     OW24352   5.131   0.221   2.553
 7818SOL    HW124353   5.226   0.251   2.565
 7818SOL    HW224354   5.127   0.153   2.480
 7819SOL     OW24355   7.013   3.916   3.792
 7819SOL    HW124356   0.069   3.947   3.843
 7819SOL    HW224357   6.942   3.986   3.797
 7820SOL     OW24358   1.539   1.370   5.790
 7820SOL    HW124359   1.513   1.442   5.855
 7820SOL    HW224360   1.535   1.407   5.697
 7821SOL     OW24361   5.447   5.174   0.191
 7821SOL    HW124362   5.465   5.270   0.169
 7821SOL    HW224363   5.404   5.130   0.112
 7822SOL     OW24364   0.874   0.955   7.014
 7822SOL    HW124365   0.898   1.009   6.933
 7822SOL    HW224366   0.931   0.983   0.067
 7823SOL     OW24367   2.943   3.666   6.107
 7823SOL    HW124368   3.030   3.687   6.151
 7823SOL    HW224369   2.876   3.639   6.177
 7824SOL     OW24370   6.030   0.986   3.755
 7824SOL    HW124371   6.051   0.896   3.792
 7824SOL    HW224372   5.987   0.976   3.665
 7825SOL     OW24373   1.202   3.139   0.915
 7825SOL    HW124374   1.102   3.142   0.917
 7825SOL    HW224375   1.232   3.048   0.886
 7826SOL     OW24376   6.407   1.559   6.558
 7826SOL    HW124377   6.336   1.621   6.591
 7826SOL    HW224378   6.390   1.467   6.593
 7827SOL     OW24379   3.037   4.373   0.814
 7827SOL    HW124380   3.026   4.315   0.733
 7827SOL    HW224381   2.993   4.330   0.892
 7828SOL     OW24382   0.548   5.267   0.438
 7828SOL    HW124383   0.492   5.186   0.456
 7828SOL    HW224384   0.488   5.345   0.420
 7829SOL     OW24385   2.229   2.907   0.381
 7829SOL    HW124386   2.178   2.840   0.327
 7829SOL    HW224387   2.165   2.966   0.431
 7830SOL     OW24388   4.228   3.400   5.893
 7830SOL    HW124389   4.140   3.416   5.938
 7830SOL    HW224390   4.286   3.481   5.905
 7831SOL     OW24391   1.217   5.704   0.946
 7831SOL    HW124392   1.152   5.777   0.926
 7831SOL    HW224393   1.251   5.714   1.040
 7832SOL     OW24394   3.659   1.365   4.281
 7832SOL    HW124395   3.699   1.437   4.337
 7832SOL    HW224396   3.717   1.349   4.200
 7833SOL     OW24397   0.839   0.435   0.041
 7833SOL    HW124398   0.842   0.533   0.023
 7833SOL    HW224399   0.752   0.398   0.009
 7834SOL     OW24400   0.258   1.159   3.803
 7834SOL    HW124401   0.210   1.161   3.890
 7834SOL    HW224402   0.199   1.196   3.731
 7835SOL     OW24403   2.222   2.088   4.727
 7835SOL    HW124404   2.220   2.188   4.729
 7835SOL    HW224405   2.185   2.053   4.813
 7836SOL     OW24406   3.352   2.917   5.250
 7836SOL    HW124407   3.318   2.823   5.252
 7836SOL    HW224408   3.308   2.970   5.323
 7837SOL     OW24409   6.833   5.323   1.478
 7837SOL    HW124410   6.808   5.260   1.403
 7837SOL    HW224411   6.907   5.383   1.447
 7838SOL     OW24412   4.328   6.383   0.657
 7838SOL    HW124413   4.382   6.327   0.594
 7838SOL    HW224414   4.232   6.378   0.631
 7839SOL     OW24415   5.856   4.429   5.163
 7839SOL    HW124416   5.872   4.526   5.183
 7839SOL    HW224417   5.886   4.373   5.240
 7840SOL     OW24418   5.041   3.113   4.474
 7840SOL    HW124419   5.055   3.189   4.538
 7840SOL    HW224420   5.006   3.034   4.523
 7841SOL     OW24421   4.649   1.530   6.908
 7841SOL    HW124422   4.703   1.467   6.852
 7841SOL    HW224423   4.646   1.497   7.002
 7842SOL     OW24424   1.904   1.373   2.601
 7842SOL    HW124425   1.870   1.420   2.682
 7842SOL    HW224426   1.967   1.433   2.551
 7843SOL     OW24427   5.052   4.557   2.151
 7843SOL    HW124428   5.050   4.472   2.098
 7843SOL    HW224429   4.959   4.583   2.178
 7844SOL     OW24430   4.655   6.752   3.583
 7844SOL    HW124431   4.632   6.695   3.663
 7844SOL    HW224432   4.573   6.764   3.527
 7845SOL     OW24433   5.951   1.462   4.083
 7845SOL    HW124434   5.967   1.544   4.028
 7845SOL    HW224435   5.853   1.442   4.084
 7846SOL     OW24436   0.985   1.327   2.081
 7846SOL    HW124437   0.931   1.250   2.113
 7846SOL    HW224438   1.050   1.296   2.011
 7847SOL     OW24439   6.475   1.937   2.277
 7847SOL    HW124440   6.466   1.904   2.371
 7847SOL    HW224441   6.542   1.882   2.228
 7848SOL     OW24442   3.159   3.268   0.749
 7848SOL    HW124443   3.164   3.286   0.847
 7848SOL    HW224444   3.076   3.309   0.712
 7849SOL     OW24445   4.917   3.842   3.166
 7849SOL    HW124446   5.000   3.789   3.152
 7849SOL    HW224447   4.885   3.831   3.260
 7850SOL     OW24448   0.758   1.606   3.708
 7850SOL    HW124449   0.688   1.617   3.638
 7850SOL    HW224450   0.747   1.518   3.753
 7851SOL     OW24451   6.469   0.185   1.415
 7851SOL    HW124452   6.449   0.131   1.333
 7851SOL    HW224453   6.568   0.192   1.427
 7852SOL     OW24454   2.685   0.193   5.592
 7852SOL    HW124455   2.589   0.213   5.575
 7852SOL    HW224456   2.706   0.210   5.689
 7853SOL     OW24457   3.997   1.377   1.969
 7853SOL    HW124458   3.939   1.334   2.038
 7853SOL    HW224459   4.092   1.350   1.984
 7854SOL     OW24460   2.863   3.076   0.301
 7854SOL    HW124461   2.774   3.077   0.345
 7854SOL    HW224462   2.869   2.997   0.239
 7855SOL     OW24463   2.787   5.615   5.938
 7855SOL    HW124464   2.785   5.659   6.028
 7855SOL    HW224465   2.694   5.595   5.908
 7856SOL     OW24466   5.719   5.129   5.032
 7856SOL    HW124467   5.630   5.108   4.993
 7856SOL    HW224468   5.784   5.057   5.008
 7857SOL     OW24469   6.225   2.638   5.287
 7857SOL    HW124470   6.200   2.553   5.241
 7857SOL    HW224471   6.268   2.700   5.222
 7858SOL     OW24472   4.993   4.939   3.423
 7858SOL    HW124473   4.986   5.037   3.402
 7858SOL    HW224474   5.025   4.927   3.517
 7859SOL     OW24475   6.047   3.305   5.595
 7859SOL    HW124476   6.039   3.319   5.496
 7859SOL    HW224477   6.024   3.211   5.617
 7860SOL     OW24478   4.548   0.151   2.798
 7860SOL    HW124479   4.549   0.149   2.698
 7860SOL    HW224480   4.515   0.064   2.833
 7861SOL     OW24481   4.124   5.265   1.848
 7861SOL    HW124482   4.194   5.254   1.777
 7861SOL    HW224483   4.159   5.325   1.920
 7862SOL     OW24484   2.981   4.527   1.474
 7862SOL    HW124485   2.997   4.468   1.553
 7862SOL    HW224486   2.884   4.552   1.471
 7863SOL     OW24487   6.628   6.096   3.759
 7863SOL    HW124488   6.613   6.036   3.838
 7863SOL    HW224489   6.725   6.095   3.734
 7864SOL     OW24490   0.296   6.675   5.532
 7864SOL    HW124491   0.300   6.724   5.446
 7864SOL    HW224492   0.227   6.602   5.527
 7865SOL     OW24493   5.465   0.111   4.687
 7865SOL    HW124494   5.559   0.113   4.721
 7865SOL    HW224495   5.415   0.190   4.722
 7866SOL     OW24496   2.007   2.597   0.044
 7866SOL    HW124497   2.049   2.523   0.097
 7866SOL    HW224498   1.909   2.581   0.037
 7867SOL     OW24499   5.467   6.739   2.530
 7867SOL    HW124500   5.498   6.799   2.604
 7867SOL    HW224501   5.367   6.743   2.524
 7868SOL     OW24502   5.748   6.411   1.993
 7868SOL    HW124503   5.656   6.371   1.996
 7868SOL    HW224504   5.749   6.484   1.923
 7869SOL     OW24505   5.392   3.281   6.823
 7869SOL    HW124506   5.390   3.287   6.723
 7869SOL    HW224507   5.326   3.345   6.861
 7870SOL     OW24508   4.228   5.032   4.326
 7870SOL    HW124509   4.223   5.086   4.410
 7870SOL    HW224510   4.153   4.967   4.323
 7871SOL     OW24511   5.431   3.383   2.678
 7871SOL    HW124512   5.439   3.338   2.590
 7871SOL    HW224513   5.515   3.432   2.699
 7872SOL     OW24514   2.245   4.155   2.781
 7872SOL    HW124515   2.322   4.196   2.731
 7872SOL    HW224516   2.258   4.170   2.879
 7873SOL     OW24517   5.790   0.659   5.431
 7873SOL    HW124518   5.786   0.758   5.424
 7873SOL    HW224519   5.848   0.633   5.509
 7874SOL     OW24520   5.101   1.731   0.931
 7874SOL    HW124521   5.043   1.691   0.860
 7874SOL    HW224522   5.055   1.723   1.019
 7875SOL     OW24523   4.708   2.180   6.610
 7875SOL    HW124524   4.649   2.106   6.579
 7875SOL    HW224525   4.800   2.167   6.572
 7876SOL     OW24526   0.044   6.878   5.308
 7876SOL    HW124527   0.010   6.810   5.244
 7876SOL    HW224528   0.079   6.957   5.258
 7877SOL     OW24529   6.721   2.888   2.861
 7877SOL    HW124530   6.706   2.796   2.825
 7877SOL    HW224531   6.818   2.899   2.884
 7878SOL     OW24532   4.945   5.109   3.962
 7878SOL    HW124533   4.890   5.096   4.044
 7878SOL    HW224534   4.909   5.052   3.888
 7879SOL     OW24535   4.488   5.580   3.134
 7879SOL    HW124536   4.515   5.675   3.118
 7879SOL    HW224537   4.559   5.534   3.186
 7880SOL     OW24538   1.887   5.613   0.897
 7880SOL    HW124539   1.946   5.573   0.968
 7880SOL    HW224540   1.793   5.615   0.930
 7881SOL     OW24541   5.409   3.969   4.811
 7881SOL    HW124542   5.444   4.018   4.731
 7881SOL    HW224543   5.481   3.963   4.881
 7882SOL     OW24544   1.387   3.624   2.582
 7882SOL    HW124545   1.433   3.654   2.499
 7882SOL    HW224546   1.440   3.551   2.625
 7883SOL     OW24547   1.415   6.815   1.097
 7883SOL    HW124548   1.375   6.823   1.005
 7883SOL    HW224549   1.346   6.780   1.160
 7884SOL     OW24550   1.965   3.598   3.983
 7884SOL    HW124551   2.045   3.589   4.044
 7884SOL    HW224552   1.996   3.593   3.888
 7885SOL     OW24553   5.790   6.498   1.511
 7885SOL    HW124554   5.698   6.529   1.486
 7885SOL    HW224555   5.782   6.426   1.580
 7886SOL     OW24556   4.109   5.105   1.036
 7886SOL    HW124557   4.011   5.125   1.033
 7886SOL    HW224558   4.158   5.177   0.987
 7887SOL     OW24559   3.260   2.596   5.318
 7887SOL    HW124560   3.238   2.584   5.415
 7887SOL    HW224561   3.251   2.509   5.271
 7888SOL     OW24562   6.850   0.276   4.962
 7888SOL    HW124563   6.926   0.294   5.025
 7888SOL    HW224564   6.821   0.361   4.919
 7889SOL     OW24565   0.657   4.727   0.089
 7889SOL    HW124566   0.641   4.629   0.077
 7889SOL    HW224567   0.754   4.743   0.107
 7890SOL     OW24568   0.423   3.161   3.634
 7890SOL    HW124569   0.333   3.120   3.650
 7890SOL    HW224570   0.488   3.125   3.701
 7891SOL     OW24571   2.001   4.212   4.693
 7891SOL    HW124572   2.023   4.303   4.728
 7891SOL    HW224573   2.060   4.191   4.615
 7892SOL     OW24574   1.765   1.709   4.016
 7892SOL    HW124575   1.819   1.753   3.944
 7892SOL    HW224576   1.823   1.692   4.095
 7893SOL     OW24577   6.371   6.577   1.950
 7893SOL    HW124578   6.314   6.643   1.901
 7893SOL    HW224579   6.437   6.537   1.887
 7894SOL     OW24580   3.163   0.655   1.046
 7894SOL    HW124581   3.102   0.579   1.067
 7894SOL    HW224582   3.249   0.619   1.008
 7895SOL     OW24583   4.940   0.637   4.394
 7895SOL    HW124584   4.979   0.667   4.482
 7895SOL    HW224585   4.847   0.604   4.408
 7896SOL     OW24586   4.335   2.624   1.189
 7896SOL    HW124587   4.309   2.713   1.151
 7896SOL    HW224588   4.433   2.609   1.173
 7897SOL     OW24589   3.279   2.177   1.406
 7897SOL    HW124590   3.322   2.094   1.441
 7897SOL    HW224591   3.272   2.244   1.480
 7898SOL     OW24592   3.865   0.162   3.811
 7898SOL    HW124593   3.771   0.159   3.779
 7898SOL    HW224594   3.926   0.188   3.736
 7899SOL     OW24595   5.698   6.921   1.207
 7899SOL    HW124596   5.745   6.839   1.173
 7899SOL    HW224597   5.729   7.001   1.155
 7900SOL     OW24598   1.123   5.442   1.391
 7900SOL    HW124599   1.082   5.356   1.361
 7900SOL    HW224600   1.060   5.490   1.452
 7901SOL     OW24601   4.129   0.713   0.012
 7901SOL    HW124602   4.205   0.667   0.059
 7901SOL    HW224603   4.161   0.801   7.000
 7902SOL     OW24604   6.821   6.132   2.136
 7902SOL    HW124605   6.837   6.056   2.199
 7902SOL    HW224606   6.726   6.129   2.104
 7903SOL     OW24607   4.693   1.632   2.972
 7903SOL    HW124608   4.747   1.651   2.890
 7903SOL    HW224609   4.626   1.705   2.986
 7904SOL     OW24610   5.953   6.525   2.747
 7904SOL    HW124611   5.968   6.608   2.802
 7904SOL    HW224612   5.927   6.551   2.654
 7905SOL     OW24613   5.875   2.550   0.688
 7905SOL    HW124614   5.878   2.535   0.786
 7905SOL    HW224615   5.968   2.550   0.651
 7906SOL     OW24616   0.499   5.091   0.822
 7906SOL    HW124617   0.584   5.049   0.790
 7906SOL    HW224618   0.515   5.188   0.841
 7907SOL     OW24619   5.825   1.987   3.705
 7907SOL    HW124620   5.789   1.961   3.795
 7907SOL    HW224621   5.904   2.047   3.717
 7908SOL     OW24622   1.816   0.566   5.798
 7908SOL    HW124623   1.811   0.664   5.781
 7908SOL    HW224624   1.737   0.537   5.852
 7909SOL     OW24625   5.008   4.327   4.038
 7909SOL    HW124626   5.104   4.310   4.059
 7909SOL    HW224627   4.954   4.326   4.122
 7910SOL     OW24628   2.318   3.268   0.582
 7910SOL    HW124629   2.350   3.350   0.535
 7910SOL    HW224630   2.358   3.265   0.673
 7911SOL     OW24631   0.962   4.583   0.272
 7911SOL    HW124632   0.952   4.674   0.233
 7911SOL    HW224633   1.038   4.583   0.337
 7912SOL     OW24634   6.294   4.269   1.318
 7912SOL    HW124635   6.232   4.213   1.264
 7912SOL    HW224636   6.249   4.355   1.343
 7913SOL     OW24637   1.275   4.477   1.631
 7913SOL    HW124638   1.204   4.445   1.695
 7913SOL    HW224639   1.305   4.400   1.574
 7914SOL     OW24640   0.054   4.643   0.473
 7914SOL    HW124641   0.130   4.674   0.531
 7914SOL    HW224642   6.992   4.659   0.520
 7915SOL     OW24643   5.079   2.286   1.846
 7915SOL    HW124644   5.122   2.331   1.924
 7915SOL    HW224645   4.982   2.310   1.843
 7916SOL     OW24646   7.014   6.482   5.987
 7916SOL    HW124647   6.990   6.393   5.948
 7916SOL    HW224648   6.945   6.508   6.055
 7917SOL     OW24649   3.498   3.116   5.165
 7917SOL    HW124650   3.457   3.027   5.187
 7917SOL    HW224651   3.498   3.174   5.247
 7918SOL     OW24652   6.558   1.293   4.680
 7918SOL    HW124653   6.544   1.388   4.651
 7918SOL    HW224654   6.513   1.278   4.768
 7919SOL     OW24655   1.613   4.713   3.249
 7919SOL    HW124656   1.596   4.694   3.345
 7919SOL    HW224657   1.700   4.671   3.221
 7920SOL     OW24658   6.632   0.438   0.499
 7920SOL    HW124659   6.677   0.356   0.534
 7920SOL    HW224660   6.541   0.447   0.539
 7921SOL     OW24661   6.312   6.131   1.764
 7921SOL    HW124662   6.358   6.093   1.844
 7921SOL    HW224663   6.245   6.199   1.793
 7922SOL     OW24664   0.507   6.034   0.869
 7922SOL    HW124665   0.429   6.051   0.809
 7922SOL    HW224666   0.513   6.108   0.937
 7923SOL     OW24667   4.163   0.825   6.431
 7923SOL    HW124668   4.109   0.799   6.511
 7923SOL    HW224669   4.180   0.743   6.375
 7924SOL     OW24670   4.905   0.046   2.085
 7924SOL    HW124671   4.904   0.146   2.089
 7924SOL    HW224672   4.858   0.016   2.002
 7925SOL     OW24673   0.680   0.154   0.488
 7925SOL    HW124674   0.592   0.126   0.450
 7925SOL    HW224675   0.729   0.210   0.422
 7926SOL     OW24676   4.019   1.849   6.417
 7926SOL    HW124677   3.924   1.872   6.440
 7926SOL    HW224678   4.048   1.770   6.471
 7927SOL     OW24679   4.203   5.938   2.672
 7927SOL    HW124680   4.168   5.868   2.734
 7927SOL    HW224681   4.189   6.029   2.713
 7928SOL     OW24682   1.246   1.684   3.868
 7928SOL    HW124683   1.333   1.641   3.847
 7928SOL    HW224684   1.210   1.727   3.785
 7929SOL     OW24685   4.088   3.827   5.205
 7929SOL    HW124686   4.167   3.781   5.245
 7929SOL    HW224687   4.072   3.793   5.112
 7930SOL     OW24688   4.075   5.133   5.285
 7930SOL    HW124689   4.043   5.159   5.376
 7930SOL    HW224690   4.165   5.173   5.269
 7931SOL     OW24691   2.955   2.922   0.097
 7931SOL    HW124692   2.990   3.011   0.066
 7931SOL    HW224693   2.912   2.875   0.021
 7932SOL     OW24694   1.230   6.427   6.372
 7932SOL    HW124695   1.143   6.416   6.420
 7932SOL    HW224696   1.293   6.480   6.428
 7933SOL     OW24697   6.988   6.803   6.279
 7933SOL    HW124698   6.906   6.802   6.222
 7933SOL    HW224699   0.004   6.895   6.277
 7934SOL     OW24700   1.168   4.873   6.397
 7934SOL    HW124701   1.138   4.954   6.347
 7934SOL    HW224702   1.140   4.791   6.348
 7935SOL     OW24703   5.748   5.920   1.025
 7935SOL    HW124704   5.711   6.013   1.024
 7935SOL    HW224705   5.748   5.885   1.119
 7936SOL     OW24706   3.233   5.846   1.796
 7936SOL    HW124707   3.222   5.747   1.800
 7936SOL    HW224708   3.290   5.871   1.718
 7937SOL     OW24709   6.568   5.910   3.965
 7937SOL    HW124710   6.665   5.888   3.981
 7937SOL    HW224711   6.514   5.826   3.974
 7938SOL     OW24712   6.190   6.163   4.002
 7938SOL    HW124713   6.277   6.162   4.052
 7938SOL    HW224714   6.153   6.070   3.998
 7939SOL     OW24715   1.555   2.403   4.749
 7939SOL    HW124716   1.532   2.498   4.770
 7939SOL    HW224717   1.644   2.400   4.703
 7940SOL     OW24718   1.546   4.026   1.986
 7940SOL    HW124719   1.527   4.047   2.082
 7940SOL    HW224720   1.541   4.110   1.932
 7941SOL     OW24721   6.027   6.460   1.293
 7941SOL    HW124722   6.117   6.500   1.275
 7941SOL    HW224723   6.002   6.475   1.388
 7942SOL     OW24724   6.757   4.914   2.593
 7942SOL    HW124725   6.686   4.856   2.554
 7942SOL    HW224726   6.840   4.907   2.537
 7943SOL     OW24727   0.520   3.985   6.375
 7943SOL    HW124728   0.431   4.030   6.368
 7943SOL    HW224729   0.541   3.938   6.289
 7944SOL     OW24730   0.852   2.349   0.857
 7944SOL    HW124731   0.870   2.306   0.769
 7944SOL    HW224732   0.756   2.336   0.881
 7945SOL     OW24733   6.433   5.593   1.079
 7945SOL    HW124734   6.345   5.621   1.118
 7945SOL    HW224735   6.426   5.500   1.044
 7946SOL     OW24736   3.799   0.214   5.735
 7946SOL    HW124737   3.870   0.222   5.665
 7946SOL    HW224738   3.811   0.128   5.785
 7947SOL     OW24739   3.417   1.259   5.573
 7947SOL    HW124740   3.464   1.281   5.658
 7947SOL    HW224741   3.327   1.220   5.594
 7948SOL     OW24742   1.209   6.363   1.138
 7948SOL    HW124743   1.253   6.282   1.098
 7948SOL    HW224744   1.222   6.441   1.078
 7949SOL     OW24745   4.839   4.100   5.584
 7949SOL    HW124746   4.884   4.094   5.495
 7949SOL    HW224747   4.804   4.010   5.610
 7950SOL     OW24748   4.870   5.390   3.984
 7950SOL    HW124749   4.771   5.374   3.980
 7950SOL    HW224750   4.918   5.304   3.964
 7951SOL     OW24751   2.108   5.201   2.620
 7951SOL    HW124752   2.067   5.284   2.583
 7951SOL    HW224753   2.207   5.212   2.626
 7952SOL     OW24754   6.996   3.363   6.666
 7952SOL    HW124755   6.932   3.303   6.714
 7952SOL    HW224756   6.944   3.430   6.613
 7953SOL     OW24757   3.520   1.998   3.169
 7953SOL    HW124758   3.576   2.062   3.116
 7953SOL    HW224759   3.562   1.907   3.167
 7954SOL     OW24760   3.400   4.775   5.941
 7954SOL    HW124761   3.487   4.818   5.917
 7954SOL    HW224762   3.418   4.687   5.985
 7955SOL     OW24763   3.035   1.006   6.626
 7955SOL    HW124764   3.062   0.910   6.637
 7955SOL    HW224765   3.075   1.060   6.700
 7956SOL     OW24766   4.727   6.290   2.280
 7956SOL    HW124767   4.644   6.309   2.229
 7956SOL    HW224768   4.704   6.261   2.372
 7957SOL     OW24769   0.845   0.530   1.546
 7957SOL    HW124770   0.898   0.450   1.571
 7957SOL    HW224771   0.852   0.546   1.448
 7958SOL     OW24772   3.920   4.862   5.320
 7958SOL    HW124773   3.968   4.943   5.285
 7958SOL    HW224774   3.967   4.780   5.289
 7959SOL     OW24775   5.095   5.556   0.821
 7959SOL    HW124776   5.139   5.630   0.872
 7959SOL    HW224777   5.099   5.472   0.876
 7960SOL     OW24778   2.438   1.528   5.784
 7960SOL    HW124779   2.480   1.601   5.732
 7960SOL    HW224780   2.340   1.545   5.793
 7961SOL     OW24781   0.105   1.279   0.494
 7961SOL    HW124782   0.126   1.301   0.589
 7961SOL    HW224783   0.115   1.181   0.479
 7962SOL     OW24784   1.560   0.729   5.765
 7962SOL    HW124785   1.558   0.808   5.827
 7962SOL    HW224786   1.492   0.662   5.795
 7963SOL     OW24787   6.333   6.599   4.597
 7963SOL    HW124788   6.416   6.560   4.557
 7963SOL    HW224789   6.270   6.624   4.524
 7964SOL     OW24790   0.118   3.946   2.941
 7964SOL    HW124791   0.048   4.006   2.979
 7964SOL    HW224792   0.166   3.993   2.866
 7965SOL     OW24793   4.236   2.293   6.166
 7965SOL    HW124794   4.170   2.234   6.212
 7965SOL    HW224795   4.300   2.331   6.233
 7966SOL     OW24796   2.427   2.654   5.925
 7966SOL    HW124797   2.444   2.726   5.992
 7966SOL    HW224798   2.355   2.684   5.862
 7967SOL     OW24799   3.403   6.435   2.443
 7967SOL    HW124800   3.498   6.423   2.412
 7967SOL    HW224801   3.378   6.532   2.435
 7968SOL     OW24802   1.332   2.422   3.466
 7968SOL    HW124803   1.354   2.392   3.559
 7968SOL    HW224804   1.266   2.497   3.471
 7969SOL     OW24805   4.835   5.862   0.567
 7969SOL    HW124806   4.841   5.789   0.499
 7969SOL    HW224807   4.909   5.927   0.554
 7970SOL     OW24808   6.946   2.862   2.220
 7970SOL    HW124809   6.879   2.795   2.251
 7970SOL    HW224810   6.944   2.942   2.280
 7971SOL     OW24811   3.011   2.226   0.867
 7971SOL    HW124812   2.999   2.130   0.841
 7971SOL    HW224813   3.084   2.267   0.811
 7972SOL     OW24814   2.029   2.794   0.228
 7972SOL    HW124815   2.026   2.731   0.150
 7972SOL    HW224816   2.034   2.888   0.195
 7973SOL     OW24817   4.176   4.935   4.846
 7973SOL    HW124818   4.231   4.856   4.817
 7973SOL    HW224819   4.115   4.963   4.771
 7974SOL     OW24820   5.881   0.610   5.162
 7974SOL    HW124821   5.978   0.611   5.141
 7974SOL    HW224822   5.868   0.580   5.256
 7975SOL     OW24823   6.277   1.330   1.934
 7975SOL    HW124824   6.235   1.420   1.940
 7975SOL    HW224825   6.341   1.329   1.857
 7976SOL     OW24826   0.657   0.338   6.104
 7976SOL    HW124827   0.569   0.312   6.064
 7976SOL    HW224828   0.700   0.409   6.047
 7977SOL     OW24829   4.746   5.757   2.874
 7977SOL    HW124830   4.702   5.670   2.897
 7977SOL    HW224831   4.698   5.800   2.798
 7978SOL     OW24832   6.084   2.831   6.251
 7978SOL    HW124833   6.151   2.885   6.201
 7978SOL    HW224834   6.008   2.890   6.280
 7979SOL     OW24835   3.969   5.957   5.679
 7979SOL    HW124836   4.008   5.881   5.731
 7979SOL    HW224837   4.011   5.961   5.589
 7980SOL     OW24838   3.281   5.914   0.081
 7980SOL    HW124839   3.332   5.845   0.132
 7980SOL    HW224840   3.302   5.907   7.008
 7981SOL     OW24841   0.790   4.896   2.288
 7981SOL    HW124842   0.722   4.913   2.218
 7981SOL    HW224843   0.760   4.936   2.375
 7982SOL     OW24844   2.191   1.660   0.300
 7982SOL    HW124845   2.213   1.757   0.305
 7982SOL    HW224846   2.239   1.610   0.372
 7983SOL     OW24847   6.736   2.099   1.443
 7983SOL    HW124848   6.685   2.013   1.442
 7983SOL    HW224849   6.826   2.085   1.402
 7984SOL     OW24850   1.227   1.324   1.074
 7984SOL    HW124851   1.150   1.386   1.089
 7984SOL    HW224852   1.224   1.288   0.981
 7985SOL     OW24853   2.814   0.828   4.598
 7985SOL    HW124854   2.880   0.886   4.550
 7985SOL    HW224855   2.846   0.733   4.595
 7986SOL     OW24856   3.114   0.959   6.214
 7986SOL    HW124857   3.039   0.943   6.278
 7986SOL    HW224858   3.089   1.033   6.151
 7987SOL     OW24859   1.822   2.396   6.808
 7987SOL    HW124860   1.806   2.451   6.890
 7987SOL    HW224861   1.871   2.451   6.740
 7988SOL     OW24862   0.505   2.376   3.419
 7988SOL    HW124863   0.513   2.278   3.403
 7988SOL    HW224864   0.412   2.399   3.448
 7989SOL     OW24865   2.952   3.404   6.711
 7989SOL    HW124866   2.909   3.427   6.623
 7989SOL    HW224867   3.019   3.331   6.697
 7990SOL     OW24868   0.968   4.711   4.323
 7990SOL    HW124869   0.872   4.733   4.336
 7990SOL    HW224870   0.982   4.613   4.335
 7991SOL     OW24871   5.411   0.089   3.135
 7991SOL    HW124872   5.437   7.017   3.127
 7991SOL    HW224873   5.486   0.140   3.178
 7992SOL     OW24874   0.822   6.892   1.020
 7992SOL    HW124875   0.749   6.888   0.952
 7992SOL    HW224876   0.881   6.812   1.012
 7993SOL     OW24877   0.482   6.807   1.056
 7993SOL    HW124878   0.499   6.880   1.122
 7993SOL    HW224879   0.440   6.846   0.974
 7994SOL     OW24880   4.171   6.907   3.459
 7994SOL    HW124881   4.197   6.959   3.378
 7994SOL    HW224882   4.071   6.898   3.462
 7995SOL     OW24883   5.529   5.918   3.475
 7995SOL    HW124884   5.501   5.859   3.400
 7995SOL    HW224885   5.478   6.004   3.472
 7996SOL     OW24886   2.711   0.066   4.931
 7996SOL    HW124887   2.619   0.086   4.899
 7996SOL    HW224888   2.723   0.103   5.023
 7997SOL     OW24889   0.189   1.315   1.494
 7997SOL    HW124890   0.248   1.367   1.556
 7997SOL    HW224891   0.094   1.322   1.524
 7998SOL     OW24892   2.727   0.296   0.184
 7998SOL    HW124893   2.687   0.218   0.137
 7998SOL    HW224894   2.658   0.368   0.193
 7999SOL     OW24895   0.985   0.623   6.253
 7999SOL    HW124896   0.990   0.582   6.162
 7999SOL    HW224897   0.948   0.556   6.317
 8000SOL     OW24898   4.967   0.124   6.960
 8000SOL    HW124899   4.972   0.083   0.027
 8000SOL    HW224900   4.940   0.055   6.893
 8001SOL     OW24901   4.593   6.209   1.601
 8001SOL    HW124902   4.548   6.183   1.687
 8001SOL    HW224903   4.673   6.265   1.621
 8002SOL     OW24904   2.135   1.086   6.216
 8002SOL    HW124905   2.128   1.095   6.315
 8002SOL    HW224906   2.173   0.995   6.193
 8003SOL     OW24907   2.830   5.465   2.094
 8003SOL    HW124908   2.761   5.412   2.045
 8003SOL    HW224909   2.878   5.405   2.158
 8004SOL     OW24910   2.172   2.783   2.640
 8004SOL    HW124911   2.079   2.816   2.653
 8004SOL    HW224912   2.196   2.789   2.543
 8005SOL     OW24913   3.049   1.305   2.925
 8005SOL    HW124914   2.985   1.229   2.910
 8005SOL    HW224915   2.998   1.389   2.940
 8006SOL     OW24916   1.954   6.610   5.682
 8006SOL    HW124917   1.988   6.547   5.612
 8006SOL    HW224918   1.856   6.596   5.695
 8007SOL     OW24919   6.564   1.038   5.677
 8007SOL    HW124920   6.639   1.026   5.612
 8007SOL    HW224921   6.487   1.081   5.631
 8008SOL     OW24922   4.662   6.081   6.684
 8008SOL    HW124923   4.710   6.147   6.626
 8008SOL    HW224924   4.580   6.124   6.723
 8009SOL     OW24925   5.678   0.510   1.687
 8009SOL    HW124926   5.586   0.492   1.722
 8009SOL    HW224927   5.714   0.428   1.643
 8010SOL     OW24928   1.887   1.331   5.506
 8010SOL    HW124929   1.980   1.367   5.512
 8010SOL    HW224930   1.871   1.265   5.579
 8011SOL     OW24931   3.322   2.745   0.721
 8011SOL    HW124932   3.263   2.753   0.802
 8011SOL    HW224933   3.335   2.649   0.699
 8012SOL     OW24934   1.972   4.073   0.506
 8012SOL    HW124935   1.942   4.167   0.523
 8012SOL    HW224936   2.057   4.074   0.453
 8013SOL     OW24937   1.649   5.125   3.069
 8013SOL    HW124938   1.713   5.051   3.085
 8013SOL    HW224939   1.576   5.122   3.137
 8014SOL     OW24940   1.338   6.337   4.944
 8014SOL    HW124941   1.297   6.266   5.000
 8014SOL    HW224942   1.438   6.331   4.950
 8015SOL     OW24943   3.129   0.494   6.210
 8015SOL    HW124944   3.100   0.511   6.116
 8015SOL    HW224945   3.171   0.576   6.248
 8016SOL     OW24946   4.962   0.306   5.622
 8016SOL    HW124947   5.020   0.360   5.684
 8016SOL    HW224948   5.013   0.288   5.537
 8017SOL     OW24949   5.869   0.026   0.661
 8017SOL    HW124950   5.807   6.981   0.623
 8017SOL    HW224951   5.911   7.014   0.744
 8018SOL     OW24952   3.419   1.989   6.601
 8018SOL    HW124953   3.513   1.990   6.567
 8018SOL    HW224954   3.420   2.006   6.700
 8019SOL     OW24955   2.598   4.760   0.501
 8019SOL    HW124956   2.603   4.857   0.476
 8019SOL    HW224957   2.640   4.705   0.429
 8020SOL     OW24958   5.989   0.468   0.314
 8020SOL    HW124959   6.005   0.372   0.295
 8020SOL    HW224960   6.061   0.523   0.272
 8021SOL     OW24961   1.453   2.731   0.772
 8021SOL    HW124962   1.547   2.747   0.801
 8021SOL    HW224963   1.392   2.795   0.819
 8022SOL     OW24964   5.962   0.007   2.889
 8022SOL    HW124965   6.020   0.084   2.864
 8022SOL    HW224966   5.876   0.040   2.929
 8023SOL     OW24967   5.442   5.380   2.800
 8023SOL    HW124968   5.495   5.353   2.880
 8023SOL    HW224969   5.452   5.478   2.785
 8024SOL     OW24970   1.032   4.468   5.886
 8024SOL    HW124971   1.050   4.561   5.855
 8024SOL    HW224972   1.015   4.469   5.985
 8025SOL     OW24973   2.256   5.565   6.853
 8025SOL    HW124974   2.180   5.567   6.789
 8025SOL    HW224975   2.221   5.570   6.947
 8026SOL     OW24976   6.824   4.206   0.005
 8026SOL    HW124977   6.851   4.298   7.000
 8026SOL    HW224978   6.898   4.164   0.057
 8027SOL     OW24979   4.806   0.174   5.098
 8027SOL    HW124980   4.804   0.228   5.013
 8027SOL    HW224981   4.811   0.236   5.176
 8028SOL     OW24982   4.067   5.940   5.422
 8028SOL    HW124983   4.043   5.902   5.333
 8028SOL    HW224984   4.108   6.031   5.409
 8029SOL     OW24985   4.900   2.803   1.178
 8029SOL    HW124986   4.929   2.740   1.107
 8029SOL    HW224987   4.804   2.827   1.164
 8030SOL     OW24988   4.514   4.751   0.401
 8030SOL    HW124989   4.505   4.722   0.306
 8030SOL    HW224990   4.432   4.801   0.429
 8031SOL     OW24991   6.628   6.350   2.474
 8031SOL    HW124992   6.636   6.262   2.428
 8031SOL    HW224993   6.694   6.355   2.550
 8032SOL     OW24994   6.228   4.161   1.581
 8032SOL    HW124995   6.130   4.145   1.570
 8032SOL    HW224996   6.270   4.176   1.492
 8033SOL     OW24997   5.308   1.897   6.034
 8033SOL    HW124998   5.337   1.989   6.060
 8033SOL    HW224999   5.215   1.880   6.066
 8034SOL     OW25000   4.539   0.753   4.775
 8034SOL    HW125001   4.504   0.756   4.869
 8034SOL    HW225002   4.526   0.662   4.737
 8035SOL     OW25003   4.996   1.448   4.260
 8035SOL    HW125004   4.987   1.474   4.356
 8035SOL    HW225005   5.037   1.357   4.254
 8036SOL     OW25006   6.713   3.805   3.749
 8036SOL    HW125007   6.706   3.709   3.723
 8036SOL    HW225008   6.791   3.817   3.811
 8037SOL     OW25009   1.547   3.414   0.066
 8037SOL    HW125010   1.631   3.378   0.025
 8037SOL    HW225011   1.499   3.471   7.023
 8038SOL     OW25012   4.522   0.141   2.524
 8038SOL    HW125013   4.523   0.093   2.436
 8038SOL    HW225014   4.542   0.238   2.510
 8039SOL     OW25015   0.955   2.153   5.470
 8039SOL    HW125016   0.917   2.066   5.500
 8039SOL    HW225017   0.895   2.194   5.401
 8040SOL     OW25018   1.201   5.481   0.047
 8040SOL    HW125019   1.249   5.424   7.004
 8040SOL    HW225020   1.230   5.576   0.038
 8041SOL     OW25021   3.144   1.358   2.685
 8041SOL    HW125022   3.118   1.286   2.621
 8041SOL    HW225023   3.139   1.323   2.778
 8042SOL     OW25024   3.213   2.961   4.205
 8042SOL    HW125025   3.179   2.888   4.264
 8042SOL    HW225026   3.139   3.025   4.186
 8043SOL     OW25027   3.441   6.425   0.894
 8043SOL    HW125028   3.365   6.378   0.938
 8043SOL    HW225029   3.503   6.461   0.964
 8044SOL     OW25030   4.442   2.462   1.718
 8044SOL    HW125031   4.425   2.418   1.630
 8044SOL    HW225032   4.418   2.559   1.711
 8045SOL     OW25033   5.730   2.170   2.886
 8045SOL    HW125034   5.776   2.209   2.966
 8045SOL    HW225035   5.750   2.225   2.805
 8046SOL     OW25036   0.970   4.674   1.820
 8046SOL    HW125037   0.936   4.617   1.894
 8046SOL    HW225038   1.068   4.689   1.832
 8047SOL     OW25039   4.019   5.826   5.175
 8047SOL    HW125040   3.963   5.743   5.171
 8047SOL    HW225041   3.997   5.885   5.097
 8048SOL     OW25042   5.061   1.862   6.120
 8048SOL    HW125043   5.012   1.947   6.141
 8048SOL    HW225044   5.006   1.808   6.056
 8049SOL     OW25045   0.380   0.608   0.490
 8049SOL    HW125046   0.431   0.658   0.560
 8049SOL    HW225047   0.444   0.557   0.433
 8050SOL     OW25048   1.900   3.318   3.313
 8050SOL    HW125049   1.889   3.253   3.389
 8050SOL    HW225050   1.991   3.306   3.272
 8051SOL     OW25051   4.379   5.609   4.441
 8051SOL    HW125052   4.360   5.702   4.411
 8051SOL    HW225053   4.395   5.607   4.540
 8052SOL     OW25054   3.469   1.677   0.668
 8052SOL    HW125055   3.491   1.602   0.730
 8052SOL    HW225056   3.519   1.665   0.582
 8053SOL     OW25057   3.060   3.177   4.144
 8053SOL    HW125058   3.028   3.202   4.235
 8053SOL    HW225059   3.073   3.261   4.089
 8054SOL     OW25060   6.485   5.082   5.097
 8054SOL    HW125061   6.437   5.017   5.156
 8054SOL    HW225062   6.420   5.121   5.031
 8055SOL     OW25063   0.475   0.262   5.361
 8055SOL    HW125064   0.549   0.310   5.408
 8055SOL    HW225065   0.504   0.168   5.342
 8056SOL     OW25066   2.300   1.112   3.475
 8056SOL    HW125067   2.305   1.048   3.551
 8056SOL    HW225068   2.242   1.074   3.403
 8057SOL     OW25069   3.001   2.210   2.750
 8057SOL    HW125070   2.920   2.202   2.691
 8057SOL    HW225071   2.994   2.293   2.805
 8058SOL     OW25072   3.951   0.195   3.323
 8058SOL    HW125073   4.049   0.190   3.304
 8058SOL    HW225074   3.900   0.182   3.237
 8059SOL     OW25075   2.717   1.813   4.836
 8059SOL    HW125076   2.707   1.815   4.736
 8059SOL    HW225077   2.810   1.838   4.861
 8060SOL     OW25078   6.639   2.187   6.112
 8060SOL    HW125079   6.737   2.186   6.135
 8060SOL    HW225080   6.629   2.204   6.014
 8061SOL     OW25081   6.828   0.300   2.624
 8061SOL    HW125082   6.811   0.222   2.564
 8061SOL    HW225083   6.858   0.266   2.714
 8062SOL     OW25084   3.421   5.015   4.589
 8062SOL    HW125085   3.427   4.979   4.495
 8062SOL    HW225086   3.325   5.027   4.614
 8063SOL     OW25087   1.965   2.012   2.079
 8063SOL    HW125088   1.886   1.953   2.060
 8063SOL    HW225089   2.028   2.008   2.002
 8064SOL     OW25090   6.291   2.670   1.327
 8064SOL    HW125091   6.377   2.698   1.370
 8064SOL    HW225092   6.307   2.586   1.274
 8065SOL     OW25093   2.504   5.702   4.338
 8065SOL    HW125094   2.453   5.655   4.265
 8065SOL    HW225095   2.441   5.735   4.408
 8066SOL     OW25096   0.817   1.773   5.337
 8066SOL    HW125097   0.759   1.851   5.314
 8066SOL    HW225098   0.907   1.805   5.366
 8067SOL     OW25099   5.012   2.534   2.594
 8067SOL    HW125100   4.944   2.554   2.524
 8067SOL    HW225101   5.103   2.554   2.559
 8068SOL     OW25102   6.838   4.270   1.399
 8068SOL    HW125103   6.877   4.229   1.317
 8068SOL    HW225104   6.850   4.369   1.395
 8069SOL     OW25105   2.776   5.989   1.191
 8069SOL    HW125106   2.701   6.055   1.197
 8069SOL    HW225107   2.862   6.037   1.176
 8070SOL     OW25108   3.949   3.609   1.164
 8070SOL    HW125109   3.878   3.543   1.142
 8070SOL    HW225110   3.913   3.702   1.153
 8071SOL     OW25111   3.607   6.396   4.535
 8071SOL    HW125112   3.552   6.475   4.561
 8071SOL    HW225113   3.612   6.391   4.435
 8072SOL     OW25114   4.165   1.578   1.002
 8072SOL    HW125115   4.175   1.487   1.043
 8072SOL    HW225116   4.251   1.604   0.958
 8073SOL     OW25117   2.853   5.128   5.237
 8073SOL    HW125118   2.935   5.181   5.216
 8073SOL    HW225119   2.853   5.044   5.183
 8074SOL     OW25120   3.141   2.831   0.885
 8074SOL    HW125121   3.062   2.799   0.937
 8074SOL    HW225122   3.114   2.909   0.828
 8075SOL     OW25123   6.824   6.940   0.595
 8075SOL    HW125124   6.837   6.903   0.687
 8075SOL    HW225125   6.906   6.924   0.541
 8076SOL     OW25126   6.296   0.756   5.351
 8076SOL    HW125127   6.242   0.840   5.341
 8076SOL    HW225128   6.276   0.695   5.275
 8077SOL     OW25129   3.385   6.319   2.700
 8077SOL    HW125130   3.403   6.362   2.612
 8077SOL    HW225131   3.340   6.230   2.685
 8078SOL     OW25132   6.922   2.177   0.701
 8078SOL    HW125133   6.869   2.248   0.656
 8078SOL    HW225134   6.860   2.106   0.734
 8079SOL     OW25135   5.891   1.669   3.621
 8079SOL    HW125136   5.936   1.588   3.658
 8079SOL    HW225137   5.857   1.725   3.697
 8080SOL     OW25138   0.976   3.036   1.602
 8080SOL    HW125139   1.058   3.064   1.554
 8080SOL    HW225140   0.898   3.091   1.571
 8081SOL     OW25141   6.295   5.778   5.472
 8081SOL    HW125142   6.316   5.723   5.553
 8081SOL    HW225143   6.381   5.810   5.431
 8082SOL     OW25144   4.315   6.738   2.477
 8082SOL    HW125145   4.291   6.833   2.495
 8082SOL    HW225146   4.299   6.683   2.560
 8083SOL     OW25147   5.179   2.799   3.212
 8083SOL    HW125148   5.257   2.863   3.212
 8083SOL    HW225149   5.167   2.762   3.120
 8084SOL     OW25150   4.067   6.540   0.524
 8084SOL    HW125151   4.130   6.528   0.447
 8084SOL    HW225152   3.989   6.596   0.494
 8085SOL     OW25153   6.632   6.389   2.200
 8085SOL    HW125154   6.642   6.411   2.297
 8085SOL    HW225155   6.657   6.293   2.184
 8086SOL     OW25156   6.024   0.742   2.487
 8086SOL    HW125157   5.943   0.783   2.446
 8086SOL    HW225158   6.026   0.645   2.466
 8087SOL     OW25159   2.285   0.798   6.886
 8087SOL    HW125160   2.215   0.745   6.933
 8087SOL    HW225161   2.246   0.884   6.853
 8088SOL     OW25162   5.828   1.770   1.485
 8088SOL    HW125163   5.892   1.693   1.492
 8088SOL    HW225164   5.819   1.796   1.389
 8089SOL     OW25165   5.989   2.996   0.753
 8089SOL    HW125166   6.028   2.953   0.672
 8089SOL    HW225167   5.889   2.994   0.747
 8090SOL     OW25168   4.714   2.179   0.175
 8090SOL    HW125169   4.759   2.091   0.186
 8090SOL    HW225170   4.674   2.207   0.262
 8091SOL     OW25171   2.105   3.950   4.835
 8091SOL    HW125172   2.051   4.033   4.825
 8091SOL    HW225173   2.185   3.969   4.893
 8092SOL     OW25174   5.639   2.143   5.170
 8092SOL    HW125175   5.731   2.103   5.173
 8092SOL    HW225176   5.574   2.076   5.205
 8093SOL     OW25177   4.052   4.836   2.870
 8093SOL    HW125178   4.006   4.911   2.822
 8093SOL    HW225179   4.113   4.873   2.939
 8094SOL     OW25180   0.977   3.402   4.694
 8094SOL    HW125181   1.002   3.403   4.597
 8094SOL    HW225182   0.992   3.310   4.731
 8095SOL     OW25183   0.472   4.816   4.289
 8095SOL    HW125184   0.482   4.774   4.380
 8095SOL    HW225185   0.518   4.904   4.288
 8096SOL     OW25186   1.839   6.747   3.130
 8096SOL    HW125187   1.838   6.847   3.118
 8096SOL    HW225188   1.780   6.705   3.062
 8097SOL     OW25189   4.099   6.960   4.217
 8097SOL    HW125190   4.017   6.934   4.268
 8097SOL    HW225191   4.073   6.981   4.123
 8098SOL     OW25192   2.075   6.101   3.314
 8098SOL    HW125193   1.979   6.109   3.342
 8098SOL    HW225194   2.130   6.165   3.368
 8099SOL     OW25195   3.760   6.390   5.000
 8099SOL    HW125196   3.692   6.345   4.942
 8099SOL    HW225197   3.812   6.322   5.051
 8100SOL     OW25198   6.837   0.865   0.516
 8100SOL    HW125199   6.774   0.900   0.586
 8100SOL    HW225200   6.864   0.772   0.540
 8101SOL     OW25201   1.982   6.211   2.350
 8101SOL    HW125202   2.012   6.116   2.364
 8101SOL    HW225203   2.037   6.272   2.407
 8102SOL     OW25204   0.981   4.211   3.615
 8102SOL    HW125205   0.906   4.230   3.679
 8102SOL    HW225206   1.068   4.222   3.663
 8103SOL     OW25207   2.906   6.953   1.144
 8103SOL    HW125208   2.863   0.019   1.145
 8103SOL    HW225209   2.993   6.958   1.095
 8104SOL     OW25210   2.533   0.617   6.268
 8104SOL    HW125211   2.614   0.594   6.215
 8104SOL    HW225212   2.508   0.712   6.252
 8105SOL     OW25213   0.883   2.744   3.051
 8105SOL    HW125214   0.894   2.763   3.149
 8105SOL    HW225215   0.907   2.826   2.999
 8106SOL     OW25216   2.852   6.247   2.866
 8106SOL    HW125217   2.902   6.168   2.902
 8106SOL    HW225218   2.836   6.312   2.940
 8107SOL     OW25219   1.095   4.896   4.516
 8107SOL    HW125220   1.076   4.810   4.467
 8107SOL    HW225221   1.035   4.968   4.481
 8108SOL     OW25222   6.033   3.053   5.969
 8108SOL    HW125223   6.045   3.020   5.876
 8108SOL    HW225224   5.952   3.011   6.010
 8109SOL     OW25225   0.737   3.708   4.585
 8109SOL    HW125226   0.703   3.782   4.527
 8109SOL    HW225227   0.821   3.670   4.545
 8110SOL     OW25228   3.746   5.830   1.134
 8110SOL    HW125229   3.681   5.754   1.128
 8110SOL    HW225230   3.781   5.851   1.043
 8111SOL     OW25231   5.422   1.187   5.202
 8111SOL    HW125232   5.398   1.279   5.233
 8111SOL    HW225233   5.348   1.151   5.144
 8112SOL     OW25234   2.626   2.193   4.051
 8112SOL    HW125235   2.718   2.166   4.022
 8112SOL    HW225236   2.579   2.114   4.090
 8113SOL     OW25237   1.750   3.729   0.497
 8113SOL    HW125238   1.710   3.684   0.418
 8113SOL    HW225239   1.842   3.692   0.514
 8114SOL     OW25240   1.400   3.965   2.948
 8114SOL    HW125241   1.460   3.934   2.874
 8114SOL    HW225242   1.395   3.894   3.018
 8115SOL     OW25243   3.896   0.277   0.184
 8115SOL    HW125244   3.888   0.297   0.086
 8115SOL    HW225245   3.896   0.362   0.236
 8116SOL     OW25246   4.275   5.013   6.338
 8116SOL    HW125247   4.316   5.036   6.249
 8116SOL    HW225248   4.236   5.096   6.379
 8117SOL     OW25249   1.830   7.004   3.212
 8117SOL    HW125250   1.798   0.033   3.291
 8117SOL    HW225251   1.929   7.013   3.205
 8118SOL     OW25252   5.246   4.867   6.021
 8118SOL    HW125253   5.147   4.853   6.021
 8118SOL    HW225254   5.272   4.927   5.945
 8119SOL     OW25255   5.056   5.433   6.464
 8119SOL    HW125256   5.048   5.533   6.464
 8119SOL    HW225257   5.051   5.400   6.370
 8120SOL     OW25258   3.425   4.942   0.576
 8120SOL    HW125259   3.436   5.024   0.633
 8120SOL    HW225260   3.328   4.929   0.556
 8121SOL     OW25261   6.992   5.173   2.193
 8121SOL    HW125262   0.011   5.200   2.279
 8121SOL    HW225263   6.985   5.074   2.189
 8122SOL     OW25264   0.705   5.459   3.446
 8122SOL    HW125265   0.793   5.414   3.431
 8122SOL    HW225266   0.664   5.481   3.357
 8123SOL     OW25267   0.045   1.256   6.631
 8123SOL    HW125268   6.981   1.277   6.590
 8123SOL    HW225269   0.095   1.341   6.649
 8124SOL     OW25270   5.831   6.401   1.109
 8124SOL    HW125271   5.876   6.380   1.022
 8124SOL    HW225272   5.897   6.392   1.184
 8125SOL     OW25273   1.584   1.255   3.194
 8125SOL    HW125274   1.681   1.231   3.189
 8125SOL    HW225275   1.562   1.318   3.119
 8126SOL     OW25276   4.560   4.643   2.409
 8126SOL    HW125277   4.586   4.552   2.375
 8126SOL    HW225278   4.532   4.636   2.504
 8127SOL     OW25279   2.670   4.314   6.149
 8127SOL    HW125280   2.733   4.324   6.226
 8127SOL    HW225281   2.714   4.344   6.065
 8128SOL     OW25282   2.411   1.553   1.615
 8128SOL    HW125283   2.368   1.641   1.598
 8128SOL    HW225284   2.379   1.516   1.702
 8129SOL     OW25285   4.629   0.601   6.292
 8129SOL    HW125286   4.719   0.572   6.323
 8129SOL    HW225287   4.627   0.701   6.283
 8130SOL     OW25288   0.154   3.362   6.451
 8130SOL    HW125289   0.126   3.364   6.547
 8130SOL    HW225290   0.242   3.315   6.443
 8131SOL     OW25291   3.132   1.832   0.761
 8131SOL    HW125292   3.207   1.893   0.737
 8131SOL    HW225293   3.045   1.877   0.743
 8132SOL     OW25294   6.103   6.711   6.289
 8132SOL    HW125295   6.129   6.638   6.226
 8132SOL    HW225296   6.185   6.762   6.316
 8133SOL     OW25297   2.975   5.104   1.523
 8133SOL    HW125298   3.060   5.139   1.484
 8133SOL    HW225299   2.901   5.169   1.505
 8134SOL     OW25300   6.490   2.765   5.796
 8134SOL    HW125301   6.573   2.785   5.743
 8134SOL    HW225302   6.452   2.677   5.767
 8135SOL     OW25303   2.755   6.701   1.288
 8135SOL    HW125304   2.833   6.652   1.248
 8135SOL    HW225305   2.788   6.768   1.354
 8136SOL     OW25306   4.231   5.462   3.468
 8136SOL    HW125307   4.143   5.479   3.512
 8136SOL    HW225308   4.300   5.524   3.507
 8137SOL     OW25309   3.046   2.081   5.158
 8137SOL    HW125310   3.103   2.137   5.097
 8137SOL    HW225311   3.039   2.126   5.247
 8138SOL     OW25312   5.707   1.608   0.153
 8138SOL    HW125313   5.690   1.599   0.055
 8138SOL    HW225314   5.805   1.614   0.170
 8139SOL     OW25315   6.976   1.331   2.249
 8139SOL    HW125316   6.971   1.281   2.163
 8139SOL    HW225317   6.952   1.269   2.324
 8140SOL     OW25318   4.804   0.566   0.931
 8140SOL    HW125319   4.740   0.643   0.929
 8140SOL    HW225320   4.788   0.507   0.851
 8141SOL     OW25321   4.809   6.127   4.861
 8141SOL    HW125322   4.885   6.184   4.892
 8141SOL    HW225323   4.826   6.098   4.767
 8142SOL     OW25324   0.846   5.436   6.764
 8142SOL    HW125325   0.842   5.353   6.819
 8142SOL    HW225326   0.934   5.482   6.779
 8143SOL     OW25327   6.517   4.055   1.376
 8143SOL    HW125328   6.537   4.152   1.386
 8143SOL    HW225329   6.524   4.029   1.280
 8144SOL     OW25330   6.230   6.292   6.383
 8144SOL    HW125331   6.205   6.359   6.313
 8144SOL    HW225332   6.303   6.329   6.440
 8145SOL     OW25333   5.731   5.737   1.576
 8145SOL    HW125334   5.673   5.748   1.656
 8145SOL    HW225335   5.683   5.679   1.509
 8146SOL     OW25336   4.685   0.504   4.445
 8146SOL    HW125337   4.721   0.418   4.409
 8146SOL    HW225338   4.652   0.489   4.539
 8147SOL     OW25339   6.206   1.862   0.893
 8147SOL    HW125340   6.125   1.914   0.864
 8147SOL    HW225341   6.243   1.902   0.977
 8148SOL     OW25342   5.159   4.175   1.191
 8148SOL    HW125343   5.065   4.148   1.207
 8148SOL    HW225344   5.161   4.262   1.142
 8149SOL     OW25345   3.336   6.713   2.404
 8149SOL    HW125346   3.254   6.656   2.411
 8149SOL    HW225347   3.332   6.767   2.319
 8150SOL     OW25348   1.745   4.030   1.043
 8150SOL    HW125349   1.774   3.957   1.105
 8150SOL    HW225350   1.819   4.051   0.979
 8151SOL     OW25351   6.025   2.773   1.244
 8151SOL    HW125352   5.949   2.730   1.293
 8151SOL    HW225353   6.112   2.744   1.286
 8152SOL     OW25354   6.991   2.167   2.559
 8152SOL    HW125355   6.896   2.156   2.528
 8152SOL    HW225356   0.008   2.246   2.513
 8153SOL     OW25357   2.294   6.817   3.518
 8153SOL    HW125358   2.393   6.830   3.522
 8153SOL    HW225359   2.258   6.813   3.611
 8154SOL     OW25360   3.190   5.131   2.232
 8154SOL    HW125361   3.224   5.181   2.152
 8154SOL    HW225362   3.169   5.036   2.206
 8155SOL     OW25363   1.617   4.291   1.931
 8155SOL    HW125364   1.643   4.363   1.996
 8155SOL    HW225365   1.661   4.309   1.843
 8156SOL     OW25366   5.307   6.991   1.380
 8156SOL    HW125367   5.404   6.978   1.401
 8156SOL    HW225368   5.297   0.036   1.309
 8157SOL     OW25369   0.124   5.422   6.156
 8157SOL    HW125370   0.064   5.353   6.115
 8157SOL    HW225371   0.108   5.425   6.255
 8158SOL     OW25372   4.670   4.860   0.724
 8158SOL    HW125373   4.644   4.803   0.802
 8158SOL    HW225374   4.589   4.876   0.667
 8159SOL     OW25375   2.965   5.733   2.549
 8159SOL    HW125376   2.867   5.725   2.533
 8159SOL    HW225377   3.007   5.785   2.474
 8160SOL     OW25378   5.619   0.843   3.665
 8160SOL    HW125379   5.622   0.766   3.602
 8160SOL    HW225380   5.542   0.903   3.641
 8161SOL     OW25381   5.602   1.727   6.753
 8161SOL    HW125382   5.502   1.736   6.754
 8161SOL    HW225383   5.627   1.641   6.708
 8162SOL     OW25384   5.865   6.044   6.020
 8162SOL    HW125385   5.800   5.995   5.963
 8162SOL    HW225386   5.956   6.037   5.981
 8163SOL     OW25387   2.566   3.796   5.336
 8163SOL    HW125388   2.663   3.818   5.320
 8163SOL    HW225389   2.511   3.831   5.260
 8164SOL     OW25390   5.097   2.964   0.479
 8164SOL    HW125391   5.117   3.044   0.535
 8164SOL    HW225392   5.144   2.972   0.391
 8165SOL     OW25393   0.688   3.691   6.445
 8165SOL    HW125394   0.658   3.780   6.479
 8165SOL    HW225395   0.732   3.640   6.519
 8166SOL     OW25396   1.449   0.136   2.871
 8166SOL    HW125397   1.373   0.088   2.914
 8166SOL    HW225398   1.444   0.234   2.890
 8167SOL     OW25399   6.217   6.770   4.788
 8167SOL    HW125400   6.167   6.850   4.756
 8167SOL    HW225401   6.264   6.727   4.711
 8168SOL     OW25402   2.228   1.595   3.562
 8168SOL    HW125403   2.248   1.634   3.472
 8168SOL    HW225404   2.162   1.521   3.553
 8169SOL     OW25405   5.225   1.862   1.231
 8169SOL    HW125406   5.127   1.847   1.239
 8169SOL    HW225407   5.253   1.937   1.292
 8170SOL     OW25408   1.113   5.698   2.761
 8170SOL    HW125409   1.149   5.639   2.833
 8170SOL    HW225410   1.158   5.675   2.675
 8171SOL     OW25411   1.508   1.593   6.374
 8171SOL    HW125412   1.512   1.607   6.473
 8171SOL    HW225413   1.599   1.608   6.335
 8172SOL     OW25414   0.951   2.095   2.154
 8172SOL    HW125415   0.860   2.104   2.113
 8172SOL    HW225416   1.011   2.044   2.091
 8173SOL     OW25417   5.109   1.153   2.434
 8173SOL    HW125418   5.051   1.084   2.390
 8173SOL    HW225419   5.088   1.243   2.395
 8174SOL     OW25420   6.173   3.482   0.900
 8174SOL    HW125421   6.135   3.399   0.859
 8174SOL    HW225422   6.103   3.552   0.905
 8175SOL     OW25423   6.995   2.743   5.961
 8175SOL    HW125424   6.954   2.779   5.878
 8175SOL    HW225425   6.936   2.672   6.000
 8176SOL     OW25426   2.995   5.336   2.306
 8176SOL    HW125427   3.051   5.253   2.307
 8176SOL    HW225428   2.950   5.346   2.395
 8177SOL     OW25429   2.957   6.048   4.221
 8177SOL    HW125430   2.877   6.066   4.279
 8177SOL    HW225431   3.039   6.080   4.268
 8178SOL     OW25432   2.967   5.854   6.757
 8178SOL    HW125433   2.957   5.928   6.691
 8178SOL    HW225434   3.006   5.774   6.712
 8179SOL     OW25435   4.679   1.976   5.450
 8179SOL    HW125436   4.748   1.946   5.516
 8179SOL    HW225437   4.598   2.008   5.498
 8180SOL     OW25438   6.204   0.050   4.918
 8180SOL    HW125439   6.179   0.145   4.934
 8180SOL    HW225440   6.130   7.014   4.949
 8181SOL     OW25441   2.090   1.587   1.400
 8181SOL    HW125442   2.130   1.677   1.419
 8181SOL    HW225443   2.149   1.536   1.338
 8182SOL     OW25444   4.198   3.142   6.210
 8182SOL    HW125445   4.145   3.097   6.138
 8182SOL    HW225446   4.147   3.219   6.247
 8183SOL     OW25447   0.232   2.683   4.235
 8183SOL    HW125448   0.248   2.585   4.223
 8183SOL    HW225449   0.155   2.711   4.179
 8184SOL     OW25450   5.447   1.654   5.880
 8184SOL    HW125451   5.412   1.717   5.950
 8184SOL    HW225452   5.540   1.626   5.904
 8185SOL     OW25453   2.183   6.438   0.540
 8185SOL    HW125454   2.121   6.372   0.498
 8185SOL    HW225455   2.190   6.519   0.482
 8186SOL     OW25456   3.715   6.052   5.774
 8186SOL    HW125457   3.675   5.986   5.837
 8186SOL    HW225458   3.737   6.007   5.688
 8187SOL     OW25459   1.603   2.454   5.503
 8187SOL    HW125460   1.664   2.407   5.567
 8187SOL    HW225461   1.656   2.520   5.449
 8188SOL     OW25462   5.663   2.873   2.330
 8188SOL    HW125463   5.620   2.910   2.248
 8188SOL    HW225464   5.592   2.850   2.397
 8189SOL     OW25465   4.413   4.636   2.761
 8189SOL    HW125466   4.441   4.540   2.763
 8189SOL    HW225467   4.443   4.681   2.845
 8190SOL     OW25468   3.878   5.440   3.754
 8190SOL    HW125469   3.800   5.432   3.816
 8190SOL    HW225470   3.895   5.351   3.710
 8191SOL     OW25471   3.359   6.661   2.710
 8191SOL    HW125472   3.368   6.699   2.618
 8191SOL    HW225473   3.265   6.629   2.724
 8192SOL     OW25474   3.560   5.371   1.000
 8192SOL    HW125475   3.462   5.388   0.999
 8192SOL    HW225476   3.609   5.458   0.989
 8193SOL     OW25477   6.615   6.666   4.460
 8193SOL    HW125478   6.709   6.649   4.430
 8193SOL    HW225479   6.557   6.590   4.431
 8194SOL     OW25480   5.796   2.557   1.188
 8194SOL    HW125481   5.814   2.628   1.119
 8194SOL    HW225482   5.786   2.600   1.277
 8195SOL     OW25483   1.037   0.351   1.573
 8195SOL    HW125484   1.052   0.254   1.586
 8195SOL    HW225485   1.056   0.400   1.658
 8196SOL     OW25486   3.628   0.299   5.942
 8196SOL    HW125487   3.704   0.302   5.877
 8196SOL    HW225488   3.577   0.385   5.937
 8197SOL     OW25489   4.380   1.419   6.341
 8197SOL    HW125490   4.452   1.462   6.287
 8197SOL    HW225491   4.373   1.322   6.316
 8198SOL     OW25492   3.583   6.241   3.645
 8198SOL    HW125493   3.634   6.167   3.601
 8198SOL    HW225494   3.539   6.205   3.728
 8199SOL     OW25495   6.285   3.207   6.310
 8199SOL    HW125496   6.307   3.127   6.254
 8199SOL    HW225497   6.213   3.183   6.375
 8200SOL     OW25498   4.823   3.825   1.647
 8200SOL    HW125499   4.770   3.788   1.571
 8200SOL    HW225500   4.889   3.757   1.679
 8201SOL     OW25501   5.700   0.893   4.139
 8201SOL    HW125502   5.668   0.850   4.055
 8201SOL    HW225503   5.678   0.834   4.217
 8202SOL     OW25504   0.683   5.558   4.488
 8202SOL    HW125505   0.774   5.593   4.469
 8202SOL    HW225506   0.621   5.582   4.413
 8203SOL     OW25507   4.611   2.577   1.102
 8203SOL    HW125508   4.664   2.509   1.154
 8203SOL    HW225509   4.607   2.550   1.006
 8204SOL     OW25510   3.417   5.458   0.490
 8204SOL    HW125511   3.507   5.491   0.516
 8204SOL    HW225512   3.354   5.535   0.483
 8205SOL     OW25513   0.419   4.901   1.034
 8205SOL    HW125514   0.441   4.957   0.954
 8205SOL    HW225515   0.495   4.838   1.052
 8206SOL     OW25516   4.386   2.200   5.951
 8206SOL    HW125517   4.451   2.274   5.933
 8206SOL    HW225518   4.312   2.234   6.009
 8207SOL     OW25519   4.047   4.040   5.393
 8207SOL    HW125520   3.949   4.044   5.413
 8207SOL    HW225521   4.064   3.970   5.324
 8208SOL     OW25522   2.124   6.755   1.456
 8208SOL    HW125523   2.099   6.844   1.495
 8208SOL    HW225524   2.109   6.757   1.357
 8209SOL     OW25525   1.127   1.500   5.972
 8209SOL    HW125526   1.125   1.467   5.877
 8209SOL    HW225527   1.176   1.587   5.976
 8210SOL     OW25528   2.726   0.833   1.480
 8210SOL    HW125529   2.661   0.819   1.554
 8210SOL    HW225530   2.700   0.777   1.401
 8211SOL     OW25531   3.389   3.827   3.245
 8211SOL    HW125532   3.468   3.862   3.295
 8211SOL    HW225533   3.311   3.887   3.262
 8212SOL     OW25534   3.111   1.442   0.915
 8212SOL    HW125535   3.118   1.540   0.931
 8212SOL    HW225536   3.072   1.425   0.824
 8213SOL     OW25537   5.318   4.618   2.238
 8213SOL    HW125538   5.238   4.614   2.178
 8213SOL    HW225539   5.299   4.569   2.323
 8214SOL     OW25540   1.318   5.573   4.290
 8214SOL    HW125541   1.230   5.610   4.319
 8214SOL    HW225542   1.377   5.560   4.370
 8215SOL     OW25543   3.335   5.604   6.472
 8215SOL    HW125544   3.396   5.664   6.523
 8215SOL    HW225545   3.372   5.511   6.471
 8216SOL     OW25546   5.250   6.161   3.046
 8216SOL    HW125547   5.158   6.146   3.009
 8216SOL    HW225548   5.292   6.240   3.001
 8217SOL     OW25549   2.201   3.953   2.360
 8217SOL    HW125550   2.253   3.877   2.398
 8217SOL    HW225551   2.189   3.940   2.261
 8218SOL     OW25552   1.091   6.716   4.587
 8218SOL    HW125553   1.048   6.658   4.657
 8218SOL    HW225554   1.035   6.714   4.504
 8219SOL     OW25555   3.702   3.443   1.666
 8219SOL    HW125556   3.743   3.523   1.622
 8219SOL    HW225557   3.662   3.384   1.596
 8220SOL     OW25558   3.275   3.942   5.314
 8220SOL    HW125559   3.209   3.996   5.262
 8220SOL    HW225560   3.246   3.937   5.410
 8221SOL     OW25561   6.239   5.359   3.454
 8221SOL    HW125562   6.283   5.308   3.528
 8221SOL    HW225563   6.283   5.337   3.367
 8222SOL     OW25564   5.092   2.257   1.563
 8222SOL    HW125565   5.102   2.291   1.657
 8222SOL    HW225566   5.131   2.165   1.556
 8223SOL     OW25567   0.365   4.425   5.556
 8223SOL    HW125568   0.395   4.333   5.578
 8223SOL    HW225569   0.443   4.487   5.557
 8224SOL     OW25570   5.545   2.445   1.736
 8224SOL    HW125571   5.454   2.485   1.734
 8224SOL    HW225572   5.603   2.495   1.800
 8225SOL     OW25573   3.565   1.393   1.651
 8225SOL    HW125574   3.542   1.296   1.663
 8225SOL    HW225575   3.537   1.445   1.731
 8226SOL     OW25576   3.428   0.430   0.517
 8226SOL    HW125577   3.341   0.475   0.534
 8226SOL    HW225578   3.414   0.351   0.456
 8227SOL     OW25579   0.124   1.543   2.309
 8227SOL    HW125580   0.068   1.623   2.330
 8227SOL    HW225581   0.065   1.468   2.278
 8228SOL     OW25582   1.005   1.709   5.690
 8228SOL    HW125583   1.074   1.637   5.689
 8228SOL    HW225584   0.958   1.708   5.778
 8229SOL     OW25585   3.810   4.620   1.098
 8229SOL    HW125586   3.818   4.688   1.172
 8229SOL    HW225587   3.714   4.608   1.074
 8230SOL     OW25588   4.008   0.164   5.982
 8230SOL    HW125589   4.016   0.244   5.924
 8230SOL    HW225590   4.095   0.115   5.985
 8231SOL     OW25591   3.477   2.486   1.565
 8231SOL    HW125592   3.545   2.530   1.624
 8231SOL    HW225593   3.426   2.418   1.618
 8232SOL     OW25594   5.867   2.062   1.980
 8232SOL    HW125595   5.779   2.017   1.998
 8232SOL    HW225596   5.903   2.030   1.892
 8233SOL     OW25597   1.414   6.907   6.325
 8233SOL    HW125598   1.420   6.900   6.226
 8233SOL    HW225599   1.318   6.917   6.352
 8234SOL     OW25600   2.880   3.962   6.994
 8234SOL    HW125601   2.978   3.966   7.010
 8234SOL    HW225602   2.836   3.904   0.038
 8235SOL     OW25603   0.011   3.604   6.814
 8235SOL    HW125604   0.107   3.624   6.832
 8235SOL    HW225605   0.002   3.509   6.783
 8236SOL     OW25606   6.961   4.882   6.297
 8236SOL    HW125607   6.907   4.963   6.319
 8236SOL    HW225608   6.919   4.835   6.219
 8237SOL     OW25609   4.953   6.330   6.336
 8237SOL    HW125610   5.011   6.287   6.268
 8237SOL    HW225611   4.858   6.304   6.320
 8238SOL     OW25612   0.327   6.221   6.941
 8238SOL    HW125613   0.277   6.161   6.879
 8238SOL    HW225614   0.367   6.297   6.890
 8239SOL     OW25615   1.036   1.067   4.837
 8239SOL    HW125616   0.992   1.126   4.905
 8239SOL    HW225617   1.052   0.977   4.878
 8240SOL     OW25618   2.988   3.937   3.424
 8240SOL    HW125619   3.047   3.965   3.500
 8240SOL    HW225620   2.942   4.017   3.386
 8241SOL     OW25621   2.435   4.409   5.940
 8241SOL    HW125622   2.416   4.454   6.027
 8241SOL    HW225623   2.440   4.310   5.953
 8242SOL     OW25624   0.452   3.338   4.813
 8242SOL    HW125625   0.521   3.364   4.746
 8242SOL    HW225626   0.489   3.268   4.874
 8243SOL     OW25627   6.951   3.791   0.938
 8243SOL    HW125628   6.978   3.737   0.859
 8243SOL    HW225629   0.007   3.813   0.993
 8244SOL     OW25630   0.620   0.454   4.329
 8244SOL    HW125631   0.612   0.549   4.358
 8244SOL    HW225632   0.584   0.443   4.236
 8245SOL     OW25633   3.710   1.628   2.959
 8245SOL    HW125634   3.733   1.684   3.038
 8245SOL    HW225635   3.690   1.535   2.989
 8246SOL     OW25636   0.243   4.593   6.375
 8246SOL    HW125637   0.160   4.591   6.319
 8246SOL    HW225638   0.255   4.684   6.413
 8247SOL     OW25639   2.090   6.275   3.582
 8247SOL    HW125640   2.059   6.364   3.548
 8247SOL    HW225641   2.011   6.221   3.610
 8248SOL     OW25642   0.609   4.451   5.179
 8248SOL    HW125643   0.593   4.387   5.103
 8248SOL    HW225644   0.682   4.514   5.155
 8249SOL     OW25645   2.152   1.281   5.697
 8249SOL    HW125646   2.206   1.267   5.614
 8249SOL    HW225647   2.163   1.375   5.729
 8250SOL     OW25648   3.036   2.390   1.108
 8250SOL    HW125649   3.032   2.337   1.023
 8250SOL    HW225650   2.991   2.338   1.181
 8251SOL     OW25651   5.194   1.092   5.088
 8251SOL    HW125652   5.138   1.173   5.100
 8251SOL    HW225653   5.139   1.019   5.048
 8252SOL     OW25654   3.881   1.965   0.047
 8252SOL    HW125655   3.806   2.029   0.034
 8252SOL    HW225656   3.879   1.930   0.140
 8253SOL     OW25657   3.622   5.651   6.777
 8253SOL    HW125658   3.550   5.699   6.728
 8253SOL    HW225659   3.669   5.589   6.714
 8254SOL     OW25660   4.891   4.411   5.850
 8254SOL    HW125661   4.966   4.370   5.798
 8254SOL    HW225662   4.833   4.339   5.888
 8255SOL     OW25663   1.405   6.960   5.573
 8255SOL    HW125664   1.432   0.019   5.524
 8255SOL    HW225665   1.465   6.948   5.652
 8256SOL     OW25666   6.775   6.554   2.944
 8256SOL    HW125667   6.801   6.646   2.972
 8256SOL    HW225668   6.798   6.489   3.017
 8257SOL     OW25669   5.359   4.036   4.027
 8257SOL    HW125670   5.454   4.017   4.052
 8257SOL    HW225671   5.332   3.977   3.951
 8258SOL     OW25672   4.873   3.140   1.718
 8258SOL    HW125673   4.805   3.119   1.789
 8258SOL    HW225674   4.942   3.068   1.716
 8259SOL     OW25675   3.641   2.261   5.647
 8259SOL    HW125676   3.591   2.182   5.613
 8259SOL    HW225677   3.578   2.337   5.662
 8260SOL     OW25678   1.987   6.330   1.756
 8260SOL    HW125679   2.036   6.416   1.747
 8260SOL    HW225680   2.040   6.256   1.714
 8261SOL     OW25681   5.523   6.461   3.283
 8261SOL    HW125682   5.462   6.527   3.240
 8261SOL    HW225683   5.560   6.399   3.213
 8262SOL     OW25684   0.573   4.839   0.668
 8262SOL    HW125685   0.568   4.809   0.573
 8262SOL    HW225686   0.642   4.786   0.716
 8263SOL     OW25687   6.782   3.014   6.874
 8263SOL    HW125688   6.844   2.996   6.951
 8263SOL    HW225689   6.692   2.977   6.895
 8264SOL     OW25690   1.004   6.694   1.665
 8264SOL    HW125691   1.091   6.739   1.685
 8264SOL    HW225692   0.929   6.756   1.687
 8265SOL     OW25693   4.960   0.576   2.076
 8265SOL    HW125694   4.957   0.609   2.171
 8265SOL    HW225695   4.980   0.653   2.015
 8266SOL     OW25696   2.559   0.768   4.750
 8266SOL    HW125697   2.552   0.668   4.748
 8266SOL    HW225698   2.651   0.795   4.722
 8267SOL     OW25699   1.502   4.602   1.608
 8267SOL    HW125700   1.410   4.567   1.627
 8267SOL    HW225701   1.494   4.692   1.565
 8268SOL     OW25702   3.381   5.708   6.211
 8268SOL    HW125703   3.306   5.670   6.157
 8268SOL    HW225704   3.369   5.683   6.307
 8269SOL     OW25705   4.473   2.341   2.669
 8269SOL    HW125706   4.390   2.321   2.616
 8269SOL    HW225707   4.457   2.316   2.764
 8270SOL     OW25708   2.933   5.466   5.516
 8270SOL    HW125709   2.934   5.523   5.434
 8270SOL    HW225710   2.843   5.471   5.559
 8271SOL     OW25711   6.330   6.418   3.455
 8271SOL    HW125712   6.292   6.409   3.546
 8271SOL    HW225713   6.342   6.515   3.433
 8272SOL     OW25714   6.704   1.327   2.402
 8272SOL    HW125715   6.715   1.253   2.336
 8272SOL    HW225716   6.740   1.298   2.491
 8273SOL     OW25717   3.053   0.930   0.049
 8273SOL    HW125718   3.027   1.008   7.016
 8273SOL    HW225719   3.143   0.896   0.021
 8274SOL     OW25720   4.181   4.892   5.783
 8274SOL    HW125721   4.261   4.853   5.738
 8274SOL    HW225722   4.107   4.902   5.717
 8275SOL     OW25723   6.137   0.289   4.419
 8275SOL    HW125724   6.212   0.274   4.354
 8275SOL    HW225725   6.050   0.272   4.374
 8276SOL     OW25726   6.738   2.076   5.664
 8276SOL    HW125727   6.806   2.004   5.652
 8276SOL    HW225728   6.647   2.041   5.639
 8277SOL     OW25729   1.823   6.090   5.560
 8277SOL    HW125730   1.756   6.121   5.492
 8277SOL    HW225731   1.811   5.992   5.576
 8278SOL     OW25732   3.084   1.789   6.785
 8278SOL    HW125733   3.088   1.787   6.885
 8278SOL    HW225734   3.020   1.860   6.755
 8279SOL     OW25735   6.434   6.204   5.251
 8279SOL    HW125736   6.373   6.279   5.224
 8279SOL    HW225737   6.526   6.241   5.265
 8280SOL     OW25738   3.766   2.621   0.665
 8280SOL    HW125739   3.677   2.606   0.623
 8280SOL    HW225740   3.756   2.629   0.764
 8281SOL     OW25741   2.337   4.309   2.063
 8281SOL    HW125742   2.350   4.295   2.161
 8281SOL    HW225743   2.300   4.401   2.047
 8282SOL     OW25744   2.908   3.575   6.926
 8282SOL    HW125745   2.948   3.655   6.882
 8282SOL    HW225746   2.896   3.502   6.858
 8283SOL     OW25747   1.488   4.963   4.225
 8283SOL    HW125748   1.533   4.884   4.267
 8283SOL    HW225749   1.446   5.019   4.297
 8284SOL     OW25750   1.741   4.501   2.051
 8284SOL    HW125751   1.744   4.542   1.960
 8284SOL    HW225752   1.834   4.496   2.088
 8285SOL     OW25753   4.155   3.384   5.497
 8285SOL    HW125754   4.228   3.336   5.546
 8285SOL    HW225755   4.185   3.404   5.404
 8286SOL     OW25756   5.513   1.874   4.710
 8286SOL    HW125757   5.544   1.913   4.797
 8286SOL    HW225758   5.527   1.941   4.636
 8287SOL     OW25759   1.035   5.871   3.812
 8287SOL    HW125760   1.088   5.946   3.772
 8287SOL    HW225761   1.043   5.875   3.912
 8288SOL     OW25762   1.030   2.840   2.593
 8288SOL    HW125763   0.993   2.747   2.598
 8288SOL    HW225764   1.046   2.865   2.498
 8289SOL     OW25765   5.977   0.721   6.859
 8289SOL    HW125766   6.031   0.653   6.810
 8289SOL    HW225767   5.893   0.678   6.893
 8290SOL     OW25768   4.770   1.873   1.364
 8290SOL    HW125769   4.699   1.857   1.295
 8290SOL    HW225770   4.726   1.896   1.451
 8291SOL     OW25771   5.757   5.777   6.211
 8291SOL    HW125772   5.735   5.757   6.116
 8291SOL    HW225773   5.695   5.726   6.271
 8292SOL     OW25774   2.659   5.780   6.546
 8292SOL    HW125775   2.670   5.793   6.644
 8292SOL    HW225776   2.687   5.864   6.498
 8293SOL     OW25777   1.544   4.332   1.287
 8293SOL    HW125778   1.507   4.289   1.370
 8293SOL    HW225779   1.569   4.427   1.306
 8294SOL     OW25780   6.180   3.217   4.604
 8294SOL    HW125781   6.267   3.231   4.557
 8294SOL    HW225782   6.170   3.286   4.676
 8295SOL     OW25783   4.986   3.216   3.169
 8295SOL    HW125784   4.960   3.304   3.127
 8295SOL    HW225785   5.055   3.172   3.112
 8296SOL     OW25786   3.354   5.544   6.890
 8296SOL    HW125787   3.314   5.541   6.982
 8296SOL    HW225788   3.453   5.535   6.896
 8297SOL     OW25789   6.558   3.039   2.523
 8297SOL    HW125790   6.496   3.098   2.574
 8297SOL    HW225791   6.515   3.011   2.437
 8298SOL     OW25792   6.976   0.355   0.491
 8298SOL    HW125793   6.968   0.409   0.407
 8298SOL    HW225794   6.903   0.286   0.492
 8299SOL     OW25795   0.173   2.728   1.231
 8299SOL    HW125796   0.150   2.814   1.275
 8299SOL    HW225797   0.139   2.652   1.286
 8300SOL     OW25798   0.001   6.894   4.489
 8300SOL    HW125799   7.001   6.931   4.579
 8300SOL    HW225800   7.009   6.795   4.489
 8301SOL     OW25801   4.780   0.502   6.865
 8301SOL    HW125802   4.842   0.509   6.943
 8301SOL    HW225803   4.778   0.407   6.833
 8302SOL     OW25804   4.715   6.975   5.813
 8302SOL    HW125805   4.654   6.900   5.785
 8302SOL    HW225806   4.800   6.936   5.849
 8303SOL     OW25807   6.620   0.289   2.945
 8303SOL    HW125808   6.671   0.246   3.019
 8303SOL    HW225809   6.580   0.218   2.886
 8304SOL     OW25810   5.685   4.701   1.750
 8304SOL    HW125811   5.720   4.759   1.825
 8304SOL    HW225812   5.627   4.756   1.690
 8305SOL     OW25813   4.048   4.826   4.331
 8305SOL    HW125814   3.951   4.806   4.345
 8305SOL    HW225815   4.069   4.821   4.233
 8306SOL     OW25816   6.834   1.146   3.098
 8306SOL    HW125817   6.822   1.197   3.184
 8306SOL    HW225818   6.844   1.049   3.118
 8307SOL     OW25819   3.273   5.337   1.699
 8307SOL    HW125820   3.372   5.350   1.693
 8307SOL    HW225821   3.229   5.427   1.697
 8308SOL     OW25822   2.047   5.021   0.402
 8308SOL    HW125823   2.110   4.960   0.450
 8308SOL    HW225824   2.058   5.114   0.435
 8309SOL     OW25825   5.712   5.069   2.927
 8309SOL    HW125826   5.713   5.048   3.025
 8309SOL    HW225827   5.706   5.168   2.914
 8310SOL     OW25828   1.439   5.456   0.970
 8310SOL    HW125829   1.394   5.368   0.984
 8310SOL    HW225830   1.370   5.524   0.944
 8311SOL     OW25831   5.784   0.612   4.562
 8311SOL    HW125832   5.761   0.599   4.659
 8311SOL    HW225833   5.875   0.576   4.544
 8312SOL     OW25834   5.428   1.192   6.660
 8312SOL    HW125835   5.351   1.179   6.597
 8312SOL    HW225836   5.497   1.121   6.644
 8313SOL     OW25837   5.146   0.438   5.780
 8313SOL    HW125838   5.133   0.462   5.877
 8313SOL    HW225839   5.186   0.516   5.732
 8314SOL     OW25840   6.073   6.602   6.547
 8314SOL    HW125841   6.092   6.604   6.449
 8314SOL    HW225842   5.977   6.580   6.562
 8315SOL     OW25843   3.972   3.082   2.792
 8315SOL    HW125844   3.999   3.178   2.801
 8315SOL    HW225845   3.956   3.043   2.882
 8316SOL     OW25846   1.873   3.507   1.133
 8316SOL    HW125847   1.806   3.489   1.204
 8316SOL    HW225848   1.949   3.442   1.141
 8317SOL     OW25849   2.117   1.910   2.972
 8317SOL    HW125850   2.130   2.003   2.937
 8317SOL    HW225851   2.022   1.898   3.001
 8318SOL     OW25852   3.972   1.658   5.818
 8318SOL    HW125853   3.915   1.682   5.740
 8318SOL    HW225854   3.944   1.569   5.854
 8319SOL     OW25855   1.559   0.064   0.334
 8319SOL    HW125856   1.641   0.019   0.301
 8319SOL    HW225857   1.584   0.148   0.383
 8320SOL     OW25858   3.371   4.106   3.454
 8320SOL    HW125859   3.412   4.151   3.534
 8320SOL    HW225860   3.431   4.116   3.375
 8321SOL     OW25861   0.075   0.297   6.393
 8321SOL    HW125862   0.162   0.297   6.441
 8321SOL    HW225863   0.053   0.391   6.365
 8322SOL     OW25864   0.101   1.958   0.404
 8322SOL    HW125865   0.043   1.980   0.326
 8322SOL    HW225866   0.141   1.868   0.391
 8323SOL     OW25867   3.490   4.766   1.330
 8323SOL    HW125868   3.551   4.703   1.377
 8323SOL    HW225869   3.426   4.715   1.273
 8324SOL     OW25870   5.118   0.329   0.341
 8324SOL    HW125871   5.108   0.251   0.404
 8324SOL    HW225872   5.074   0.409   0.380
 8325SOL     OW25873   0.732   4.008   5.462
 8325SOL    HW125874   0.803   3.986   5.528
 8325SOL    HW225875   0.774   4.050   5.381
 8326SOL     OW25876   4.335   4.095   6.405
 8326SOL    HW125877   4.293   4.022   6.351
 8326SOL    HW225878   4.314   4.183   6.365
 8327SOL     OW25879   0.837   0.877   5.794
 8327SOL    HW125880   0.791   0.964   5.774
 8327SOL    HW225881   0.812   0.846   5.886
 8328SOL     OW25882   2.691   6.573   6.157
 8328SOL    HW125883   2.665   6.582   6.061
 8328SOL    HW225884   2.767   6.636   6.177
 8329SOL     OW25885   0.107   2.201   5.258
 8329SOL    HW125886   0.055   2.236   5.335
 8329SOL    HW225887   0.049   2.142   5.202
 8330SOL     OW25888   3.310   1.672   6.647
 8330SOL    HW125889   3.311   1.712   6.555
 8330SOL    HW225890   3.244   1.721   6.704
 8331SOL     OW25891   3.574   1.057   0.657
 8331SOL    HW125892   3.673   1.050   0.671
 8331SOL    HW225893   3.532   1.104   0.735
 8332SOL     OW25894   5.841   5.422   1.991
 8332SOL    HW125895   5.822   5.324   2.004
 8332SOL    HW225896   5.937   5.439   2.010
 8333SOL     OW25897   1.634   4.549   6.520
 8333SOL    HW125898   1.728   4.580   6.535
 8333SOL    HW225899   1.635   4.461   6.473
 8334SOL     OW25900   2.933   2.339   5.934
 8334SOL    HW125901   2.943   2.412   5.866
 8334SOL    HW225902   2.912   2.253   5.887
 8335SOL     OW25903   3.800   2.145   6.672
 8335SOL    HW125904   3.899   2.136   6.674
 8335SOL    HW225905   3.765   2.149   6.766
 8336SOL     OW25906   0.615   3.790   2.867
 8336SOL    HW125907   0.705   3.818   2.900
 8336SOL    HW225908   0.626   3.724   2.793
 8337SOL     OW25909   0.363   0.059   3.712
 8337SOL    HW125910   0.368   0.049   3.811
 8337SOL    HW225911   0.286   0.119   3.688
 8338SOL     OW25912   3.836   5.598   1.709
 8338SOL    HW125913   3.747   5.596   1.755
 8338SOL    HW225914   3.834   5.539   1.629
 8339SOL     OW25915   0.362   0.941   1.591
 8339SOL    HW125916   0.306   0.952   1.673
 8339SOL    HW225917   0.459   0.952   1.616
 8340SOL     OW25918   5.327   3.844   0.936
 8340SOL    HW125919   5.231   3.825   0.956
 8340SOL    HW225920   5.371   3.886   1.015
 8341SOL     OW25921   3.894   0.356   6.937
 8341SOL    HW125922   3.986   0.386   6.910
 8341SOL    HW225923   3.851   0.308   6.861
 8342SOL     OW25924   4.319   6.656   0.789
 8342SOL    HW125925   4.226   6.668   0.825
 8342SOL    HW225926   4.335   6.560   0.769
 8343SOL     OW25927   6.706   5.212   3.722
 8343SOL    HW125928   6.694   5.305   3.758
 8343SOL    HW225929   6.782   5.168   3.770
 8344SOL     OW25930   6.773   4.738   4.638
 8344SOL    HW125931   6.800   4.645   4.614
 8344SOL    HW225932   6.744   4.787   4.556
 8345SOL     OW25933   4.382   2.405   3.576
 8345SOL    HW125934   4.385   2.467   3.497
 8345SOL    HW225935   4.303   2.345   3.567
 8346SOL     OW25936   3.837   3.969   6.908
 8346SOL    HW125937   3.843   4.066   6.885
 8346SOL    HW225938   3.743   3.938   6.896
 8347SOL     OW25939   3.394   6.721   6.015
 8347SOL    HW125940   3.447   6.741   5.933
 8347SOL    HW225941   3.406   6.796   6.081
 8348SOL     OW25942   2.088   0.968   1.448
 8348SOL    HW125943   2.022   0.892   1.446
 8348SOL    HW225944   2.058   1.039   1.383
 8349SOL     OW25945   1.491   6.498   1.908
 8349SOL    HW125946   1.508   6.592   1.878
 8349SOL    HW225947   1.524   6.485   2.001
 8350SOL     OW25948   3.092   6.760   6.207
 8350SOL    HW125949   3.062   6.847   6.168
 8350SOL    HW225950   3.135   6.705   6.137
 8351SOL     OW25951   5.761   5.355   4.886
 8351SOL    HW125952   5.675   5.367   4.836
 8351SOL    HW225953   5.750   5.285   4.956
 8352SOL     OW25954   1.468   6.838   2.868
 8352SOL    HW125955   1.556   6.883   2.859
 8352SOL    HW225956   1.403   6.899   2.913
 8353SOL     OW25957   0.835   3.553   0.791
 8353SOL    HW125958   0.862   3.625   0.856
 8353SOL    HW225959   0.771   3.490   0.835
 8354SOL     OW25960   3.666   0.373   3.891
 8354SOL    HW125961   3.583   0.326   3.862
 8354SOL    HW225962   3.734   0.305   3.921
 8355SOL     OW25963   1.815   1.391   4.486
 8355SOL    HW125964   1.846   1.400   4.391
 8355SOL    HW225965   1.731   1.444   4.499
 8356SOL     OW25966   1.202   5.933   1.280
 8356SOL    HW125967   1.297   5.956   1.301
 8356SOL    HW225968   1.144   5.955   1.359
 8357SOL     OW25969   3.900   6.860   5.531
 8357SOL    HW125970   3.993   6.870   5.495
 8357SOL    HW225971   3.855   6.949   5.531
 8358SOL     OW25972   1.022   2.962   4.583
 8358SOL    HW125973   1.113   2.935   4.553
 8358SOL    HW225974   0.968   2.992   4.503
 8359SOL     OW25975   2.954   1.631   5.079
 8359SOL    HW125976   2.895   1.565   5.126
 8359SOL    HW225977   2.939   1.625   4.980
 8360SOL     OW25978   4.831   6.946   1.085
 8360SOL    HW125979   4.909   6.955   1.146
 8360SOL    HW225980   4.861   6.955   0.990
 8361SOL     OW25981   3.573   0.664   0.394
 8361SOL    HW125982   3.666   0.651   0.359
 8361SOL    HW225983   3.545   0.583   0.445
 8362SOL     OW25984   5.541   1.966   0.789
 8362SOL    HW125985   5.444   1.944   0.786
 8362SOL    HW225986   5.594   1.894   0.744
 8363SOL     OW25987   5.126   2.386   0.608
 8363SOL    HW125988   5.079   2.299   0.624
 8363SOL    HW225989   5.217   2.367   0.570
 8364SOL     OW25990   0.054   2.518   4.015
 8364SOL    HW125991   0.124   2.517   3.944
 8364SOL    HW225992   7.004   2.580   3.988
 8365SOL     OW25993   1.939   2.199   2.247
 8365SOL    HW125994   1.953   2.135   2.172
 8365SOL    HW225995   1.884   2.155   2.318
 8366SOL     OW25996   3.261   5.398   0.998
 8366SOL    HW125997   3.190   5.374   1.064
 8366SOL    HW225998   3.223   5.393   0.905
 8367SOL     OW25999   3.243   5.441   4.780
 8367SOL    HW126000   3.287   5.424   4.868
 8367SOL    HW226001   3.146   5.458   4.794
 8368SOL     OW26002   0.787   5.832   0.259
 8368SOL    HW126003   0.766   5.884   0.175
 8368SOL    HW226004   0.882   5.801   0.255
 8369SOL     OW26005   0.752   0.473   6.728
 8369SOL    HW126006   0.843   0.465   6.769
 8369SOL    HW226007   0.683   0.450   6.797
 8370SOL     OW26008   2.405   1.362   5.993
 8370SOL    HW126009   2.422   1.405   5.904
 8370SOL    HW226010   2.324   1.303   5.986
 8371SOL     OW26011   2.878   3.686   0.146
 8371SOL    HW126012   2.878   3.643   0.056
 8371SOL    HW226013   2.973   3.698   0.177
 8372SOL     OW26014   1.502   5.922   1.611
 8372SOL    HW126015   1.488   5.834   1.657
 8372SOL    HW226016   1.516   5.993   1.679
 8373SOL     OW26017   1.937   7.002   4.563
 8373SOL    HW126018   1.875   6.924   4.553
 8373SOL    HW226019   1.969   7.007   4.657
 8374SOL     OW26020   0.215   0.420   4.701
 8374SOL    HW126021   0.256   0.434   4.610
 8374SOL    HW226022   0.224   0.323   4.727
 8375SOL     OW26023   3.545   6.742   5.815
 8375SOL    HW126024   3.503   6.816   5.762
 8375SOL    HW226025   3.620   6.702   5.763
 8376SOL     OW26026   1.566   1.168   3.586
 8376SOL    HW126027   1.657   1.136   3.558
 8376SOL    HW226028   1.499   1.141   3.518
 8377SOL     OW26029   5.623   6.040   0.282
 8377SOL    HW126030   5.582   5.955   0.314
 8377SOL    HW226031   5.721   6.027   0.266
 8378SOL     OW26032   3.575   5.021   3.527
 8378SOL    HW126033   3.591   5.109   3.572
 8378SOL    HW226034   3.600   4.946   3.589
 8379SOL     OW26035   4.972   2.943   2.122
 8379SOL    HW126036   4.942   2.863   2.174
 8379SOL    HW226037   4.892   2.996   2.093
 8380SOL     OW26038   0.039   6.869   0.401
 8380SOL    HW126039   0.017   6.840   0.308
 8380SOL    HW226040   0.131   6.838   0.424
 8381SOL     OW26041   0.111   2.277   3.483
 8381SOL    HW126042   0.018   2.307   3.461
 8381SOL    HW226043   0.160   2.350   3.530
 8382SOL     OW26044   2.127   6.533   1.653
 8382SOL    HW126045   2.216   6.493   1.676
 8382SOL    HW226046   2.138   6.598   1.578
 8383SOL     OW26047   3.059   6.840   5.731
 8383SOL    HW126048   3.010   6.897   5.796
 8383SOL    HW226049   2.994   6.781   5.682
 8384SOL     OW26050   6.593   1.798   1.126
 8384SOL    HW126051   6.684   1.759   1.138
 8384SOL    HW226052   6.578   1.816   1.029
 8385SOL     OW26053   4.421   2.248   0.545
 8385SOL    HW126054   4.505   2.302   0.536
 8385SOL    HW226055   4.341   2.308   0.541
 8386SOL     OW26056   2.129   6.084   1.096
 8386SOL    HW126057   2.110   6.049   1.187
 8386SOL    HW226058   2.154   6.008   1.036
 8387SOL     OW26059   1.317   2.110   1.332
 8387SOL    HW126060   1.365   2.058   1.261
 8387SOL    HW226061   1.240   2.057   1.366
 8388SOL     OW26062   1.636   6.481   1.230
 8388SOL    HW126063   1.623   6.550   1.159
 8388SOL    HW226064   1.701   6.515   1.299
 8389SOL     OW26065   6.976   2.768   4.199
 8389SOL    HW126066   6.883   2.754   4.165
 8389SOL    HW226067   7.002   2.864   4.184
 8390SOL     OW26068   3.985   6.555   7.024
 8390SOL    HW126069   4.004   6.480   6.961
 8390SOL    HW226070   3.915   6.526   0.065
 8391SOL     OW26071   4.718   4.993   1.185
 8391SOL    HW126072   4.623   4.986   1.215
 8391SOL    HW226073   4.759   4.902   1.183
 8392SOL     OW26074   6.664   5.270   5.415
 8392SOL    HW126075   6.598   5.272   5.490
 8392SOL    HW226076   6.615   5.270   5.328
 8393SOL     OW26077   0.644   0.070   4.030
 8393SOL    HW126078   0.694   0.119   4.102
 8393SOL    HW226079   0.700   7.017   3.999
 8394SOL     OW26080   0.043   2.969   1.720
 8394SOL    HW126081   0.007   3.060   1.703
 8394SOL    HW226082   0.008   2.934   1.807
 8395SOL     OW26083   1.392   5.908   3.941
 8395SOL    HW126084   1.343   5.909   4.028
 8395SOL    HW226085   1.473   5.967   3.948
 8396SOL     OW26086   4.354   4.615   2.198
 8396SOL    HW126087   4.430   4.608   2.263
 8396SOL    HW226088   4.268   4.621   2.249
 8397SOL     OW26089   2.682   1.098   3.203
 8397SOL    HW126090   2.606   1.163   3.197
 8397SOL    HW226091   2.758   1.140   3.252
 8398SOL     OW26092   4.421   2.452   6.296
 8398SOL    HW126093   4.513   2.443   6.257
 8398SOL    HW226094   4.422   2.523   6.366
 8399SOL     OW26095   5.794   7.024   6.968
 8399SOL    HW126096   5.739   6.985   6.895
 8399SOL    HW226097   5.888   6.990   6.961
 8400SOL     OW26098   1.266   0.307   4.135
 8400SOL    HW126099   1.219   0.343   4.054
 8400SOL    HW226100   1.231   0.352   4.217
 8401SOL     OW26101   3.408   2.035   6.192
 8401SOL    HW126102   3.387   2.032   6.094
 8401SOL    HW226103   3.407   1.942   6.229
 8402SOL     OW26104   3.977   2.034   5.471
 8402SOL    HW126105   3.882   2.008   5.457
 8402SOL    HW226106   4.037   1.956   5.452
 8403SOL     OW26107   0.904   1.620   3.011
 8403SOL    HW126108   0.831   1.688   3.021
 8403SOL    HW226109   0.884   1.541   3.069
 8404SOL     OW26110   4.329   5.933   6.551
 8404SOL    HW126111   4.426   5.958   6.545
 8404SOL    HW226112   4.272   6.011   6.525
 8405SOL     OW26113   2.498   0.938   5.515
 8405SOL    HW126114   2.581   0.886   5.494
 8405SOL    HW226115   2.516   1.036   5.506
 8406SOL     OW26116   5.113   6.893   1.194
 8406SOL    HW126117   5.127   6.839   1.277
 8406SOL    HW226118   5.186   6.960   1.185
 8407SOL     OW26119   4.770   6.240   4.168
 8407SOL    HW126120   4.849   6.291   4.134
 8407SOL    HW226121   4.800   6.155   4.210
 8408SOL     OW26122   4.975   2.720   2.355
 8408SOL    HW126123   4.884   2.677   2.353
 8408SOL    HW226124   4.981   2.782   2.433
 8409SOL     OW26125   6.281   3.296   3.357
 8409SOL    HW126126   6.362   3.330   3.310
 8409SOL    HW226127   6.244   3.367   3.416
 8410SOL     OW26128   4.899   0.732   1.643
 8410SOL    HW126129   4.996   0.717   1.624
 8410SOL    HW226130   4.849   0.740   1.557
 8411SOL     OW26131   1.163   5.394   6.243
 8411SOL    HW126132   1.076   5.442   6.247
 8411SOL    HW226133   1.224   5.430   6.313
 8412SOL     OW26134   4.006   2.001   2.368
 8412SOL    HW126135   3.978   2.025   2.275
 8412SOL    HW226136   3.973   2.071   2.432
 8413SOL     OW26137   4.390   4.994   0.063
 8413SOL    HW126138   4.448   5.019   7.010
 8413SOL    HW226139   4.374   4.895   0.062
 8414SOL     OW26140   4.321   5.372   3.202
 8414SOL    HW126141   4.307   5.387   3.299
 8414SOL    HW226142   4.395   5.431   3.169
 8415SOL     OW26143   6.411   5.260   3.644
 8415SOL    HW126144   6.456   5.171   3.642
 8415SOL    HW226145   6.479   5.332   3.632
 8416SOL     OW26146   5.292   4.186   2.912
 8416SOL    HW126147   5.275   4.162   3.008
 8416SOL    HW226148   5.388   4.167   2.890
 8417SOL     OW26149   1.541   5.118   6.021
 8417SOL    HW126150   1.534   5.060   6.103
 8417SOL    HW226151   1.451   5.126   5.978
 8418SOL     OW26152   6.213   5.352   1.241
 8418SOL    HW126153   6.308   5.340   1.269
 8418SOL    HW226154   6.153   5.342   1.321
 8419SOL     OW26155   5.538   1.297   2.664
 8419SOL    HW126156   5.562   1.305   2.760
 8419SOL    HW226157   5.473   1.221   2.652
 8420SOL     OW26158   4.433   6.903   0.897
 8420SOL    HW126159   4.418   6.882   0.994
 8420SOL    HW226160   4.386   6.836   0.840
 8421SOL     OW26161   2.991   6.030   0.612
 8421SOL    HW126162   2.967   6.046   0.516
 8421SOL    HW226163   2.948   5.944   0.643
 8422SOL     OW26164   4.441   1.106   1.004
 8422SOL    HW126165   4.402   1.196   1.022
 8422SOL    HW226166   4.369   1.043   0.974
 8423SOL     OW26167   3.611   4.958   5.858
 8423SOL    HW126168   3.650   4.976   5.948
 8423SOL    HW226169   3.673   4.991   5.787
 8424SOL     OW26170   2.478   2.506   2.486
 8424SOL    HW126171   2.547   2.520   2.556
 8424SOL    HW226172   2.388   2.497   2.529
 8425SOL     OW26173   5.336   5.718   0.436
 8425SOL    HW126174   5.319   5.622   0.459
 8425SOL    HW226175   5.432   5.729   0.410
 8426SOL     OW26176   3.332   3.352   4.038
 8426SOL    HW126177   3.323   3.374   4.135
 8426SOL    HW226178   3.289   3.423   3.983
 8427SOL     OW26179   2.701   3.570   5.332
 8427SOL    HW126180   2.790   3.615   5.327
 8427SOL    HW226181   2.629   3.638   5.319
 8428SOL     OW26182   0.334   3.880   1.920
 8428SOL    HW126183   0.362   3.826   1.841
 8428SOL    HW226184   0.234   3.890   1.920
 8429SOL     OW26185   2.168   3.969   3.728
 8429SOL    HW126186   2.168   4.067   3.749
 8429SOL    HW226187   2.188   3.917   3.811
 8430SOL     OW26188   3.904   5.612   4.339
 8430SOL    HW126189   3.987   5.597   4.393
 8430SOL    HW226190   3.904   5.706   4.304
 8431SOL     OW26191   3.320   5.045   0.988
 8431SOL    HW126192   3.261   5.038   0.907
 8431SOL    HW226193   3.400   5.102   0.966
 8432SOL     OW26194   5.398   7.002   6.419
 8432SOL    HW126195   5.329   0.017   6.359
 8432SOL    HW226196   5.396   6.902   6.412
 8433SOL     OW26197   6.183   2.208   0.672
 8433SOL    HW126198   6.229   2.276   0.730
 8433SOL    HW226199   6.087   2.233   0.660
 8434SOL     OW26200   3.210   6.862   5.123
 8434SOL    HW126201   3.285   6.804   5.092
 8434SOL    HW226202   3.221   6.882   5.220
 8435SOL     OW26203   5.429   0.645   1.051
 8435SOL    HW126204   5.372   0.726   1.039
 8435SOL    HW226205   5.497   0.642   0.977
 8436SOL     OW26206   3.343   0.123   4.133
 8436SOL    HW126207   3.391   0.210   4.139
 8436SOL    HW226208   3.409   0.049   4.119
 8437SOL     OW26209   1.739   0.122   3.411
 8437SOL    HW126210   1.806   0.191   3.438
 8437SOL    HW226211   1.693   0.087   3.493
 8438SOL     OW26212   2.643   4.956   2.166
 8438SOL    HW126213   2.575   4.886   2.185
 8438SOL    HW226214   2.598   5.037   2.128
 8439SOL     OW26215   6.128   5.177   2.066
 8439SOL    HW126216   6.164   5.098   2.116
 8439SOL    HW226217   6.085   5.146   1.982
 8440SOL     OW26218   1.038   1.595   3.269
 8440SOL    HW126219   1.082   1.628   3.186
 8440SOL    HW226220   1.070   1.649   3.347
 8441SOL     OW26221   5.493   6.555   0.262
 8441SOL    HW126222   5.574   6.614   0.268
 8441SOL    HW226223   5.486   6.517   0.170
 8442SOL     OW26224   2.964   2.520   5.744
 8442SOL    HW126225   2.878   2.541   5.697
 8442SOL    HW226226   2.979   2.585   5.818
 8443SOL     OW26227   1.675   5.962   3.745
 8443SOL    HW126228   1.629   6.051   3.751
 8443SOL    HW226229   1.614   5.891   3.780
 8444SOL     OW26230   3.454   6.110   3.863
 8444SOL    HW126231   3.456   6.011   3.850
 8444SOL    HW226232   3.391   6.132   3.938
 8445SOL     OW26233   3.387   5.514   1.323
 8445SOL    HW126234   3.437   5.502   1.409
 8445SOL    HW226235   3.312   5.449   1.319
 8446SOL     OW26236   4.614   4.973   6.923
 8446SOL    HW126237   4.698   4.966   6.869
 8446SOL    HW226238   4.545   4.910   6.885
 8447SOL     OW26239   5.451   2.289   1.946
 8447SOL    HW126240   5.361   2.332   1.943
 8447SOL    HW226241   5.498   2.304   1.859
 8448SOL     OW26242   5.453   5.357   4.501
 8448SOL    HW126243   5.539   5.386   4.459
 8448SOL    HW226244   5.465   5.267   4.542
 8449SOL     OW26245   6.303   2.817   3.951
 8449SOL    HW126246   6.354   2.761   4.017
 8449SOL    HW226247   6.351   2.902   3.934
 8450SOL     OW26248   1.264   5.843   1.998
 8450SOL    HW126249   1.278   5.937   2.027
 8450SOL    HW226250   1.216   5.842   1.910
 8451SOL     OW26251   4.792   2.849   0.873
 8451SOL    HW126252   4.734   2.859   0.954
 8451SOL    HW226253   4.791   2.753   0.843
 8452SOL     OW26254   6.569   1.025   2.464
 8452SOL    HW126255   6.518   0.942   2.488
 8452SOL    HW226256   6.586   1.078   2.547
 8453SOL     OW26257   7.010   4.175   6.412
 8453SOL    HW126258   0.071   4.122   6.414
 8453SOL    HW226259   7.015   4.248   6.481
 8454SOL     OW26260   0.219   6.333   1.021
 8454SOL    HW126261   0.293   6.351   0.956
 8454SOL    HW226262   0.132   6.328   0.972
 8455SOL     OW26263   5.744   2.252   1.623
 8455SOL    HW126264   5.820   2.264   1.687
 8455SOL    HW226265   5.677   2.325   1.636
 8456SOL     OW26266   4.479   5.198   3.016
 8456SOL    HW126267   4.445   5.250   2.938
 8456SOL    HW226268   4.441   5.235   3.101
 8457SOL     OW26269   6.961   6.688   5.128
 8457SOL    HW126270   0.016   6.682   5.068
 8457SOL    HW226271   6.941   6.598   5.167
 8458SOL     OW26272   2.234   1.276   6.981
 8458SOL    HW126273   2.289   1.248   0.035
 8458SOL    HW226274   2.183   1.359   7.005
 8459SOL     OW26275   3.302   6.387   1.964
 8459SOL    HW126276   3.268   6.299   1.996
 8459SOL    HW226277   3.360   6.428   2.034
 8460SOL     OW26278   5.027   2.911   5.596
 8460SOL    HW126279   5.054   2.830   5.543
 8460SOL    HW226280   4.928   2.911   5.606
 8461SOL     OW26281   0.365   4.196   3.098
 8461SOL    HW126282   0.339   4.224   3.006
 8461SOL    HW226283   0.283   4.175   3.152
 8462SOL     OW26284   3.788   2.399   6.936
 8462SOL    HW126285   3.803   2.430   0.006
 8462SOL    HW226286   3.732   2.316   6.937
 8463SOL     OW26287   5.856   6.921   0.235
 8463SOL    HW126288   5.914   6.883   0.308
 8463SOL    HW226289   5.909   6.988   0.183
 8464SOL     OW26290   5.741   3.442   5.921
 8464SOL    HW126291   5.668   3.510   5.926
 8464SOL    HW226292   5.768   3.415   6.014
 8465SOL     OW26293   1.712   2.781   0.864
 8465SOL    HW126294   1.735   2.728   0.946
 8465SOL    HW226295   1.716   2.879   0.885
 8466SOL     OW26296   0.353   6.931   5.206
 8466SOL    HW126297   0.281   6.986   5.248
 8466SOL    HW226298   0.389   6.980   5.127
 8467SOL     OW26299   3.827   0.381   1.119
 8467SOL    HW126300   3.784   0.314   1.179
 8467SOL    HW226301   3.893   0.336   1.059
 8468SOL     OW26302   4.821   2.634   0.710
 8468SOL    HW126303   4.800   2.558   0.772
 8468SOL    HW226304   4.875   2.601   0.633
 8469SOL     OW26305   3.283   1.452   5.441
 8469SOL    HW126306   3.319   1.374   5.492
 8469SOL    HW226307   3.316   1.449   5.347
 8470SOL     OW26308   0.648   4.813   0.373
 8470SOL    HW126309   0.576   4.881   0.363
 8470SOL    HW226310   0.645   4.749   0.296
 8471SOL     OW26311   4.328   0.482   4.497
 8471SOL    HW126312   4.380   0.473   4.582
 8471SOL    HW226313   4.277   0.398   4.479
 8472SOL     OW26314   6.675   0.622   5.414
 8472SOL    HW126315   6.720   0.690   5.473
 8472SOL    HW226316   6.657   0.539   5.467
 8473SOL     OW26317   6.745   6.059   1.200
 8473SOL    HW126318   6.796   6.017   1.125
 8473SOL    HW226319   6.649   6.034   1.194
 8474SOL     OW26320   3.726   3.504   2.467
 8474SOL    HW126321   3.648   3.448   2.495
 8474SOL    HW226322   3.799   3.445   2.434
 8475SOL     OW26323   6.887   2.387   3.488
 8475SOL    HW126324   6.901   2.483   3.511
 8475SOL    HW226325   6.817   2.380   3.418
 8476SOL     OW26326   6.448   1.932   0.781
 8476SOL    HW126327   6.370   1.879   0.814
 8476SOL    HW226328   6.429   2.030   0.790
 8477SOL     OW26329   4.716   6.892   2.563
 8477SOL    HW126330   4.657   6.956   2.611
 8477SOL    HW226331   4.682   6.879   2.470
 8478SOL     OW26332   1.594   0.085   6.349
 8478SOL    HW126333   1.544   0.171   6.361
 8478SOL    HW226334   1.530   0.009   6.345
 8479SOL     OW26335   1.053   2.476   0.982
 8479SOL    HW126336   1.098   2.548   0.930
 8479SOL    HW226337   0.990   2.426   0.923
 8480SOL     OW26338   5.214   2.390   0.208
 8480SOL    HW126339   5.153   2.466   0.186
 8480SOL    HW226340   5.240   2.395   0.304
 8481SOL     OW26341   5.278   2.890   4.940
 8481SOL    HW126342   5.200   2.842   4.900
 8481SOL    HW226343   5.256   2.919   5.033
 8482SOL     OW26344   4.782   6.466   2.537
 8482SOL    HW126345   4.816   6.394   2.476
 8482SOL    HW226346   4.697   6.503   2.501
 8483SOL     OW26347   3.607   6.591   1.816
 8483SOL    HW126348   3.688   6.568   1.869
 8483SOL    HW226349   3.618   6.559   1.722
 8484SOL     OW26350   0.087   5.840   3.888
 8484SOL    HW126351   0.147   5.777   3.938
 8484SOL    HW226352   0.130   5.867   3.802
 8485SOL     OW26353   3.379   2.581   0.382
 8485SOL    HW126354   3.353   2.674   0.411
 8485SOL    HW226355   3.334   2.560   0.295
 8486SOL     OW26356   2.428   1.838   2.138
 8486SOL    HW126357   2.452   1.784   2.057
 8486SOL    HW226358   2.491   1.817   2.212
 8487SOL     OW26359   5.963   1.403   5.242
 8487SOL    HW126360   5.905   1.345   5.185
 8487SOL    HW226361   5.937   1.391   5.338
 8488SOL     OW26362   5.201   6.428   1.049
 8488SOL    HW126363   5.235   6.360   0.983
 8488SOL    HW226364   5.137   6.489   1.003
 8489SOL     OW26365   6.301   2.071   1.503
 8489SOL    HW126366   6.260   2.089   1.414
 8489SOL    HW226367   6.236   2.095   1.575
 8490SOL     OW26368   4.380   6.696   4.878
 8490SOL    HW126369   4.335   6.644   4.806
 8490SOL    HW226370   4.460   6.646   4.911
 8491SOL     OW26371   2.488   5.761   1.605
 8491SOL    HW126372   2.456   5.691   1.541
 8491SOL    HW226373   2.571   5.729   1.651
 8492SOL     OW26374   5.387   3.991   5.277
 8492SOL    HW126375   5.427   3.909   5.236
 8492SOL    HW226376   5.358   4.053   5.205
 8493SOL     OW26377   2.165   2.214   6.163
 8493SOL    HW126378   2.206   2.306   6.158
 8493SOL    HW226379   2.229   2.147   6.126
 8494SOL     OW26380   4.106   5.258   1.497
 8494SOL    HW126381   4.104   5.177   1.439
 8494SOL    HW226382   4.189   5.310   1.479
 8495SOL     OW26383   6.768   4.755   1.883
 8495SOL    HW126384   6.693   4.801   1.834
 8495SOL    HW226385   6.730   4.700   1.957
 8496SOL     OW26386   1.453   2.233   2.165
 8496SOL    HW126387   1.379   2.300   2.159
 8496SOL    HW226388   1.435   2.157   2.102
 8497SOL     OW26389   7.023   0.661   3.541
 8497SOL    HW126390   0.022   0.624   3.451
 8497SOL    HW226391   0.082   0.679   3.592
 8498SOL     OW26392   6.131   6.034   3.212
 8498SOL    HW126393   6.093   6.088   3.137
 8498SOL    HW226394   6.230   6.042   3.213
 8499SOL     OW26395   2.018   4.356   6.729
 8499SOL    HW126396   2.085   4.342   6.801
 8499SOL    HW226397   1.932   4.311   6.754
 8500SOL     OW26398   1.196   6.033   5.580
 8500SOL    HW126399   1.188   6.071   5.672
 8500SOL    HW226400   1.290   6.003   5.565
 8501SOL     OW26401   0.552   2.630   6.592
 8501SOL    HW126402   0.470   2.601   6.641
 8501SOL    HW226403   0.540   2.615   6.494
 8502SOL     OW26404   0.456   3.623   1.135
 8502SOL    HW126405   0.364   3.586   1.146
 8502SOL    HW226406   0.471   3.647   1.039
 8503SOL     OW26407   0.303   6.205   3.886
 8503SOL    HW126408   0.301   6.160   3.975
 8503SOL    HW226409   0.213   6.244   3.866
 8504SOL     OW26410   2.537   4.731   2.607
 8504SOL    HW126411   2.475   4.675   2.553
 8504SOL    HW226412   2.501   4.825   2.613
 8505SOL     OW26413   5.999   3.273   3.336
 8505SOL    HW126414   5.955   3.184   3.328
 8505SOL    HW226415   6.089   3.262   3.379
 8506SOL     OW26416   1.000   0.480   6.841
 8506SOL    HW126417   0.954   0.438   6.919
 8506SOL    HW226418   1.052   0.560   6.872
 8507SOL     OW26419   3.975   0.466   4.780
 8507SOL    HW126420   4.070   0.482   4.804
 8507SOL    HW226421   3.921   0.549   4.796
 8508SOL     OW26422   5.240   1.784   4.716
 8508SOL    HW126423   5.338   1.804   4.710
 8508SOL    HW226424   5.188   1.867   4.698
 8509SOL     OW26425   4.617   1.128   4.302
 8509SOL    HW126426   4.556   1.078   4.363
 8509SOL    HW226427   4.711   1.122   4.335
 8510SOL     OW26428   5.730   4.364   2.421
 8510SOL    HW126429   5.729   4.269   2.389
 8510SOL    HW226430   5.680   4.371   2.507
 8511SOL     OW26431   6.238   4.435   2.513
 8511SOL    HW126432   6.272   4.348   2.550
 8511SOL    HW226433   6.160   4.417   2.454
 8512SOL     OW26434   2.890   1.498   2.713
 8512SOL    HW126435   2.809   1.448   2.745
 8512SOL    HW226436   2.964   1.433   2.696
 8513SOL     OW26437   6.517   5.350   0.758
 8513SOL    HW126438   6.608   5.363   0.720
 8513SOL    HW226439   6.520   5.362   0.857
 8514SOL     OW26440   2.001   2.121   4.310
 8514SOL    HW126441   2.012   2.087   4.217
 8514SOL    HW226442   1.991   2.221   4.307
 8515SOL     OW26443   4.612   1.982   1.565
 8515SOL    HW126444   4.579   2.070   1.600
 8515SOL    HW226445   4.574   1.908   1.619
 8516SOL     OW26446   6.602   1.753   2.123
 8516SOL    HW126447   6.593   1.737   2.024
 8516SOL    HW226448   6.648   1.675   2.165
 8517SOL     OW26449   0.985   2.667   6.255
 8517SOL    HW126450   0.994   2.597   6.326
 8517SOL    HW226451   1.010   2.756   6.292
 8518SOL     OW26452   4.318   4.688   0.109
 8518SOL    HW126453   4.259   4.644   0.176
 8518SOL    HW226454   4.410   4.648   0.113
 8519SOL     OW26455   1.907   4.789   2.159
 8519SOL    HW126456   1.984   4.853   2.171
 8519SOL    HW226457   1.936   4.697   2.186
 8520SOL     OW26458   3.520   2.506   0.611
 8520SOL    HW126459   3.555   2.415   0.588
 8520SOL    HW226460   3.441   2.526   0.553
 8521SOL     OW26461   1.381   4.569   6.216
 8521SOL    HW126462   1.298   4.616   6.185
 8521SOL    HW226463   1.440   4.635   6.263
 8522SOL     OW26464   1.396   5.521   1.435
 8522SOL    HW126465   1.429   5.441   1.485
 8522SOL    HW226466   1.301   5.506   1.407
 8523SOL     OW26467   3.109   0.291   6.395
 8523SOL    HW126468   3.108   0.356   6.319
 8523SOL    HW226469   3.015   0.265   6.417
 8524SOL     OW26470   1.089   2.366   4.959
 8524SOL    HW126471   1.113   2.269   4.970
 8524SOL    HW226472   1.138   2.420   5.027
 8525SOL     OW26473   6.185   4.194   3.032
 8525SOL    HW126474   6.280   4.195   3.064
 8525SOL    HW226475   6.139   4.113   3.067
 8526SOL     OW26476   3.579   5.145   6.928
 8526SOL    HW126477   3.563   5.220   6.992
 8526SOL    HW226478   3.560   5.176   6.835
 8527SOL     OW26479   3.042   0.705   4.835
 8527SOL    HW126480   2.966   0.650   4.870
 8527SOL    HW226481   3.051   0.788   4.890
 8528SOL     OW26482   4.807   2.593   6.253
 8528SOL    HW126483   4.767   2.673   6.209
 8528SOL    HW226484   4.755   2.512   6.229
 8529SOL     OW26485   0.362   6.867   0.636
 8529SOL    HW126486   0.350   6.886   0.538
 8529SOL    HW226487   0.381   6.952   0.684
 8530SOL     OW26488   2.278   4.137   5.292
 8530SOL    HW126489   2.325   4.053   5.262
 8530SOL    HW226490   2.185   4.138   5.254
 8531SOL     OW26491   6.733   4.064   1.556
 8531SOL    HW126492   6.799   4.126   1.514
 8531SOL    HW226493   6.662   4.041   1.490
 8532SOL     OW26494   4.020   4.977   4.646
 8532SOL    HW126495   3.951   4.935   4.588
 8532SOL    HW226496   4.042   5.068   4.611
 8533SOL     OW26497   1.934   0.243   5.681
 8533SOL    HW126498   1.990   0.240   5.764
 8533SOL    HW226499   1.924   0.338   5.652
 8534SOL     OW26500   6.583   3.340   3.915
 8534SOL    HW126501   6.654   3.304   3.855
 8534SOL    HW226502   6.606   3.433   3.942
 8535SOL     OW26503   0.470   2.272   5.054
 8535SOL    HW126504   0.506   2.340   5.119
 8535SOL    HW226505   0.374   2.291   5.035
 8536SOL     OW26506   6.308   2.025   4.998
 8536SOL    HW126507   6.295   1.926   4.998
 8536SOL    HW226508   6.304   2.059   5.092
 8537SOL     OW26509   5.749   1.464   2.566
 8537SOL    HW126510   5.668   1.427   2.609
 8537SOL    HW226511   5.756   1.428   2.472
 8538SOL     OW26512   0.880   1.665   5.947
 8538SOL    HW126513   0.793   1.615   5.953
 8538SOL    HW226514   0.948   1.619   6.005
 8539SOL     OW26515   6.488   1.294   1.764
 8539SOL    HW126516   6.572   1.254   1.802
 8539SOL    HW226517   6.508   1.384   1.726
 8540SOL     OW26518   3.922   1.889   0.289
 8540SOL    HW126519   3.995   1.912   0.354
 8540SOL    HW226520   3.845   1.850   0.338
 8541SOL     OW26521   3.195   2.094   4.267
 8541SOL    HW126522   3.112   2.041   4.249
 8541SOL    HW226523   3.227   2.136   4.182
 8542SOL     OW26524   2.400   4.560   5.650
 8542SOL    HW126525   2.366   4.573   5.743
 8542SOL    HW226526   2.491   4.518   5.652
 8543SOL     OW26527   3.122   1.377   6.942
 8543SOL    HW126528   3.140   1.375   0.016
 8543SOL    HW226529   3.207   1.397   6.893
 8544SOL     OW26530   5.564   2.879   4.421
 8544SOL    HW126531   5.614   2.894   4.336
 8544SOL    HW226532   5.484   2.938   4.424
 8545SOL     OW26533   4.761   6.949   5.234
 8545SOL    HW126534   4.777   6.928   5.330
 8545SOL    HW226535   4.826   7.019   5.204
 8546SOL     OW26536   0.661   0.146   2.584
 8546SOL    HW126537   0.751   0.160   2.544
 8546SOL    HW226538   0.668   0.085   2.662
 8547SOL     OW26539   0.724   6.924   6.552
 8547SOL    HW126540   0.726   6.904   6.650
 8547SOL    HW226541   0.806   6.885   6.509
 8548SOL     OW26542   7.010   3.154   6.015
 8548SOL    HW126543   6.932   3.092   6.025
 8548SOL    HW226544   6.993   3.237   6.069
 8549SOL     OW26545   0.956   2.394   4.049
 8549SOL    HW126546   1.030   2.368   3.987
 8549SOL    HW226547   0.986   2.470   4.106
 8550SOL     OW26548   1.098   5.224   0.443
 8550SOL    HW126549   1.081   5.312   0.398
 8550SOL    HW226550   1.174   5.233   0.508
 8551SOL     OW26551   2.548   2.791   0.310
 8551SOL    HW126552   2.524   2.846   0.230
 8551SOL    HW226553   2.527   2.695   0.292
 8552SOL     OW26554   2.272   0.570   2.584
 8552SOL    HW126555   2.247   0.618   2.500
 8552SOL    HW226556   2.190   0.536   2.629
 8553SOL     OW26557   3.835   4.304   6.638
 8553SOL    HW126558   3.871   4.396   6.653
 8553SOL    HW226559   3.735   4.309   6.628
 8554SOL     OW26560   0.486   5.832   0.600
 8554SOL    HW126561   0.436   5.746   0.611
 8554SOL    HW226562   0.580   5.812   0.572
 8555SOL     OW26563   3.561   0.975   3.386
 8555SOL    HW126564   3.596   1.055   3.434
 8555SOL    HW226565   3.466   0.992   3.357
 8556SOL     OW26566   2.155   6.490   5.436
 8556SOL    HW126567   2.204   6.490   5.349
 8556SOL    HW226568   2.204   6.548   5.501
 8557SOL     OW26569   6.151   6.758   2.277
 8557SOL    HW126570   6.132   6.823   2.203
 8557SOL    HW226571   6.073   6.695   2.287
 8558SOL     OW26572   2.361   5.607   3.470
 8558SOL    HW126573   2.400   5.628   3.560
 8558SOL    HW226574   2.411   5.658   3.400
 8559SOL     OW26575   2.022   6.784   2.632
 8559SOL    HW126576   2.055   6.765   2.724
 8559SOL    HW226577   2.088   6.751   2.565
 8560SOL     OW26578   1.383   5.636   2.141
 8560SOL    HW126579   1.458   5.671   2.197
 8560SOL    HW226580   1.333   5.712   2.101
 8561SOL     OW26581   3.493   0.012   2.736
 8561SOL    HW126582   3.482   6.999   2.644
 8561SOL    HW226583   3.496   6.962   2.802
 8562SOL     OW26584   3.960   6.405   6.471
 8562SOL    HW126585   3.899   6.389   6.393
 8562SOL    HW226586   3.921   6.476   6.530
 8563SOL     OW26587   0.916   4.982   2.068
 8563SOL    HW126588   0.880   4.938   2.150
 8563SOL    HW226589   1.014   4.963   2.060
 8564SOL     OW26590   2.964   0.028   4.799
 8564SOL    HW126591   3.039   7.023   4.858
 8564SOL    HW226592   2.879   0.027   4.850
 8565SOL     OW26593   3.735   4.962   1.065
 8565SOL    HW126594   3.750   4.992   0.971
 8565SOL    HW226595   3.711   5.041   1.122
 8566SOL     OW26596   0.693   6.815   1.502
 8566SOL    HW126597   0.687   6.715   1.496
 8566SOL    HW226598   0.602   6.853   1.518
 8567SOL     OW26599   0.058   1.917   2.335
 8567SOL    HW126600   0.061   1.989   2.404
 8567SOL    HW226601   0.023   1.832   2.376
 8568SOL     OW26602   5.149   1.877   6.845
 8568SOL    HW126603   5.085   1.818   6.895
 8568SOL    HW226604   5.235   1.830   6.831
 8569SOL     OW26605   4.878   1.558   5.496
 8569SOL    HW126606   4.971   1.574   5.464
 8569SOL    HW226607   4.813   1.599   5.432
 8570SOL     OW26608   1.169   1.258   3.714
 8570SOL    HW126609   1.112   1.288   3.791
 8570SOL    HW226610   1.118   1.269   3.629
 8571SOL     OW26611   0.400   6.110   5.842
 8571SOL    HW126612   0.381   6.045   5.915
 8571SOL    HW226613   0.469   6.175   5.872
 8572SOL     OW26614   2.230   4.205   5.743
 8572SOL    HW126615   2.204   4.240   5.832
 8572SOL    HW226616   2.178   4.252   5.671
 8573SOL     OW26617   3.189   6.123   6.366
 8573SOL    HW126618   3.257   6.057   6.332
 8573SOL    HW226619   3.209   6.145   6.462
 8574SOL     OW26620   6.379   0.008   6.550
 8574SOL    HW126621   6.418   0.089   6.507
 8574SOL    HW226622   6.392   0.014   6.649
 8575SOL     OW26623   2.435   2.185   3.206
 8575SOL    HW126624   2.343   2.166   3.240
 8575SOL    HW226625   2.452   2.132   3.123
 8576SOL     OW26626   1.395   4.758   4.602
 8576SOL    HW126627   1.418   4.801   4.689
 8576SOL    HW226628   1.357   4.667   4.620
 8577SOL     OW26629   1.615   6.817   5.262
 8577SOL    HW126630   1.661   6.741   5.307
 8577SOL    HW226631   1.657   6.903   5.290
 8578SOL     OW26632   6.382   5.541   5.062
 8578SOL    HW126633   6.435   5.608   5.010
 8578SOL    HW226634   6.314   5.589   5.118
 8579SOL     OW26635   1.697   6.779   2.073
 8579SOL    HW126636   1.618   6.790   2.012
 8579SOL    HW226637   1.666   6.749   2.163
 8580SOL     OW26638   1.796   5.971   0.629
 8580SOL    HW126639   1.895   5.959   0.640
 8580SOL    HW226640   1.753   5.975   0.720
 8581SOL     OW26641   3.272   4.210   1.643
 8581SOL    HW126642   3.186   4.252   1.672
 8581SOL    HW226643   3.253   4.131   1.585
 8582SOL     OW26644   4.655   4.219   5.053
 8582SOL    HW126645   4.723   4.168   5.000
 8582SOL    HW226646   4.584   4.254   4.991
 8583SOL     OW26647   3.926   0.110   4.494
 8583SOL    HW126648   3.977   0.027   4.519
 8583SOL    HW226649   3.859   0.088   4.423
 8584SOL     OW26650   0.678   6.045   6.063
 8584SOL    HW126651   0.649   6.141   6.072
 8584SOL    HW226652   0.765   6.032   6.110
 8585SOL     OW26653   6.307   1.280   6.746
 8585SOL    HW126654   6.401   1.309   6.764
 8585SOL    HW226655   6.254   1.281   6.831
 8586SOL     OW26656   3.316   6.499   1.715
 8586SOL    HW126657   3.241   6.473   1.655
 8586SOL    HW226658   3.309   6.448   1.801
 8587SOL     OW26659   0.763   1.011   4.834
 8587SOL    HW126660   0.799   0.918   4.840
 8587SOL    HW226661   0.839   1.076   4.827
 8588SOL     OW26662   4.349   1.367   6.974
 8588SOL    HW126663   4.339   1.362   0.049
 8588SOL    HW226664   4.377   1.460   6.948
 8589SOL     OW26665   5.851   2.742   5.443
 8589SOL    HW126666   5.883   2.649   5.429
 8589SOL    HW226667   5.804   2.774   5.360
 8590SOL     OW26668   0.383   0.231   2.726
 8590SOL    HW126669   0.415   0.278   2.808
 8590SOL    HW226670   0.459   0.222   2.661
 8591SOL     OW26671   0.444   4.150   0.214
 8591SOL    HW126672   0.415   4.234   0.260
 8591SOL    HW226673   0.429   4.072   0.274
 8592SOL     OW26674   5.868   2.130   6.740
 8592SOL    HW126675   5.861   2.031   6.729
 8592SOL    HW226676   5.784   2.165   6.782
 8593SOL     OW26677   3.223   1.317   0.196
 8593SOL    HW126678   3.158   1.259   0.244
 8593SOL    HW226679   3.293   1.350   0.260
 8594SOL     OW26680   5.105   2.311   5.558
 8594SOL    HW126681   5.064   2.235   5.508
 8594SOL    HW226682   5.103   2.393   5.501
 8595SOL     OW26683   0.419   0.950   3.841
 8595SOL    HW126684   0.377   1.040   3.825
 8595SOL    HW226685   0.352   0.890   3.884
 8596SOL     OW26686   1.341   4.560   3.168
 8596SOL    HW126687   1.358   4.658   3.181
 8596SOL    HW226688   1.268   4.531   3.230
 8597SOL     OW26689   4.902   1.841   1.918
 8597SOL    HW126690   4.944   1.820   1.829
 8597SOL    HW226691   4.917   1.765   1.981
 8598SOL     OW26692   5.866   0.245   7.018
 8598SOL    HW126693   5.799   0.319   7.024
 8598SOL    HW226694   5.819   0.157   7.015
 8599SOL     OW26695   1.464   2.112   4.383
 8599SOL    HW126696   1.464   2.012   4.387
 8599SOL    HW226697   1.434   2.149   4.470
 8600SOL     OW26698   5.283   3.807   6.406
 8600SOL    HW126699   5.310   3.787   6.500
 8600SOL    HW226700   5.322   3.895   6.378
 8601SOL     OW26701   0.950   1.301   3.902
 8601SOL    HW126702   0.991   1.357   3.974
 8601SOL    HW226703   0.851   1.316   3.900
 8602SOL     OW26704   2.979   6.512   2.605
 8602SOL    HW126705   3.017   6.491   2.515
 8602SOL    HW226706   3.047   6.491   2.675
 8603SOL     OW26707   4.963   5.962   1.287
 8603SOL    HW126708   4.963   5.898   1.210
 8603SOL    HW226709   4.983   5.913   1.372
 8604SOL     OW26710   1.115   2.463   5.424
 8604SOL    HW126711   1.129   2.364   5.420
 8604SOL    HW226712   1.055   2.491   5.349
 8605SOL     OW26713   2.363   5.557   4.152
 8605SOL    HW126714   2.347   5.459   4.143
 8605SOL    HW226715   2.278   5.603   4.176
 8606SOL     OW26716   2.230   3.049   6.883
 8606SOL    HW126717   2.330   3.057   6.881
 8606SOL    HW226718   2.199   3.039   6.977
 8607SOL     OW26719   3.212   4.761   6.161
 8607SOL    HW126720   3.259   4.750   6.073
 8607SOL    HW226721   3.119   4.725   6.154
 8608SOL     OW26722   2.802   4.728   2.439
 8608SOL    HW126723   2.782   4.687   2.350
 8608SOL    HW226724   2.716   4.741   2.490
 8609SOL     OW26725   5.238   0.484   3.166
 8609SOL    HW126726   5.188   0.401   3.192
 8609SOL    HW226727   5.251   0.485   3.067
 8610SOL     OW26728   1.172   1.577   2.871
 8610SOL    HW126729   1.234   1.554   2.946
 8610SOL    HW226730   1.079   1.589   2.908
 8611SOL     OW26731   2.850   1.751   4.254
 8611SOL    HW126732   2.925   1.817   4.251
 8611SOL    HW226733   2.790   1.771   4.332
 8612SOL     OW26734   2.632   2.939   1.076
 8612SOL    HW126735   2.612   2.880   1.155
 8612SOL    HW226736   2.678   3.022   1.108
 8613SOL     OW26737   2.913   1.621   1.969
 8613SOL    HW126738   2.936   1.700   2.027
 8613SOL    HW226739   2.862   1.653   1.889
 8614SOL     OW26740   1.013   2.910   3.804
 8614SOL    HW126741   0.930   2.853   3.806
 8614SOL    HW226742   1.089   2.859   3.843
 8615SOL     OW26743   4.329   2.128   5.211
 8615SOL    HW126744   4.378   2.101   5.294
 8615SOL    HW226745   4.352   2.065   5.136
 8616SOL     OW26746   3.009   4.707   1.730
 8616SOL    HW126747   2.974   4.798   1.750
 8616SOL    HW226748   2.964   4.640   1.788
 8617SOL     OW26749   5.871   1.174   5.101
 8617SOL    HW126750   5.953   1.155   5.047
 8617SOL    HW226751   5.790   1.154   5.046
 8618SOL     OW26752   6.390   4.925   1.061
 8618SOL    HW126753   6.330   4.974   1.125
 8618SOL    HW226754   6.430   4.846   1.107
 8619SOL     OW26755   4.122   5.029   2.061
 8619SOL    HW126756   4.102   4.935   2.088
 8619SOL    HW226757   4.132   5.086   2.142
 8620SOL     OW26758   1.698   6.616   2.938
 8620SOL    HW126759   1.683   6.583   2.845
 8620SOL    HW226760   1.684   6.541   3.003
 8621SOL     OW26761   5.661   2.047   2.506
 8621SOL    HW126762   5.745   2.034   2.453
 8621SOL    HW226763   5.669   1.999   2.593
 8622SOL     OW26764   4.989   3.678   1.243
 8622SOL    HW126765   5.039   3.738   1.305
 8622SOL    HW226766   4.905   3.647   1.286
 8623SOL     OW26767   0.951   3.940   4.666
 8623SOL    HW126768   0.921   4.007   4.598
 8623SOL    HW226769   0.883   3.867   4.674
 8624SOL     OW26770   2.174   3.913   4.561
 8624SOL    HW126771   2.173   3.979   4.636
 8624SOL    HW226772   2.193   3.822   4.596
 8625SOL     OW26773   4.673   1.364   5.741
 8625SOL    HW126774   4.736   1.324   5.807
 8625SOL    HW226775   4.600   1.298   5.721
 8626SOL     OW26776   4.002   2.370   6.364
 8626SOL    HW126777   4.072   2.310   6.403
 8626SOL    HW226778   3.968   2.431   6.435
 8627SOL     OW26779   1.226   1.528   2.426
 8627SOL    HW126780   1.161   1.603   2.414
 8627SOL    HW226781   1.212   1.486   2.516
 8628SOL     OW26782   6.198   6.549   0.343
 8628SOL    HW126783   6.231   6.511   0.429
 8628SOL    HW226784   6.214   6.483   0.270
 8629SOL     OW26785   1.895   6.402   4.928
 8629SOL    HW126786   1.964   6.400   4.856
 8629SOL    HW226787   1.865   6.496   4.944
 8630SOL     OW26788   5.622   3.597   4.001
 8630SOL    HW126789   5.601   3.526   4.069
 8630SOL    HW226790   5.579   3.574   3.914
 8631SOL     OW26791   0.602   5.093   6.459
 8631SOL    HW126792   0.682   5.093   6.520
 8631SOL    HW226793   0.520   5.118   6.511
 8632SOL     OW26794   4.281   4.848   5.367
 8632SOL    HW126795   4.345   4.895   5.428
 8632SOL    HW226796   4.223   4.915   5.321
 8633SOL     OW26797   5.554   2.184   6.009
 8633SOL    HW126798   5.518   2.250   5.944
 8633SOL    HW226799   5.614   2.119   5.962
 8634SOL     OW26800   5.112   4.141   6.822
 8634SOL    HW126801   5.168   4.152   6.905
 8634SOL    HW226802   5.132   4.053   6.780
 8635SOL     OW26803   4.982   3.092   6.583
 8635SOL    HW126804   5.020   3.036   6.657
 8635SOL    HW226805   4.982   3.188   6.610
 8636SOL     OW26806   5.630   5.832   0.786
 8636SOL    HW126807   5.611   5.828   0.884
 8636SOL    HW226808   5.598   5.920   0.750
 8637SOL     OW26809   2.658   1.059   0.108
 8637SOL    HW126810   2.742   1.087   0.062
 8637SOL    HW226811   2.599   1.010   0.043
 8638SOL     OW26812   3.308   2.076   4.815
 8638SOL    HW126813   3.329   1.998   4.873
 8638SOL    HW226814   3.287   2.156   4.872
 8639SOL     OW26815   5.471   2.718   0.385
 8639SOL    HW126816   5.538   2.684   0.452
 8639SOL    HW226817   5.440   2.809   0.411
 8640SOL     OW26818   4.056   3.462   0.236
 8640SOL    HW126819   4.044   3.436   0.332
 8640SOL    HW226820   4.151   3.449   0.210
 8641SOL     OW26821   4.149   4.768   4.071
 8641SOL    HW126822   4.217   4.695   4.078
 8641SOL    HW226823   4.184   4.841   4.012
 8642SOL     OW26824   1.139   6.052   4.493
 8642SOL    HW126825   1.121   6.150   4.499
 8642SOL    HW226826   1.084   6.012   4.419
 8643SOL     OW26827   2.548   0.754   5.942
 8643SOL    HW126828   2.579   0.803   6.024
 8643SOL    HW226829   2.453   0.726   5.954
 8644SOL     OW26830   5.515   2.505   5.668
 8644SOL    HW126831   5.477   2.415   5.692
 8644SOL    HW226832   5.604   2.515   5.711
 8645SOL     OW26833   4.240   4.231   1.066
 8645SOL    HW126834   4.173   4.217   1.139
 8645SOL    HW226835   4.232   4.157   0.999
 8646SOL     OW26836   0.214   1.704   0.392
 8646SOL    HW126837   0.146   1.633   0.377
 8646SOL    HW226838   0.260   1.688   0.479
 8647SOL     OW26839   2.377   4.491   6.733
 8647SOL    HW126840   2.339   4.576   6.770
 8647SOL    HW226841   2.476   4.500   6.725
 8648SOL     OW26842   6.626   6.963   2.614
 8648SOL    HW126843   6.660   6.959   2.520
 8648SOL    HW226844   6.577   6.879   2.635
 8649SOL     OW26845   5.607   5.713   6.879
 8649SOL    HW126846   5.580   5.721   6.975
 8649SOL    HW226847   5.706   5.699   6.872
 8650SOL     OW26848   1.673   5.226   4.616
 8650SOL    HW126849   1.588   5.210   4.667
 8650SOL    HW226850   1.662   5.194   4.522
 8651SOL     OW26851   4.369   1.430   0.562
 8651SOL    HW126852   4.314   1.487   0.502
 8651SOL    HW226853   4.321   1.344   0.580
 8652SOL     OW26854   1.839   4.931   3.168
 8652SOL    HW126855   1.837   4.881   3.254
 8652SOL    HW226856   1.929   4.921   3.125
 8653SOL     OW26857   6.747   0.892   6.407
 8653SOL    HW126858   6.837   0.936   6.416
 8653SOL    HW226859   6.676   0.961   6.403
 8654SOL     OW26860   0.797   4.797   2.661
 8654SOL    HW126861   0.859   4.832   2.732
 8654SOL    HW226862   0.840   4.720   2.615
 8655SOL     OW26863   6.164   0.525   4.168
 8655SOL    HW126864   6.081   0.574   4.193
 8655SOL    HW226865   6.140   0.431   4.142
 8656SOL     OW26866   5.963   0.655   1.959
 8656SOL    HW126867   6.008   0.679   1.873
 8656SOL    HW226868   6.032   0.629   2.027
 8657SOL     OW26869   5.254   5.945   0.081
 8657SOL    HW126870   5.259   5.895   7.019
 8657SOL    HW226871   5.218   5.885   0.152
 8658SOL     OW26872   6.118   6.294   0.188
 8658SOL    HW126873   6.193   6.272   0.126
 8658SOL    HW226874   6.108   6.220   0.255
 8659SOL     OW26875   4.796   2.445   2.161
 8659SOL    HW126876   4.787   2.469   2.257
 8659SOL    HW226877   4.709   2.463   2.114
 8660SOL     OW26878   0.032   3.446   1.921
 8660SOL    HW126879   0.011   3.365   1.975
 8660SOL    HW226880   6.985   3.515   1.934
 8661SOL     OW26881   6.960   4.138   1.174
 8661SOL    HW126882   6.878   4.153   1.119
 8661SOL    HW226883   0.017   4.139   1.116
 8662SOL     OW26884   4.466   5.646   1.878
 8662SOL    HW126885   4.389   5.583   1.871
 8662SOL    HW226886   4.552   5.594   1.874
 8663SOL     OW26887   2.828   5.364   2.510
 8663SOL    HW126888   2.865   5.405   2.593
 8663SOL    HW226889   2.731   5.389   2.501
 8664SOL     OW26890   1.902   5.769   1.159
 8664SOL    HW126891   1.825   5.705   1.158
 8664SOL    HW226892   1.944   5.771   1.068
 8665SOL     OW26893   5.728   5.214   5.281
 8665SOL    HW126894   5.725   5.188   5.185
 8665SOL    HW226895   5.776   5.143   5.333
 8666SOL     OW26896   5.916   0.929   3.528
 8666SOL    HW126897   5.818   0.931   3.508
 8666SOL    HW226898   5.955   0.844   3.493
 8667SOL     OW26899   4.108   1.823   4.055
 8667SOL    HW126900   4.129   1.735   4.098
 8667SOL    HW226901   4.014   1.822   4.021
 8668SOL     OW26902   5.289   3.896   2.864
 8668SOL    HW126903   5.216   3.832   2.886
 8668SOL    HW226904   5.251   3.989   2.859
 8669SOL     OW26905   0.563   6.652   6.171
 8669SOL    HW126906   0.529   6.683   6.082
 8669SOL    HW226907   0.655   6.616   6.161
 8670SOL     OW26908   3.755   5.100   5.674
 8670SOL    HW126909   3.743   5.152   5.759
 8670SOL    HW226910   3.692   5.135   5.604
 8671SOL     OW26911   5.991   1.701   3.178
 8671SOL    HW126912   6.041   1.648   3.247
 8671SOL    HW226913   6.053   1.724   3.102
 8672SOL     OW26914   0.814   5.419   3.904
 8672SOL    HW126915   0.764   5.482   3.845
 8672SOL    HW226916   0.897   5.463   3.937
 8673SOL     OW26917   5.669   2.427   6.957
 8673SOL    HW126918   5.586   2.396   7.004
 8673SOL    HW226919   5.746   2.428   7.021
 8674SOL     OW26920   5.611   5.756   2.356
 8674SOL    HW126921   5.559   5.670   2.358
 8674SOL    HW226922   5.708   5.736   2.343
 8675SOL     OW26923   4.352   1.902   5.041
 8675SOL    HW126924   4.409   1.841   4.987
 8675SOL    HW226925   4.263   1.912   4.997
 8676SOL     OW26926   5.777   6.604   3.238
 8676SOL    HW126927   5.810   6.694   3.266
 8676SOL    HW226928   5.760   6.548   3.319
 8677SOL     OW26929   2.190   5.140   6.545
 8677SOL    HW126930   2.142   5.119   6.459
 8677SOL    HW226931   2.199   5.056   6.599
 8678SOL     OW26932   0.691   0.461   1.148
 8678SOL    HW126933   0.687   0.377   1.202
 8678SOL    HW226934   0.723   0.441   1.056
 8679SOL     OW26935   0.765   1.189   3.313
 8679SOL    HW126936   0.674   1.187   3.273
 8679SOL    HW226937   0.758   1.191   3.412
 8680SOL     OW26938   6.539   3.532   0.207
 8680SOL    HW126939   6.442   3.521   0.184
 8680SOL    HW226940   6.561   3.475   0.286
 8681SOL     OW26941   4.843   5.461   1.377
 8681SOL    HW126942   4.928   5.469   1.430
 8681SOL    HW226943   4.774   5.414   1.433
 8682SOL     OW26944   5.959   0.121   2.441
 8682SOL    HW126945   5.913   0.081   2.521
 8682SOL    HW226946   6.045   0.163   2.469
 8683SOL     OW26947   1.805   2.833   5.188
 8683SOL    HW126948   1.880   2.852   5.124
 8683SOL    HW226949   1.746   2.913   5.194
 8684SOL     OW26950   6.108   2.569   4.227
 8684SOL    HW126951   6.117   2.508   4.148
 8684SOL    HW226952   6.032   2.632   4.211
 8685SOL     OW26953   6.089   1.908   6.091
 8685SOL    HW126954   6.058   1.988   6.143
 8685SOL    HW226955   6.176   1.876   6.129
 8686SOL     OW26956   6.417   0.678   2.101
 8686SOL    HW126957   6.473   0.759   2.120
 8686SOL    HW226958   6.415   0.662   2.003
 8687SOL     OW26959   5.063   5.298   2.119
 8687SOL    HW126960   5.109   5.294   2.208
 8687SOL    HW226961   4.977   5.246   2.124
 8688SOL     OW26962   1.099   5.126   6.290
 8688SOL    HW126963   1.101   5.215   6.246
 8688SOL    HW226964   1.092   5.137   6.389
 8689SOL     OW26965   3.781   2.424   1.023
 8689SOL    HW126966   3.805   2.340   1.071
 8689SOL    HW226967   3.848   2.495   1.045
 8690SOL     OW26968   1.265   3.597   3.907
 8690SOL    HW126969   1.173   3.568   3.933
 8690SOL    HW226970   1.259   3.667   3.836
 8691SOL     OW26971   3.746   1.689   6.522
 8691SOL    HW126972   3.744   1.775   6.470
 8691SOL    HW226973   3.740   1.612   6.459
 8692SOL     OW26974   3.272   1.711   4.128
 8692SOL    HW126975   3.193   1.748   4.176
 8692SOL    HW226976   3.330   1.663   4.193
 8693SOL     OW26977   5.612   6.988   0.315
 8693SOL    HW126978   5.698   6.958   0.273
 8693SOL    HW226979   5.629   0.045   0.370
 8694SOL     OW26980   5.389   1.475   5.025
 8694SOL    HW126981   5.295   1.460   4.994
 8694SOL    HW226982   5.452   1.446   4.953
 8695SOL     OW26983   4.704   3.262   5.938
 8695SOL    HW126984   4.640   3.339   5.944
 8695SOL    HW226985   4.691   3.214   5.851
 8696SOL     OW26986   2.580   5.243   5.176
 8696SOL    HW126987   2.512   5.277   5.241
 8696SOL    HW226988   2.654   5.198   5.226
 8697SOL     OW26989   0.363   4.213   6.382
 8697SOL    HW126990   0.377   4.226   6.481
 8697SOL    HW226991   0.422   4.276   6.332
 8698SOL     OW26992   5.318   6.039   5.145
 8698SOL    HW126993   5.408   6.081   5.136
 8698SOL    HW226994   5.322   5.944   5.113
 8699SOL     OW26995   0.998   3.353   4.438
 8699SOL    HW126996   1.088   3.309   4.428
 8699SOL    HW226997   0.948   3.345   4.352
 8700SOL     OW26998   1.135   0.400   4.997
 8700SOL    HW126999   1.167   0.310   4.968
 8700SOL    HW227000   1.172   0.421   5.088
 8701SOL     OW27001   1.347   1.341   0.051
 8701SOL    HW127002   1.282   1.350   7.000
 8701SOL    HW227003   1.313   1.389   0.132
 8702SOL     OW27004   5.309   5.039   2.056
 8702SOL    HW127005   5.212   5.042   2.035
 8702SOL    HW227006   5.351   5.128   2.036
 8703SOL     OW27007   2.786   5.180   0.262
 8703SOL    HW127008   2.736   5.223   0.186
 8703SOL    HW227009   2.836   5.101   0.229
 8704SOL     OW27010   0.879   4.190   3.345
 8704SOL    HW127011   0.876   4.288   3.328
 8704SOL    HW227012   0.922   4.172   3.434
 8705SOL     OW27013   5.124   1.406   6.465
 8705SOL    HW127014   5.069   1.423   6.383
 8705SOL    HW227015   5.221   1.416   6.443
 8706SOL     OW27016   4.926   2.270   7.004
 8706SOL    HW127017   4.866   2.263   0.059
 8706SOL    HW227018   4.901   2.200   6.937
 8707SOL     OW27019   0.830   1.599   5.524
 8707SOL    HW127020   0.903   1.633   5.583
 8707SOL    HW227021   0.811   1.665   5.452
 8708SOL     OW27022   4.200   1.300   3.592
 8708SOL    HW127023   4.137   1.315   3.669
 8708SOL    HW227024   4.189   1.207   3.558
 8709SOL     OW27025   6.517   6.774   6.877
 8709SOL    HW127026   6.456   6.736   6.808
 8709SOL    HW227027   6.612   6.761   6.849
 8710SOL     OW27028   1.331   3.077   3.199
 8710SOL    HW127029   1.292   2.991   3.168
 8710SOL    HW227030   1.390   3.115   3.127
 8711SOL     OW27031   1.557   6.574   2.511
 8711SOL    HW127032   1.500   6.526   2.444
 8711SOL    HW227033   1.653   6.566   2.485
 8712SOL     OW27034   3.647   1.820   4.090
 8712SOL    HW127035   3.609   1.890   4.150
 8712SOL    HW227036   3.595   1.817   4.005
 8713SOL     OW27037   6.839   3.120   2.315
 8713SOL    HW127038   6.816   3.129   2.412
 8713SOL    HW227039   6.754   3.117   2.262
 8714SOL     OW27040   1.398   0.515   6.054
 8714SOL    HW127041   1.419   0.573   5.975
 8714SOL    HW227042   1.416   0.565   6.138
 8715SOL     OW27043   3.966   0.817   0.899
 8715SOL    HW127044   3.984   0.727   0.858
 8715SOL    HW227045   4.051   0.855   0.935
 8716SOL     OW27046   0.195   6.651   0.714
 8716SOL    HW127047   0.171   6.671   0.809
 8716SOL    HW227048   0.259   6.720   0.681
 8717SOL     OW27049   2.875   3.775   5.248
 8717SOL    HW127050   2.865   3.828   5.164
 8717SOL    HW227051   2.969   3.739   5.253
 8718SOL     OW27052   1.545   3.066   5.230
 8718SOL    HW127053   1.518   3.065   5.327
 8718SOL    HW227054   1.636   3.105   5.222
 8719SOL     OW27055   3.893   0.078   0.377
 8719SOL    HW127056   3.928   0.142   0.308
 8719SOL    HW227057   3.860   0.131   0.456
 8720SOL     OW27058   0.938   6.052   6.174
 8720SOL    HW127059   0.992   6.095   6.102
 8720SOL    HW227060   0.951   6.101   6.260
 8721SOL     OW27061   6.844   2.160   1.712
 8721SOL    HW127062   6.796   2.123   1.792
 8721SOL    HW227063   6.795   2.134   1.629
 8722SOL     OW27064   3.454   1.324   1.259
 8722SOL    HW127065   3.540   1.360   1.222
 8722SOL    HW227066   3.397   1.292   1.184
 8723SOL     OW27067   4.626   6.860   1.964
 8723SOL    HW127068   4.550   6.887   1.904
 8723SOL    HW227069   4.600   6.875   2.059
 8724SOL     OW27070   5.846   6.766   4.142
 8724SOL    HW127071   5.857   6.779   4.241
 8724SOL    HW227072   5.867   6.852   4.095
 8725SOL     OW27073   1.993   5.769   5.759
 8725SOL    HW127074   1.913   5.766   5.699
 8725SOL    HW227075   2.014   5.677   5.793
 8726SOL     OW27076   0.131   0.609   3.048
 8726SOL    HW127077   0.075   0.689   3.067
 8726SOL    HW227078   0.218   0.638   3.009
 8727SOL     OW27079   6.280   0.219   1.624
 8727SOL    HW127080   6.238   0.128   1.626
 8727SOL    HW227081   6.330   0.230   1.538
 8728SOL     OW27082   6.085   0.985   1.792
 8728SOL    HW127083   6.023   0.972   1.869
 8728SOL    HW227084   6.146   0.906   1.784
 8729SOL     OW27085   3.396   4.788   5.553
 8729SOL    HW127086   3.410   4.872   5.607
 8729SOL    HW227087   3.302   4.756   5.567
 8730SOL     OW27088   5.173   3.618   2.464
 8730SOL    HW127089   5.254   3.573   2.500
 8730SOL    HW227090   5.109   3.549   2.430
 8731SOL     OW27091   0.423   3.303   3.207
 8731SOL    HW127092   0.507   3.275   3.161
 8731SOL    HW227093   0.440   3.312   3.305
 8732SOL     OW27094   5.696   4.841   2.012
 8732SOL    HW127095   5.647   4.801   2.089
 8732SOL    HW227096   5.739   4.927   2.040
 8733SOL     OW27097   1.295   6.080   1.048
 8733SOL    HW127098   1.236   6.028   1.108
 8733SOL    HW227099   1.386   6.088   1.089
 8734SOL     OW27100   0.980   3.092   2.719
 8734SOL    HW127101   0.997   3.147   2.637
 8734SOL    HW227102   0.984   2.995   2.696
 8735SOL     OW27103   0.747   3.158   6.674
 8735SOL    HW127104   0.719   3.062   6.675
 8735SOL    HW227105   0.670   3.215   6.700
 8736SOL     OW27106   0.464   5.267   1.810
 8736SOL    HW127107   0.469   5.279   1.909
 8736SOL    HW227108   0.375   5.299   1.777
 8737SOL     OW27109   1.529   6.570   0.240
 8737SOL    HW127110   1.568   6.488   0.281
 8737SOL    HW227111   1.440   6.549   0.200
 8738SOL     OW27112   2.723   5.851   4.288
 8738SOL    HW127113   2.767   5.826   4.202
 8738SOL    HW227114   2.639   5.799   4.299
 8739SOL     OW27115   5.679   5.838   5.934
 8739SOL    HW127116   5.750   5.805   5.871
 8739SOL    HW227117   5.592   5.793   5.913
 8740SOL     OW27118   4.101   1.130   4.291
 8740SOL    HW127119   4.013   1.101   4.329
 8740SOL    HW227120   4.174   1.075   4.331
 8741SOL     OW27121   2.458   1.000   2.785
 8741SOL    HW127122   2.504   1.087   2.765
 8741SOL    HW227123   2.429   1.000   2.881
 8742SOL     OW27124   4.837   0.458   1.756
 8742SOL    HW127125   4.881   0.547   1.760
 8742SOL    HW227126   4.808   0.439   1.663
 8743SOL     OW27127   1.147   0.101   1.690
 8743SOL    HW127128   1.066   0.072   1.741
 8743SOL    HW227129   1.229   0.077   1.741
 8744SOL     OW27130   4.494   2.886   0.773
 8744SOL    HW127131   4.544   2.972   0.781
 8744SOL    HW227132   4.534   2.830   0.701
 8745SOL     OW27133   6.320   1.733   6.339
 8745SOL    HW127134   6.358   1.661   6.397
 8745SOL    HW227135   6.224   1.712   6.320
 8746SOL     OW27136   4.991   5.303   4.687
 8746SOL    HW127137   5.051   5.319   4.609
 8746SOL    HW227138   5.016   5.364   4.762
 8747SOL     OW27139   7.003   1.468   2.575
 8747SOL    HW127140   0.013   1.493   2.485
 8747SOL    HW227141   0.034   1.512   2.646
 8748SOL     OW27142   0.474   2.013   4.970
 8748SOL    HW127143   0.475   2.109   4.996
 8748SOL    HW227144   0.567   1.982   4.953
 8749SOL     OW27145   2.105   0.406   5.186
 8749SOL    HW127146   2.113   0.336   5.256
 8749SOL    HW227147   2.193   0.453   5.176
 8750SOL     OW27148   3.748   3.996   5.759
 8750SOL    HW127149   3.792   4.086   5.762
 8750SOL    HW227150   3.790   3.937   5.828
 8751SOL     OW27151   6.322   1.912   1.852
 8751SOL    HW127152   6.297   1.875   1.942
 8751SOL    HW227153   6.254   1.883   1.785
 8752SOL     OW27154   3.406   2.949   6.577
 8752SOL    HW127155   3.336   2.921   6.644
 8752SOL    HW227156   3.434   2.869   6.524
 8753SOL     OW27157   3.002   1.716   6.491
 8753SOL    HW127158   3.026   1.650   6.562
 8753SOL    HW227159   3.085   1.749   6.447
 8754SOL     OW27160   1.494   4.145   4.841
 8754SOL    HW127161   1.557   4.067   4.844
 8754SOL    HW227162   1.510   4.199   4.758
 8755SOL     OW27163   2.019   1.138   1.263
 8755SOL    HW127164   2.059   1.135   1.172
 8755SOL    HW227165   1.920   1.149   1.256
 8756SOL     OW27166   2.009   2.956   3.630
 8756SOL    HW127167   2.102   2.923   3.620
 8756SOL    HW227168   1.980   2.946   3.726
 8757SOL     OW27169   4.082   5.150   6.633
 8757SOL    HW127170   4.140   5.070   6.646
 8757SOL    HW227171   4.061   5.191   6.722
 8758SOL     OW27172   4.758   5.966   3.056
 8758SOL    HW127173   4.741   5.877   3.014
 8758SOL    HW227174   4.768   5.955   3.155
 8759SOL     OW27175   4.556   2.887   0.121
 8759SOL    HW127176   4.633   2.843   0.166
 8759SOL    HW227177   4.518   2.957   0.181
 8760SOL     OW27178   2.843   0.956   4.842
 8760SOL    HW127179   2.808   1.045   4.816
 8760SOL    HW227180   2.852   0.898   4.760
 8761SOL     OW27181   6.305   2.062   1.078
 8761SOL    HW127182   6.296   2.090   0.982
 8761SOL    HW227183   6.385   2.106   1.118
 8762SOL     OW27184   0.878   4.960   3.819
 8762SOL    HW127185   0.835   5.005   3.741
 8762SOL    HW227186   0.825   4.880   3.845
 8763SOL     OW27187   6.326   6.851   6.366
 8763SOL    HW127188   6.413   6.801   6.370
 8763SOL    HW227189   6.336   6.938   6.414
 8764SOL     OW27190   4.490   0.240   5.571
 8764SOL    HW127191   4.516   0.207   5.481
 8764SOL    HW227192   4.531   0.330   5.587
 8765SOL     OW27193   4.981   0.699   3.813
 8765SOL    HW127194   5.037   0.781   3.826
 8765SOL    HW227195   4.942   0.671   3.901
 8766SOL     OW27196   4.432   4.275   5.306
 8766SOL    HW127197   4.412   4.300   5.211
 8766SOL    HW227198   4.403   4.350   5.366
 8767SOL     OW27199   5.941   6.199   2.669
 8767SOL    HW127200   5.972   6.124   2.726
 8767SOL    HW227201   6.018   6.239   2.620
 8768SOL     OW27202   1.360   2.659   6.999
 8768SOL    HW127203   1.298   2.643   0.051
 8768SOL    HW227204   1.318   2.724   6.935
 8769SOL     OW27205   6.786   0.530   2.871
 8769SOL    HW127206   6.738   0.445   2.892
 8769SOL    HW227207   6.878   0.510   2.839
 8770SOL     OW27208   4.626   4.427   2.257
 8770SOL    HW127209   4.570   4.385   2.185
 8770SOL    HW227210   4.670   4.356   2.311
 8771SOL     OW27211   1.183   1.869   6.483
 8771SOL    HW127212   1.164   1.772   6.495
 8771SOL    HW227213   1.266   1.881   6.429
 8772SOL     OW27214   4.323   0.646   6.295
 8772SOL    HW127215   4.418   0.627   6.318
 8772SOL    HW227216   4.309   0.630   6.197
 8773SOL     OW27217   5.409   2.701   3.750
 8773SOL    HW127218   5.386   2.684   3.654
 8773SOL    HW227219   5.341   2.658   3.809
 8774SOL     OW27220   1.416   0.693   0.454
 8774SOL    HW127221   1.497   0.746   0.427
 8774SOL    HW227222   1.421   0.601   0.415
 8775SOL     OW27223   5.563   1.145   5.926
 8775SOL    HW127224   5.633   1.082   5.893
 8775SOL    HW227225   5.522   1.109   6.010
 8776SOL     OW27226   4.424   3.446   0.679
 8776SOL    HW127227   4.524   3.440   0.688
 8776SOL    HW227228   4.392   3.375   0.617
 8777SOL     OW27229   6.011   4.370   3.110
 8777SOL    HW127230   6.064   4.302   3.060
 8777SOL    HW227231   5.964   4.430   3.044
 8778SOL     OW27232   5.301   2.826   6.094
 8778SOL    HW127233   5.338   2.918   6.101
 8778SOL    HW227234   5.206   2.830   6.064
 8779SOL     OW27235   2.485   5.556   2.315
 8779SOL    HW127236   2.405   5.615   2.326
 8779SOL    HW227237   2.501   5.506   2.400
 8780SOL     OW27238   0.070   0.283   3.066
 8780SOL    HW127239   7.003   0.260   3.100
 8780SOL    HW227240   0.070   0.376   3.030
 8781SOL     OW27241   4.968   0.846   4.208
 8781SOL    HW127242   5.068   0.856   4.209
 8781SOL    HW227243   4.940   0.775   4.271
 8782SOL     OW27244   6.629   0.449   1.562
 8782SOL    HW127245   6.704   0.435   1.497
 8782SOL    HW227246   6.564   0.516   1.524
 8783SOL     OW27247   6.356   4.070   3.313
 8783SOL    HW127248   6.365   4.098   3.408
 8783SOL    HW227249   6.400   3.982   3.299
 8784SOL     OW27250   0.342   6.533   6.272
 8784SOL    HW127251   0.304   6.473   6.201
 8784SOL    HW227252   0.405   6.598   6.229
 8785SOL     OW27253   6.040   4.888   6.778
 8785SOL    HW127254   5.988   4.883   6.693
 8785SOL    HW227255   5.978   4.903   6.855
 8786SOL     OW27256   2.662   1.110   0.703
 8786SOL    HW127257   2.749   1.109   0.752
 8786SOL    HW227258   2.597   1.050   0.749
 8787SOL     OW27259   3.097   1.442   2.038
 8787SOL    HW127260   3.112   1.464   2.135
 8787SOL    HW227261   3.016   1.490   2.006
 8788SOL     OW27262   0.361   0.716   5.375
 8788SOL    HW127263   0.443   0.750   5.330
 8788SOL    HW227264   0.334   0.779   5.448
 8789SOL     OW27265   6.432   5.240   5.571
 8789SOL    HW127266   6.338   5.249   5.538
 8789SOL    HW227267   6.435   5.170   5.644
 8790SOL     OW27268   6.148   0.498   6.776
 8790SOL    HW127269   6.135   0.419   6.717
 8790SOL    HW227270   6.236   0.490   6.823
 8791SOL     OW27271   5.711   6.822   5.312
 8791SOL    HW127272   5.720   6.922   5.317
 8791SOL    HW227273   5.802   6.781   5.318
 8792SOL     OW27274   3.053   5.100   3.166
 8792SOL    HW127275   3.046   5.103   3.266
 8792SOL    HW227276   3.145   5.128   3.139
 8793SOL     OW27277   0.796   4.528   2.328
 8793SOL    HW127278   0.728   4.498   2.261
 8793SOL    HW227279   0.864   4.587   2.284
 8794SOL     OW27280   5.482   0.327   2.751
 8794SOL    HW127281   5.413   0.310   2.821
 8794SOL    HW227282   5.488   0.249   2.689
 8795SOL     OW27283   1.082   4.695   5.559
 8795SOL    HW127284   1.117   4.743   5.640
 8795SOL    HW227285   1.148   4.626   5.530
 8796SOL     OW27286   4.977   2.150   3.644
 8796SOL    HW127287   4.941   2.076   3.587
 8796SOL    HW227288   4.966   2.126   3.740
 8797SOL     OW27289   0.049   0.544   6.275
 8797SOL    HW127290   6.990   0.572   6.228
 8797SOL    HW227291   0.128   0.563   6.217
 8798SOL     OW27292   4.807   6.322   6.589
 8798SOL    HW127293   4.773   6.416   6.588
 8798SOL    HW227294   4.836   6.296   6.497
 8799SOL     OW27295   2.363   5.113   3.652
 8799SOL    HW127296   2.302   5.179   3.610
 8799SOL    HW227297   2.447   5.159   3.682
 8800SOL     OW27298   5.900   4.711   5.994
 8800SOL    HW127299   5.858   4.736   5.907
 8800SOL    HW227300   5.993   4.678   5.978
 8801SOL     OW27301   6.887   1.518   4.514
 8801SOL    HW127302   6.897   1.479   4.605
 8801SOL    HW227303   6.792   1.547   4.500
 8802SOL     OW27304   1.791   6.107   6.524
 8802SOL    HW127305   1.713   6.170   6.516
 8802SOL    HW227306   1.771   6.023   6.473
 8803SOL     OW27307   6.750   0.081   0.086
 8803SOL    HW127308   6.759   0.041   7.020
 8803SOL    HW227309   6.702   0.017   0.147
 8804SOL     OW27310   2.150   6.363   1.061
 8804SOL    HW127311   2.054   6.373   1.084
 8804SOL    HW227312   2.174   6.266   1.057
 8805SOL     OW27313   3.696   6.376   3.327
 8805SOL    HW127314   3.727   6.438   3.256
 8805SOL    HW227315   3.742   6.399   3.413
 8806SOL     OW27316   3.092   4.743   0.755
 8806SOL    HW127317   3.116   4.646   0.757
 8806SOL    HW227318   2.994   4.753   0.772
 8807SOL     OW27319   4.963   1.653   0.685
 8807SOL    HW127320   4.924   1.561   0.686
 8807SOL    HW227321   4.900   1.715   0.639
 8808SOL     OW27322   6.413   2.564   6.581
 8808SOL    HW127323   6.475   2.501   6.534
 8808SOL    HW227324   6.342   2.595   6.517
 8809SOL     OW27325   3.186   5.016   4.175
 8809SOL    HW127326   3.154   5.095   4.123
 8809SOL    HW227327   3.109   4.975   4.224
 8810SOL     OW27328   6.079   0.262   5.215
 8810SOL    HW127329   6.053   0.317   5.294
 8810SOL    HW227330   5.997   0.237   5.164
 8811SOL     OW27331   3.576   1.184   3.068
 8811SOL    HW127332   3.614   1.091   3.076
 8811SOL    HW227333   3.491   1.180   3.016
 8812SOL     OW27334   1.850   0.589   0.895
 8812SOL    HW127335   1.751   0.581   0.899
 8812SOL    HW227336   1.876   0.671   0.844
 8813SOL     OW27337   2.065   5.803   3.658
 8813SOL    HW127338   2.054   5.864   3.736
 8813SOL    HW227339   2.144   5.832   3.604
 8814SOL     OW27340   6.457   0.018   0.420
 8814SOL    HW127341   6.409   6.988   0.489
 8814SOL    HW227342   6.416   0.109   0.414
 8815SOL     OW27343   5.180   6.860   1.597
 8815SOL    HW127344   5.253   6.806   1.639
 8815SOL    HW227345   5.220   6.929   1.537
 8816SOL     OW27346   0.916   6.811   0.035
 8816SOL    HW127347   0.897   6.909   0.048
 8816SOL    HW227348   1.013   6.794   0.052
 8817SOL     OW27349   6.808   4.143   3.853
 8817SOL    HW127350   6.815   4.080   3.930
 8817SOL    HW227351   6.714   4.142   3.818
 8818SOL     OW27352   0.939   5.630   3.759
 8818SOL    HW127353   0.986   5.715   3.780
 8818SOL    HW227354   0.891   5.639   3.672
 8819SOL     OW27355   5.510   5.316   5.436
 8819SOL    HW127356   5.533   5.301   5.532
 8819SOL    HW227357   5.587   5.287   5.378
 8820SOL     OW27358   2.566   0.688   5.684
 8820SOL    HW127359   2.563   0.669   5.782
 8820SOL    HW227360   2.503   0.762   5.662
 8821SOL     OW27361   2.066   5.905   0.593
 8821SOL    HW127362   2.039   5.811   0.615
 8821SOL    HW227363   2.088   5.912   0.496
 8822SOL     OW27364   1.178   0.900   3.757
 8822SOL    HW127365   1.235   0.966   3.805
 8822SOL    HW227366   1.156   0.934   3.666
 8823SOL     OW27367   2.799   0.895   2.354
 8823SOL    HW127368   2.898   0.889   2.362
 8823SOL    HW227369   2.774   0.968   2.290
 8824SOL     OW27370   1.487   1.104   0.077
 8824SOL    HW127371   1.468   1.194   0.039
 8824SOL    HW227372   1.468   1.105   0.175
 8825SOL     OW27373   1.556   0.992   2.219
 8825SOL    HW127374   1.568   1.037   2.307
 8825SOL    HW227375   1.464   0.953   2.214
 8826SOL     OW27376   1.003   3.829   0.370
 8826SOL    HW127377   0.957   3.888   0.437
 8826SOL    HW227378   1.080   3.878   0.330
 8827SOL     OW27379   4.423   0.078   3.198
 8827SOL    HW127380   4.435   0.175   3.219
 8827SOL    HW227381   4.382   0.068   3.108
 8828SOL     OW27382   3.777   5.197   6.337
 8828SOL    HW127383   3.783   5.153   6.427
 8828SOL    HW227384   3.703   5.155   6.285
 8829SOL     OW27385   5.460   2.038   1.078
 8829SOL    HW127386   5.379   1.988   1.110
 8829SOL    HW227387   5.503   1.988   1.003
 8830SOL     OW27388   2.210   1.733   2.304
 8830SOL    HW127389   2.174   1.818   2.342
 8830SOL    HW227390   2.287   1.753   2.244
 8831SOL     OW27391   5.273   2.607   3.527
 8831SOL    HW127392   5.264   2.508   3.523
 8831SOL    HW227393   5.187   2.649   3.498
 8832SOL     OW27394   6.778   6.470   3.608
 8832SOL    HW127395   6.766   6.536   3.682
 8832SOL    HW227396   6.817   6.516   3.528
 8833SOL     OW27397   2.779   4.986   6.577
 8833SOL    HW127398   2.741   5.075   6.553
 8833SOL    HW227399   2.709   4.915   6.565
 8834SOL     OW27400   5.877   3.639   4.512
 8834SOL    HW127401   5.795   3.676   4.556
 8834SOL    HW227402   5.864   3.638   4.413
 8835SOL     OW27403   5.250   0.938   5.716
 8835SOL    HW127404   5.303   1.021   5.700
 8835SOL    HW227405   5.168   0.938   5.658
 8836SOL     OW27406   5.265   1.952   0.779
 8836SOL    HW127407   5.249   2.035   0.832
 8836SOL    HW227408   5.224   1.874   0.826
 8837SOL     OW27409   6.965   6.810   2.705
 8837SOL    HW127410   6.958   6.718   2.666
 8837SOL    HW227411   6.877   6.837   2.743
 8838SOL     OW27412   2.057   4.648   3.877
 8838SOL    HW127413   2.103   4.665   3.965
 8838SOL    HW227414   2.074   4.724   3.815
 8839SOL     OW27415   4.364   5.843   1.719
 8839SOL    HW127416   4.422   5.782   1.773
 8839SOL    HW227417   4.371   5.818   1.622
 8840SOL     OW27418   6.603   0.740   2.415
 8840SOL    HW127419   6.506   0.762   2.430
 8840SOL    HW227420   6.619   0.645   2.442
 8841SOL     OW27421   0.302   1.593   4.668
 8841SOL    HW127422   0.205   1.591   4.643
 8841SOL    HW227423   0.315   1.542   4.753
 8842SOL     OW27424   3.176   3.032   3.386
 8842SOL    HW127425   3.208   3.014   3.479
 8842SOL    HW227426   3.243   2.996   3.320
 8843SOL     OW27427   1.903   3.284   4.431
 8843SOL    HW127428   1.885   3.383   4.430
 8843SOL    HW227429   2.001   3.268   4.418
 8844SOL     OW27430   6.980   1.675   4.877
 8844SOL    HW127431   0.023   1.712   4.942
 8844SOL    HW227432   7.007   1.701   4.784
 8845SOL     OW27433   2.577   3.735   1.328
 8845SOL    HW127434   2.497   3.696   1.374
 8845SOL    HW227435   2.653   3.740   1.393
 8846SOL     OW27436   3.719   4.994   4.590
 8846SOL    HW127437   3.620   5.000   4.578
 8846SOL    HW227438   3.749   5.059   4.660
 8847SOL     OW27439   2.756   1.090   2.731
 8847SOL    HW127440   2.846   1.054   2.708
 8847SOL    HW227441   2.702   1.102   2.647
 8848SOL     OW27442   2.715   2.290   2.278
 8848SOL    HW127443   2.667   2.204   2.259
 8848SOL    HW227444   2.771   2.315   2.198
 8849SOL     OW27445   3.721   5.711   3.677
 8849SOL    HW127446   3.819   5.707   3.662
 8849SOL    HW227447   3.673   5.667   3.601
 8850SOL     OW27448   2.105   1.023   6.493
 8850SOL    HW127449   2.008   1.019   6.469
 8850SOL    HW227450   2.113   1.035   6.592
 8851SOL     OW27451   0.733   5.060   2.497
 8851SOL    HW127452   0.769   4.980   2.544
 8851SOL    HW227453   0.777   5.142   2.532
 8852SOL     OW27454   4.199   3.980   5.835
 8852SOL    HW127455   4.259   4.020   5.905
 8852SOL    HW227456   4.255   3.939   5.763
 8853SOL     OW27457   3.637   0.649   6.546
 8853SOL    HW127458   3.736   0.640   6.536
 8853SOL    HW227459   3.616   0.685   6.637
 8854SOL     OW27460   2.998   1.729   6.094
 8854SOL    HW127461   3.009   1.826   6.115
 8854SOL    HW227462   3.072   1.699   6.034
 8855SOL     OW27463   6.817   6.326   0.129
 8855SOL    HW127464   6.771   6.247   0.168
 8855SOL    HW227465   6.825   6.398   0.198
 8856SOL     OW27466   6.149   0.625   6.421
 8856SOL    HW127467   6.207   0.695   6.378
 8856SOL    HW227468   6.141   0.644   6.519
 8857SOL     OW27469   6.722   2.219   3.937
 8857SOL    HW127470   6.817   2.227   3.968
 8857SOL    HW227471   6.674   2.154   3.995
 8858SOL     OW27472   1.489   2.691   5.178
 8858SOL    HW127473   1.530   2.755   5.243
 8858SOL    HW227474   1.561   2.640   5.132
 8859SOL     OW27475   6.338   0.832   4.223
 8859SOL    HW127476   6.239   0.822   4.207
 8859SOL    HW227477   6.387   0.760   4.175
 8860SOL     OW27478   0.871   3.297   2.950
 8860SOL    HW127479   0.922   3.245   2.881
 8860SOL    HW227480   0.776   3.265   2.951
 8861SOL     OW27481   3.704   1.702   6.187
 8861SOL    HW127482   3.785   1.740   6.231
 8861SOL    HW227483   3.705   1.602   6.195
 8862SOL     OW27484   6.303   0.363   3.236
 8862SOL    HW127485   6.210   0.336   3.211
 8862SOL    HW227486   6.301   0.452   3.281
 8863SOL     OW27487   1.467   5.596   4.050
 8863SOL    HW127488   1.438   5.674   3.993
 8863SOL    HW227489   1.405   5.586   4.127
 8864SOL     OW27490   3.145   3.099   6.001
 8864SOL    HW127491   3.245   3.103   6.003
 8864SOL    HW227492   3.113   3.119   5.909
 8865SOL     OW27493   2.986   1.712   5.805
 8865SOL    HW127494   3.056   1.660   5.757
 8865SOL    HW227495   2.907   1.652   5.822
 8866SOL     OW27496   5.500   6.894   3.355
 8866SOL    HW127497   5.584   6.942   3.331
 8866SOL    HW227498   5.520   6.821   3.420
 8867SOL     OW27499   5.215   3.595   2.060
 8867SOL    HW127500   5.239   3.652   1.982
 8867SOL    HW227501   5.141   3.638   2.112
 8868SOL     OW27502   6.575   2.821   0.305
 8868SOL    HW127503   6.538   2.914   0.308
 8868SOL    HW227504   6.666   2.823   0.263
 8869SOL     OW27505   4.212   6.051   4.548
 8869SOL    HW127506   4.242   5.978   4.487
 8869SOL    HW227507   4.290   6.107   4.575
 8870SOL     OW27508   4.501   0.336   0.017
 8870SOL    HW127509   4.444   0.294   0.087
 8870SOL    HW227510   4.496   0.281   6.957
 8871SOL     OW27511   1.444   0.258   3.823
 8871SOL    HW127512   1.528   0.246   3.875
 8871SOL    HW227513   1.366   0.256   3.886
 8872SOL     OW27514   1.723   4.876   5.171
 8872SOL    HW127515   1.649   4.810   5.184
 8872SOL    HW227516   1.731   4.900   5.074
 8873SOL     OW27517   0.703   5.588   2.350
 8873SOL    HW127518   0.715   5.531   2.269
 8873SOL    HW227519   0.704   5.684   2.324
 8874SOL     OW27520   3.363   6.099   1.605
 8874SOL    HW127521   3.437   6.153   1.646
 8874SOL    HW227522   3.384   6.082   1.509
 8875SOL     OW27523   6.024   3.596   4.821
 8875SOL    HW127524   6.059   3.595   4.728
 8875SOL    HW227525   6.101   3.604   4.885
 8876SOL     OW27526   1.745   0.173   4.581
 8876SOL    HW127527   1.708   0.230   4.507
 8876SOL    HW227528   1.800   0.100   4.541
 8877SOL     OW27529   3.112   0.735   3.926
 8877SOL    HW127530   3.026   0.738   3.976
 8877SOL    HW227531   3.177   0.798   3.967
 8878SOL     OW27532   6.847   5.279   0.030
 8878SOL    HW127533   6.945   5.270   0.012
 8878SOL    HW227534   6.828   5.371   0.064
 8879SOL     OW27535   4.938   4.380   1.630
 8879SOL    HW127536   4.917   4.284   1.651
 8879SOL    HW227537   4.911   4.437   1.707
 8880SOL     OW27538   6.060   5.583   4.567
 8880SOL    HW127539   6.066   5.680   4.544
 8880SOL    HW227540   6.034   5.574   4.663
 8881SOL     OW27541   6.806   0.059   4.362
 8881SOL    HW127542   6.802   0.109   4.449
 8881SOL    HW227543   6.864   7.002   4.374
 8882SOL     OW27544   5.365   1.348   0.775
 8882SOL    HW127545   5.349   1.429   0.719
 8882SOL    HW227546   5.424   1.371   0.853
 8883SOL     OW27547   2.266   6.648   5.912
 8883SOL    HW127548   2.322   6.648   5.995
 8883SOL    HW227549   2.170   6.661   5.937
 8884SOL     OW27550   5.994   4.180   6.764
 8884SOL    HW127551   5.968   4.134   6.679
 8884SOL    HW227552   5.960   4.274   6.763
 8885SOL     OW27553   0.339   3.135   0.625
 8885SOL    HW127554   0.275   3.058   0.631
 8885SOL    HW227555   0.426   3.103   0.586
 8886SOL     OW27556   3.319   6.100   4.923
 8886SOL    HW127557   3.242   6.162   4.932
 8886SOL    HW227558   3.338   6.057   5.012
 8887SOL     OW27559   3.224   1.679   1.391
 8887SOL    HW127560   3.280   1.598   1.405
 8887SOL    HW227561   3.144   1.676   1.451
 8888SOL     OW27562   1.399   1.577   6.853
 8888SOL    HW127563   1.483   1.538   6.816
 8888SOL    HW227564   1.327   1.507   6.853
 8889SOL     OW27565   5.995   0.409   5.427
 8889SOL    HW127566   6.006   0.487   5.488
 8889SOL    HW227567   5.908   0.364   5.446
 8890SOL     OW27568   6.636   5.564   4.246
 8890SOL    HW127569   6.624   5.511   4.162
 8890SOL    HW227570   6.636   5.503   4.325
 8891SOL     OW27571   5.201   3.268   5.763
 8891SOL    HW127572   5.254   3.315   5.834
 8891SOL    HW227573   5.225   3.171   5.763
 8892SOL     OW27574   3.907   5.670   3.383
 8892SOL    HW127575   3.822   5.712   3.415
 8892SOL    HW227576   3.985   5.721   3.419
 8893SOL     OW27577   1.068   6.326   3.744
 8893SOL    HW127578   1.066   6.328   3.644
 8893SOL    HW227579   1.061   6.232   3.776
 8894SOL     OW27580   4.508   2.470   5.889
 8894SOL    HW127581   4.428   2.499   5.941
 8894SOL    HW227582   4.575   2.545   5.887
 8895SOL     OW27583   6.852   2.134   2.135
 8895SOL    HW127584   6.797   2.216   2.120
 8895SOL    HW227585   6.923   2.153   2.202
 8896SOL     OW27586   1.980   3.233   5.622
 8896SOL    HW127587   1.942   3.143   5.600
 8896SOL    HW227588   1.961   3.254   5.718
 8897SOL     OW27589   2.231   2.941   3.367
 8897SOL    HW127590   2.253   2.860   3.422
 8897SOL    HW227591   2.225   2.916   3.271
 8898SOL     OW27592   5.259   3.932   3.277
 8898SOL    HW127593   5.218   4.019   3.303
 8898SOL    HW227594   5.354   3.946   3.251
 8899SOL     OW27595   2.251   5.026   0.873
 8899SOL    HW127596   2.240   4.927   0.881
 8899SOL    HW227597   2.329   5.056   0.928
 8900SOL     OW27598   6.289   3.205   2.307
 8900SOL    HW127599   6.251   3.230   2.396
 8900SOL    HW227600   6.314   3.109   2.306
 8901SOL     OW27601   1.832   1.098   4.470
 8901SOL    HW127602   1.812   1.195   4.481
 8901SOL    HW227603   1.839   1.055   4.560
 8902SOL     OW27604   2.391   0.113   0.907
 8902SOL    HW127605   2.406   0.039   0.973
 8902SOL    HW227606   2.456   0.103   0.831
 8903SOL     OW27607   1.024   1.371   4.663
 8903SOL    HW127608   1.015   1.284   4.614
 8903SOL    HW227609   0.955   1.376   4.735
 8904SOL     OW27610   5.606   6.046   3.714
 8904SOL    HW127611   5.565   5.995   3.638
 8904SOL    HW227612   5.600   6.144   3.695
 8905SOL     OW27613   1.835   4.551   3.677
 8905SOL    HW127614   1.783   4.488   3.735
 8905SOL    HW227615   1.907   4.594   3.730
 8906SOL     OW27616   0.005   6.555   6.983
 8906SOL    HW127617   0.024   6.542   6.886
 8906SOL    HW227618   0.058   6.490   0.013
 8907SOL     OW27619   3.042   2.195   4.497
 8907SOL    HW127620   2.951   2.188   4.458
 8907SOL    HW227621   3.110   2.201   4.423
 8908SOL     OW27622   0.858   3.517   6.630
 8908SOL    HW127623   0.829   3.521   6.725
 8908SOL    HW227624   0.956   3.539   6.624
 8909SOL     OW27625   2.167   1.009   5.356
 8909SOL    HW127626   2.201   0.917   5.377
 8909SOL    HW227627   2.075   1.002   5.316
 8910SOL     OW27628   0.364   2.843   5.780
 8910SOL    HW127629   0.301   2.913   5.813
 8910SOL    HW227630   0.442   2.836   5.842
 8911SOL     OW27631   4.248   2.214   4.867
 8911SOL    HW127632   4.335   2.173   4.893
 8911SOL    HW227633   4.229   2.293   4.926
 8912SOL     OW27634   3.989   3.036   0.466
 8912SOL    HW127635   3.975   3.057   0.369
 8912SOL    HW227636   3.980   2.937   0.480
 8913SOL     OW27637   4.670   5.209   6.052
 8913SOL    HW127638   4.655   5.162   6.138
 8913SOL    HW227639   4.685   5.307   6.070
 8914SOL     OW27640   3.868   6.869   4.309
 8914SOL    HW127641   3.816   6.955   4.306
 8914SOL    HW227642   3.837   6.814   4.386
 8915SOL     OW27643   0.426   2.752   3.869
 8915SOL    HW127644   0.443   2.655   3.852
 8915SOL    HW227645   0.457   2.805   3.790
 8916SOL     OW27646   0.204   3.650   0.519
 8916SOL    HW127647   0.215   3.700   0.605
 8916SOL    HW227648   0.137   3.577   0.531
 8917SOL     OW27649   6.824   3.564   6.584
 8917SOL    HW127650   6.765   3.607   6.516
 8917SOL    HW227651   6.821   3.617   6.669
 8918SOL     OW27652   6.698   3.809   1.606
 8918SOL    HW127653   6.704   3.909   1.599
 8918SOL    HW227654   6.626   3.776   1.545
 8919SOL     OW27655   3.925   4.356   0.470
 8919SOL    HW127656   3.990   4.375   0.544
 8919SOL    HW227657   3.931   4.429   0.402
 8920SOL     OW27658   0.465   0.215   0.307
 8920SOL    HW127659   0.426   0.307   0.318
 8920SOL    HW227660   0.391   0.148   0.302
 8921SOL     OW27661   2.014   2.145   2.566
 8921SOL    HW127662   2.037   2.062   2.618
 8921SOL    HW227663   1.984   2.217   2.629
 8922SOL     OW27664   3.431   5.021   1.389
 8922SOL    HW127665   3.518   5.047   1.431
 8922SOL    HW227666   3.437   4.927   1.353
 8923SOL     OW27667   1.556   3.421   6.474
 8923SOL    HW127668   1.546   3.414   6.375
 8923SOL    HW227669   1.535   3.332   6.516
 8924SOL     OW27670   3.340   5.903   5.923
 8924SOL    HW127671   3.302   5.852   6.000
 8924SOL    HW227672   3.440   5.907   5.931
 8925SOL     OW27673   0.834   1.155   2.661
 8925SOL    HW127674   0.880   1.070   2.636
 8925SOL    HW227675   0.880   1.232   2.617
 8926SOL     OW27676   6.249   3.787   5.691
 8926SOL    HW127677   6.152   3.767   5.703
 8926SOL    HW227678   6.298   3.767   5.775
 8927SOL     OW27679   1.125   1.501   4.440
 8927SOL    HW127680   1.161   1.426   4.385
 8927SOL    HW227681   1.066   1.465   4.512
 8928SOL     OW27682   0.051   0.722   5.998
 8928SOL    HW127683   0.118   0.726   6.071
 8928SOL    HW227684   6.985   0.703   6.036
 8929SOL     OW27685   6.210   3.302   4.253
 8929SOL    HW127686   6.203   3.371   4.181
 8929SOL    HW227687   6.141   3.322   4.324
 8930SOL     OW27688   1.547   4.087   4.071
 8930SOL    HW127689   1.540   4.098   3.972
 8930SOL    HW227690   1.605   4.160   4.108
 8931SOL     OW27691   2.900   3.101   1.286
 8931SOL    HW127692   2.945   3.018   1.253
 8931SOL    HW227693   2.871   3.156   1.208
 8932SOL     OW27694   5.672   0.362   0.951
 8932SOL    HW127695   5.730   0.362   0.869
 8932SOL    HW227696   5.691   0.443   1.006
 8933SOL     OW27697   1.538   3.095   6.278
 8933SOL    HW127698   1.512   3.191   6.274
 8933SOL    HW227699   1.627   3.086   6.324
 8934SOL     OW27700   3.160   5.040   4.645
 8934SOL    HW127701   3.122   5.124   4.607
 8934SOL    HW227702   3.094   4.966   4.635
 8935SOL     OW27703   6.158   3.818   1.203
 8935SOL    HW127704   6.074   3.871   1.216
 8935SOL    HW227705   6.218   3.831   1.282
 8936SOL     OW27706   1.120   3.316   1.511
 8936SOL    HW127707   1.189   3.383   1.540
 8936SOL    HW227708   1.148   3.225   1.539
 8937SOL     OW27709   0.176   6.987   4.913
 8937SOL    HW127710   0.213   0.046   4.871
 8937SOL    HW227711   0.250   6.938   4.960
 8938SOL     OW27712   0.086   1.479   0.328
 8938SOL    HW127713   0.102   1.404   0.393
 8938SOL    HW227714   0.067   1.441   0.238
 8939SOL     OW27715   5.891   4.021   4.325
 8939SOL    HW127716   5.804   4.069   4.331
 8939SOL    HW227717   5.878   3.925   4.352
 8940SOL     OW27718   5.638   1.106   1.325
 8940SOL    HW127719   5.734   1.076   1.330
 8940SOL    HW227720   5.631   1.200   1.358
 8941SOL     OW27721   6.392   2.638   3.366
 8941SOL    HW127722   6.404   2.554   3.418
 8941SOL    HW227723   6.413   2.717   3.425
 8942SOL     OW27724   0.671   5.371   5.892
 8942SOL    HW127725   0.578   5.335   5.901
 8942SOL    HW227726   0.702   5.363   5.798
 8943SOL     OW27727   3.824   5.549   0.414
 8943SOL    HW127728   3.781   5.623   0.362
 8943SOL    HW227729   3.782   5.543   0.504
 8944SOL     OW27730   5.044   5.940   4.536
 8944SOL    HW127731   4.993   5.981   4.611
 8944SOL    HW227732   5.142   5.941   4.558
 8945SOL     OW27733   0.155   1.593   4.003
 8945SOL    HW127734   0.212   1.654   4.060
 8945SOL    HW227735   0.151   1.629   3.910
 8946SOL     OW27736   3.978   0.522   4.271
 8946SOL    HW127737   4.004   0.605   4.221
 8946SOL    HW227738   4.060   0.473   4.301
 8947SOL     OW27739   2.251   3.107   5.927
 8947SOL    HW127740   2.261   3.088   5.830
 8947SOL    HW227741   2.178   3.050   5.965
 8948SOL     OW27742   5.940   5.952   3.399
 8948SOL    HW127743   5.928   5.865   3.351
 8948SOL    HW227744   6.011   6.005   3.353
 8949SOL     OW27745   4.078   6.146   0.650
 8949SOL    HW127746   4.021   6.227   0.643
 8949SOL    HW227747   4.059   6.085   0.573
 8950SOL     OW27748   3.599   3.277   0.581
 8950SOL    HW127749   3.544   3.193   0.577
 8950SOL    HW227750   3.645   3.291   0.494
 8951SOL     OW27751   2.234   1.345   4.562
 8951SOL    HW127752   2.164   1.292   4.610
 8951SOL    HW227753   2.191   1.418   4.510
 8952SOL     OW27754   0.519   5.021   3.534
 8952SOL    HW127755   0.432   4.987   3.571
 8952SOL    HW227756   0.562   5.082   3.599
 8953SOL     OW27757   0.764   4.072   0.807
 8953SOL    HW127758   0.830   4.084   0.881
 8953SOL    HW227759   0.810   4.036   0.726
 8954SOL     OW27760   6.668   0.470   4.554
 8954SOL    HW127761   6.644   0.377   4.583
 8954SOL    HW227762   6.715   0.517   4.629
 8955SOL     OW27763   6.718   4.883   3.415
 8955SOL    HW127764   6.797   4.915   3.467
 8955SOL    HW227765   6.749   4.846   3.327
 8956SOL     OW27766   1.927   1.087   5.689
 8956SOL    HW127767   2.009   1.143   5.702
 8956SOL    HW227768   1.934   1.005   5.746
 8957SOL     OW27769   2.065   4.486   1.250
 8957SOL    HW127770   2.010   4.569   1.251
 8957SOL    HW227771   2.012   4.410   1.287
 8958SOL     OW27772   1.051   2.504   5.669
 8958SOL    HW127773   1.117   2.571   5.702
 8958SOL    HW227774   1.055   2.499   5.569
 8959SOL     OW27775   1.884   4.264   3.081
 8959SOL    HW127776   1.834   4.243   3.166
 8959SOL    HW227777   1.968   4.313   3.103
 8960SOL     OW27778   5.414   5.665   4.368
 8960SOL    HW127779   5.460   5.581   4.397
 8960SOL    HW227780   5.321   5.643   4.337
 8961SOL     OW27781   3.720   1.434   3.623
 8961SOL    HW127782   3.764   1.362   3.676
 8961SOL    HW227783   3.743   1.523   3.663
 8962SOL     OW27784   6.470   5.359   2.568
 8962SOL    HW127785   6.547   5.301   2.591
 8962SOL    HW227786   6.420   5.320   2.490
 8963SOL     OW27787   3.959   6.856   4.839
 8963SOL    HW127788   3.914   6.768   4.854
 8963SOL    HW227789   4.031   6.869   4.907
 8964SOL     OW27790   6.005   2.804   3.038
 8964SOL    HW127791   5.970   2.863   3.110
 8964SOL    HW227792   6.085   2.755   3.071
 8965SOL     OW27793   2.510   5.505   0.161
 8965SOL    HW127794   2.529   5.463   0.072
 8965SOL    HW227795   2.466   5.593   0.147
 8966SOL     OW27796   6.407   4.238   0.268
 8966SOL    HW127797   6.504   4.255   0.253
 8966SOL    HW227798   6.355   4.322   0.249
 8967SOL     OW27799   3.749   0.624   1.890
 8967SOL    HW127800   3.660   0.592   1.859
 8967SOL    HW227801   3.809   0.636   1.811
 8968SOL     OW27802   4.448   5.824   2.582
 8968SOL    HW127803   4.444   5.725   2.574
 8968SOL    HW227804   4.363   5.857   2.623
 8969SOL     OW27805   0.434   0.332   3.843
 8969SOL    HW127806   0.485   0.247   3.850
 8969SOL    HW227807   0.475   0.391   3.773
 8970SOL     OW27808   2.320   2.671   6.483
 8970SOL    HW127809   2.276   2.761   6.479
 8970SOL    HW227810   2.362   2.659   6.574
 8971SOL     OW27811   5.599   5.392   0.878
 8971SOL    HW127812   5.585   5.387   0.779
 8971SOL    HW227813   5.660   5.467   0.900
 8972SOL     OW27814   4.202   3.806   0.845
 8972SOL    HW127815   4.291   3.781   0.805
 8972SOL    HW227816   4.196   3.771   0.938
 8973SOL     OW27817   6.496   3.425   3.237
 8973SOL    HW127818   6.501   3.517   3.277
 8973SOL    HW227819   6.588   3.390   3.224
 8974SOL     OW27820   1.516   3.164   4.066
 8974SOL    HW127821   1.590   3.132   4.007
 8974SOL    HW227822   1.533   3.260   4.091
 8975SOL     OW27823   0.825   6.649   6.680
 8975SOL    HW127824   0.790   6.559   6.703
 8975SOL    HW227825   0.791   6.716   6.745
 8976SOL     OW27826   6.630   5.404   0.382
 8976SOL    HW127827   6.583   5.328   0.339
 8976SOL    HW227828   6.563   5.462   0.431
 8977SOL     OW27829   6.449   3.123   6.636
 8977SOL    HW127830   6.429   3.098   6.542
 8977SOL    HW227831   6.503   3.207   6.638
 8978SOL     OW27832   5.586   6.934   4.357
 8978SOL    HW127833   5.560   7.010   4.298
 8978SOL    HW227834   5.539   6.851   4.328
 8979SOL     OW27835   0.903   4.703   6.067
 8979SOL    HW127836   0.932   4.798   6.075
 8979SOL    HW227837   0.872   4.670   6.156
 8980SOL     OW27838   4.744   2.630   5.923
 8980SOL    HW127839   4.778   2.696   5.989
 8980SOL    HW227840   4.807   2.624   5.845
 8981SOL     OW27841   4.518   1.799   5.289
 8981SOL    HW127842   4.460   1.855   5.230
 8981SOL    HW227843   4.578   1.859   5.343
 8982SOL     OW27844   0.990   1.462   1.719
 8982SOL    HW127845   0.939   1.434   1.638
 8982SOL    HW227846   0.926   1.489   1.791
 8983SOL     OW27847   0.451   5.737   0.291
 8983SOL    HW127848   0.531   5.756   0.348
 8983SOL    HW227849   0.389   5.815   0.294
 8984SOL     OW27850   5.873   6.075   3.962
 8984SOL    HW127851   5.815   6.049   3.885
 8984SOL    HW227852   5.909   6.167   3.948
 8985SOL     OW27853   2.205   1.689   0.656
 8985SOL    HW127854   2.268   1.675   0.579
 8985SOL    HW227855   2.165   1.781   0.650
 8986SOL     OW27856   4.335   5.010   2.381
 8986SOL    HW127857   4.355   4.993   2.478
 8986SOL    HW227858   4.238   5.029   2.369
 8987SOL     OW27859   3.235   0.383   1.182
 8987SOL    HW127860   3.328   0.360   1.211
 8987SOL    HW227861   3.208   0.471   1.222
 8988SOL     OW27862   1.762   4.730   0.619
 8988SOL    HW127863   1.765   4.812   0.562
 8988SOL    HW227864   1.754   4.649   0.560
 8989SOL     OW27865   4.785   4.125   1.963
 8989SOL    HW127866   4.709   4.177   2.002
 8989SOL    HW227867   4.758   4.030   1.951
 8990SOL     OW27868   2.201   5.663   1.798
 8990SOL    HW127869   2.296   5.693   1.809
 8990SOL    HW227870   2.158   5.656   1.888
 8991SOL     OW27871   2.271   1.409   0.448
 8991SOL    HW127872   2.355   1.447   0.485
 8991SOL    HW227873   2.243   1.330   0.502
 8992SOL     OW27874   6.914   2.669   6.362
 8992SOL    HW127875   6.925   2.765   6.338
 8992SOL    HW227876   6.882   2.662   6.457
 8993SOL     OW27877   4.651   2.538   2.753
 8993SOL    HW127878   4.608   2.449   2.744
 8993SOL    HW227879   4.622   2.598   2.678
 8994SOL     OW27880   0.679   6.048   4.547
 8994SOL    HW127881   0.663   6.093   4.635
 8994SOL    HW227882   0.747   5.975   4.558
 8995SOL     OW27883   1.250   2.651   5.732
 8995SOL    HW127884   1.268   2.590   5.808
 8995SOL    HW227885   1.330   2.654   5.672
 8996SOL     OW27886   6.982   4.654   2.170
 8996SOL    HW127887   0.030   4.629   2.234
 8996SOL    HW227888   6.998   4.611   2.082
 8997SOL     OW27889   4.300   1.720   6.218
 8997SOL    HW127890   4.389   1.685   6.189
 8997SOL    HW227891   4.277   1.801   6.166
 8998SOL     OW27892   0.464   3.061   4.070
 8998SOL    HW127893   0.388   3.023   4.123
 8998SOL    HW227894   0.518   3.121   4.129
 8999SOL     OW27895   4.756   0.244   6.786
 8999SOL    HW127896   4.788   0.227   6.693
 8999SOL    HW227897   4.825   0.212   6.851
 9000SOL     OW27898   2.627   4.087   6.303
 9000SOL    HW127899   2.561   4.121   6.369
 9000SOL    HW227900   2.632   4.149   6.225
 9001SOL     OW27901   0.910   5.381   2.891
 9001SOL    HW127902   0.931   5.351   2.798
 9001SOL    HW227903   0.817   5.418   2.893
 9002SOL     OW27904   0.262   5.058   5.093
 9002SOL    HW127905   0.322   4.984   5.063
 9002SOL    HW227906   0.189   5.071   5.027
 9003SOL     OW27907   5.629   2.454   1.002
 9003SOL    HW127908   5.554   2.407   1.049
 9003SOL    HW227909   5.696   2.485   1.069
 9004SOL     OW27910   4.575   6.902   1.649
 9004SOL    HW127911   4.516   6.823   1.633
 9004SOL    HW227912   4.521   6.975   1.692
 9005SOL     OW27913   5.904   1.615   4.367
 9005SOL    HW127914   5.853   1.548   4.420
 9005SOL    HW227915   5.920   1.580   4.275
 9006SOL     OW27916   2.113   5.908   0.301
 9006SOL    HW127917   2.058   5.937   0.223
 9006SOL    HW227918   2.116   5.809   0.306
 9007SOL     OW27919   3.938   6.070   3.642
 9007SOL    HW127920   3.962   6.121   3.724
 9007SOL    HW227921   3.845   6.035   3.649
 9008SOL     OW27922   6.395   5.061   2.789
 9008SOL    HW127923   6.481   5.110   2.781
 9008SOL    HW227924   6.393   5.012   2.877
 9009SOL     OW27925   2.364   0.192   0.550
 9009SOL    HW127926   2.449   0.151   0.516
 9009SOL    HW227927   2.291   0.124   0.550
 9010SOL     OW27928   1.151   6.963   4.709
 9010SOL    HW127929   1.246   6.990   4.690
 9010SOL    HW227930   1.132   6.875   4.668
 9011SOL     OW27931   4.223   1.905   2.164
 9011SOL    HW127932   4.178   1.951   2.241
 9011SOL    HW227933   4.164   1.908   2.084
 9012SOL     OW27934   3.268   4.429   0.924
 9012SOL    HW127935   3.252   4.488   1.003
 9012SOL    HW227936   3.180   4.398   0.888
 9013SOL     OW27937   6.496   6.469   4.322
 9013SOL    HW127938   6.462   6.383   4.358
 9013SOL    HW227939   6.437   6.500   4.247
 9014SOL     OW27940   0.931   0.901   0.378
 9014SOL    HW127941   1.026   0.889   0.347
 9014SOL    HW227942   0.874   0.829   0.338
 9015SOL     OW27943   6.044   1.258   0.730
 9015SOL    HW127944   6.052   1.297   0.638
 9015SOL    HW227945   6.131   1.216   0.755
 9016SOL     OW27946   0.435   6.381   6.712
 9016SOL    HW127947   0.457   6.461   6.656
 9016SOL    HW227948   0.395   6.310   6.655
 9017SOL     OW27949   5.042   2.599   2.112
 9017SOL    HW127950   4.952   2.554   2.110
 9017SOL    HW227951   5.045   2.665   2.187
 9018SOL     OW27952   4.312   1.088   5.253
 9018SOL    HW127953   4.337   1.144   5.173
 9018SOL    HW227954   4.344   1.133   5.336
 9019SOL     OW27955   0.293   0.398   1.139
 9019SOL    HW127956   0.363   0.329   1.126
 9019SOL    HW227957   0.328   0.488   1.113
 9020SOL     OW27958   1.201   3.895   1.511
 9020SOL    HW127959   1.214   3.824   1.442
 9020SOL    HW227960   1.285   3.948   1.520
 9021SOL     OW27961   6.655   0.563   3.763
 9021SOL    HW127962   6.693   0.472   3.783
 9021SOL    HW227963   6.613   0.562   3.672
 9022SOL     OW27964   2.829   1.090   1.379
 9022SOL    HW127965   2.926   1.065   1.382
 9022SOL    HW227966   2.776   1.022   1.429
 9023SOL     OW27967   3.263   2.935   2.823
 9023SOL    HW127968   3.188   2.938   2.889
 9023SOL    HW227969   3.228   2.958   2.732
 9024SOL     OW27970   0.787   5.607   5.716
 9024SOL    HW127971   0.822   5.646   5.632
 9024SOL    HW227972   0.687   5.611   5.716
 9025SOL     OW27973   0.295   6.009   0.708
 9025SOL    HW127974   0.207   5.968   0.733
 9025SOL    HW227975   0.357   5.937   0.678
 9026SOL     OW27976   3.592   3.210   2.142
 9026SOL    HW127977   3.630   3.300   2.160
 9026SOL    HW227978   3.497   3.220   2.110
 9027SOL     OW27979   1.858   1.875   3.048
 9027SOL    HW127980   1.788   1.807   3.071
 9027SOL    HW227981   1.830   1.927   2.967
 9028SOL     OW27982   2.714   3.147   6.605
 9028SOL    HW127983   2.793   3.188   6.560
 9028SOL    HW227984   2.648   3.118   6.536
 9029SOL     OW27985   3.367   5.717   5.227
 9029SOL    HW127986   3.317   5.723   5.140
 9029SOL    HW227987   3.315   5.661   5.292
 9030SOL     OW27988   2.070   0.642   3.323
 9030SOL    HW127989   2.114   0.709   3.383
 9030SOL    HW227990   2.001   0.592   3.375
 9031SOL     OW27991   4.794   5.696   5.112
 9031SOL    HW127992   4.741   5.613   5.129
 9031SOL    HW227993   4.744   5.775   5.148
 9032SOL     OW27994   3.286   3.099   0.591
 9032SOL    HW127995   3.341   3.057   0.663
 9032SOL    HW227996   3.225   3.167   0.632
 9033SOL     OW27997   2.346   4.314   3.562
 9033SOL    HW127998   2.286   4.357   3.630
 9033SOL    HW227999   2.381   4.228   3.598
 9034SOL     OW28000   3.252   0.375   4.478
 9034SOL    HW128001   3.217   0.284   4.457
 9034SOL    HW228002   3.226   0.400   4.571
 9035SOL     OW28003   1.451   6.325   5.752
 9035SOL    HW128004   1.390   6.246   5.762
 9035SOL    HW228005   1.541   6.304   5.790
 9036SOL     OW28006   1.769   0.828   4.963
 9036SOL    HW128007   1.763   0.733   4.994
 9036SOL    HW228008   1.677   0.862   4.945
 9037SOL     OW28009   1.450   4.209   5.571
 9037SOL    HW128010   1.404   4.176   5.653
 9037SOL    HW228011   1.548   4.217   5.589
 9038SOL     OW28012   4.312   0.498   5.545
 9038SOL    HW128013   4.291   0.541   5.633
 9038SOL    HW228014   4.337   0.402   5.560
 9039SOL     OW28015   2.212   4.575   4.523
 9039SOL    HW128016   2.279   4.503   4.508
 9039SOL    HW228017   2.229   4.651   4.460
 9040SOL     OW28018   2.956   1.804   3.016
 9040SOL    HW128019   2.991   1.832   2.927
 9040SOL    HW228020   2.993   1.864   3.087
 9041SOL     OW28021   0.603   2.562   2.002
 9041SOL    HW128022   0.643   2.470   2.003
 9041SOL    HW228023   0.526   2.565   2.066
 9042SOL     OW28024   3.209   6.858   3.979
 9042SOL    HW128025   3.219   6.931   3.911
 9042SOL    HW228026   3.185   6.899   4.068
 9043SOL     OW28027   2.323   1.531   6.211
 9043SOL    HW128028   2.410   1.579   6.218
 9043SOL    HW228029   2.328   1.462   6.139
 9044SOL     OW28030   6.204   1.669   1.705
 9044SOL    HW128031   6.170   1.648   1.613
 9044SOL    HW228032   6.126   1.684   1.766
 9045SOL     OW28033   3.440   1.795   2.802
 9045SOL    HW128034   3.412   1.822   2.894
 9045SOL    HW228035   3.537   1.770   2.802
 9046SOL     OW28036   3.247   3.638   4.171
 9046SOL    HW128037   3.318   3.631   4.241
 9046SOL    HW228038   3.170   3.691   4.206
 9047SOL     OW28039   1.446   3.559   5.151
 9047SOL    HW128040   1.513   3.492   5.182
 9047SOL    HW228041   1.471   3.650   5.185
 9048SOL     OW28042   5.851   2.521   6.309
 9048SOL    HW128043   5.918   2.548   6.239
 9048SOL    HW228044   5.808   2.435   6.281
 9049SOL     OW28045   3.839   0.217   6.700
 9049SOL    HW128046   3.876   0.231   6.608
 9049SOL    HW228047   3.859   0.124   6.730
 9050SOL     OW28048   0.151   4.709   5.682
 9050SOL    HW128049   0.051   4.709   5.682
 9050SOL    HW228050   0.184   4.667   5.598
 9051SOL     OW28051   4.471   5.969   0.747
 9051SOL    HW128052   4.545   5.926   0.798
 9051SOL    HW228053   4.385   5.920   0.763
 9052SOL     OW28054   1.997   2.564   3.108
 9052SOL    HW128055   2.068   2.566   3.179
 9052SOL    HW228056   1.924   2.628   3.133
 9053SOL     OW28057   1.960   1.538   3.071
 9053SOL    HW128058   1.959   1.556   3.170
 9053SOL    HW228059   2.054   1.523   3.041
 9054SOL     OW28060   1.453   6.969   2.087
 9054SOL    HW128061   1.502   0.017   2.136
 9054SOL    HW228062   1.446   6.888   2.145
 9055SOL     OW28063   6.481   3.874   3.579
 9055SOL    HW128064   6.509   3.968   3.599
 9055SOL    HW228065   6.541   3.810   3.627
 9056SOL     OW28066   6.179   0.020   1.287
 9056SOL    HW128067   6.094   6.991   1.285
 9056SOL    HW228068   6.227   7.024   1.373
 9057SOL     OW28069   6.093   5.221   6.077
 9057SOL    HW128070   6.061   5.136   6.035
 9057SOL    HW228071   6.130   5.281   6.006
 9058SOL     OW28072   1.850   1.708   3.550
 9058SOL    HW128073   1.765   1.759   3.533
 9058SOL    HW228074   1.905   1.757   3.618
 9059SOL     OW28075   1.204   1.274   4.245
 9059SOL    HW128076   1.107   1.247   4.249
 9059SOL    HW228077   1.258   1.199   4.207
 9060SOL     OW28078   0.358   2.852   2.112
 9060SOL    HW128079   0.408   2.933   2.143
 9060SOL    HW228080   0.352   2.853   2.013
 9061SOL     OW28081   3.456   5.761   2.049
 9061SOL    HW128082   3.484   5.715   1.964
 9061SOL    HW228083   3.443   5.693   2.121
 9062SOL     OW28084   1.553   5.318   2.229
 9062SOL    HW128085   1.455   5.329   2.213
 9062SOL    HW228086   1.576   5.221   2.234
 9063SOL     OW28087   2.379   6.459   2.454
 9063SOL    HW128088   2.348   6.554   2.448
 9063SOL    HW228089   2.443   6.450   2.529
 9064SOL     OW28090   5.681   3.768   4.666
 9064SOL    HW128091   5.673   3.761   4.766
 9064SOL    HW228092   5.621   3.840   4.633
 9065SOL     OW28093   3.382   5.995   6.739
 9065SOL    HW128094   3.462   6.021   6.794
 9065SOL    HW228095   3.328   5.927   6.788
 9066SOL     OW28096   5.768   0.588   0.179
 9066SOL    HW128097   5.777   0.682   0.209
 9066SOL    HW228098   5.852   0.538   0.199
 9067SOL     OW28099   6.444   0.220   4.656
 9067SOL    HW128100   6.400   0.200   4.744
 9067SOL    HW228101   6.438   0.139   4.597
 9068SOL     OW28102   2.899   0.820   5.233
 9068SOL    HW128103   2.833   0.864   5.172
 9068SOL    HW228104   2.980   0.793   5.180
 9069SOL     OW28105   2.823   2.332   1.681
 9069SOL    HW128106   2.863   2.367   1.766
 9069SOL    HW228107   2.758   2.399   1.646
 9070SOL     OW28108   1.055   3.828   5.491
 9070SOL    HW128109   1.027   3.870   5.577
 9070SOL    HW228110   1.058   3.729   5.502
 9071SOL     OW28111   5.096   6.889   0.432
 9071SOL    HW128112   5.183   6.847   0.406
 9071SOL    HW228113   5.026   6.819   0.439
 9072SOL     OW28114   5.935   1.264   2.071
 9072SOL    HW128115   5.963   1.331   2.003
 9072SOL    HW228116   5.879   1.194   2.028
 9073SOL     OW28117   3.396   6.255   0.649
 9073SOL    HW128118   3.415   6.289   0.741
 9073SOL    HW228119   3.427   6.321   0.581
 9074SOL     OW28120   2.001   0.679   1.955
 9074SOL    HW128121   1.989   0.678   1.856
 9074SOL    HW228122   1.917   0.712   1.999
 9075SOL     OW28123   0.669   0.559   1.896
 9075SOL    HW128124   0.680   0.613   1.813
 9075SOL    HW228125   0.574   0.563   1.926
 9076SOL     OW28126   5.771   1.647   4.965
 9076SOL    HW128127   5.696   1.651   5.030
 9076SOL    HW228128   5.803   1.740   4.944
 9077SOL     OW28129   5.957   1.002   6.854
 9077SOL    HW128130   5.984   0.906   6.859
 9077SOL    HW228131   6.039   1.060   6.848
 9078SOL     OW28132   4.560   3.690   0.067
 9078SOL    HW128133   4.609   3.602   0.072
 9078SOL    HW228134   4.476   3.684   0.121
 9079SOL     OW28135   2.161   6.467   4.139
 9079SOL    HW128136   2.229   6.515   4.195
 9079SOL    HW228137   2.120   6.393   4.192
 9080SOL     OW28138   5.896   2.187   0.657
 9080SOL    HW128139   5.859   2.223   0.572
 9080SOL    HW228140   5.823   2.181   0.726
 9081SOL     OW28141   3.838   6.746   2.668
 9081SOL    HW128142   3.852   6.843   2.651
 9081SOL    HW228143   3.799   6.702   2.587
 9082SOL     OW28144   2.762   6.688   5.622
 9082SOL    HW128145   2.730   6.768   5.673
 9082SOL    HW228146   2.825   6.717   5.551
 9083SOL     OW28147   3.979   4.328   5.991
 9083SOL    HW128148   3.928   4.294   5.912
 9083SOL    HW228149   4.028   4.252   6.034
 9084SOL     OW28150   3.353   3.436   5.839
 9084SOL    HW128151   3.262   3.458   5.875
 9084SOL    HW228152   3.348   3.429   5.739
 9085SOL     OW28153   1.186   4.990   0.742
 9085SOL    HW128154   1.193   4.908   0.799
 9085SOL    HW228155   1.208   4.966   0.647
 9086SOL     OW28156   0.190   4.810   0.652
 9086SOL    HW128157   0.125   4.855   0.714
 9086SOL    HW228158   0.248   4.878   0.609
 9087SOL     OW28159   4.561   2.569   2.011
 9087SOL    HW128160   4.586   2.647   1.954
 9087SOL    HW228161   4.472   2.534   1.984
 9088SOL     OW28162   6.272   6.047   0.919
 9088SOL    HW128163   6.326   6.120   0.877
 9088SOL    HW228164   6.295   5.959   0.876
 9089SOL     OW28165   5.087   6.102   4.798
 9089SOL    HW128166   5.053   6.140   4.884
 9089SOL    HW228167   5.141   6.020   4.818
 9090SOL     OW28168   6.411   5.992   3.617
 9090SOL    HW128169   6.471   6.031   3.688
 9090SOL    HW228170   6.319   5.983   3.654
 9091SOL     OW28171   2.616   3.538   1.084
 9091SOL    HW128172   2.605   3.609   1.154
 9091SOL    HW228173   2.689   3.564   1.021
 9092SOL     OW28174   0.045   1.826   0.814
 9092SOL    HW128175   0.093   1.905   0.775
 9092SOL    HW228176   6.990   1.805   0.757
 9093SOL     OW28177   1.627   6.306   6.163
 9093SOL    HW128178   1.605   6.213   6.190
 9093SOL    HW228179   1.691   6.346   6.228
 9094SOL     OW28180   6.015   5.108   2.603
 9094SOL    HW128181   6.037   5.154   2.689
 9094SOL    HW228182   5.917   5.112   2.587
 9095SOL     OW28183   4.700   4.152   6.324
 9095SOL    HW128184   4.622   4.118   6.378
 9095SOL    HW228185   4.772   4.184   6.386
 9096SOL     OW28186   5.958   4.074   2.122
 9096SOL    HW128187   5.955   4.126   2.037
 9096SOL    HW228188   5.901   3.992   2.113
 9097SOL     OW28189   1.136   2.095   6.661
 9097SOL    HW128190   1.047   2.086   6.706
 9097SOL    HW228191   1.147   2.023   6.593
 9098SOL     OW28192   3.325   2.464   6.727
 9098SOL    HW128193   3.359   2.403   6.655
 9098SOL    HW228194   3.394   2.534   6.747
 9099SOL     OW28195   2.749   2.813   6.946
 9099SOL    HW128196   2.685   2.885   6.920
 9099SOL    HW228197   2.771   2.757   6.866
 9100SOL     OW28198   0.685   3.892   4.118
 9100SOL    HW128199   0.780   3.871   4.142
 9100SOL    HW228200   0.669   3.867   4.022
 9101SOL     OW28201   2.452   2.039   2.983
 9101SOL    HW128202   2.417   1.947   2.965
 9101SOL    HW228203   2.539   2.052   2.936
 9102SOL     OW28204   2.903   0.220   1.762
 9102SOL    HW128205   2.871   0.198   1.670
 9102SOL    HW228206   2.826   0.226   1.825
 9103SOL     OW28207   6.076   3.175   6.560
 9103SOL    HW128208   6.117   3.262   6.588
 9103SOL    HW228209   6.077   3.111   6.637
 9104SOL     OW28210   6.341   6.332   2.080
 9104SOL    HW128211   6.422   6.312   2.136
 9104SOL    HW228212   6.342   6.428   2.053
 9105SOL     OW28213   1.672   1.719   7.012
 9105SOL    HW128214   1.589   1.743   0.037
 9105SOL    HW228215   1.702   1.797   6.957
 9106SOL     OW28216   6.785   3.676   6.851
 9106SOL    HW128217   6.884   3.677   6.861
 9106SOL    HW228218   6.748   3.766   6.877
 9107SOL     OW28219   3.345   1.089   6.276
 9107SOL    HW128220   3.275   1.029   6.237
 9107SOL    HW228221   3.388   1.045   6.354
 9108SOL     OW28222   4.565   3.783   5.429
 9108SOL    HW128223   4.575   3.879   5.404
 9108SOL    HW228224   4.648   3.733   5.405
 9109SOL     OW28225   0.597   2.749   2.664
 9109SOL    HW128226   0.646   2.831   2.691
 9109SOL    HW228227   0.590   2.746   2.564
 9110SOL     OW28228   2.081   3.392   3.668
 9110SOL    HW128229   2.112   3.332   3.594
 9110SOL    HW228230   2.097   3.487   3.642
 9111SOL     OW28231   4.771   1.667   0.933
 9111SOL    HW128232   4.765   1.575   0.894
 9111SOL    HW228233   4.795   1.732   0.861
 9112SOL     OW28234   0.295   4.881   3.957
 9112SOL    HW128235   0.377   4.825   3.966
 9112SOL    HW228236   0.214   4.825   3.973
 9113SOL     OW28237   4.964   1.317   2.737
 9113SOL    HW128238   5.058   1.302   2.769
 9113SOL    HW228239   4.932   1.236   2.689
 9114SOL     OW28240   0.522   4.489   1.932
 9114SOL    HW128241   0.444   4.426   1.941
 9114SOL    HW228242   0.587   4.471   2.005
 9115SOL     OW28243   0.068   5.376   4.758
 9115SOL    HW128244   0.161   5.400   4.784
 9115SOL    HW228245   0.003   5.422   4.819
 9116SOL     OW28246   6.483   0.922   1.816
 9116SOL    HW128247   6.523   0.832   1.797
 9116SOL    HW228248   6.438   0.957   1.734
 9117SOL     OW28249   5.673   2.727   0.596
 9117SOL    HW128250   5.711   2.817   0.622
 9117SOL    HW228251   5.741   2.656   0.615
 9118SOL     OW28252   6.403   3.960   0.299
 9118SOL    HW128253   6.439   4.054   0.303
 9118SOL    HW228254   6.306   3.963   0.276
 9119SOL     OW28255   4.387   0.416   2.163
 9119SOL    HW128256   4.456   0.489   2.162
 9119SOL    HW228257   4.391   0.368   2.251
 9120SOL     OW28258   6.618   1.842   5.887
 9120SOL    HW128259   6.533   1.881   5.852
 9120SOL    HW228260   6.614   1.837   5.987
 9121SOL     OW28261   3.960   0.750   4.816
 9121SOL    HW128262   3.862   0.736   4.805
 9121SOL    HW228263   3.977   0.844   4.845
 9122SOL     OW28264   2.064   4.268   2.192
 9122SOL    HW128265   2.161   4.247   2.180
 9122SOL    HW228266   2.009   4.205   2.138
 9123SOL     OW28267   2.996   0.627   3.559
 9123SOL    HW128268   3.062   0.603   3.630
 9123SOL    HW228269   3.035   0.607   3.469
 9124SOL     OW28270   5.348   6.156   0.380
 9124SOL    HW128271   5.411   6.141   0.304
 9124SOL    HW228272   5.334   6.070   0.429
 9125SOL     OW28273   4.696   3.674   0.777
 9125SOL    HW128274   4.793   3.693   0.793
 9125SOL    HW228275   4.684   3.576   0.761
 9126SOL     OW28276   6.294   3.546   1.182
 9126SOL    HW128277   6.285   3.548   1.083
 9126SOL    HW228278   6.292   3.640   1.218
 9127SOL     OW28279   0.011   2.015   6.224
 9127SOL    HW128280   0.099   2.032   6.268
 9127SOL    HW228281   7.002   2.100   6.182
 9128SOL     OW28282   5.908   1.728   5.449
 9128SOL    HW128283   5.839   1.748   5.379
 9128SOL    HW228284   5.993   1.698   5.404
 9129SOL     OW28285   0.277   2.284   0.215
 9129SOL    HW128286   0.270   2.216   0.141
 9129SOL    HW228287   0.333   2.246   0.289
 9130SOL     OW28288   0.291   3.246   6.042
 9130SOL    HW128289   0.194   3.220   6.044
 9130SOL    HW228290   0.306   3.309   5.967
 9131SOL     OW28291   6.049   3.049   5.329
 9131SOL    HW128292   6.096   2.982   5.385
 9131SOL    HW228293   5.950   3.037   5.338
 9132SOL     OW28294   0.461   6.227   4.352
 9132SOL    HW128295   0.369   6.191   4.338
 9132SOL    HW228296   0.513   6.163   4.408
 9133SOL     OW28297   3.544   6.497   1.558
 9133SOL    HW128298   3.463   6.501   1.616
 9133SOL    HW228299   3.516   6.489   1.462
 9134SOL     OW28300   4.307   5.831   1.213
 9134SOL    HW128301   4.212   5.821   1.239
 9134SOL    HW228302   4.331   5.760   1.147
 9135SOL     OW28303   6.649   6.941   1.674
 9135SOL    HW128304   6.736   6.891   1.675
 9135SOL    HW228305   6.648   7.005   1.598
 9136SOL     OW28306   4.948   6.688   6.856
 9136SOL    HW128307   4.943   6.735   6.768
 9136SOL    HW228308   4.968   6.755   6.928
 9137SOL     OW28309   5.345   0.753   0.459
 9137SOL    HW128310   5.388   0.716   0.376
 9137SOL    HW228311   5.260   0.800   0.434
 9138SOL     OW28312   6.767   6.000   6.663
 9138SOL    HW128313   6.796   6.095   6.676
 9138SOL    HW228314   6.683   5.997   6.609
 9139SOL     OW28315   2.240   1.602   3.286
 9139SOL    HW128316   2.231   1.687   3.235
 9139SOL    HW228317   2.149   1.560   3.296
 9140SOL     OW28318   0.002   3.168   2.713
 9140SOL    HW128319   6.951   3.125   2.663
 9140SOL    HW228320   7.019   3.268   2.705
 9141SOL     OW28321   5.066   0.712   0.886
 9141SOL    HW128322   5.137   0.722   0.817
 9141SOL    HW228323   5.037   0.617   0.891
 9142SOL     OW28324   0.671   2.847   1.041
 9142SOL    HW128325   0.616   2.871   0.961
 9142SOL    HW228326   0.616   2.858   1.124
 9143SOL     OW28327   6.454   3.061   0.294
 9143SOL    HW128328   6.363   3.040   0.257
 9143SOL    HW228329   6.450   3.066   0.393
 9144SOL     OW28330   2.406   5.105   4.521
 9144SOL    HW128331   2.383   5.026   4.578
 9144SOL    HW228332   2.505   5.105   4.504
 9145SOL     OW28333   0.379   5.793   6.606
 9145SOL    HW128334   0.439   5.830   6.535
 9145SOL    HW228335   0.416   5.706   6.638
 9146SOL     OW28336   5.598   3.102   3.882
 9146SOL    HW128337   5.567   3.184   3.834
 9146SOL    HW228338   5.534   3.027   3.864
 9147SOL     OW28339   5.865   6.786   5.605
 9147SOL    HW128340   5.898   6.727   5.532
 9147SOL    HW228341   5.943   6.821   5.657
 9148SOL     OW28342   5.672   6.065   1.379
 9148SOL    HW128343   5.762   6.058   1.422
 9148SOL    HW228344   5.654   6.160   1.354
 9149SOL     OW28345   5.345   3.995   2.501
 9149SOL    HW128346   5.333   3.972   2.405
 9149SOL    HW228347   5.404   3.927   2.545
 9150SOL     OW28348   3.596   5.165   1.182
 9150SOL    HW128349   3.521   5.141   1.243
 9150SOL    HW228350   3.580   5.257   1.145
 9151SOL     OW28351   2.247   4.667   3.461
 9151SOL    HW128352   2.217   4.743   3.402
 9151SOL    HW228353   2.307   4.606   3.409
 9152SOL     OW28354   2.299   4.317   4.972
 9152SOL    HW128355   2.297   4.225   5.011
 9152SOL    HW228356   2.331   4.382   5.040
 9153SOL     OW28357   0.076   2.883   6.984
 9153SOL    HW128358   0.078   2.960   0.023
 9153SOL    HW228359   0.068   2.916   6.891
 9154SOL     OW28360   5.406   4.929   6.231
 9154SOL    HW128361   5.345   4.929   6.151
 9154SOL    HW228362   5.483   4.868   6.214
 9155SOL     OW28363   1.705   4.141   2.237
 9155SOL    HW128364   1.717   4.238   2.257
 9155SOL    HW228365   1.742   4.120   2.147
 9156SOL     OW28366   1.031   2.309   0.312
 9156SOL    HW128367   1.040   2.216   0.278
 9156SOL    HW228368   1.079   2.318   0.400
 9157SOL     OW28369   1.964   3.975   6.639
 9157SOL    HW128370   2.059   3.949   6.658
 9157SOL    HW228371   1.963   4.060   6.587
 9158SOL     OW28372   6.097   3.482   4.049
 9158SOL    HW128373   6.027   3.426   4.093
 9158SOL    HW228374   6.095   3.574   4.088
 9159SOL     OW28375   1.573   1.059   2.495
 9159SOL    HW128376   1.509   0.998   2.541
 9159SOL    HW228377   1.562   1.152   2.531
 9160SOL     OW28378   0.011   6.771   5.988
 9160SOL    HW128379   0.031   6.687   6.038
 9160SOL    HW228380   0.069   6.776   5.907
 9161SOL     OW28381   5.393   5.368   4.102
 9161SOL    HW128382   5.333   5.298   4.065
 9161SOL    HW228383   5.340   5.432   4.158
 9162SOL     OW28384   4.257   0.934   3.621
 9162SOL    HW128385   4.343   0.946   3.571
 9162SOL    HW228386   4.269   0.862   3.690
 9163SOL     OW28387   0.725   2.617   4.663
 9163SOL    HW128388   0.725   2.716   4.657
 9163SOL    HW228389   0.645   2.587   4.715
 9164SOL     OW28390   2.460   0.434   0.103
 9164SOL    HW128391   2.380   0.417   0.160
 9164SOL    HW228392   2.511   0.512   0.139
 9165SOL     OW28393   6.414   1.221   5.466
 9165SOL    HW128394   6.343   1.290   5.452
 9165SOL    HW228395   6.470   1.213   5.384
 9166SOL     OW28396   4.436   6.081   1.213
 9166SOL    HW128397   4.403   5.986   1.207
 9166SOL    HW228398   4.535   6.081   1.226
 9167SOL     OW28399   2.026   1.857   6.110
 9167SOL    HW128400   2.021   1.951   6.076
 9167SOL    HW228401   1.990   1.853   6.203
 9168SOL     OW28402   6.584   5.936   5.886
 9168SOL    HW128403   6.524   5.868   5.928
 9168SOL    HW228404   6.667   5.891   5.853
 9169SOL     OW28405   6.816   0.145   6.258
 9169SOL    HW128406   6.739   0.086   6.233
 9169SOL    HW228407   6.889   0.134   6.191
 9170SOL     OW28408   1.862   0.341   7.017
 9170SOL    HW128409   1.926   0.417   7.012
 9170SOL    HW228410   1.836   0.324   0.087
 9171SOL     OW28411   3.724   5.965   0.483
 9171SOL    HW128412   3.722   5.951   0.384
 9171SOL    HW228413   3.661   5.901   0.527
 9172SOL     OW28414   5.173   1.358   3.047
 9172SOL    HW128415   5.147   1.455   3.053
 9172SOL    HW228416   5.101   1.302   3.089
 9173SOL     OW28417   5.731   4.484   5.938
 9173SOL    HW128418   5.638   4.498   5.971
 9173SOL    HW228419   5.785   4.567   5.952
 9174SOL     OW28420   6.795   4.680   0.532
 9174SOL    HW128421   6.792   4.586   0.566
 9174SOL    HW228422   6.815   4.742   0.608
 9175SOL     OW28423   1.512   6.275   6.492
 9175SOL    HW128424   1.457   6.191   6.492
 9175SOL    HW228425   1.460   6.350   6.532
 9176SOL     OW28426   2.394   1.351   2.672
 9176SOL    HW128427   2.418   1.301   2.589
 9176SOL    HW228428   2.314   1.309   2.715
 9177SOL     OW28429   0.895   4.498   3.867
 9177SOL    HW128430   0.866   4.516   3.773
 9177SOL    HW228431   0.912   4.585   3.913
 9178SOL     OW28432   2.412   5.123   0.564
 9178SOL    HW128433   2.371   5.213   0.549
 9178SOL    HW228434   2.340   5.053   0.565
 9179SOL     OW28435   1.975   5.497   3.890
 9179SOL    HW128436   2.056   5.543   3.853
 9179SOL    HW228437   1.975   5.402   3.860
 9180SOL     OW28438   6.424   2.360   3.154
 9180SOL    HW128439   6.418   2.288   3.085
 9180SOL    HW228440   6.341   2.361   3.209
 9181SOL     OW28441   5.940   2.065   4.216
 9181SOL    HW128442   5.866   2.008   4.250
 9181SOL    HW228443   5.926   2.159   4.245
 9182SOL     OW28444   3.124   0.157   3.180
 9182SOL    HW128445   3.121   0.221   3.256
 9182SOL    HW228446   3.189   0.083   3.199
 9183SOL     OW28447   4.825   4.562   0.317
 9183SOL    HW128448   4.882   4.491   0.275
 9183SOL    HW228449   4.765   4.520   0.386
 9184SOL     OW28450   4.421   2.378   1.436
 9184SOL    HW128451   4.325   2.348   1.430
 9184SOL    HW228452   4.479   2.310   1.392
 9185SOL     OW28453   6.205   6.560   5.132
 9185SOL    HW128454   6.125   6.592   5.081
 9185SOL    HW228455   6.261   6.503   5.073
 9186SOL     OW28456   5.871   0.020   4.390
 9186SOL    HW128457   5.879   0.117   4.369
 9186SOL    HW228458   5.774   7.017   4.388
 9187SOL     OW28459   3.401   2.250   0.207
 9187SOL    HW128460   3.378   2.280   0.114
 9187SOL    HW228461   3.490   2.205   0.207
 9188SOL     OW28462   2.311   0.433   1.654
 9188SOL    HW128463   2.404   0.398   1.665
 9188SOL    HW228464   2.304   0.524   1.695
 9189SOL     OW28465   3.110   5.826   2.286
 9189SOL    HW128466   3.163   5.874   2.216
 9189SOL    HW228467   3.114   5.728   2.270
 9190SOL     OW28468   1.380   3.264   5.487
 9190SOL    HW128469   1.369   3.363   5.488
 9190SOL    HW228470   1.477   3.241   5.491
 9191SOL     OW28471   5.554   1.041   0.098
 9191SOL    HW128472   5.615   0.996   0.163
 9191SOL    HW228473   5.600   1.052   0.011
 9192SOL     OW28474   0.020   2.473   6.214
 9192SOL    HW128475   0.117   2.490   6.234
 9192SOL    HW228476   6.988   2.528   6.274
 9193SOL     OW28477   3.795   3.663   4.649
 9193SOL    HW128478   3.887   3.647   4.683
 9193SOL    HW228479   3.796   3.662   4.549
 9194SOL     OW28480   3.454   0.776   2.407
 9194SOL    HW128481   3.382   0.707   2.414
 9194SOL    HW228482   3.544   0.732   2.415
 9195SOL     OW28483   1.399   3.383   2.944
 9195SOL    HW128484   1.397   3.459   3.009
 9195SOL    HW228485   1.314   3.330   2.953
 9196SOL     OW28486   5.716   6.467   3.469
 9196SOL    HW128487   5.635   6.432   3.423
 9196SOL    HW228488   5.727   6.421   3.557
 9197SOL     OW28489   3.149   4.998   0.792
 9197SOL    HW128490   3.139   5.041   0.702
 9197SOL    HW228491   3.143   4.898   0.782
 9198SOL     OW28492   6.450   4.434   6.220
 9198SOL    HW128493   6.428   4.363   6.153
 9198SOL    HW228494   6.526   4.489   6.188
 9199SOL     OW28495   6.651   2.853   5.576
 9199SOL    HW128496   6.675   2.782   5.510
 9199SOL    HW228497   6.604   2.927   5.529
 9200SOL     OW28498   2.879   5.948   5.829
 9200SOL    HW128499   2.904   5.991   5.915
 9200SOL    HW228500   2.951   5.885   5.801
 9201SOL     OW28501   6.769   3.278   6.761
 9201SOL    HW128502   6.756   3.202   6.826
 9201SOL    HW228503   6.760   3.365   6.810
 9202SOL     OW28504   0.778   5.942   3.726
 9202SOL    HW128505   0.861   5.931   3.782
 9202SOL    HW228506   0.785   5.885   3.644
 9203SOL     OW28507   6.425   3.344   5.863
 9203SOL    HW128508   6.348   3.385   5.816
 9203SOL    HW228509   6.451   3.259   5.817
 9204SOL     OW28510   4.983   3.636   4.372
 9204SOL    HW128511   4.996   3.695   4.292
 9204SOL    HW228512   5.072   3.620   4.416
 9205SOL     OW28513   5.143   5.570   3.150
 9205SOL    HW128514   5.216   5.503   3.158
 9205SOL    HW228515   5.056   5.529   3.176
 9206SOL     OW28516   3.606   6.117   3.308
 9206SOL    HW128517   3.622   6.215   3.308
 9206SOL    HW228518   3.545   6.092   3.232
 9207SOL     OW28519   4.536   4.375   0.153
 9207SOL    HW128520   4.562   4.471   0.152
 9207SOL    HW228521   4.511   4.348   0.246
 9208SOL     OW28522   5.534   4.383   2.636
 9208SOL    HW128523   5.525   4.476   2.672
 9208SOL    HW228524   5.443   4.345   2.619
 9209SOL     OW28525   4.617   1.176   0.805
 9209SOL    HW128526   4.572   1.154   0.891
 9209SOL    HW228527   4.604   1.100   0.741
 9210SOL     OW28528   1.392   1.731   0.871
 9210SOL    HW128529   1.340   1.815   0.885
 9210SOL    HW228530   1.439   1.706   0.955
 9211SOL     OW28531   6.014   2.614   6.109
 9211SOL    HW128532   6.103   2.579   6.081
 9211SOL    HW228533   6.027   2.696   6.164
 9212SOL     OW28534   5.297   4.296   4.075
 9212SOL    HW128535   5.377   4.346   4.043
 9212SOL    HW228536   5.297   4.204   4.034
 9213SOL     OW28537   4.772   5.082   4.661
 9213SOL    HW128538   4.683   5.127   4.644
 9213SOL    HW228539   4.838   5.150   4.692
 9214SOL     OW28540   6.897   2.843   4.893
 9214SOL    HW128541   6.960   2.791   4.835
 9214SOL    HW228542   6.912   2.941   4.881
 9215SOL     OW28543   1.358   4.492   2.099
 9215SOL    HW128544   1.378   4.477   2.195
 9215SOL    HW228545   1.335   4.405   2.055
 9216SOL     OW28546   2.333   6.660   3.276
 9216SOL    HW128547   2.369   6.731   3.215
 9216SOL    HW228548   2.279   6.702   3.349
 9217SOL     OW28549   6.377   3.465   6.896
 9217SOL    HW128550   6.476   3.449   6.896
 9217SOL    HW228551   6.332   3.396   6.952
 9218SOL     OW28552   3.755   1.019   6.900
 9218SOL    HW128553   3.693   1.096   6.891
 9218SOL    HW228554   3.818   1.018   6.823
 9219SOL     OW28555   4.927   3.987   6.537
 9219SOL    HW128556   4.903   3.913   6.474
 9219SOL    HW228557   4.952   3.948   6.625
 9220SOL     OW28558   1.272   6.336   1.983
 9220SOL    HW128559   1.259   6.281   1.901
 9220SOL    HW228560   1.348   6.399   1.969
 9221SOL     OW28561   1.959   0.277   3.426
 9221SOL    HW128562   1.981   0.327   3.342
 9221SOL    HW228563   2.028   0.295   3.495
 9222SOL     OW28564   2.695   5.464   5.640
 9222SOL    HW128565   2.660   5.371   5.632
 9222SOL    HW228566   2.620   5.527   5.658
 9223SOL     OW28567   1.566   2.324   4.245
 9223SOL    HW128568   1.516   2.400   4.288
 9223SOL    HW228569   1.529   2.237   4.278
 9224SOL     OW28570   0.636   5.177   3.795
 9224SOL    HW128571   0.584   5.131   3.866
 9224SOL    HW228572   0.678   5.260   3.832
 9225SOL     OW28573   3.021   6.043   6.076
 9225SOL    HW128574   3.036   5.973   6.145
 9225SOL    HW228575   3.088   6.116   6.087
 9226SOL     OW28576   0.313   6.855   1.484
 9226SOL    HW128577   0.325   6.815   1.575
 9226SOL    HW228578   0.307   6.955   1.493
 9227SOL     OW28579   2.276   5.675   0.859
 9227SOL    HW128580   2.273   5.579   0.831
 9227SOL    HW228581   2.189   5.719   0.836
 9228SOL     OW28582   2.358   1.435   6.794
 9228SOL    HW128583   2.342   1.394   6.705
 9228SOL    HW228584   2.306   1.386   6.864
 9229SOL     OW28585   0.569   5.028   5.319
 9229SOL    HW128586   0.539   4.964   5.391
 9229SOL    HW228587   0.662   5.006   5.292
 9230SOL     OW28588   4.911   3.422   3.523
 9230SOL    HW128589   4.843   3.484   3.484
 9230SOL    HW228590   4.974   3.393   3.451
 9231SOL     OW28591   1.450   3.772   5.322
 9231SOL    HW128592   1.457   3.871   5.331
 9231SOL    HW228593   1.354   3.747   5.305
 9232SOL     OW28594   3.233   5.174   6.510
 9232SOL    HW128595   3.222   5.229   6.593
 9232SOL    HW228596   3.305   5.214   6.454
 9233SOL     OW28597   6.002   6.177   1.270
 9233SOL    HW128598   5.983   6.142   1.362
 9233SOL    HW228599   5.993   6.277   1.269
 9234SOL     OW28600   3.254   5.679   0.474
 9234SOL    HW128601   3.167   5.664   0.426
 9234SOL    HW228602   3.240   5.744   0.549
 9235SOL     OW28603   2.194   2.558   3.325
 9235SOL    HW128604   2.173   2.484   3.389
 9235SOL    HW228605   2.277   2.536   3.275
 9236SOL     OW28606   2.175   4.339   6.474
 9236SOL    HW128607   2.128   4.352   6.561
 9236SOL    HW228608   2.174   4.242   6.449
 9237SOL     OW28609   0.682   5.783   2.873
 9237SOL    HW128610   0.626   5.860   2.905
 9237SOL    HW228611   0.779   5.804   2.888
 9238SOL     OW28612   2.057   3.055   6.178
 9238SOL    HW128613   2.062   2.996   6.258
 9238SOL    HW228614   2.028   3.002   6.098
 9239SOL     OW28615   0.331   3.450   5.843
 9239SOL    HW128616   0.290   3.540   5.860
 9239SOL    HW228617   0.424   3.462   5.809
 9240SOL     OW28618   5.204   2.911   2.311
 9240SOL    HW128619   5.147   2.942   2.235
 9240SOL    HW228620   5.218   2.812   2.304
 9241SOL     OW28621   0.259   4.898   6.775
 9241SOL    HW128622   0.356   4.886   6.796
 9241SOL    HW228623   0.216   4.955   6.844
 9242SOL     OW28624   1.073   4.262   0.627
 9242SOL    HW128625   1.165   4.300   0.611
 9242SOL    HW228626   1.081   4.173   0.671
 9243SOL     OW28627   0.395   0.344   1.413
 9243SOL    HW128628   0.483   0.304   1.389
 9243SOL    HW228629   0.362   0.403   1.338
 9244SOL     OW28630   3.505   5.388   6.057
 9244SOL    HW128631   3.524   5.484   6.080
 9244SOL    HW228632   3.420   5.383   6.005
 9245SOL     OW28633   1.035   5.655   4.162
 9245SOL    HW128634   1.082   5.589   4.104
 9245SOL    HW228635   0.943   5.673   4.125
 9246SOL     OW28636   6.485   6.996   3.016
 9246SOL    HW128637   6.544   0.009   2.944
 9246SOL    HW228638   6.456   6.904   2.990
 9247SOL     OW28639   2.548   5.945   3.189
 9247SOL    HW128640   2.463   5.941   3.242
 9247SOL    HW228641   2.584   6.038   3.191
 9248SOL     OW28642   3.302   2.115   3.930
 9248SOL    HW128643   3.307   2.016   3.946
 9248SOL    HW228644   3.241   2.133   3.853
 9249SOL     OW28645   3.668   5.036   1.525
 9249SOL    HW128646   3.625   5.015   1.613
 9249SOL    HW228647   3.743   4.972   1.508
 9250SOL     OW28648   5.836   2.315   4.314
 9250SOL    HW128649   5.835   2.406   4.356
 9250SOL    HW228650   5.836   2.325   4.214
 9251SOL     OW28651   3.793   1.808   3.159
 9251SOL    HW128652   3.856   1.761   3.220
 9251SOL    HW228653   3.814   1.906   3.158
 9252SOL     OW28654   5.191   0.899   4.709
 9252SOL    HW128655   5.282   0.921   4.674
 9252SOL    HW228656   5.153   0.979   4.757
 9253SOL     OW28657   5.394   5.578   5.447
 9253SOL    HW128658   5.450   5.496   5.453
 9253SOL    HW228659   5.299   5.555   5.468
 9254SOL     OW28660   5.511   5.139   3.436
 9254SOL    HW128661   5.499   5.107   3.342
 9254SOL    HW228662   5.581   5.210   3.439
 9255SOL     OW28663   4.368   3.978   0.587
 9255SOL    HW128664   4.371   3.878   0.598
 9255SOL    HW228665   4.435   4.020   0.649
 9256SOL     OW28666   3.499   6.953   3.065
 9256SOL    HW128667   3.560   6.937   2.988
 9256SOL    HW228668   3.516   0.019   3.103
 9257SOL     OW28669   0.061   4.508   3.617
 9257SOL    HW128670   0.117   4.427   3.630
 9257SOL    HW228671   0.030   4.543   3.705
 9258SOL     OW28672   3.797   4.048   2.716
 9258SOL    HW128673   3.713   4.016   2.759
 9258SOL    HW228674   3.789   4.040   2.617
 9259SOL     OW28675   0.573   1.801   0.588
 9259SOL    HW128676   0.555   1.885   0.639
 9259SOL    HW228677   0.499   1.736   0.603
 9260SOL     OW28678   6.369   1.489   5.371
 9260SOL    HW128679   6.426   1.498   5.289
 9260SOL    HW228680   6.367   1.576   5.420
 9261SOL     OW28681   3.054   1.336   0.670
 9261SOL    HW128682   3.119   1.409   0.647
 9261SOL    HW228683   3.020   1.293   0.587
 9262SOL     OW28684   6.856   5.025   4.832
 9262SOL    HW128685   6.846   4.955   4.760
 9262SOL    HW228686   6.811   4.993   4.915
 9263SOL     OW28687   4.825   0.745   1.909
 9263SOL    HW128688   4.867   0.754   1.818
 9263SOL    HW228689   4.736   0.700   1.900
 9264SOL     OW28690   5.164   4.353   0.906
 9264SOL    HW128691   5.150   4.255   0.920
 9264SOL    HW228692   5.162   4.399   0.995
 9265SOL     OW28693   4.244   2.340   0.036
 9265SOL    HW128694   4.318   2.404   0.055
 9265SOL    HW228695   4.167   2.390   7.020
 9266SOL     OW28696   0.915   6.349   0.541
 9266SOL    HW128697   0.958   6.315   0.625
 9266SOL    HW228698   0.830   6.299   0.524
 9267SOL     OW28699   0.636   2.099   4.560
 9267SOL    HW128700   0.709   2.037   4.588
 9267SOL    HW228701   0.573   2.050   4.499
 9268SOL     OW28702   0.961   5.664   2.398
 9268SOL    HW128703   0.889   5.606   2.360
 9268SOL    HW228704   0.938   5.760   2.384
 9269SOL     OW28705   4.027   1.014   6.282
 9269SOL    HW128706   3.960   1.042   6.350
 9269SOL    HW228707   4.083   0.940   6.318
 9270SOL     OW28708   4.196   6.267   6.036
 9270SOL    HW128709   4.121   6.215   5.995
 9270SOL    HW228710   4.178   6.280   6.134
 9271SOL     OW28711   6.261   0.435   1.241
 9271SOL    HW128712   6.278   0.373   1.165
 9271SOL    HW228713   6.246   0.527   1.206
 9272SOL     OW28714   0.690   5.861   5.253
 9272SOL    HW128715   0.741   5.847   5.168
 9272SOL    HW228716   0.748   5.908   5.319
 9273SOL     OW28717   6.130   6.372   2.542
 9273SOL    HW128718   6.220   6.389   2.504
 9273SOL    HW228719   6.116   6.429   2.623
 9274SOL     OW28720   6.547   1.324   0.421
 9274SOL    HW128721   6.646   1.330   0.417
 9274SOL    HW228722   6.514   1.263   0.349
 9275SOL     OW28723   6.137   0.968   0.529
 9275SOL    HW128724   6.114   0.910   0.451
 9275SOL    HW228725   6.171   1.056   0.496
 9276SOL     OW28726   1.465   3.973   1.540
 9276SOL    HW128727   1.491   3.933   1.452
 9276SOL    HW228728   1.513   3.924   1.613
 9277SOL     OW28729   4.235   4.308   0.646
 9277SOL    HW128730   4.318   4.362   0.660
 9277SOL    HW228731   4.157   4.355   0.689
 9278SOL     OW28732   2.069   0.370   6.167
 9278SOL    HW128733   2.131   0.402   6.239
 9278SOL    HW228734   1.978   0.356   6.205
 9279SOL     OW28735   3.333   0.595   2.024
 9279SOL    HW128736   3.262   0.591   1.955
 9279SOL    HW228737   3.338   0.508   2.073
 9280SOL     OW28738   2.346   1.782   2.993
 9280SOL    HW128739   2.368   1.711   2.926
 9280SOL    HW228740   2.262   1.830   2.966
 9281SOL     OW28741   2.450   3.494   6.892
 9281SOL    HW128742   2.410   3.518   6.981
 9281SOL    HW228743   2.518   3.563   6.867
 9282SOL     OW28744   6.269   0.581   3.406
 9282SOL    HW128745   6.170   0.576   3.395
 9282SOL    HW228746   6.295   0.675   3.431
 9283SOL     OW28747   5.322   0.826   3.961
 9283SOL    HW128748   5.260   0.859   3.890
 9283SOL    HW228749   5.281   0.843   4.051
 9284SOL     OW28750   2.943   3.414   5.759
 9284SOL    HW128751   2.898   3.439   5.673
 9284SOL    HW228752   2.873   3.401   5.830
 9285SOL     OW28753   4.974   2.918   1.413
 9285SOL    HW128754   4.951   2.885   1.321
 9285SOL    HW228755   4.892   2.913   1.471
 9286SOL     OW28756   5.824   5.646   0.893
 9286SOL    HW128757   5.791   5.736   0.862
 9286SOL    HW228758   5.885   5.659   0.970
 9287SOL     OW28759   3.209   5.060   6.990
 9287SOL    HW128760   3.220   5.145   0.017
 9287SOL    HW228761   3.123   5.063   6.939
 9288SOL     OW28762   4.345   1.255   3.026
 9288SOL    HW128763   4.443   1.237   3.020
 9288SOL    HW228764   4.330   1.347   3.061
 9289SOL     OW28765   3.934   0.595   1.656
 9289SOL    HW128766   3.932   0.500   1.627
 9289SOL    HW228767   4.002   0.645   1.603
 9290SOL     OW28768   5.632   0.578   2.897
 9290SOL    HW128769   5.724   0.610   2.876
 9290SOL    HW228770   5.565   0.637   2.852
 9291SOL     OW28771   1.182   5.205   5.326
 9291SOL    HW128772   1.203   5.183   5.230
 9291SOL    HW228773   1.265   5.196   5.381
 9292SOL     OW28774   2.119   3.355   6.603
 9292SOL    HW128775   2.047   3.334   6.536
 9292SOL    HW228776   2.078   3.392   6.686
 9293SOL     OW28777   5.915   3.088   6.354
 9293SOL    HW128778   5.960   3.123   6.436
 9293SOL    HW228779   5.823   3.127   6.347
 9294SOL     OW28780   4.506   6.553   6.107
 9294SOL    HW128781   4.493   6.588   6.014
 9294SOL    HW228782   4.603   6.554   6.130
 9295SOL     OW28783   6.259   0.906   4.934
 9295SOL    HW128784   6.288   0.964   4.858
 9295SOL    HW228785   6.199   0.834   4.899
 9296SOL     OW28786   1.348   5.526   6.409
 9296SOL    HW128787   1.422   5.541   6.344
 9296SOL    HW228788   1.304   5.613   6.431
 9297SOL     OW28789   0.954   6.691   3.103
 9297SOL    HW128790   0.861   6.663   3.080
 9297SOL    HW228791   1.002   6.616   3.147
 9298SOL     OW28792   0.974   6.401   6.475
 9298SOL    HW128793   0.911   6.381   6.551
 9298SOL    HW228794   0.940   6.481   6.425
 9299SOL     OW28795   0.556   2.489   4.867
 9299SOL    HW128796   0.514   2.402   4.841
 9299SOL    HW228797   0.650   2.472   4.896
 9300SOL     OW28798   0.360   4.205   5.771
 9300SOL    HW128799   0.363   4.224   5.869
 9300SOL    HW228800   0.265   4.205   5.740
 9301SOL     OW28801   5.442   5.181   5.127
 9301SOL    HW128802   5.436   5.116   5.052
 9301SOL    HW228803   5.480   5.267   5.093
 9302SOL     OW28804   2.109   2.438   3.816
 9302SOL    HW128805   2.074   2.345   3.827
 9302SOL    HW228806   2.052   2.488   3.752
 9303SOL     OW28807   2.832   3.821   1.074
 9303SOL    HW128808   2.897   3.748   1.094
 9303SOL    HW228809   2.837   3.891   1.144
 9304SOL     OW28810   3.871   4.663   1.720
 9304SOL    HW128811   3.942   4.594   1.708
 9304SOL    HW228812   3.782   4.618   1.732
 9305SOL     OW28813   3.486   1.325   0.389
 9305SOL    HW128814   3.418   1.258   0.420
 9305SOL    HW228815   3.447   1.416   0.394
 9306SOL     OW28816   0.911   4.407   5.389
 9306SOL    HW128817   0.851   4.486   5.379
 9306SOL    HW228818   0.867   4.338   5.446
 9307SOL     OW28819   0.725   3.728   1.019
 9307SOL    HW128820   0.708   3.823   1.049
 9307SOL    HW228821   0.736   3.670   1.100
 9308SOL     OW28822   1.591   3.469   0.587
 9308SOL    HW128823   1.496   3.488   0.563
 9308SOL    HW228824   1.636   3.554   0.616
 9309SOL     OW28825   3.708   5.245   5.917
 9309SOL    HW128826   3.769   5.176   5.956
 9309SOL    HW228827   3.629   5.258   5.978
 9310SOL     OW28828   5.814   5.781   5.457
 9310SOL    HW128829   5.859   5.695   5.431
 9310SOL    HW228830   5.866   5.858   5.420
 9311SOL     OW28831   4.595   4.512   1.582
 9311SOL    HW128832   4.595   4.470   1.491
 9311SOL    HW228833   4.628   4.445   1.649
 9312SOL     OW28834   1.219   3.713   1.317
 9312SOL    HW128835   1.296   3.750   1.265
 9312SOL    HW228836   1.180   3.635   1.268
 9313SOL     OW28837   7.021   0.150   1.421
 9313SOL    HW128838   7.018   0.203   1.337
 9313SOL    HW228839   0.092   0.141   1.452
 9314SOL     OW28840   6.225   4.512   6.929
 9314SOL    HW128841   6.318   4.478   6.926
 9314SOL    HW228842   6.220   4.601   6.883
 9315SOL     OW28843   7.012   6.914   5.571
 9315SOL    HW128844   6.915   6.934   5.586
 9315SOL    HW228845   0.006   6.911   5.473
 9316SOL     OW28846   5.337   6.499   5.988
 9316SOL    HW128847   5.312   6.514   5.893
 9316SOL    HW228848   5.424   6.546   6.007
 9317SOL     OW28849   5.133   5.634   3.939
 9317SOL    HW128850   5.154   5.729   3.961
 9317SOL    HW228851   5.034   5.624   3.924
 9318SOL     OW28852   6.179   1.357   6.303
 9318SOL    HW128853   6.272   1.376   6.272
 9318SOL    HW228854   6.180   1.281   6.368
 9319SOL     OW28855   2.418   2.687   6.742
 9319SOL    HW128856   2.459   2.625   6.808
 9319SOL    HW228857   2.477   2.767   6.729
 9320SOL     OW28858   3.722   0.655   4.774
 9320SOL    HW128859   3.636   0.654   4.825
 9320SOL    HW228860   3.717   0.592   4.697
 9321SOL     OW28861   0.883   0.276   4.959
 9321SOL    HW128862   0.897   0.253   4.862
 9321SOL    HW228863   0.965   0.318   4.995
 9322SOL     OW28864   6.795   3.533   5.937
 9322SOL    HW128865   6.849   3.586   6.002
 9322SOL    HW228866   6.704   3.515   5.976
 9323SOL     OW28867   1.249   1.196   5.518
 9323SOL    HW128868   1.294   1.174   5.605
 9323SOL    HW228869   1.290   1.141   5.445
 9324SOL     OW28870   1.165   4.880   2.048
 9324SOL    HW128871   1.244   4.897   2.106
 9324SOL    HW228872   1.190   4.819   1.973
 9325SOL     OW28873   5.909   1.322   0.053
 9325SOL    HW128874   6.001   1.313   0.013
 9325SOL    HW228875   5.914   1.380   0.134
 9326SOL     OW28876   2.631   4.768   0.175
 9326SOL    HW128877   2.673   4.680   0.198
 9326SOL    HW228878   2.548   4.781   0.230
 9327SOL     OW28879   4.553   0.388   2.450
 9327SOL    HW128880   4.645   0.412   2.418
 9327SOL    HW228881   4.499   0.471   2.461
 9328SOL     OW28882   2.591   0.892   4.463
 9328SOL    HW128883   2.667   0.859   4.518
 9328SOL    HW228884   2.617   0.893   4.366
 9329SOL     OW28885   5.670   3.808   1.068
 9329SOL    HW128886   5.596   3.750   1.034
 9329SOL    HW228887   5.711   3.766   1.149
 9330SOL     OW28888   6.687   0.323   5.449
 9330SOL    HW128889   6.654   0.278   5.366
 9330SOL    HW228890   6.785   0.308   5.457
 9331SOL     OW28891   2.518   0.807   6.609
 9331SOL    HW128892   2.583   0.858   6.554
 9331SOL    HW228893   2.427   0.812   6.568
 9332SOL     OW28894   4.067   4.691   0.518
 9332SOL    HW128895   4.047   4.606   0.565
 9332SOL    HW228896   4.013   4.765   0.558
 9333SOL     OW28897   3.736   4.743   6.659
 9333SOL    HW128898   3.658   4.687   6.687
 9333SOL    HW228899   3.821   4.697   6.683
 9334SOL     OW28900   4.962   6.566   4.331
 9334SOL    HW128901   4.954   6.655   4.376
 9334SOL    HW228902   4.888   6.554   4.265
 9335SOL     OW28903   1.419   1.141   6.752
 9335SOL    HW128904   1.353   1.209   6.784
 9335SOL    HW228905   1.491   1.130   6.820
 9336SOL     OW28906   3.930   6.963   5.248
 9336SOL    HW128907   3.874   0.005   5.199
 9336SOL    HW228908   4.026   6.975   5.222
 9337SOL     OW28909   4.042   0.515   5.140
 9337SOL    HW128910   4.087   0.523   5.229
 9337SOL    HW228911   4.099   0.557   5.069
 9338SOL     OW28912   6.076   6.716   1.013
 9338SOL    HW128913   5.990   6.717   0.962
 9338SOL    HW228914   6.057   6.702   1.110
 9339SOL     OW28915   5.712   6.679   0.202
 9339SOL    HW128916   5.785   6.748   0.203
 9339SOL    HW228917   5.669   6.679   0.112
 9340SOL     OW28918   3.832   4.890   3.994
 9340SOL    HW128919   3.871   4.824   4.059
 9340SOL    HW228920   3.901   4.956   3.968
 9341SOL     OW28921   6.221   5.089   1.186
 9341SOL    HW128922   6.222   5.174   1.239
 9341SOL    HW228923   6.161   5.100   1.107
 9342SOL     OW28924   3.147   6.946   4.240
 9342SOL    HW128925   3.101   6.858   4.254
 9342SOL    HW228926   3.238   6.942   4.281
 9343SOL     OW28927   4.901   4.119   1.696
 9343SOL    HW128928   4.894   4.047   1.626
 9343SOL    HW228929   4.869   4.082   1.784
 9344SOL     OW28930   5.572   6.133   1.620
 9344SOL    HW128931   5.607   6.100   1.532
 9344SOL    HW228932   5.486   6.087   1.641
 9345SOL     OW28933   6.716   5.155   1.306
 9345SOL    HW128934   6.710   5.065   1.348
 9345SOL    HW228935   6.730   5.145   1.207
 9346SOL     OW28936   5.016   1.116   1.887
 9346SOL    HW128937   5.018   1.209   1.923
 9346SOL    HW228938   4.936   1.068   1.923
 9347SOL     OW28939   3.656   4.343   0.582
 9347SOL    HW128940   3.753   4.342   0.557
 9347SOL    HW228941   3.645   4.391   0.669
 9348SOL     OW28942   2.528   5.983   2.250
 9348SOL    HW128943   2.566   6.040   2.322
 9348SOL    HW228944   2.584   5.990   2.168
 9349SOL     OW28945   5.796   5.146   2.034
 9349SOL    HW128946   5.841   5.083   1.971
 9349SOL    HW228947   5.833   5.134   2.126
 9350SOL     OW28948   6.727   2.467   5.664
 9350SOL    HW128949   6.703   2.393   5.602
 9350SOL    HW228950   6.825   2.485   5.659
 9351SOL     OW28951   3.273   0.215   6.115
 9351SOL    HW128952   3.191   0.267   6.091
 9351SOL    HW228953   3.350   0.279   6.127
 9352SOL     OW28954   3.063   1.357   6.426
 9352SOL    HW128955   3.105   1.405   6.349
 9352SOL    HW228956   3.130   1.295   6.466
 9353SOL     OW28957   0.134   4.406   0.699
 9353SOL    HW128958   0.221   4.447   0.728
 9353SOL    HW228959   0.087   4.368   0.778
 9354SOL     OW28960   0.348   2.065   6.021
 9354SOL    HW128961   0.308   2.149   5.985
 9354SOL    HW228962   0.309   2.045   6.111
 9355SOL     OW28963   0.336   1.849   4.504
 9355SOL    HW128964   0.294   1.927   4.550
 9355SOL    HW228965   0.341   1.771   4.566
 9356SOL     OW28966   4.951   6.112   2.221
 9356SOL    HW128967   5.020   6.169   2.265
 9356SOL    HW228968   4.916   6.158   2.139
 9357SOL     OW28969   1.714   3.554   6.662
 9357SOL    HW128970   1.752   3.641   6.629
 9357SOL    HW228971   1.638   3.526   6.603
 9358SOL     OW28972   6.827   2.999   2.571
 9358SOL    HW128973   6.728   3.004   2.563
 9358SOL    HW228974   6.856   2.903   2.571
 9359SOL     OW28975   1.954   3.836   5.226
 9359SOL    HW128976   1.996   3.765   5.283
 9359SOL    HW228977   1.861   3.854   5.259
 9360SOL     OW28978   1.489   5.641   6.782
 9360SOL    HW128979   1.398   5.680   6.794
 9360SOL    HW228980   1.525   5.613   6.871
 9361SOL     OW28981   1.809   5.707   2.377
 9361SOL    HW128982   1.877   5.636   2.360
 9361SOL    HW228983   1.842   5.769   2.449
 9362SOL     OW28984   2.049   3.614   3.206
 9362SOL    HW128985   2.030   3.575   3.116
 9362SOL    HW228986   2.046   3.543   3.276
 9363SOL     OW28987   3.763   6.843   1.976
 9363SOL    HW128988   3.830   6.916   1.989
 9363SOL    HW228989   3.689   6.877   1.917
 9364SOL     OW28990   3.932   3.369   6.590
 9364SOL    HW128991   3.842   3.411   6.573
 9364SOL    HW228992   3.942   3.287   6.534
 9365SOL     OW28993   2.488   2.033   4.393
 9365SOL    HW128994   2.510   2.005   4.300
 9365SOL    HW228995   2.389   2.032   4.405
 9366SOL     OW28996   3.627   6.837   6.433
 9366SOL    HW128997   3.607   6.806   6.526
 9366SOL    HW228998   3.544   6.831   6.377
 9367SOL     OW28999   0.334   6.946   2.809
 9367SOL    HW129000   0.249   6.937   2.861
 9367SOL    HW229001   0.337   0.012   2.765
 9368SOL     OW29002   3.032   1.024   2.705
 9368SOL    HW129003   3.094   1.049   2.780
 9368SOL    HW229004   3.067   1.062   2.620
 9369SOL     OW29005   6.825   6.024   4.654
 9369SOL    HW129006   6.862   5.939   4.692
 9369SOL    HW229007   6.728   6.012   4.634
 9370SOL     OW29008   5.053   0.460   3.701
 9370SOL    HW129009   4.967   0.409   3.704
 9370SOL    HW229010   5.037   0.555   3.728
 9371SOL     OW29011   2.984   5.521   0.631
 9371SOL    HW129012   2.954   5.468   0.711
 9371SOL    HW229013   2.952   5.475   0.548
 9372SOL     OW29014   5.479   0.099   2.596
 9372SOL    HW129015   5.461   0.095   2.498
 9372SOL    HW229016   5.578   0.111   2.611
 9373SOL     OW29017   4.799   1.981   2.707
 9373SOL    HW129018   4.826   2.011   2.615
 9373SOL    HW229019   4.863   2.019   2.774
 9374SOL     OW29020   0.611   3.822   0.349
 9374SOL    HW129021   0.631   3.801   0.445
 9374SOL    HW229022   0.616   3.739   0.294
 9375SOL     OW29023   0.434   1.176   1.437
 9375SOL    HW129024   0.366   1.248   1.439
 9375SOL    HW229025   0.399   1.095   1.485
 9376SOL     OW29026   2.593   4.063   1.298
 9376SOL    HW129027   2.554   3.982   1.255
 9376SOL    HW229028   2.534   4.093   1.373
 9377SOL     OW29029   1.945   5.965   4.166
 9377SOL    HW129030   1.849   5.986   4.148
 9377SOL    HW229031   1.952   5.873   4.204
 9378SOL     OW29032   1.647   1.395   3.720
 9378SOL    HW129033   1.612   1.310   3.681
 9378SOL    HW229034   1.728   1.424   3.670
 9379SOL     OW29035   4.806   6.190   5.704
 9379SOL    HW129036   4.904   6.200   5.691
 9379SOL    HW229037   4.782   6.219   5.797
 9380SOL     OW29038   4.684   5.736   4.840
 9380SOL    HW129039   4.769   5.706   4.884
 9380SOL    HW229040   4.612   5.745   4.909
 9381SOL     OW29041   4.096   2.989   5.999
 9381SOL    HW129042   4.078   3.040   5.915
 9381SOL    HW229043   4.030   2.914   6.006
 9382SOL     OW29044   3.749   0.454   3.498
 9382SOL    HW129045   3.818   0.427   3.431
 9382SOL    HW229046   3.680   0.382   3.505
 9383SOL     OW29047   0.291   5.799   4.523
 9383SOL    HW129048   0.229   5.727   4.554
 9383SOL    HW229049   0.362   5.814   4.592
 9384SOL     OW29050   4.083   0.573   2.139
 9384SOL    HW129051   4.036   0.531   2.062
 9384SOL    HW229052   4.181   0.582   2.118
 9385SOL     OW29053   4.014   0.990   3.509
 9385SOL    HW129054   4.096   0.964   3.559
 9385SOL    HW229055   3.934   0.948   3.551
 9386SOL     OW29056   1.973   5.956   5.162
 9386SOL    HW129057   1.996   5.962   5.259
 9386SOL    HW229058   1.895   5.894   5.150
 9387SOL     OW29059   2.724   1.483   6.761
 9387SOL    HW129060   2.798   1.439   6.710
 9387SOL    HW229061   2.639   1.433   6.746
 9388SOL     OW29062   2.925   6.618   2.894
 9388SOL    HW129063   2.944   6.703   2.944
 9388SOL    HW229064   3.012   6.575   2.869
 9389SOL     OW29065   2.003   0.443   3.184
 9389SOL    HW129066   2.046   0.518   3.234
 9389SOL    HW229067   2.074   0.381   3.150
 9390SOL     OW29068   4.624   4.843   6.126
 9390SOL    HW129069   4.560   4.852   6.050
 9390SOL    HW229070   4.639   4.746   6.145
 9391SOL     OW29071   1.667   1.826   5.057
 9391SOL    HW129072   1.609   1.848   4.979
 9391SOL    HW229073   1.710   1.910   5.091
 9392SOL     OW29074   5.652   5.925   5.132
 9392SOL    HW129075   5.618   6.014   5.161
 9392SOL    HW229076   5.631   5.856   5.202
 9393SOL     OW29077   3.094   6.728   6.986
 9393SOL    HW129078   3.052   6.681   0.040
 9393SOL    HW229079   3.165   6.789   7.019
 9394SOL     OW29080   6.347   0.500   1.488
 9394SOL    HW129081   6.321   0.488   1.392
 9394SOL    HW229082   6.378   0.412   1.525
 9395SOL     OW29083   3.262   1.778   1.143
 9395SOL    HW129084   3.282   1.876   1.149
 9395SOL    HW229085   3.251   1.741   1.236
 9396SOL     OW29086   2.279   4.067   4.221
 9396SOL    HW129087   2.206   4.114   4.270
 9396SOL    HW229088   2.274   3.969   4.240
 9397SOL     OW29089   4.433   6.885   6.243
 9397SOL    HW129090   4.464   6.813   6.304
 9397SOL    HW229091   4.369   6.945   6.292
 9398SOL     OW29092   6.306   1.116   4.769
 9398SOL    HW129093   6.295   1.215   4.780
 9398SOL    HW229094   6.297   1.092   4.672
 9399SOL     OW29095   1.140   3.175   5.377
 9399SOL    HW129096   1.061   3.193   5.435
 9399SOL    HW229097   1.224   3.194   5.428
 9400SOL     OW29098   4.538   1.337   1.565
 9400SOL    HW129099   4.559   1.242   1.589
 9400SOL    HW229100   4.602   1.368   1.494
 9401SOL     OW29101   6.546   0.701   3.226
 9401SOL    HW129102   6.545   0.611   3.182
 9401SOL    HW229103   6.527   0.771   3.158
 9402SOL     OW29104   1.067   5.061   2.692
 9402SOL    HW129105   1.113   4.998   2.629
 9402SOL    HW229106   1.134   5.103   2.752
 9403SOL     OW29107   6.572   1.275   2.061
 9403SOL    HW129108   6.616   1.360   2.091
 9403SOL    HW229109   6.474   1.292   2.047
 9404SOL     OW29110   1.186   2.598   0.491
 9404SOL    HW129111   1.088   2.613   0.505
 9404SOL    HW229112   1.221   2.662   0.422
 9405SOL     OW29113   2.342   4.253   4.043
 9405SOL    HW129114   2.287   4.224   3.964
 9405SOL    HW229115   2.334   4.185   4.116
 9406SOL     OW29116   6.751   3.043   6.083
 9406SOL    HW129117   6.678   3.071   6.146
 9406SOL    HW229118   6.729   3.072   5.991
 9407SOL     OW29119   2.932   4.820   3.541
 9407SOL    HW129120   2.976   4.791   3.626
 9407SOL    HW229121   2.833   4.811   3.549
 9408SOL     OW29122   6.749   3.114   5.813
 9408SOL    HW129123   6.777   3.209   5.803
 9408SOL    HW229124   6.664   3.099   5.763
 9409SOL     OW29125   5.889   5.083   0.478
 9409SOL    HW129126   5.861   5.058   0.385
 9409SOL    HW229127   5.989   5.084   0.483
 9410SOL     OW29128   1.845   0.349   2.171
 9410SOL    HW129129   1.935   0.354   2.129
 9410SOL    HW229130   1.809   0.441   2.186
 9411SOL     OW29131   3.594   3.753   2.470
 9411SOL    HW129132   3.542   3.773   2.553
 9411SOL    HW229133   3.645   3.668   2.483
 9412SOL     OW29134   1.094   0.957   2.481
 9412SOL    HW129135   1.078   0.971   2.383
 9412SOL    HW229136   1.012   0.916   2.523
 9413SOL     OW29137   4.264   5.990   3.469
 9413SOL    HW129138   4.172   5.962   3.495
 9413SOL    HW229139   4.259   6.054   3.392
 9414SOL     OW29140   3.037   0.998   3.170
 9414SOL    HW129141   2.975   1.036   3.101
 9414SOL    HW229142   3.004   0.908   3.198
 9415SOL     OW29143   2.640   6.984   2.431
 9415SOL    HW129144   2.667   0.046   2.474
 9415SOL    HW229145   2.582   7.004   2.352
 9416SOL     OW29146   6.921   2.110   6.497
 9416SOL    HW129147   6.943   2.138   6.403
 9416SOL    HW229148   6.958   2.178   6.561
 9417SOL     OW29149   4.345   0.360   0.941
 9417SOL    HW129150   4.379   0.287   0.882
 9417SOL    HW229151   4.379   0.345   1.034
 9418SOL     OW29152   3.235   0.630   1.330
 9418SOL    HW129153   3.186   0.648   1.244
 9418SOL    HW229154   3.321   0.681   1.331
 9419SOL     OW29155   2.640   4.104   5.875
 9419SOL    HW129156   2.711   4.136   5.812
 9419SOL    HW229157   2.672   4.021   5.921
 9420SOL     OW29158   5.531   4.448   6.336
 9420SOL    HW129159   5.435   4.462   6.359
 9420SOL    HW229160   5.588   4.471   6.414
 9421SOL     OW29161   2.465   6.201   4.711
 9421SOL    HW129162   2.471   6.102   4.698
 9421SOL    HW229163   2.482   6.247   4.623
 9422SOL     OW29164   3.108   5.418   3.064
 9422SOL    HW129165   3.150   5.356   2.997
 9422SOL    HW229166   3.105   5.374   3.153
 9423SOL     OW29167   2.744   6.656   3.672
 9423SOL    HW129168   2.722   6.716   3.594
 9423SOL    HW229169   2.843   6.648   3.680
 9424SOL     OW29170   5.228   1.995   4.994
 9424SOL    HW129171   5.295   2.038   4.933
 9424SOL    HW229172   5.275   1.936   5.059
 9425SOL     OW29173   5.375   3.714   1.333
 9425SOL    HW129174   5.410   3.716   1.427
 9425SOL    HW229175   5.290   3.661   1.331
 9426SOL     OW29176   3.260   1.673   5.976
 9426SOL    HW129177   3.267   1.767   5.944
 9426SOL    HW229178   3.308   1.612   5.913
 9427SOL     OW29179   2.498   5.327   3.335
 9427SOL    HW129180   2.590   5.368   3.336
 9427SOL    HW229181   2.449   5.354   3.418
 9428SOL     OW29182   6.448   1.079   1.596
 9428SOL    HW129183   6.454   1.150   1.666
 9428SOL    HW229184   6.401   1.115   1.516
 9429SOL     OW29185   2.068   3.928   3.467
 9429SOL    HW129186   2.116   3.980   3.538
 9429SOL    HW229187   2.119   3.933   3.381
 9430SOL     OW29188   0.156   3.144   4.875
 9430SOL    HW129189   0.070   3.122   4.921
 9430SOL    HW229190   0.183   3.066   4.817
 9431SOL     OW29191   6.456   4.271   0.651
 9431SOL    HW129192   6.367   4.287   0.609
 9431SOL    HW229193   6.526   4.324   0.602
 9432SOL     OW29194   5.566   0.299   3.234
 9432SOL    HW129195   5.643   0.301   3.298
 9432SOL    HW229196   5.494   0.359   3.267
 9433SOL     OW29197   3.018   6.181   3.432
 9433SOL    HW129198   3.049   6.086   3.420
 9433SOL    HW229199   2.919   6.186   3.422
 9434SOL     OW29200   5.543   5.719   1.780
 9434SOL    HW129201   5.504   5.804   1.817
 9434SOL    HW229202   5.473   5.670   1.728
 9435SOL     OW29203   0.471   2.934   3.400
 9435SOL    HW129204   0.444   2.842   3.427
 9435SOL    HW229205   0.474   2.993   3.481
 9436SOL     OW29206   1.488   2.992   1.323
 9436SOL    HW129207   1.529   2.906   1.354
 9436SOL    HW229208   1.543   3.030   1.249
 9437SOL     OW29209   1.399   5.953   3.209
 9437SOL    HW129210   1.436   5.984   3.297
 9437SOL    HW229211   1.473   5.950   3.141
 9438SOL     OW29212   0.474   6.911   1.767
 9438SOL    HW129213   0.434   6.820   1.760
 9438SOL    HW229214   0.478   6.938   1.864
 9439SOL     OW29215   0.319   2.931   0.437
 9439SOL    HW129216   0.389   2.933   0.366
 9439SOL    HW229217   0.286   3.024   0.454
 9440SOL     OW29218   3.873   4.872   3.145
 9440SOL    HW129219   3.871   4.787   3.198
 9440SOL    HW229220   3.931   4.860   3.065
 9441SOL     OW29221   6.131   4.366   6.066
 9441SOL    HW129222   6.202   4.297   6.082
 9441SOL    HW229223   6.112   4.370   5.968
 9442SOL     OW29224   4.768   3.611   1.387
 9442SOL    HW129225   4.684   3.587   1.338
 9442SOL    HW229226   4.757   3.590   1.484
 9443SOL     OW29227   2.451   5.094   1.021
 9443SOL    HW129228   2.469   5.181   0.974
 9443SOL    HW229229   2.416   5.113   1.113
 9444SOL     OW29230   1.995   3.610   0.789
 9444SOL    HW129231   2.007   3.707   0.767
 9444SOL    HW229232   2.051   3.587   0.869
 9445SOL     OW29233   6.136   3.291   2.924
 9445SOL    HW129234   6.113   3.198   2.897
 9445SOL    HW229235   6.235   3.301   2.933
 9446SOL     OW29236   6.264   5.444   4.820
 9446SOL    HW129237   6.296   5.477   4.909
 9446SOL    HW229238   6.167   5.464   4.810
 9447SOL     OW29239   5.944   4.693   3.940
 9447SOL    HW129240   5.902   4.724   4.025
 9447SOL    HW229241   5.907   4.745   3.863
 9448SOL     OW29242   6.901   0.471   5.759
 9448SOL    HW129243   6.984   0.457   5.813
 9448SOL    HW229244   6.867   0.564   5.773
 9449SOL     OW29245   5.447   0.407   0.395
 9449SOL    HW129246   5.426   0.442   0.487
 9449SOL    HW229247   5.363   0.377   0.351
 9450SOL     OW29248   2.259   5.878   4.328
 9450SOL    HW129249   2.242   5.948   4.258
 9450SOL    HW229250   2.239   5.788   4.290
 9451SOL     OW29251   4.565   6.793   5.693
 9451SOL    HW129252   4.569   6.780   5.594
 9451SOL    HW229253   4.470   6.804   5.722
 9452SOL     OW29254   2.191   3.640   0.143
 9452SOL    HW129255   2.092   3.635   0.130
 9452SOL    HW229256   2.234   3.685   0.065
 9453SOL     OW29257   3.084   4.856   2.784
 9453SOL    HW129258   3.011   4.804   2.741
 9453SOL    HW229259   3.062   4.870   2.881
 9454SOL     OW29260   3.711   3.844   6.385
 9454SOL    HW129261   3.657   3.761   6.366
 9454SOL    HW229262   3.806   3.818   6.404
 9455SOL     OW29263   2.117   1.921   3.670
 9455SOL    HW129264   2.165   1.974   3.599
 9455SOL    HW229265   2.177   1.848   3.703
 9456SOL     OW29266   0.000   3.450   0.975
 9456SOL    HW129267   7.008   3.523   0.908
 9456SOL    HW229268   6.941   3.433   1.027
 9457SOL     OW29269   1.664   3.766   3.829
 9457SOL    HW129270   1.724   3.839   3.794
 9457SOL    HW229271   1.701   3.732   3.915
 9458SOL     OW29272   0.582   3.408   6.551
 9458SOL    HW129273   0.671   3.442   6.584
 9458SOL    HW229274   0.520   3.486   6.538
 9459SOL     OW29275   5.286   4.687   3.746
 9459SOL    HW129276   5.340   4.653   3.669
 9459SOL    HW229277   5.345   4.700   3.826
 9460SOL     OW29278   1.563   3.459   4.069
 9460SOL    HW129279   1.656   3.494   4.085
 9460SOL    HW229280   1.547   3.452   3.971
 9461SOL     OW29281   0.422   1.833   1.372
 9461SOL    HW129282   0.347   1.770   1.393
 9461SOL    HW229283   0.417   1.913   1.432
 9462SOL     OW29284   1.689   3.589   3.582
 9462SOL    HW129285   1.675   3.635   3.669
 9462SOL    HW229286   1.728   3.654   3.516
 9463SOL     OW29287   6.002   0.416   1.113
 9463SOL    HW129288   5.961   0.326   1.131
 9463SOL    HW229289   6.070   0.436   1.184
 9464SOL     OW29290   5.805   0.595   1.117
 9464SOL    HW129291   5.785   0.656   1.194
 9464SOL    HW229292   5.880   0.534   1.142
 9465SOL     OW29293   0.374   4.136   1.816
 9465SOL    HW129294   0.464   4.170   1.844
 9465SOL    HW229295   0.366   4.039   1.838
 9466SOL     OW29296   3.645   4.713   5.323
 9466SOL    HW129297   3.737   4.749   5.310
 9466SOL    HW229298   3.642   4.617   5.296
 9467SOL     OW29299   1.535   2.510   1.338
 9467SOL    HW129300   1.524   2.427   1.391
 9467SOL    HW229301   1.446   2.550   1.318
 9468SOL     OW29302   5.795   3.799   6.214
 9468SOL    HW129303   5.882   3.768   6.254
 9468SOL    HW229304   5.761   3.878   6.266
 9469SOL     OW29305   7.014   4.773   1.786
 9469SOL    HW129306   0.017   4.680   1.762
 9469SOL    HW229307   6.920   4.772   1.820
 9470SOL     OW29308   4.975   3.384   6.610
 9470SOL    HW129309   4.887   3.419   6.578
 9470SOL    HW229310   5.047   3.411   6.547
 9471SOL     OW29311   6.458   2.323   4.173
 9471SOL    HW129312   6.423   2.385   4.103
 9471SOL    HW229313   6.452   2.229   4.141
 9472SOL     OW29314   6.396   2.628   4.860
 9472SOL    HW129315   6.337   2.703   4.892
 9472SOL    HW229316   6.489   2.661   4.848
 9473SOL     OW29317   3.246   5.224   0.369
 9473SOL    HW129318   3.264   5.245   0.273
 9473SOL    HW229319   3.310   5.275   0.426
 9474SOL     OW29320   6.854   3.315   0.180
 9474SOL    HW129321   6.763   3.302   0.140
 9474SOL    HW229322   6.923   3.293   0.111
 9475SOL     OW29323   3.598   3.165   0.015
 9475SOL    HW129324   3.593   3.253   0.062
 9475SOL    HW229325   3.587   3.178   6.941
 9476SOL     OW29326   4.056   3.729   4.050
 9476SOL    HW129327   4.143   3.731   4.099
 9476SOL    HW229328   4.073   3.714   3.953
 9477SOL     OW29329   0.752   2.834   0.496
 9477SOL    HW129330   0.654   2.848   0.482
 9477SOL    HW229331   0.779   2.871   0.585
 9478SOL     OW29332   5.158   3.292   1.386
 9478SOL    HW129333   5.075   3.285   1.441
 9478SOL    HW229334   5.138   3.346   1.304
 9479SOL     OW29335   4.474   6.647   0.474
 9479SOL    HW129336   4.549   6.602   0.426
 9479SOL    HW229337   4.503   6.671   0.567
 9480SOL     OW29338   5.408   4.308   0.599
 9480SOL    HW129339   5.311   4.318   0.577
 9480SOL    HW229340   5.427   4.212   0.620
 9481SOL     OW29341   4.881   3.197   2.851
 9481SOL    HW129342   4.927   3.240   2.773
 9481SOL    HW229343   4.949   3.149   2.907
 9482SOL     OW29344   0.479   1.322   2.388
 9482SOL    HW129345   0.455   1.419   2.396
 9482SOL    HW229346   0.572   1.314   2.351
 9483SOL     OW29347   1.570   0.344   1.016
 9483SOL    HW129348   1.586   0.312   0.922
 9483SOL    HW229349   1.538   0.268   1.072
 9484SOL     OW29350   4.195   0.250   4.446
 9484SOL    HW129351   4.248   0.175   4.485
 9484SOL    HW229352   4.098   0.224   4.442
 9485SOL     OW29353   0.564   0.855   0.998
 9485SOL    HW129354   0.525   0.936   0.953
 9485SOL    HW229355   0.661   0.849   0.977
 9486SOL     OW29356   3.885   6.364   0.663
 9486SOL    HW129357   3.947   6.424   0.612
 9486SOL    HW229358   3.825   6.316   0.599
 9487SOL     OW29359   3.279   3.909   3.847
 9487SOL    HW129360   3.360   3.914   3.906
 9487SOL    HW229361   3.197   3.925   3.902
 9488SOL     OW29362   2.940   0.484   1.127
 9488SOL    HW129363   2.898   0.544   1.195
 9488SOL    HW229364   2.950   0.392   1.165
 9489SOL     OW29365   4.489   3.913   1.031
 9489SOL    HW129366   4.491   3.816   1.056
 9489SOL    HW229367   4.440   3.965   1.101
 9490SOL     OW29368   6.084   5.236   2.377
 9490SOL    HW129369   6.064   5.193   2.465
 9490SOL    HW229370   6.040   5.185   2.303
 9491SOL     OW29371   5.501   4.713   3.936
 9491SOL    HW129372   5.509   4.633   3.996
 9491SOL    HW229373   5.570   4.707   3.864
 9492SOL     OW29374   3.540   3.254   4.461
 9492SOL    HW129375   3.566   3.301   4.545
 9492SOL    HW229376   3.616   3.195   4.431
 9493SOL     OW29377   2.655   5.723   4.756
 9493SOL    HW129378   2.579   5.788   4.757
 9493SOL    HW229379   2.619   5.630   4.768
 9494SOL     OW29380   5.003   2.831   2.620
 9494SOL    HW129381   4.995   2.734   2.645
 9494SOL    HW229382   4.916   2.878   2.639
 9495SOL     OW29383   6.686   1.898   3.049
 9495SOL    HW129384   6.755   1.827   3.057
 9495SOL    HW229385   6.641   1.891   2.959
 9496SOL     OW29386   6.151   3.648   1.719
 9496SOL    HW129387   6.130   3.606   1.631
 9496SOL    HW229388   6.233   3.704   1.711
 9497SOL     OW29389   5.994   6.958   6.309
 9497SOL    HW129390   5.989   6.956   6.210
 9497SOL    HW229391   6.036   6.873   6.342
 9498SOL     OW29392   5.357   6.716   4.256
 9498SOL    HW129393   5.330   6.634   4.205
 9498SOL    HW229394   5.331   6.705   4.352
 9499SOL     OW29395   2.213   4.519   6.269
 9499SOL    HW129396   2.310   4.526   6.243
 9499SOL    HW229397   2.200   4.439   6.326
 9500SOL     OW29398   4.870   0.201   1.244
 9500SOL    HW129399   4.830   0.281   1.198
 9500SOL    HW229400   4.846   0.119   1.193
 9501SOL     OW29401   2.922   1.231   5.406
 9501SOL    HW129402   2.885   1.139   5.415
 9501SOL    HW229403   2.884   1.290   5.477
 9502SOL     OW29404   5.914   2.475   5.351
 9502SOL    HW129405   5.831   2.453   5.300
 9502SOL    HW229406   5.994   2.461   5.292
 9503SOL     OW29407   1.116   1.798   1.268
 9503SOL    HW129408   1.058   1.719   1.287
 9503SOL    HW229409   1.139   1.843   1.354
 9504SOL     OW29410   7.009   2.754   0.593
 9504SOL    HW129411   6.929   2.698   0.611
 9504SOL    HW229412   0.067   2.699   0.603
 9505SOL     OW29413   5.332   4.422   4.330
 9505SOL    HW129414   5.313   4.381   4.240
 9505SOL    HW229415   5.256   4.402   4.392
 9506SOL     OW29416   1.604   2.403   6.272
 9506SOL    HW129417   1.582   2.403   6.370
 9506SOL    HW229418   1.549   2.333   6.226
 9507SOL     OW29419   0.464   1.070   2.565
 9507SOL    HW129420   0.457   1.003   2.491
 9507SOL    HW229421   0.468   1.162   2.526
 9508SOL     OW29422   6.210   1.781   1.265
 9508SOL    HW129423   6.140   1.767   1.196
 9508SOL    HW229424   6.216   1.879   1.288
 9509SOL     OW29425   0.282   0.825   3.405
 9509SOL    HW129426   0.226   0.876   3.340
 9509SOL    HW229427   0.376   0.858   3.401
 9510SOL     OW29428   1.820   3.762   3.409
 9510SOL    HW129429   1.806   3.846   3.356
 9510SOL    HW229430   1.912   3.727   3.392
 9511SOL     OW29431   1.481   0.127   1.166
 9511SOL    HW129432   1.517   0.107   1.075
 9511SOL    HW229433   1.389   0.088   1.174
 9512SOL     OW29434   6.064   1.636   1.472
 9512SOL    HW129435   6.069   1.713   1.407
 9512SOL    HW229436   6.077   1.550   1.423
 9513SOL     OW29437   2.174   3.980   6.146
 9513SOL    HW129438   2.158   3.976   6.048
 9513SOL    HW229439   2.265   3.943   6.167
 9514SOL     OW29440   1.728   5.018   5.827
 9514SOL    HW129441   1.777   4.932   5.814
 9514SOL    HW229442   1.677   5.014   5.913
 9515SOL     OW29443   1.347   5.744   0.668
 9515SOL    HW129444   1.359   5.689   0.750
 9515SOL    HW229445   1.311   5.834   0.694
 9516SOL     OW29446   6.253   5.040   6.912
 9516SOL    HW129447   6.222   5.135   6.901
 9516SOL    HW229448   6.197   4.980   6.856
 9517SOL     OW29449   1.399   4.481   1.075
 9517SOL    HW129450   1.473   4.535   1.035
 9517SOL    HW229451   1.436   4.420   1.145
 9518SOL     OW29452   1.948   1.818   0.347
 9518SOL    HW129453   1.990   1.746   0.291
 9518SOL    HW229454   1.851   1.798   0.360
 9519SOL     OW29455   2.924   3.618   4.555
 9519SOL    HW129456   2.956   3.709   4.526
 9519SOL    HW229457   2.899   3.564   4.474
 9520SOL     OW29458   1.979   2.087   3.296
 9520SOL    HW129459   1.898   2.073   3.239
 9520SOL    HW229460   2.033   2.003   3.298
 9521SOL     OW29461   4.925   5.556   1.713
 9521SOL    HW129462   4.984   5.475   1.718
 9521SOL    HW229463   4.976   5.637   1.743
 9522SOL     OW29464   2.388   5.779   1.074
 9522SOL    HW129465   2.487   5.762   1.082
 9522SOL    HW229466   2.355   5.743   0.987
 9523SOL     OW29467   2.961   5.080   4.956
 9523SOL    HW129468   3.057   5.107   4.961
 9523SOL    HW229469   2.948   4.995   5.007
 9524SOL     OW29470   3.544   3.026   1.701
 9524SOL    HW129471   3.570   2.988   1.612
 9524SOL    HW229472   3.624   3.070   1.742
 9525SOL     OW29473   2.461   3.119   5.670
 9525SOL    HW129474   2.489   3.183   5.742
 9525SOL    HW229475   2.460   3.167   5.582
 9526SOL     OW29476   5.290   5.530   1.698
 9526SOL    HW129477   5.244   5.509   1.612
 9526SOL    HW229478   5.302   5.447   1.751
 9527SOL     OW29479   1.019   0.382   3.236
 9527SOL    HW129480   1.103   0.388   3.289
 9527SOL    HW229481   0.947   0.433   3.283
 9528SOL     OW29482   0.545   1.021   6.982
 9528SOL    HW129483   0.470   0.969   6.940
 9528SOL    HW229484   0.549   1.113   6.941
 9529SOL     OW29485   6.296   2.860   5.050
 9529SOL    HW129486   6.343   2.895   5.132
 9529SOL    HW229487   6.346   2.890   4.968
 9530SOL     OW29488   1.809   3.702   2.197
 9530SOL    HW129489   1.798   3.611   2.159
 9530SOL    HW229490   1.897   3.740   2.169
 9531SOL     OW29491   5.224   5.218   3.182
 9531SOL    HW129492   5.206   5.260   3.093
 9531SOL    HW229493   5.317   5.240   3.211
 9532SOL     OW29494   0.294   0.044   2.282
 9532SOL    HW129495   0.288   0.012   2.377
 9532SOL    HW229496   0.362   0.117   2.277
 9533SOL     OW29497   6.689   6.962   5.584
 9533SOL    HW129498   6.638   0.007   5.533
 9533SOL    HW229499   6.642   6.874   5.577
 9534SOL     OW29500   6.611   3.111   5.447
 9534SOL    HW129501   6.628   3.204   5.481
 9534SOL    HW229502   6.612   3.111   5.347
 9535SOL     OW29503   2.917   1.651   5.474
 9535SOL    HW129504   2.958   1.736   5.507
 9535SOL    HW229505   2.834   1.673   5.421
 9536SOL     OW29506   2.721   4.737   5.284
 9536SOL    HW129507   2.784   4.680   5.231
 9536SOL    HW229508   2.658   4.783   5.223
 9537SOL     OW29509   2.769   6.355   2.635
 9537SOL    HW129510   2.795   6.297   2.713
 9537SOL    HW229511   2.839   6.425   2.623
 9538SOL     OW29512   6.224   1.948   3.746
 9538SOL    HW129513   6.322   1.928   3.745
 9538SOL    HW229514   6.174   1.874   3.700
 9539SOL     OW29515   2.103   3.702   5.448
 9539SOL    HW129516   2.150   3.720   5.535
 9539SOL    HW229517   2.169   3.711   5.373
 9540SOL     OW29518   5.659   4.132   4.331
 9540SOL    HW129519   5.710   4.184   4.262
 9540SOL    HW229520   5.561   4.140   4.313
 9541SOL     OW29521   3.204   1.591   5.651
 9541SOL    HW129522   3.194   1.676   5.600
 9541SOL    HW229523   3.220   1.515   5.587
 9542SOL     OW29524   5.125   3.876   4.599
 9542SOL    HW129525   5.054   3.807   4.611
 9542SOL    HW229526   5.180   3.881   4.683
 9543SOL     OW29527   3.521   1.013   4.950
 9543SOL    HW129528   3.593   1.081   4.933
 9543SOL    HW229529   3.436   1.044   4.908
 9544SOL     OW29530   0.217   1.250   3.267
 9544SOL    HW129531   0.184   1.156   3.270
 9544SOL    HW229532   0.317   1.251   3.266
 9545SOL     OW29533   5.973   5.151   3.801
 9545SOL    HW129534   5.954   5.054   3.787
 9545SOL    HW229535   5.937   5.204   3.724
 9546SOL     OW29536   3.452   2.902   5.551
 9546SOL    HW129537   3.375   2.879   5.611
 9546SOL    HW229538   3.505   2.976   5.592
 9547SOL     OW29539   2.480   6.185   4.143
 9547SOL    HW129540   2.483   6.089   4.173
 9547SOL    HW229541   2.532   6.195   4.058
 9548SOL     OW29542   5.836   6.246   5.418
 9548SOL    HW129543   5.854   6.266   5.322
 9548SOL    HW229544   5.780   6.319   5.458
 9549SOL     OW29545   2.840   3.442   1.328
 9549SOL    HW129546   2.838   3.403   1.236
 9549SOL    HW229547   2.761   3.409   1.380
 9550SOL     OW29548   0.501   1.446   0.686
 9550SOL    HW129549   0.528   1.424   0.592
 9550SOL    HW229550   0.580   1.438   0.746
 9551SOL     OW29551   6.272   1.025   3.925
 9551SOL    HW129552   6.285   1.026   3.826
 9551SOL    HW229553   6.197   0.962   3.949
 9552SOL     OW29554   1.269   6.428   2.464
 9552SOL    HW129555   1.342   6.365   2.491
 9552SOL    HW229556   1.225   6.395   2.381
 9553SOL     OW29557   6.025   3.964   6.934
 9553SOL    HW129558   6.012   4.033   6.863
 9553SOL    HW229559   6.107   3.987   6.988
 9554SOL     OW29560   2.303   0.636   1.844
 9554SOL    HW129561   2.375   0.667   1.907
 9554SOL    HW229562   2.215   0.636   1.891
 9555SOL     OW29563   1.065   1.056   2.225
 9555SOL    HW129564   1.096   0.966   2.192
 9555SOL    HW229565   1.144   1.109   2.256
 9556SOL     OW29566   2.341   2.514   1.219
 9556SOL    HW129567   2.297   2.595   1.181
 9556SOL    HW229568   2.375   2.535   1.311
 9557SOL     OW29569   0.004   0.486   2.687
 9557SOL    HW129570   0.078   0.456   2.626
 9557SOL    HW229571   6.942   0.446   2.657
 9558SOL     OW29572   6.417   6.235   4.420
 9558SOL    HW129573   6.322   6.222   4.449
 9558SOL    HW229574   6.433   6.188   4.334
 9559SOL     OW29575   0.342   4.073   1.153
 9559SOL    HW129576   0.365   4.158   1.200
 9559SOL    HW229577   0.355   4.084   1.055
 9560SOL     OW29578   1.544   1.478   2.983
 9560SOL    HW129579   1.474   1.549   2.989
 9560SOL    HW229580   1.508   1.401   2.930
 9561SOL     OW29581   0.995   6.333   0.114
 9561SOL    HW129582   1.035   6.292   0.195
 9561SOL    HW229583   0.963   6.261   0.052
 9562SOL     OW29584   3.240   0.075   4.955
 9562SOL    HW129585   3.206   0.151   5.011
 9562SOL    HW229586   3.242   7.016   5.010
 9563SOL     OW29587   6.603   6.929   0.205
 9563SOL    HW129588   6.531   6.885   0.152
 9563SOL    HW229589   6.562   6.982   0.280
 9564SOL     OW29590   2.843   6.879   6.741
 9564SOL    HW129591   2.880   6.787   6.757
 9564SOL    HW229592   2.816   6.920   6.828
 9565SOL     OW29593   3.957   6.298   5.188
 9565SOL    HW129594   3.964   6.323   5.284
 9565SOL    HW229595   4.030   6.233   5.165
 9566SOL     OW29596   2.872   5.203   6.801
 9566SOL    HW129597   2.899   5.111   6.773
 9566SOL    HW229598   2.952   5.264   6.798
 9567SOL     OW29599   6.402   4.601   6.605
 9567SOL    HW129600   6.357   4.661   6.671
 9567SOL    HW229601   6.335   4.564   6.541
 9568SOL     OW29602   4.804   2.595   0.045
 9568SOL    HW129603   4.749   2.531   7.016
 9568SOL    HW229604   4.759   2.614   0.132
 9569SOL     OW29605   0.195   0.367   2.570
 9569SOL    HW129606   0.266   0.344   2.636
 9569SOL    HW229607   0.236   0.411   2.490
 9570SOL     OW29608   1.072   2.618   2.041
 9570SOL    HW129609   1.036   2.692   2.098
 9570SOL    HW229610   1.041   2.530   2.076
 9571SOL     OW29611   2.557   3.800   6.947
 9571SOL    HW129612   2.472   3.848   6.922
 9571SOL    HW229613   2.585   3.828   0.014
 9572SOL     OW29614   1.691   5.346   0.876
 9572SOL    HW129615   1.602   5.378   0.909
 9572SOL    HW229616   1.681   5.308   0.784
 9573SOL     OW29617   0.623   1.619   6.699
 9573SOL    HW129618   0.562   1.547   6.665
 9573SOL    HW229619   0.693   1.579   6.758
 9574SOL     OW29620   3.856   3.052   4.229
 9574SOL    HW129621   3.798   3.031   4.307
 9574SOL    HW229622   3.916   3.129   4.251
 9575SOL     OW29623   5.628   0.676   0.866
 9575SOL    HW129624   5.698   0.670   0.937
 9575SOL    HW229625   5.672   0.671   0.776
 9576SOL     OW29626   3.219   0.614   2.484
 9576SOL    HW129627   3.199   0.656   2.573
 9576SOL    HW229628   3.134   0.602   2.433
 9577SOL     OW29629   1.363   1.094   3.820
 9577SOL    HW129630   1.454   1.091   3.779
 9577SOL    HW229631   1.313   1.171   3.783
 9578SOL     OW29632   6.733   3.600   3.270
 9578SOL    HW129633   6.800   3.616   3.342
 9578SOL    HW229634   6.642   3.624   3.303
 9579SOL     OW29635   1.776   5.368   3.019
 9579SOL    HW129636   1.714   5.293   3.040
 9579SOL    HW229637   1.868   5.345   3.051
 9580SOL     OW29638   4.646   2.868   1.108
 9580SOL    HW129639   4.595   2.915   1.180
 9580SOL    HW229640   4.612   2.774   1.098
 9581SOL     OW29641   1.042   5.232   6.576
 9581SOL    HW129642   1.064   5.327   6.596
 9581SOL    HW229643   0.946   5.215   6.601
 9582SOL     OW29644   4.327   4.710   4.748
 9582SOL    HW129645   4.287   4.668   4.830
 9582SOL    HW229646   4.421   4.738   4.768
 9583SOL     OW29647   2.806   3.585   0.878
 9583SOL    HW129648   2.868   3.657   0.846
 9583SOL    HW229649   2.774   3.531   0.800
 9584SOL     OW29650   6.263   6.516   0.031
 9584SOL    HW129651   6.203   6.525   6.976
 9584SOL    HW229652   6.315   6.430   0.024
 9585SOL     OW29653   6.794   0.959   2.748
 9585SOL    HW129654   6.712   1.015   2.740
 9585SOL    HW229655   6.794   0.912   2.836
 9586SOL     OW29656   6.422   3.834   2.321
 9586SOL    HW129657   6.326   3.861   2.308
 9586SOL    HW229658   6.426   3.736   2.340
 9587SOL     OW29659   6.123   0.612   2.165
 9587SOL    HW129660   6.107   0.658   2.253
 9587SOL    HW229661   6.220   0.620   2.141
 9588SOL     OW29662   0.672   1.741   2.168
 9588SOL    HW129663   0.687   1.824   2.222
 9588SOL    HW229664   0.720   1.664   2.211
 9589SOL     OW29665   2.736   5.500   6.251
 9589SOL    HW129666   2.638   5.494   6.269
 9589SOL    HW229667   2.761   5.596   6.233
 9590SOL     OW29668   0.367   5.053   2.527
 9590SOL    HW129669   0.416   5.139   2.513
 9590SOL    HW229670   0.401   4.984   2.463
 9591SOL     OW29671   3.181   6.349   0.032
 9591SOL    HW129672   3.162   6.253   0.011
 9591SOL    HW229673   3.211   6.395   6.974
 9592SOL     OW29674   3.768   5.170   1.764
 9592SOL    HW129675   3.699   5.241   1.777
 9592SOL    HW229676   3.776   5.148   1.666
 9593SOL     OW29677   6.063   1.338   4.520
 9593SOL    HW129678   6.133   1.409   4.514
 9593SOL    HW229679   5.984   1.373   4.568
 9594SOL     OW29680   0.635   6.107   3.552
 9594SOL    HW129681   0.642   6.044   3.474
 9594SOL    HW229682   0.708   6.087   3.617
 9595SOL     OW29683   2.071   4.184   4.349
 9595SOL    HW129684   1.996   4.129   4.384
 9595SOL    HW229685   2.035   4.267   4.305
 9596SOL     OW29686   7.020   5.753   0.597
 9596SOL    HW129687   6.921   5.754   0.579
 9596SOL    HW229688   0.018   5.824   0.664
 9597SOL     OW29689   6.835   4.284   0.803
 9597SOL    HW129690   6.894   4.326   0.871
 9597SOL    HW229691   6.833   4.185   0.818
 9598SOL     OW29692   0.618   3.493   5.009
 9598SOL    HW129693   0.536   3.528   4.964
 9598SOL    HW229694   0.687   3.565   5.012
 9599SOL     OW29695   3.137   0.740   5.140
 9599SOL    HW129696   3.217   0.698   5.096
 9599SOL    HW229697   3.136   0.838   5.120
 9600SOL     OW29698   2.279   6.768   6.191
 9600SOL    HW129699   2.255   6.864   6.206
 9600SOL    HW229700   2.222   6.710   6.249
 9601SOL     OW29701   6.214   4.029   0.096
 9601SOL    HW129702   6.284   4.011   0.027
 9601SOL    HW229703   6.189   4.126   0.094
 9602SOL     OW29704   6.271   5.041   6.230
 9602SOL    HW129705   6.226   4.953   6.243
 9602SOL    HW229706   6.206   5.106   6.191
 9603SOL     OW29707   2.612   6.949   4.443
 9603SOL    HW129708   2.701   6.987   4.469
 9603SOL    HW229709   2.617   6.912   4.350
 9604SOL     OW29710   5.071   0.370   0.733
 9604SOL    HW129711   4.982   0.415   0.739
 9604SOL    HW229712   5.060   0.277   0.698
 9605SOL     OW29713   6.997   4.756   5.397
 9605SOL    HW129714   0.029   4.835   5.372
 9605SOL    HW229715   0.032   4.678   5.418
 9606SOL     OW29716   1.214   6.405   4.723
 9606SOL    HW129717   1.167   6.486   4.758
 9606SOL    HW229718   1.259   6.357   4.799
 9607SOL     OW29719   0.938   2.361   2.091
 9607SOL    HW129720   0.957   2.282   2.149
 9607SOL    HW229721   0.970   2.342   1.998
 9608SOL     OW29722   0.195   6.489   2.726
 9608SOL    HW129723   0.155   6.473   2.816
 9608SOL    HW229724   0.281   6.538   2.736
 9609SOL     OW29725   1.275   4.247   4.703
 9609SOL    HW129726   1.315   4.199   4.624
 9609SOL    HW229727   1.335   4.236   4.782
 9610SOL     OW29728   1.424   4.101   4.531
 9610SOL    HW129729   1.504   4.044   4.551
 9610SOL    HW229730   1.389   4.080   4.440
 9611SOL     OW29731   0.405   6.220   1.471
 9611SOL    HW129732   0.327   6.233   1.410
 9611SOL    HW229733   0.436   6.125   1.465
 9612SOL     OW29734   6.180   3.216   1.448
 9612SOL    HW129735   6.230   3.188   1.530
 9612SOL    HW229736   6.140   3.135   1.404
 9613SOL     OW29737   5.122   6.043   3.674
 9613SOL    HW129738   5.053   6.010   3.738
 9613SOL    HW229739   5.114   5.992   3.588
 9614SOL     OW29740   3.837   3.845   1.281
 9614SOL    HW129741   3.758   3.786   1.267
 9614SOL    HW229742   3.831   3.924   1.221
 9615SOL     OW29743   1.180   6.678   2.289
 9615SOL    HW129744   1.088   6.701   2.259
 9615SOL    HW229745   1.186   6.579   2.306
 9616SOL     OW29746   3.964   4.091   0.412
 9616SOL    HW129747   4.059   4.097   0.382
 9616SOL    HW229748   3.932   4.182   0.439
 9617SOL     OW29749   0.847   4.324   4.155
 9617SOL    HW129750   0.905   4.361   4.227
 9617SOL    HW229751   0.844   4.388   4.078
 9618SOL     OW29752   3.804   6.938   6.245
 9618SOL    HW129753   3.760   6.886   6.319
 9618SOL    HW229754   3.738   7.001   6.205
 9619SOL     OW29755   1.297   0.223   0.884
 9619SOL    HW129756   1.370   0.155   0.874
 9619SOL    HW229757   1.238   0.197   0.960
 9620SOL     OW29758   5.312   1.911   6.530
 9620SOL    HW129759   5.333   2.007   6.511
 9620SOL    HW229760   5.298   1.899   6.628
 9621SOL     OW29761   1.454   1.259   2.817
 9621SOL    HW129762   1.388   1.195   2.775
 9621SOL    HW229763   1.508   1.302   2.745
 9622SOL     OW29764   5.960   1.554   6.612
 9622SOL    HW129765   6.040   1.612   6.627
 9622SOL    HW229766   5.957   1.482   6.681
 9623SOL     OW29767   4.005   5.210   5.560
 9623SOL    HW129768   3.990   5.309   5.564
 9623SOL    HW229769   3.924   5.163   5.595
 9624SOL     OW29770   5.317   4.125   5.028
 9624SOL    HW129771   5.402   4.178   5.023
 9624SOL    HW229772   5.320   4.051   4.961
 9625SOL     OW29773   5.289   4.498   0.079
 9625SOL    HW129774   5.291   4.406   0.039
 9625SOL    HW229775   5.292   4.566   0.005
 9626SOL     OW29776   2.431   5.909   5.563
 9626SOL    HW129777   2.515   5.857   5.581
 9626SOL    HW229778   2.413   5.910   5.465
 9627SOL     OW29779   0.246   4.298   4.806
 9627SOL    HW129780   0.300   4.297   4.889
 9627SOL    HW229781   0.292   4.354   4.736
 9628SOL     OW29782   6.019   3.928   0.845
 9628SOL    HW129783   6.016   4.023   0.813
 9628SOL    HW229784   6.114   3.902   0.864
 9629SOL     OW29785   6.714   5.832   3.379
 9629SOL    HW129786   6.777   5.897   3.338
 9629SOL    HW229787   6.643   5.808   3.312
 9630SOL     OW29788   6.133   6.218   5.553
 9630SOL    HW129789   6.227   6.188   5.569
 9630SOL    HW229790   6.122   6.244   5.457
 9631SOL     OW29791   4.351   1.906   0.941
 9631SOL    HW129792   4.252   1.914   0.954
 9631SOL    HW229793   4.369   1.852   0.858
 9632SOL     OW29794   1.934   5.292   2.205
 9632SOL    HW129795   1.930   5.356   2.129
 9632SOL    HW229796   1.874   5.322   2.278
 9633SOL     OW29797   3.738   4.096   0.150
 9633SOL    HW129798   3.814   4.143   0.104
 9633SOL    HW229799   3.746   3.997   0.134
 9634SOL     OW29800   6.889   5.310   3.544
 9634SOL    HW129801   6.798   5.280   3.571
 9634SOL    HW229802   6.907   5.401   3.581
 9635SOL     OW29803   1.123   4.158   5.557
 9635SOL    HW129804   1.146   4.123   5.466
 9635SOL    HW229805   1.194   4.132   5.622
 9636SOL     OW29806   3.819   1.431   5.755
 9636SOL    HW129807   3.756   1.430   5.677
 9636SOL    HW229808   3.769   1.403   5.837
 9637SOL     OW29809   3.811   3.044   1.517
 9637SOL    HW129810   3.898   3.062   1.563
 9637SOL    HW229811   3.779   2.952   1.541
 9638SOL     OW29812   6.884   3.361   5.730
 9638SOL    HW129813   6.975   3.320   5.734
 9638SOL    HW229814   6.871   3.422   5.809
 9639SOL     OW29815   4.246   2.109   1.840
 9639SOL    HW129816   4.216   2.016   1.819
 9639SOL    HW229817   4.197   2.143   1.920
 9640SOL     OW29818   3.239   0.413   2.249
 9640SOL    HW129819   3.284   0.378   2.331
 9640SOL    HW229820   3.171   0.481   2.275
 9641SOL     OW29821   6.030   5.922   1.963
 9641SOL    HW129822   5.967   5.915   2.040
 9641SOL    HW229823   6.031   5.836   1.913
 9642SOL     OW29824   1.353   6.488   4.130
 9642SOL    HW129825   1.260   6.522   4.118
 9642SOL    HW229826   1.351   6.408   4.189
 9643SOL     OW29827   5.114   4.081   3.789
 9643SOL    HW129828   5.153   4.083   3.697
 9643SOL    HW229829   5.134   3.992   3.831
 9644SOL     OW29830   1.603   5.717   5.707
 9644SOL    HW129831   1.692   5.704   5.663
 9644SOL    HW229832   1.559   5.628   5.720
 9645SOL     OW29833   2.501   4.598   4.726
 9645SOL    HW129834   2.458   4.629   4.811
 9645SOL    HW229835   2.482   4.501   4.713
 9646SOL     OW29836   2.718   5.266   1.924
 9646SOL    HW129837   2.643   5.216   1.967
 9646SOL    HW229838   2.805   5.224   1.948
 9647SOL     OW29839   0.232   6.987   3.420
 9647SOL    HW129840   0.287   7.024   3.495
 9647SOL    HW229841   0.143   6.957   3.456
 9648SOL     OW29842   4.456   2.433   0.881
 9648SOL    HW129843   4.454   2.382   0.966
 9648SOL    HW229844   4.368   2.479   0.867
 9649SOL     OW29845   2.389   4.244   0.063
 9649SOL    HW129846   2.320   4.172   0.059
 9649SOL    HW229847   2.472   4.213   0.016
 9650SOL     OW29848   4.602   4.343   2.835
 9650SOL    HW129849   4.666   4.285   2.785
 9650SOL    HW229850   4.518   4.293   2.852
 9651SOL     OW29851   5.028   1.186   0.976
 9651SOL    HW129852   5.111   1.197   1.030
 9651SOL    HW229853   5.028   1.253   0.901
 9652SOL     OW29854   1.060   5.056   1.516
 9652SOL    HW129855   0.979   5.112   1.495
 9652SOL    HW229856   1.071   5.049   1.615
 9653SOL     OW29857   4.592   4.831   4.822
 9653SOL    HW129858   4.610   4.792   4.912
 9653SOL    HW229859   4.679   4.853   4.777
 9654SOL     OW29860   3.081   3.372   3.111
 9654SOL    HW129861   3.040   3.360   3.020
 9654SOL    HW229862   3.031   3.316   3.177
 9655SOL     OW29863   0.136   2.051   0.651
 9655SOL    HW129864   0.138   2.029   0.554
 9655SOL    HW229865   0.051   2.100   0.673
 9656SOL     OW29866   4.466   2.892   1.312
 9656SOL    HW129867   4.502   2.805   1.347
 9656SOL    HW229868   4.491   2.966   1.374
 9657SOL     OW29869   5.517   3.814   2.614
 9657SOL    HW129870   5.514   3.722   2.574
 9657SOL    HW229871   5.531   3.806   2.712
 9658SOL     OW29872   5.577   1.582   2.171
 9658SOL    HW129873   5.530   1.553   2.088
 9658SOL    HW229874   5.511   1.619   2.236
 9659SOL     OW29875   0.982   2.847   0.077
 9659SOL    HW129876   1.039   2.928   0.094
 9659SOL    HW229877   0.976   2.792   0.160
 9660SOL     OW29878   0.649   6.987   2.817
 9660SOL    HW129879   0.679   6.894   2.796
 9660SOL    HW229880   0.553   6.985   2.845
 9661SOL     OW29881   3.777   6.437   1.403
 9661SOL    HW129882   3.740   6.344   1.413
 9661SOL    HW229883   3.738   6.496   1.474
 9662SOL     OW29884   4.724   3.612   6.751
 9662SOL    HW129885   4.708   3.707   6.724
 9662SOL    HW229886   4.637   3.570   6.778
 9663SOL     OW29887   0.329   5.841   2.798
 9663SOL    HW129888   0.241   5.793   2.799
 9663SOL    HW229889   0.372   5.829   2.709
 9664SOL     OW29890   5.816   4.791   4.181
 9664SOL    HW129891   5.745   4.724   4.158
 9664SOL    HW229892   5.805   4.818   4.277
 9665SOL     OW29893   5.804   6.725   6.249
 9665SOL    HW129894   5.889   6.704   6.297
 9665SOL    HW229895   5.743   6.775   6.311
 9666SOL     OW29896   6.400   3.765   2.019
 9666SOL    HW129897   6.434   3.839   2.076
 9666SOL    HW229898   6.301   3.757   2.031
 9667SOL     OW29899   4.021   3.766   6.940
 9667SOL    HW129900   4.013   3.703   6.863
 9667SOL    HW229901   3.954   3.839   6.931
 9668SOL     OW29902   0.849   0.448   6.417
 9668SOL    HW129903   0.834   0.444   6.516
 9668SOL    HW229904   0.843   0.356   6.379
 9669SOL     OW29905   2.390   6.749   1.815
 9669SOL    HW129906   2.343   6.816   1.872
 9669SOL    HW229907   2.394   6.782   1.721
 9670SOL     OW29908   0.297   4.941   5.679
 9670SOL    HW129909   0.234   4.864   5.670
 9670SOL    HW229910   0.314   4.958   5.776
 9671SOL     OW29911   6.676   4.211   0.273
 9671SOL    HW129912   6.699   4.183   0.179
 9671SOL    HW229913   6.687   4.133   0.334
 9672SOL     OW29914   1.966   4.574   3.442
 9672SOL    HW129915   1.918   4.544   3.524
 9672SOL    HW229916   2.064   4.567   3.457
 9673SOL     OW29917   3.523   3.521   0.635
 9673SOL    HW129918   3.546   3.426   0.612
 9673SOL    HW229919   3.438   3.523   0.688
 9674SOL     OW29920   4.153   6.571   3.516
 9674SOL    HW129921   4.183   6.484   3.554
 9674SOL    HW229922   4.229   6.615   3.469
 9675SOL     OW29923   5.467   2.357   6.470
 9675SOL    HW129924   5.532   2.367   6.546
 9675SOL    HW229925   5.500   2.407   6.391
 9676SOL     OW29926   1.438   3.426   5.949
 9676SOL    HW129927   1.368   3.359   5.975
 9676SOL    HW229928   1.484   3.396   5.866
 9677SOL     OW29929   6.414   4.943   4.729
 9677SOL    HW129930   6.395   5.023   4.673
 9677SOL    HW229931   6.372   4.954   4.819
 9678SOL     OW29932   2.879   3.419   4.069
 9678SOL    HW129933   2.817   3.369   4.008
 9678SOL    HW229934   2.936   3.480   4.015
 9679SOL     OW29935   2.330   0.567   3.608
 9679SOL    HW129936   2.287   0.477   3.596
 9679SOL    HW229937   2.426   0.555   3.634
 9680SOL     OW29938   4.579   0.141   4.217
 9680SOL    HW129939   4.593   0.131   4.316
 9680SOL    HW229940   4.545   0.056   4.179
 9681SOL     OW29941   2.653   2.292   0.910
 9681SOL    HW129942   2.709   2.308   0.991
 9681SOL    HW229943   2.556   2.305   0.935
 9682SOL     OW29944   4.766   4.219   3.864
 9682SOL    HW129945   4.676   4.262   3.870
 9682SOL    HW229946   4.756   4.122   3.843
 9683SOL     OW29947   3.416   6.791   1.635
 9683SOL    HW129948   3.451   6.771   1.543
 9683SOL    HW229949   3.401   6.705   1.684
 9684SOL     OW29950   0.911   3.396   5.676
 9684SOL    HW129951   0.826   3.449   5.682
 9684SOL    HW229952   0.984   3.454   5.640
 9685SOL     OW29953   4.895   4.109   1.094
 9685SOL    HW129954   4.867   4.187   1.039
 9685SOL    HW229955   4.871   4.024   1.047
 9686SOL     OW29956   0.530   3.109   6.078
 9686SOL    HW129957   0.500   3.052   6.154
 9686SOL    HW229958   0.461   3.179   6.060
 9687SOL     OW29959   0.605   0.883   3.661
 9687SOL    HW129960   0.542   0.913   3.732
 9687SOL    HW229961   0.677   0.827   3.701
 9688SOL     OW29962   0.944   2.908   1.016
 9688SOL    HW129963   0.980   2.970   1.087
 9688SOL    HW229964   0.847   2.891   1.033
 9689SOL     OW29965   1.158   4.434   6.554
 9689SOL    HW129966   1.079   4.395   6.506
 9689SOL    HW229967   1.127   4.510   6.612
 9690SOL     OW29968   6.025   6.159   6.488
 9690SOL    HW129969   5.954   6.226   6.507
 9690SOL    HW229970   6.089   6.195   6.421
 9691SOL     OW29971   2.870   4.013   1.267
 9691SOL    HW129972   2.775   4.024   1.295
 9691SOL    HW229973   2.931   4.047   1.339
 9692SOL     OW29974   4.073   6.150   1.471
 9692SOL    HW129975   4.154   6.197   1.505
 9692SOL    HW229976   4.063   6.167   1.373
 9693SOL     OW29977   5.758   3.956   2.546
 9693SOL    HW129978   5.760   4.011   2.462
 9693SOL    HW229979   5.665   3.927   2.564
 9694SOL     OW29980   3.166   1.344   1.648
 9694SOL    HW129981   3.233   1.372   1.580
 9694SOL    HW229982   3.183   1.394   1.733
 9695SOL     OW29983   0.036   2.617   3.382
 9695SOL    HW129984   0.067   2.535   3.429
 9695SOL    HW229985   6.991   2.663   3.437
 9696SOL     OW29986   5.123   2.687   1.511
 9696SOL    HW129987   5.102   2.752   1.438
 9696SOL    HW229988   5.092   2.595   1.484
 9697SOL     OW29989   0.371   5.756   0.033
 9697SOL    HW129990   0.424   5.677   0.001
 9697SOL    HW229991   0.421   5.801   0.106
 9698SOL     OW29992   5.677   2.303   6.234
 9698SOL    HW129993   5.627   2.386   6.259
 9698SOL    HW229994   5.632   2.259   6.156
 9699SOL     OW29995   6.519   5.711   6.911
 9699SOL    HW129996   6.530   5.619   6.950
 9699SOL    HW229997   6.487   5.704   6.817
 9700SOL     OW29998   5.793   5.474   5.201
 9700SOL    HW129999   5.874   5.477   5.143
 9700SOL    HW230000   5.780   5.381   5.235
 9701SOL     OW30001   4.566   4.407   5.563
 9701SOL    HW130002   4.585   4.311   5.544
 9701SOL    HW230003   4.609   4.432   5.650
 9702SOL     OW30004   3.680   2.155   6.977
 9702SOL    HW130005   3.595   2.139   6.927
 9702SOL    HW230006   3.667   2.135   0.050
 9703SOL     OW30007   4.994   3.740   3.689
 9703SOL    HW130008   5.079   3.775   3.730
 9703SOL    HW230009   4.982   3.644   3.714
 9704SOL     OW30010   3.229   6.276   0.986
 9704SOL    HW130011   3.222   6.277   1.086
 9704SOL    HW230012   3.141   6.301   0.946
 9705SOL     OW30013   5.612   4.214   6.190
 9705SOL    HW130014   5.612   4.305   6.232
 9705SOL    HW230015   5.659   4.217   6.103
 9706SOL     OW30016   2.373   2.568   0.857
 9706SOL    HW130017   2.288   2.620   0.843
 9706SOL    HW230018   2.446   2.608   0.802
 9707SOL     OW30019   6.504   4.439   2.695
 9707SOL    HW130020   6.426   4.384   2.724
 9707SOL    HW230021   6.478   4.536   2.695
 9708SOL     OW30022   0.709   1.347   3.773
 9708SOL    HW130023   0.609   1.346   3.771
 9708SOL    HW230024   0.743   1.256   3.748
 9709SOL     OW30025   5.614   5.972   2.214
 9709SOL    HW130026   5.637   5.887   2.260
 9709SOL    HW230027   5.626   6.049   2.277
 9710SOL     OW30028   6.583   1.274   1.373
 9710SOL    HW130029   6.607   1.317   1.287
 9710SOL    HW230030   6.664   1.233   1.415
 9711SOL     OW30031   3.280   5.393   5.315
 9711SOL    HW130032   3.190   5.357   5.291
 9711SOL    HW230033   3.339   5.317   5.343
 9712SOL     OW30034   5.455   3.734   6.650
 9712SOL    HW130035   5.546   3.726   6.610
 9712SOL    HW230036   5.456   3.804   6.722
 9713SOL     OW30037   2.123   4.365   3.204
 9713SOL    HW130038   2.175   4.324   3.279
 9713SOL    HW230039   2.148   4.462   3.196
 9714SOL     OW30040   4.398   6.328   6.485
 9714SOL    HW130041   4.421   6.408   6.431
 9714SOL    HW230042   4.458   6.252   6.460
 9715SOL     OW30043   5.763   4.001   0.061
 9715SOL    HW130044   5.817   3.993   7.001
 9715SOL    HW230045   5.669   4.024   0.037
 9716SOL     OW30046   3.458   4.633   6.766
 9716SOL    HW130047   3.372   4.645   6.718
 9716SOL    HW230048   3.463   4.696   6.844
 9717SOL     OW30049   5.264   6.725   6.132
 9717SOL    HW130050   5.308   6.792   6.072
 9717SOL    HW230051   5.260   6.636   6.087
 9718SOL     OW30052   5.155   3.338   0.454
 9718SOL    HW130053   5.090   3.328   0.379
 9718SOL    HW230054   5.141   3.265   0.520
 9719SOL     OW30055   6.252   1.049   5.604
 9719SOL    HW130056   6.196   1.120   5.646
 9719SOL    HW230057   6.323   1.092   5.548
 9720SOL     OW30058   0.931   4.494   2.004
 9720SOL    HW130059   0.845   4.455   2.037
 9720SOL    HW230060   0.976   4.543   2.078
 9721SOL     OW30061   0.333   1.668   0.645
 9721SOL    HW130062   0.330   1.718   0.732
 9721SOL    HW230063   0.385   1.584   0.656
 9722SOL     OW30064   4.070   1.471   4.994
 9722SOL    HW130065   4.152   1.414   5.003
 9722SOL    HW230066   4.038   1.468   4.899
 9723SOL     OW30067   3.877   6.529   3.527
 9723SOL    HW130068   3.838   6.571   3.445
 9723SOL    HW230069   3.972   6.557   3.536
 9724SOL     OW30070   1.735   4.854   6.753
 9724SOL    HW130071   1.752   4.782   6.820
 9724SOL    HW230072   1.766   4.824   6.663
 9725SOL     OW30073   4.786   6.077   6.030
 9725SOL    HW130074   4.761   6.169   6.000
 9725SOL    HW230075   4.825   6.026   5.952
 9726SOL     OW30076   4.776   1.332   3.829
 9726SOL    HW130077   4.707   1.292   3.889
 9726SOL    HW230078   4.771   1.289   3.738
 9727SOL     OW30079   1.324   2.392   6.901
 9727SOL    HW130080   1.317   2.334   6.982
 9727SOL    HW230081   1.346   2.486   6.929
 9728SOL     OW30082   0.909   0.903   5.457
 9728SOL    HW130083   0.861   0.823   5.491
 9728SOL    HW230084   0.863   0.938   5.376
 9729SOL     OW30085   0.819   3.942   3.436
 9729SOL    HW130086   0.766   4.026   3.429
 9729SOL    HW230087   0.915   3.965   3.454
 9730SOL     OW30088   1.835   4.845   2.807
 9730SOL    HW130089   1.886   4.770   2.849
 9730SOL    HW230090   1.883   4.932   2.822
 9731SOL     OW30091   5.146   5.448   1.424
 9731SOL    HW130092   5.177   5.528   1.372
 9731SOL    HW230093   5.220   5.382   1.430
 9732SOL     OW30094   0.171   4.896   2.295
 9732SOL    HW130095   0.260   4.867   2.331
 9732SOL    HW230096   0.182   4.926   2.200
 9733SOL     OW30097   5.062   5.211   0.547
 9733SOL    HW130098   5.088   5.228   0.452
 9733SOL    HW230099   4.997   5.135   0.551
 9734SOL     OW30100   6.602   1.157   0.835
 9734SOL    HW130101   6.630   1.086   0.770
 9734SOL    HW230102   6.535   1.217   0.791
 9735SOL     OW30103   2.151   3.242   3.449
 9735SOL    HW130104   2.165   3.144   3.461
 9735SOL    HW230105   2.151   3.265   3.352
 9736SOL     OW30106   6.049   1.222   5.741
 9736SOL    HW130107   5.990   1.240   5.662
 9736SOL    HW230108   5.993   1.190   5.817
 9737SOL     OW30109   5.127   2.189   3.275
 9737SOL    HW130110   5.070   2.110   3.294
 9737SOL    HW230111   5.077   2.273   3.297
 9738SOL     OW30112   2.471   7.021   0.387
 9738SOL    HW130113   2.514   6.999   0.299
 9738SOL    HW230114   2.372   7.012   0.378
 9739SOL     OW30115   4.729   5.849   0.875
 9739SOL    HW130116   4.750   5.896   0.962
 9739SOL    HW230117   4.812   5.843   0.820
 9740SOL     OW30118   0.281   1.380   3.533
 9740SOL    HW130119   0.257   1.333   3.447
 9740SOL    HW230120   0.309   1.473   3.514
 9741SOL     OW30121   3.235   1.838   2.377
 9741SOL    HW130122   3.149   1.823   2.327
 9741SOL    HW230123   3.220   1.821   2.474
 9742SOL     OW30124   3.978   1.335   0.340
 9742SOL    HW130125   3.991   1.434   0.347
 9742SOL    HW230126   3.881   1.314   0.327
 9743SOL     OW30127   6.948   3.639   3.862
 9743SOL    HW130128   6.998   3.717   3.824
 9743SOL    HW230129   6.907   3.664   3.949
 9744SOL     OW30130   1.536   6.783   1.847
 9744SOL    HW130131   1.613   6.815   1.792
 9744SOL    HW230132   1.474   6.860   1.865
 9745SOL     OW30133   5.107   2.400   6.563
 9745SOL    HW130134   5.135   2.413   6.658
 9745SOL    HW230135   5.130   2.307   6.534
 9746SOL     OW30136   6.089   0.588   5.974
 9746SOL    HW130137   6.095   0.551   6.066
 9746SOL    HW230138   6.179   0.584   5.930
 9747SOL     OW30139   2.528   1.875   1.787
 9747SOL    HW130140   2.556   1.787   1.749
 9747SOL    HW230141   2.605   1.939   1.786
 9748SOL     OW30142   6.615   6.836   3.835
 9748SOL    HW130143   6.572   6.768   3.895
 9748SOL    HW230144   6.577   6.926   3.854
 9749SOL     OW30145   1.912   0.417   4.323
 9749SOL    HW130146   1.914   0.483   4.247
 9749SOL    HW230147   1.818   0.389   4.341
 9750SOL     OW30148   5.792   5.032   3.216
 9750SOL    HW130149   5.889   5.010   3.223
 9750SOL    HW230150   5.742   4.991   3.292
 9751SOL     OW30151   2.520   0.577   0.993
 9751SOL    HW130152   2.599   0.609   0.941
 9751SOL    HW230153   2.444   0.559   0.930
 9752SOL     OW30154   3.988   2.170   5.144
 9752SOL    HW130155   3.946   2.143   5.231
 9752SOL    HW230156   3.918   2.168   5.072
 9753SOL     OW30157   0.066   5.490   6.415
 9753SOL    HW130158   0.108   5.579   6.432
 9753SOL    HW230159   0.087   5.429   6.491
 9754SOL     OW30160   1.662   0.292   0.750
 9754SOL    HW130161   1.742   0.333   0.796
 9754SOL    HW230162   1.687   0.203   0.713
 9755SOL     OW30163   3.543   3.657   4.157
 9755SOL    HW130164   3.628   3.619   4.121
 9755SOL    HW230165   3.504   3.594   4.225
 9756SOL     OW30166   5.792   2.781   6.418
 9756SOL    HW130167   5.718   2.836   6.378
 9756SOL    HW230168   5.795   2.692   6.374
 9757SOL     OW30169   5.643   4.277   4.103
 9757SOL    HW130170   5.682   4.194   4.063
 9757SOL    HW230171   5.606   4.335   4.030
 9758SOL     OW30172   2.554   0.524   6.599
 9758SOL    HW130173   2.505   0.543   6.684
 9758SOL    HW230174   2.536   0.597   6.533
 9759SOL     OW30175   1.205   0.528   0.594
 9759SOL    HW130176   1.189   0.579   0.679
 9759SOL    HW230177   1.249   0.587   0.527
 9760SOL     OW30178   5.194   2.971   5.833
 9760SOL    HW130179   5.148   2.939   5.751
 9760SOL    HW230180   5.130   2.971   5.910
 9761SOL     OW30181   0.332   1.510   2.113
 9761SOL    HW130182   0.305   1.490   2.019
 9761SOL    HW230183   0.250   1.527   2.168
 9762SOL     OW30184   3.057   1.917   4.496
 9762SOL    HW130185   3.147   1.885   4.526
 9762SOL    HW230186   3.045   2.013   4.522
 9763SOL     OW30187   4.836   1.723   2.773
 9763SOL    HW130188   4.822   1.821   2.760
 9763SOL    HW230189   4.801   1.673   2.693
 9764SOL     OW30190   6.921   2.871   3.154
 9764SOL    HW130191   6.963   2.783   3.135
 9764SOL    HW230192   6.979   2.944   3.118
 9765SOL     OW30193   6.551   6.349   3.771
 9765SOL    HW130194   6.621   6.374   3.704
 9765SOL    HW230195   6.553   6.250   3.785
 9766SOL     OW30196   2.684   0.085   2.152
 9766SOL    HW130197   2.760   0.076   2.216
 9766SOL    HW230198   2.598   0.094   2.204
 9767SOL     OW30199   3.651   1.428   5.530
 9767SOL    HW130200   3.572   1.372   5.505
 9767SOL    HW230201   3.691   1.468   5.448
 9768SOL     OW30202   5.529   0.980   1.690
 9768SOL    HW130203   5.473   0.917   1.637
 9768SOL    HW230204   5.625   0.955   1.681
 9769SOL     OW30205   4.379   0.412   4.883
 9769SOL    HW130206   4.327   0.481   4.932
 9769SOL    HW230207   4.326   0.327   4.878
 9770SOL     OW30208   3.689   1.143   5.826
 9770SOL    HW130209   3.722   1.185   5.911
 9770SOL    HW230210   3.680   1.044   5.839
 9771SOL     OW30211   2.580   5.710   0.454
 9771SOL    HW130212   2.649   5.726   0.384
 9771SOL    HW230213   2.542   5.797   0.485
 9772SOL     OW30214   1.437   5.998   1.369
 9772SOL    HW130215   1.508   6.064   1.342
 9772SOL    HW230216   1.451   5.972   1.464
 9773SOL     OW30217   5.136   5.329   4.464
 9773SOL    HW130218   5.228   5.291   4.458
 9773SOL    HW230219   5.113   5.373   4.378
 9774SOL     OW30220   6.886   5.790   1.967
 9774SOL    HW130221   6.796   5.770   2.004
 9774SOL    HW230222   6.957   5.751   2.026
 9775SOL     OW30223   3.068   0.565   3.295
 9775SOL    HW130224   3.142   0.581   3.230
 9775SOL    HW230225   3.045   0.468   3.296
 9776SOL     OW30226   0.840   4.690   5.424
 9776SOL    HW130227   0.820   4.787   5.410
 9776SOL    HW230228   0.922   4.681   5.482
 9777SOL     OW30229   5.875   5.974   0.183
 9777SOL    HW130230   5.857   5.876   0.175
 9777SOL    HW230231   5.954   5.998   0.127
 9778SOL     OW30232   0.485   1.482   4.413
 9778SOL    HW130233   0.471   1.553   4.343
 9778SOL    HW230234   0.399   1.437   4.433
 9779SOL     OW30235   0.850   1.856   3.807
 9779SOL    HW130236   0.822   1.764   3.779
 9779SOL    HW230237   0.768   1.909   3.830
 9780SOL     OW30238   2.375   2.359   0.650
 9780SOL    HW130239   2.355   2.383   0.745
 9780SOL    HW230240   2.473   2.371   0.632
 9781SOL     OW30241   2.025   2.574   4.635
 9781SOL    HW130242   2.124   2.567   4.646
 9781SOL    HW230243   1.982   2.589   4.724
 9782SOL     OW30244   0.341   1.009   1.216
 9782SOL    HW130245   0.381   1.041   1.130
 9782SOL    HW230246   0.376   1.064   1.292
 9783SOL     OW30247   4.631   2.653   3.447
 9783SOL    HW130248   4.666   2.732   3.498
 9783SOL    HW230249   4.676   2.570   3.480
 9784SOL     OW30250   3.136   2.322   6.135
 9784SOL    HW130251   3.049   2.325   6.086
 9784SOL    HW230252   3.126   2.265   6.217
 9785SOL     OW30253   1.234   2.262   5.930
 9785SOL    HW130254   1.192   2.230   6.015
 9785SOL    HW230255   1.167   2.257   5.856
 9786SOL     OW30256   2.581   4.307   0.316
 9786SOL    HW130257   2.600   4.391   0.266
 9786SOL    HW230258   2.585   4.229   0.253
 9787SOL     OW30259   3.245   3.669   2.702
 9787SOL    HW130260   3.238   3.688   2.604
 9787SOL    HW230261   3.156   3.686   2.745
 9788SOL     OW30262   0.871   0.255   3.765
 9788SOL    HW130263   0.861   0.261   3.865
 9788SOL    HW230264   0.876   0.159   3.738
 9789SOL     OW30265   1.957   5.632   0.609
 9789SOL    HW130266   1.945   5.592   0.700
 9789SOL    HW230267   1.869   5.632   0.561
 9790SOL     OW30268   6.529   4.917   6.551
 9790SOL    HW130269   6.532   4.967   6.638
 9790SOL    HW230270   6.458   4.847   6.556
 9791SOL     OW30271   0.249   0.771   0.286
 9791SOL    HW130272   0.317   0.821   0.232
 9791SOL    HW230273   0.294   0.723   0.361
 9792SOL     OW30274   3.558   4.214   0.337
 9792SOL    HW130275   3.588   4.260   0.421
 9792SOL    HW230276   3.638   4.179   0.288
 9793SOL     OW30277   4.026   6.968   2.416
 9793SOL    HW130278   3.943   6.990   2.468
 9793SOL    HW230279   4.106   6.982   2.474
 9794SOL     OW30280   0.208   3.945   6.763
 9794SOL    HW130281   0.140   4.018   6.775
 9794SOL    HW230282   0.285   3.962   6.824
 9795SOL     OW30283   1.775   1.715   4.432
 9795SOL    HW130284   1.759   1.809   4.401
 9795SOL    HW230285   1.829   1.715   4.515
 9796SOL     OW30286   3.139   2.993   2.586
 9796SOL    HW130287   3.047   3.025   2.562
 9796SOL    HW230288   3.184   2.956   2.504
 9797SOL     OW30289   1.824   5.876   0.254
 9797SOL    HW130290   1.775   5.878   0.167
 9797SOL    HW230291   1.873   5.790   0.263
 9798SOL     OW30292   3.321   0.356   2.523
 9798SOL    HW130293   3.303   0.452   2.502
 9798SOL    HW230294   3.353   0.348   2.617
 9799SOL     OW30295   2.933   3.933   5.483
 9799SOL    HW130296   2.871   3.989   5.538
 9799SOL    HW230297   2.893   3.918   5.392
 9800SOL     OW30298   4.374   5.076   4.994
 9800SOL    HW130299   4.427   5.142   4.940
 9800SOL    HW230300   4.319   5.020   4.933
 9801SOL     OW30301   4.673   4.153   0.371
 9801SOL    HW130302   4.704   4.155   0.466
 9801SOL    HW230303   4.751   4.171   0.310
 9802SOL     OW30304   7.005   4.440   2.003
 9802SOL    HW130305   0.013   4.439   1.909
 9802SOL    HW230306   7.021   4.350   2.045
 9803SOL     OW30307   1.755   2.092   6.478
 9803SOL    HW130308   1.787   2.183   6.451
 9803SOL    HW230309   1.709   2.098   6.566
 9804SOL     OW30310   1.167   5.922   3.364
 9804SOL    HW130311   1.122   5.841   3.399
 9804SOL    HW230312   1.260   5.899   3.335
 9805SOL     OW30313   0.923   6.493   3.873
 9805SOL    HW130314   0.974   6.423   3.822
 9805SOL    HW230315   0.894   6.565   3.810
 9806SOL     OW30316   1.159   1.141   6.555
 9806SOL    HW130317   1.090   1.069   6.544
 9806SOL    HW230318   1.185   1.149   6.651
 9807SOL     OW30319   3.260   4.471   0.388
 9807SOL    HW130320   3.280   4.507   0.479
 9807SOL    HW230321   3.344   4.436   0.347
 9808SOL     OW30322   3.625   0.239   5.375
 9808SOL    HW130323   3.595   0.300   5.448
 9808SOL    HW230324   3.576   0.262   5.290
 9809SOL     OW30325   1.031   3.250   6.649
 9809SOL    HW130326   0.966   3.183   6.686
 9809SOL    HW230327   0.984   3.309   6.583
 9810SOL     OW30328   1.947   2.601   3.641
 9810SOL    HW130329   1.881   2.608   3.716
 9810SOL    HW230330   1.918   2.658   3.565
 9811SOL     OW30331   5.132   4.866   3.079
 9811SOL    HW130332   5.170   4.941   3.133
 9811SOL    HW230333   5.130   4.892   2.983
 9812SOL     OW30334   3.654   2.631   5.716
 9812SOL    HW130335   3.596   2.574   5.659
 9812SOL    HW230336   3.707   2.574   5.778
 9813SOL     OW30337   5.075   1.357   0.776
 9813SOL    HW130338   5.170   1.356   0.808
 9813SOL    HW230339   5.072   1.334   0.679
 9814SOL     OW30340   6.589   0.298   6.935
 9814SOL    HW130341   6.621   0.306   0.005
 9814SOL    HW230342   6.550   0.207   6.920
 9815SOL     OW30343   5.558   4.021   4.571
 9815SOL    HW130344   5.595   4.089   4.635
 9815SOL    HW230345   5.595   4.039   4.480
 9816SOL     OW30346   0.608   0.912   6.188
 9816SOL    HW130347   0.702   0.899   6.155
 9816SOL    HW230348   0.559   0.825   6.186
 9817SOL     OW30349   3.262   6.951   3.572
 9817SOL    HW130350   3.276   6.856   3.548
 9817SOL    HW230351   3.170   6.963   3.610
 9818SOL     OW30352   1.152   0.446   3.894
 9818SOL    HW130353   1.117   0.539   3.884
 9818SOL    HW230354   1.077   0.384   3.917
 9819SOL     OW30355   4.928   3.445   3.807
 9819SOL    HW130356   4.889   3.383   3.875
 9819SOL    HW230357   4.935   3.399   3.719
 9820SOL     OW30358   4.465   3.352   6.590
 9820SOL    HW130359   4.558   3.325   6.567
 9820SOL    HW230360   4.427   3.407   6.516
 9821SOL     OW30361   5.195   0.875   6.296
 9821SOL    HW130362   5.292   0.874   6.274
 9821SOL    HW230363   5.143   0.842   6.217
 9822SOL     OW30364   2.196   6.540   3.768
 9822SOL    HW130365   2.154   6.630   3.762
 9822SOL    HW230366   2.291   6.545   3.736
 9823SOL     OW30367   2.341   1.224   0.225
 9823SOL    HW130368   2.438   1.234   0.243
 9823SOL    HW230369   2.289   1.282   0.288
 9824SOL     OW30370   1.723   4.984   4.918
 9824SOL    HW130371   1.751   4.947   4.829
 9824SOL    HW230372   1.746   5.081   4.923
 9825SOL     OW30373   5.131   5.663   5.178
 9825SOL    HW130374   5.035   5.685   5.167
 9825SOL    HW230375   5.140   5.570   5.214
 9826SOL     OW30376   4.204   5.181   5.736
 9826SOL    HW130377   4.171   5.092   5.766
 9826SOL    HW230378   4.155   5.209   5.653
 9827SOL     OW30379   2.044   3.250   3.905
 9827SOL    HW130380   2.070   3.306   3.984
 9827SOL    HW230381   2.037   3.308   3.824
 9828SOL     OW30382   2.285   2.758   5.726
 9828SOL    HW130383   2.369   2.794   5.685
 9828SOL    HW230384   2.206   2.797   5.680
 9829SOL     OW30385   4.032   5.755   6.423
 9829SOL    HW130386   3.982   5.670   6.435
 9829SOL    HW230387   3.982   5.815   6.362
 9830SOL     OW30388   6.031   2.574   1.996
 9830SOL    HW130389   6.107   2.634   1.972
 9830SOL    HW230390   5.967   2.623   2.055
 9831SOL     OW30391   2.310   5.574   1.384
 9831SOL    HW130392   2.296   5.519   1.302
 9831SOL    HW230393   2.272   5.665   1.371
 9832SOL     OW30394   5.280   5.739   2.456
 9832SOL    HW130395   5.355   5.762   2.394
 9832SOL    HW230396   5.196   5.727   2.403
 9833SOL     OW30397   3.070   3.655   4.989
 9833SOL    HW130398   3.149   3.717   4.985
 9833SOL    HW230399   3.078   3.596   5.069
 9834SOL     OW30400   2.646   4.128   5.307
 9834SOL    HW130401   2.599   4.116   5.220
 9834SOL    HW230402   2.578   4.138   5.380
 9835SOL     OW30403   3.995   3.100   5.316
 9835SOL    HW130404   3.931   3.023   5.311
 9835SOL    HW230405   3.949   3.178   5.358
 9836SOL     OW30406   6.417   4.415   3.597
 9836SOL    HW130407   6.341   4.443   3.539
 9836SOL    HW230408   6.503   4.447   3.557
 9837SOL     OW30409   3.443   0.287   2.744
 9837SOL    HW130410   3.502   0.356   2.784
 9837SOL    HW230411   3.493   0.201   2.734
 9838SOL     OW30412   1.555   7.017   6.878
 9838SOL    HW130413   1.583   6.945   6.815
 9838SOL    HW230414   1.458   7.007   6.900
 9839SOL     OW30415   5.531   0.392   3.544
 9839SOL    HW130416   5.445   0.388   3.493
 9839SOL    HW230417   5.512   0.407   3.641
 9840SOL     OW30418   5.581   1.406   0.506
 9840SOL    HW130419   5.651   1.412   0.577
 9840SOL    HW230420   5.589   1.485   0.445
 9841SOL     OW30421   1.549   4.640   5.185
 9841SOL    HW130422   1.597   4.581   5.120
 9841SOL    HW230423   1.498   4.583   5.250
 9842SOL     OW30424   3.363   3.263   2.005
 9842SOL    HW130425   3.264   3.271   2.020
 9842SOL    HW230426   3.397   3.346   1.961
 9843SOL     OW30427   6.129   1.355   1.383
 9843SOL    HW130428   6.086   1.307   1.306
 9843SOL    HW230429   6.210   1.304   1.413
 9844SOL     OW30430   6.382   0.831   2.504
 9844SOL    HW130431   6.317   0.827   2.580
 9844SOL    HW230432   6.336   0.868   2.423
 9845SOL     OW30433   2.158   2.913   3.060
 9845SOL    HW130434   2.178   2.987   2.995
 9845SOL    HW230435   2.062   2.887   3.053
 9846SOL     OW30436   3.810   3.078   2.045
 9846SOL    HW130437   3.741   3.139   2.085
 9846SOL    HW230438   3.867   3.041   2.118
 9847SOL     OW30439   3.614   2.902   3.705
 9847SOL    HW130440   3.561   2.986   3.697
 9847SOL    HW230441   3.638   2.887   3.801
 9848SOL     OW30442   3.725   3.220   4.828
 9848SOL    HW130443   3.719   3.317   4.804
 9848SOL    HW230444   3.793   3.207   4.900
 9849SOL     OW30445   1.288   6.989   6.916
 9849SOL    HW130446   1.283   6.932   6.999
 9849SOL    HW230447   1.204   0.020   6.909
 9850SOL     OW30448   6.155   6.654   4.389
 9850SOL    HW130449   6.217   6.621   4.318
 9850SOL    HW230450   6.122   6.745   4.364
 9851SOL     OW30451   6.309   0.479   4.683
 9851SOL    HW130452   6.357   0.567   4.673
 9851SOL    HW230453   6.357   0.409   4.631
 9852SOL     OW30454   3.859   1.871   3.922
 9852SOL    HW130455   3.882   1.965   3.897
 9852SOL    HW230456   3.767   1.869   3.962
 9853SOL     OW30457   4.898   3.740   4.608
 9853SOL    HW130458   4.893   3.702   4.515
 9853SOL    HW230459   4.909   3.666   4.674
 9854SOL     OW30460   6.632   5.614   5.276
 9854SOL    HW130461   6.714   5.636   5.222
 9854SOL    HW230462   6.590   5.532   5.239
 9855SOL     OW30463   2.271   3.649   0.952
 9855SOL    HW130464   2.237   3.725   0.898
 9855SOL    HW230465   2.275   3.675   1.048
 9856SOL     OW30466   4.831   4.054   4.630
 9856SOL    HW130467   4.856   3.960   4.655
 9856SOL    HW230468   4.809   4.058   4.533
 9857SOL     OW30469   4.640   2.634   3.032
 9857SOL    HW130470   4.638   2.617   2.934
 9857SOL    HW230471   4.706   2.706   3.052
 9858SOL     OW30472   6.873   0.895   1.616
 9858SOL    HW130473   6.898   0.810   1.570
 9858SOL    HW230474   6.954   0.932   1.662
 9859SOL     OW30475   6.369   6.450   2.525
 9859SOL    HW130476   6.394   6.542   2.553
 9859SOL    HW230477   6.450   6.400   2.494
 9860SOL     OW30478   1.615   1.868   3.293
 9860SOL    HW130479   1.651   1.780   3.261
 9860SOL    HW230480   1.591   1.925   3.214
 9861SOL     OW30481   2.793   0.447   3.627
 9861SOL    HW130482   2.701   0.476   3.651
 9861SOL    HW230483   2.849   0.527   3.608
 9862SOL     OW30484   3.843   2.850   6.897
 9862SOL    HW130485   3.939   2.850   6.922
 9862SOL    HW230486   3.787   2.869   6.977
 9863SOL     OW30487   3.100   6.762   2.639
 9863SOL    HW130488   3.025   6.696   2.636
 9863SOL    HW230489   3.093   6.823   2.560
 9864SOL     OW30490   3.787   6.386   3.734
 9864SOL    HW130491   3.829   6.434   3.658
 9864SOL    HW230492   3.709   6.333   3.701
 9865SOL     OW30493   1.644   0.348   4.325
 9865SOL    HW130494   1.573   0.414   4.351
 9865SOL    HW230495   1.604   0.275   4.269
 9866SOL     OW30496   4.848   4.346   6.166
 9866SOL    HW130497   4.847   4.283   6.244
 9866SOL    HW230498   4.770   4.408   6.174
 9867SOL     OW30499   6.818   1.339   0.812
 9867SOL    HW130500   6.745   1.395   0.850
 9867SOL    HW230501   6.780   1.273   0.747
 9868SOL     OW30502   0.771   3.688   5.568
 9868SOL    HW130503   0.734   3.655   5.481
 9868SOL    HW230504   0.840   3.758   5.551
 9869SOL     OW30505   0.865   2.703   1.626
 9869SOL    HW130506   0.908   2.620   1.591
 9869SOL    HW230507   0.922   2.782   1.604
 9870SOL     OW30508   3.512   5.910   2.637
 9870SOL    HW130509   3.597   5.898   2.585
 9870SOL    HW230510   3.534   5.918   2.735
 9871SOL     OW30511   0.272   6.075   6.130
 9871SOL    HW130512   0.228   6.003   6.076
 9871SOL    HW230513   0.219   6.091   6.213
 9872SOL     OW30514   2.460   5.533   4.844
 9872SOL    HW130515   2.481   5.448   4.892
 9872SOL    HW230516   2.376   5.573   4.882
 9873SOL     OW30517   2.324   2.725   0.559
 9873SOL    HW130518   2.337   2.816   0.520
 9873SOL    HW230519   2.300   2.661   0.487
 9874SOL     OW30520   5.728   3.419   5.447
 9874SOL    HW130521   5.703   3.358   5.522
 9874SOL    HW230522   5.802   3.379   5.394
 9875SOL     OW30523   6.167   5.952   1.580
 9875SOL    HW130524   6.238   5.882   1.577
 9875SOL    HW230525   6.209   6.042   1.594
 9876SOL     OW30526   6.156   0.748   3.818
 9876SOL    HW130527   6.181   0.659   3.781
 9876SOL    HW230528   6.174   0.750   3.916
 9877SOL     OW30529   6.137   5.341   4.224
 9877SOL    HW130530   6.175   5.250   4.237
 9877SOL    HW230531   6.122   5.358   4.127
 9878SOL     OW30532   2.735   3.851   5.999
 9878SOL    HW130533   2.697   3.856   6.092
 9878SOL    HW230534   2.834   3.840   6.004
 9879SOL     OW30535   5.407   5.871   5.542
 9879SOL    HW130536   5.405   5.792   5.480
 9879SOL    HW230537   5.499   5.911   5.542
 9880SOL     OW30538   3.841   0.769   0.311
 9880SOL    HW130539   3.888   0.826   0.378
 9880SOL    HW230540   3.866   0.799   0.219
 9881SOL     OW30541   1.532   1.352   3.972
 9881SOL    HW130542   1.560   1.380   3.881
 9881SOL    HW230543   1.474   1.422   4.013
 9882SOL     OW30544   1.618   3.685   4.389
 9882SOL    HW130545   1.714   3.656   4.394
 9882SOL    HW230546   1.561   3.618   4.436
 9883SOL     OW30547   1.268   6.340   0.823
 9883SOL    HW130548   1.360   6.303   0.833
 9883SOL    HW230549   1.206   6.267   0.794
 9884SOL     OW30550   4.793   2.329   1.831
 9884SOL    HW130551   4.780   2.237   1.867
 9884SOL    HW230552   4.767   2.396   1.900
 9885SOL     OW30553   0.142   2.185   4.918
 9885SOL    HW130554   0.177   2.271   4.954
 9885SOL    HW230555   0.097   2.134   4.991
 9886SOL     OW30556   1.362   5.170   1.994
 9886SOL    HW130557   1.369   5.268   1.974
 9886SOL    HW230558   1.446   5.124   1.966
 9887SOL     OW30559   4.959   0.537   0.090
 9887SOL    HW130560   5.021   0.484   0.148
 9887SOL    HW230561   4.885   0.574   0.147
 9888SOL     OW30562   5.437   4.943   2.560
 9888SOL    HW130563   5.398   4.923   2.471
 9888SOL    HW230564   5.459   5.041   2.566
 9889SOL     OW30565   6.113   4.843   0.686
 9889SOL    HW130566   6.200   4.889   0.706
 9889SOL    HW230567   6.037   4.904   0.708
 9890SOL     OW30568   0.742   3.085   1.293
 9890SOL    HW130569   0.660   3.059   1.345
 9890SOL    HW230570   0.802   3.006   1.283
 9891SOL     OW30571   5.872   3.254   1.361
 9891SOL    HW130572   5.931   3.329   1.333
 9891SOL    HW230573   5.838   3.205   1.280
 9892SOL     OW30574   1.654   4.838   2.323
 9892SOL    HW130575   1.725   4.827   2.254
 9892SOL    HW230576   1.697   4.847   2.413
 9893SOL     OW30577   0.064   0.186   2.403
 9893SOL    HW130578   0.094   0.245   2.478
 9893SOL    HW230579   0.138   0.175   2.337
 9894SOL     OW30580   2.932   2.467   0.129
 9894SOL    HW130581   2.957   2.553   0.173
 9894SOL    HW230582   3.006   2.438   0.069
 9895SOL     OW30583   5.188   3.905   5.453
 9895SOL    HW130584   5.125   3.981   5.436
 9895SOL    HW230585   5.275   3.923   5.406
 9896SOL     OW30586   5.947   1.463   1.124
 9896SOL    HW130587   5.955   1.388   1.058
 9896SOL    HW230588   5.854   1.464   1.162
 9897SOL     OW30589   6.120   6.907   2.030
 9897SOL    HW130590   6.152   6.990   1.985
 9897SOL    HW230591   6.078   6.847   1.962
 9898SOL     OW30592   0.892   4.798   6.527
 9898SOL    HW130593   0.838   4.751   6.596
 9898SOL    HW230594   0.874   4.758   6.437
 9899SOL     OW30595   1.129   5.070   1.782
 9899SOL    HW130596   1.126   5.019   1.868
 9899SOL    HW230597   1.142   5.167   1.802
 9900SOL     OW30598   1.619   3.298   2.439
 9900SOL    HW130599   1.633   3.200   2.428
 9900SOL    HW230600   1.582   3.317   2.531
 9901SOL     OW30601   3.082   0.688   6.635
 9901SOL    HW130602   3.165   0.651   6.593
 9901SOL    HW230603   3.010   0.693   6.566
 9902SOL     OW30604   3.545   4.237   1.522
 9902SOL    HW130605   3.573   4.146   1.490
 9902SOL    HW230606   3.448   4.235   1.547
 9903SOL     OW30607   5.380   1.604   1.432
 9903SOL    HW130608   5.400   1.623   1.336
 9903SOL    HW230609   5.440   1.659   1.491
 9904SOL     OW30610   0.358   3.762   6.188
 9904SOL    HW130611   0.344   3.663   6.189
 9904SOL    HW230612   0.324   3.800   6.101
 9905SOL     OW30613   2.456   0.441   5.877
 9905SOL    HW130614   2.431   0.358   5.928
 9905SOL    HW230615   2.556   0.445   5.869
 9906SOL     OW30616   1.875   3.277   0.916
 9906SOL    HW130617   1.897   3.347   0.985
 9906SOL    HW230618   1.960   3.238   0.880
 9907SOL     OW30619   1.628   0.487   1.412
 9907SOL    HW130620   1.533   0.459   1.423
 9907SOL    HW230621   1.655   0.476   1.316
 9908SOL     OW30622   6.353   2.424   5.078
 9908SOL    HW130623   6.259   2.391   5.074
 9908SOL    HW230624   6.388   2.437   4.985
 9909SOL     OW30625   4.107   0.799   2.574
 9909SOL    HW130626   4.107   0.899   2.576
 9909SOL    HW230627   4.070   0.767   2.487
 9910SOL     OW30628   1.384   5.107   1.296
 9910SOL    HW130629   1.375   5.126   1.394
 9910SOL    HW230630   1.328   5.171   1.244
 9911SOL     OW30631   2.718   5.946   1.746
 9911SOL    HW130632   2.812   5.918   1.727
 9911SOL    HW230633   2.670   5.966   1.661
 9912SOL     OW30634   3.900   1.525   0.798
 9912SOL    HW130635   3.877   1.558   0.889
 9912SOL    HW230636   3.847   1.443   0.777
 9913SOL     OW30637   6.326   3.197   0.590
 9913SOL    HW130638   6.256   3.168   0.524
 9913SOL    HW230639   6.335   3.297   0.585
 9914SOL     OW30640   6.843   0.063   5.809
 9914SOL    HW130641   6.778   0.031   5.740
 9914SOL    HW230642   6.866   0.159   5.791
 9915SOL     OW30643   6.015   0.664   3.418
 9915SOL    HW130644   5.930   0.673   3.366
 9915SOL    HW230645   5.999   0.607   3.499
 9916SOL     OW30646   2.328   2.394   3.039
 9916SOL    HW130647   2.313   2.357   2.948
 9916SOL    HW230648   2.336   2.319   3.105
 9917SOL     OW30649   4.002   3.622   5.532
 9917SOL    HW130650   3.948   3.667   5.462
 9917SOL    HW230651   4.041   3.537   5.495
 9918SOL     OW30652   1.548   2.964   2.761
 9918SOL    HW130653   1.557   2.950   2.662
 9918SOL    HW230654   1.620   2.914   2.809
 9919SOL     OW30655   2.468   5.546   1.843
 9919SOL    HW130656   2.482   5.491   1.761
 9919SOL    HW230657   2.549   5.602   1.860
 9920SOL     OW30658   4.674   0.485   2.784
 9920SOL    HW130659   4.717   0.409   2.736
 9920SOL    HW230660   4.695   0.570   2.735
 9921SOL     OW30661   4.681   6.348   4.380
 9921SOL    HW130662   4.746   6.421   4.401
 9921SOL    HW230663   4.708   6.302   4.295
 9922SOL     OW30664   3.911   4.352   1.051
 9922SOL    HW130665   3.881   4.320   0.961
 9922SOL    HW230666   3.895   4.450   1.059
 9923SOL     OW30667   6.180   3.751   0.208
 9923SOL    HW130668   6.235   3.815   0.154
 9923SOL    HW230669   6.087   3.785   0.217
 9924SOL     OW30670   5.514   1.991   2.862
 9924SOL    HW130671   5.600   2.039   2.879
 9924SOL    HW230672   5.491   1.935   2.941
 9925SOL     OW30673   0.292   4.931   3.682
 9925SOL    HW130674   0.196   4.950   3.705
 9925SOL    HW230675   0.342   4.911   3.766
 9926SOL     OW30676   3.995   2.612   1.051
 9926SOL    HW130677   3.961   2.621   1.144
 9926SOL    HW230678   4.009   2.703   1.012
 9927SOL     OW30679   1.365   1.239   0.797
 9927SOL    HW130680   1.459   1.267   0.779
 9927SOL    HW230681   1.366   1.156   0.853
 9928SOL     OW30682   5.110   4.506   3.282
 9928SOL    HW130683   5.146   4.549   3.199
 9928SOL    HW230684   5.038   4.563   3.321
 9929SOL     OW30685   3.579   4.179   4.210
 9929SOL    HW130686   3.518   4.215   4.281
 9929SOL    HW230687   3.673   4.183   4.242
 9930SOL     OW30688   0.784   0.003   5.995
 9930SOL    HW130689   0.877   0.034   5.974
 9930SOL    HW230690   0.752   6.967   5.921
 9931SOL     OW30691   6.893   5.658   4.574
 9931SOL    HW130692   6.845   5.577   4.606
 9931SOL    HW230693   6.831   5.714   4.519
 9932SOL     OW30694   2.734   2.653   5.643
 9932SOL    HW130695   2.705   2.744   5.671
 9932SOL    HW230696   2.661   2.587   5.660
 9933SOL     OW30697   2.114   6.929   4.049
 9933SOL    HW130698   2.063   6.961   4.129
 9933SOL    HW230699   2.087   6.835   4.028
 9934SOL     OW30700   0.277   2.077   6.283
 9934SOL    HW130701   0.339   2.137   6.334
 9934SOL    HW230702   0.313   1.984   6.284
 9935SOL     OW30703   2.715   0.170   1.291
 9935SOL    HW130704   2.646   0.196   1.223
 9935SOL    HW230705   2.799   0.222   1.274
 9936SOL     OW30706   6.336   4.637   0.452
 9936SOL    HW130707   6.335   4.618   0.550
 9936SOL    HW230708   6.259   4.697   0.429
 9937SOL     OW30709   0.596   1.615   1.503
 9937SOL    HW130710   0.547   1.650   1.583
 9937SOL    HW230711   0.596   1.515   1.505
 9938SOL     OW30712   5.230   5.178   3.991
 9938SOL    HW130713   5.130   5.169   3.999
 9938SOL    HW230714   5.270   5.088   3.980
 9939SOL     OW30715   3.549   2.556   1.083
 9939SOL    HW130716   3.630   2.506   1.053
 9939SOL    HW230717   3.523   2.525   1.174
 9940SOL     OW30718   0.940   0.145   2.051
 9940SOL    HW130719   1.005   0.070   2.061
 9940SOL    HW230720   0.919   0.183   2.141
 9941SOL     OW30721   3.272   4.468   5.862
 9941SOL    HW130722   3.324   4.510   5.936
 9941SOL    HW230723   3.190   4.425   5.899
 9942SOL     OW30724   3.653   5.328   2.023
 9942SOL    HW130725   3.576   5.374   2.067
 9942SOL    HW230726   3.672   5.242   2.069
 9943SOL     OW30727   0.981   4.664   6.903
 9943SOL    HW130728   0.949   4.571   6.921
 9943SOL    HW230729   1.028   4.666   6.815
 9944SOL     OW30730   0.862   4.380   6.768
 9944SOL    HW130731   0.788   4.341   6.714
 9944SOL    HW230732   0.945   4.326   6.757
 9945SOL     OW30733   4.688   5.858   0.059
 9945SOL    HW130734   4.676   5.798   7.004
 9945SOL    HW230735   4.643   5.817   0.138
 9946SOL     OW30736   6.522   6.895   3.574
 9946SOL    HW130737   6.554   6.815   3.523
 9946SOL    HW230738   6.534   6.880   3.672
 9947SOL     OW30739   2.692   2.404   4.430
 9947SOL    HW130740   2.632   2.483   4.427
 9947SOL    HW230741   2.713   2.381   4.525
 9948SOL     OW30742   0.084   5.122   4.893
 9948SOL    HW130743   0.103   5.213   4.855
 9948SOL    HW230744   7.011   5.100   4.878
 9949SOL     OW30745   0.091   4.704   3.943
 9949SOL    HW130746   0.029   4.701   4.022
 9949SOL    HW230747   0.121   4.611   3.921
 9950SOL     OW30748   5.860   5.954   6.624
 9950SOL    HW130749   5.918   5.873   6.634
 9950SOL    HW230750   5.914   6.029   6.585
 9951SOL     OW30751   1.059   2.416   3.287
 9951SOL    HW130752   0.975   2.383   3.244
 9951SOL    HW230753   1.118   2.456   3.218
 9952SOL     OW30754   1.443   4.421   0.692
 9952SOL    HW130755   1.451   4.337   0.746
 9952SOL    HW230756   1.363   4.473   0.722
 9953SOL     OW30757   6.490   1.797   4.420
 9953SOL    HW130758   6.415   1.757   4.368
 9953SOL    HW230759   6.455   1.843   4.501
 9954SOL     OW30760   1.454   0.194   5.429
 9954SOL    HW130761   1.511   0.274   5.409
 9954SOL    HW230762   1.407   0.166   5.345
 9955SOL     OW30763   4.271   4.448   6.637
 9955SOL    HW130764   4.332   4.449   6.558
 9955SOL    HW230765   4.211   4.367   6.632
 9956SOL     OW30766   0.802   4.946   4.250
 9956SOL    HW130767   0.738   5.022   4.258
 9956SOL    HW230768   0.865   4.962   4.174
 9957SOL     OW30769   5.871   0.177   1.224
 9957SOL    HW130770   5.837   0.117   1.152
 9957SOL    HW230771   5.854   0.135   1.313
 9958SOL     OW30772   2.546   6.050   6.954
 9958SOL    HW130773   2.562   6.102   0.014
 9958SOL    HW230774   2.555   6.111   6.875
 9959SOL     OW30775   4.152   3.651   3.548
 9959SOL    HW130776   4.246   3.628   3.525
 9959SOL    HW230777   4.101   3.671   3.465
 9960SOL     OW30778   0.537   0.166   2.309
 9960SOL    HW130779   0.589   0.133   2.388
 9960SOL    HW230780   0.547   0.265   2.302
 9961SOL     OW30781   1.179   5.180   4.822
 9961SOL    HW130782   1.125   5.097   4.810
 9961SOL    HW230783   1.130   5.258   4.783
 9962SOL     OW30784   4.612   0.492   3.040
 9962SOL    HW130785   4.634   0.477   2.944
 9962SOL    HW230786   4.692   0.471   3.096
 9963SOL     OW30787   2.368   2.047   6.086
 9963SOL    HW130788   2.393   1.993   6.166
 9963SOL    HW230789   2.440   2.114   6.067
 9964SOL     OW30790   4.339   4.167   6.035
 9964SOL    HW130791   4.346   4.218   5.949
 9964SOL    HW230792   4.428   4.161   6.078
 9965SOL     OW30793   3.967   4.890   5.603
 9965SOL    HW130794   3.892   4.900   5.669
 9965SOL    HW230795   3.929   4.894   5.510
 9966SOL     OW30796   2.718   5.676   2.227
 9966SOL    HW130797   2.785   5.610   2.193
 9966SOL    HW230798   2.629   5.632   2.236
 9967SOL     OW30799   6.022   5.723   1.595
 9967SOL    HW130800   5.923   5.738   1.588
 9967SOL    HW230801   6.068   5.812   1.596
 9968SOL     OW30802   2.926   4.699   6.185
 9968SOL    HW130803   2.883   4.771   6.131
 9968SOL    HW230804   2.913   4.717   6.282
 9969SOL     OW30805   1.476   2.393   3.959
 9969SOL    HW130806   1.474   2.299   3.994
 9969SOL    HW230807   1.483   2.457   4.036
 9970SOL     OW30808   6.013   4.395   2.342
 9970SOL    HW130809   6.050   4.411   2.251
 9970SOL    HW230810   5.916   4.372   2.335
 9971SOL     OW30811   2.632   3.879   0.168
 9971SOL    HW130812   2.625   3.818   0.247
 9971SOL    HW230813   2.669   3.967   0.196
 9972SOL     OW30814   3.747   4.687   0.547
 9972SOL    HW130815   3.690   4.678   0.629
 9972SOL    HW230816   3.688   4.700   0.467
 9973SOL     OW30817   4.618   2.114   4.671
 9973SOL    HW130818   4.608   2.129   4.770
 9973SOL    HW230819   4.563   2.035   4.644
 9974SOL     OW30820   5.865   3.381   3.585
 9974SOL    HW130821   5.898   3.413   3.496
 9974SOL    HW230822   5.922   3.305   3.616
 9975SOL     OW30823   6.835   4.520   0.280
 9975SOL    HW130824   6.804   4.576   0.357
 9975SOL    HW230825   6.796   4.428   0.289
 9976SOL     OW30826   0.186   5.619   5.975
 9976SOL    HW130827   0.239   5.566   5.908
 9976SOL    HW230828   0.143   5.556   6.040
 9977SOL     OW30829   6.981   5.237   6.095
 9977SOL    HW130830   6.902   5.229   6.156
 9977SOL    HW230831   6.953   5.221   6.001
 9978SOL     OW30832   6.332   2.416   3.535
 9978SOL    HW130833   6.302   2.479   3.606
 9978SOL    HW230834   6.254   2.362   3.503
 9979SOL     OW30835   6.513   4.970   6.140
 9979SOL    HW130836   6.542   5.046   6.081
 9979SOL    HW230837   6.427   4.994   6.185
 9980SOL     OW30838   1.785   1.541   6.830
 9980SOL    HW130839   1.816   1.454   6.869
 9980SOL    HW230840   1.725   1.587   6.895
 9981SOL     OW30841   2.320   1.715   1.098
 9981SOL    HW130842   2.385   1.677   1.032
 9981SOL    HW230843   2.368   1.739   1.182
 9982SOL     OW30844   0.488   1.173   3.271
 9982SOL    HW130845   0.478   1.095   3.333
 9982SOL    HW230846   0.440   1.154   3.186
 9983SOL     OW30847   1.424   1.986   2.004
 9983SOL    HW130848   1.493   2.033   1.948
 9983SOL    HW230849   1.414   1.892   1.972
 9984SOL     OW30850   1.099   6.976   0.672
 9984SOL    HW130851   1.039   6.928   0.608
 9984SOL    HW230852   1.047   0.020   0.723
 9985SOL     OW30853   2.479   0.743   2.035
 9985SOL    HW130854   2.578   0.737   2.046
 9985SOL    HW230855   2.453   0.838   2.017
 9986SOL     OW30856   5.235   4.251   6.467
 9986SOL    HW130857   5.241   4.204   6.379
 9986SOL    HW230858   5.306   4.216   6.529
 9987SOL     OW30859   5.853   1.628   2.756
 9987SOL    HW130860   5.945   1.596   2.777
 9987SOL    HW230861   5.819   1.581   2.675
 9988SOL     OW30862   0.403   5.235   5.231
 9988SOL    HW130863   0.340   5.183   5.174
 9988SOL    HW230864   0.464   5.173   5.279
 9989SOL     OW30865   5.552   4.117   2.871
 9989SOL    HW130866   5.578   4.020   2.868
 9989SOL    HW230867   5.625   4.173   2.834
 9990SOL     OW30868   2.696   6.920   3.152
 9990SOL    HW130869   2.701   7.016   3.182
 9990SOL    HW230870   2.734   6.912   3.060
 9991SOL     OW30871   1.859   3.559   4.765
 9991SOL    HW130872   1.904   3.533   4.850
 9991SOL    HW230873   1.771   3.512   4.757
 9992SOL     OW30874   4.965   3.682   0.819
 9992SOL    HW130875   5.009   3.738   0.890
 9992SOL    HW230876   5.001   3.589   0.823
 9993SOL     OW30877   4.103   0.418   2.401
 9993SOL    HW130878   4.178   0.405   2.466
 9993SOL    HW230879   4.120   0.363   2.319
 9994SOL     OW30880   0.052   3.544   4.188
 9994SOL    HW130881   0.094   3.625   4.148
 9994SOL    HW230882   0.075   3.539   4.285
 9995SOL     OW30883   3.201   0.126   2.708
 9995SOL    HW130884   3.213   0.050   2.646
 9995SOL    HW230885   3.290   0.171   2.724
 9996SOL     OW30886   2.727   2.959   1.453
 9996SOL    HW130887   2.781   2.945   1.536
 9996SOL    HW230888   2.781   3.012   1.387
 9997SOL     OW30889   4.051   2.354   1.141
 9997SOL    HW130890   4.014   2.437   1.099
 9997SOL    HW230891   3.985   2.280   1.135
 9998SOL     OW30892   6.786   3.656   2.256
 9998SOL    HW130893   6.744   3.725   2.315
 9998SOL    HW230894   6.754   3.668   2.163
 9999SOL     OW30895   6.460   4.546   4.882
 9999SOL    HW130896   6.384   4.556   4.945
 9999SOL    HW230897   6.438   4.590   4.795
10000SOL     OW30898   5.274   2.769   0.028
10000SOL    HW130899   5.247   2.827   6.976
10000SOL    HW230900   5.273   2.673   7.023
10001SOL     OW30901   4.924   1.344   1.985
10001SOL    HW130902   4.930   1.387   1.895
10001SOL    HW230903   4.836   1.364   2.026
10002SOL     OW30904   1.480   0.685   1.306
10002SOL    HW130905   1.450   0.677   1.211
10002SOL    HW230906   1.573   0.651   1.315
10003SOL     OW30907   4.040   1.626   3.601
10003SOL    HW130908   4.098   1.697   3.641
10003SOL    HW230909   4.018   1.557   3.670
10004SOL     OW30910   4.665   2.595   4.471
10004SOL    HW130911   4.580   2.572   4.424
10004SOL    HW230912   4.713   2.666   4.419
10005SOL     OW30913   4.795   6.635   3.381
10005SOL    HW130914   4.776   6.699   3.456
10005SOL    HW230915   4.881   6.587   3.399
10006SOL     OW30916   5.236   0.907   4.216
10006SOL    HW130917   5.287   0.879   4.298
10006SOL    HW230918   5.251   1.004   4.200
10007SOL     OW30919   0.625   4.385   4.883
10007SOL    HW130920   0.707   4.328   4.879
10007SOL    HW230921   0.544   4.326   4.888
10008SOL     OW30922   4.708   1.565   3.975
10008SOL    HW130923   4.611   1.572   3.949
10008SOL    HW230924   4.756   1.511   3.905
10009SOL     OW30925   1.887   4.176   1.743
10009SOL    HW130926   1.865   4.259   1.692
10009SOL    HW230927   1.912   4.103   1.680
10010SOL     OW30928   2.422   6.950   6.922
10010SOL    HW130929   2.428   6.939   6.823
10010SOL    HW230930   2.387   0.017   6.943
10011SOL     OW30931   6.014   2.193   4.981
10011SOL    HW130932   6.105   2.151   4.976
10011SOL    HW230933   5.964   2.174   4.896
10012SOL     OW30934   4.821   0.209   2.926
10012SOL    HW130935   4.725   0.179   2.921
10012SOL    HW230936   4.873   0.165   2.853
10013SOL     OW30937   1.603   1.645   4.231
10013SOL    HW130938   1.640   1.678   4.145
10013SOL    HW230939   1.651   1.689   4.307
10014SOL     OW30940   6.331   2.759   7.011
10014SOL    HW130941   6.387   2.720   6.938
10014SOL    HW230942   6.234   2.742   6.992
10015SOL     OW30943   2.772   4.323   0.519
10015SOL    HW130944   2.756   4.299   0.423
10015SOL    HW230945   2.856   4.278   0.551
10016SOL     OW30946   2.278   0.339   4.877
10016SOL    HW130947   2.204   0.296   4.929
10016SOL    HW230948   2.357   0.278   4.875
10017SOL     OW30949   2.159   2.535   2.197
10017SOL    HW130950   2.251   2.571   2.213
10017SOL    HW230951   2.126   2.491   2.280
10018SOL     OW30952   5.013   6.864   5.875
10018SOL    HW130953   5.098   6.910   5.847
10018SOL    HW230954   5.010   6.773   5.835
10019SOL     OW30955   1.457   1.752   2.898
10019SOL    HW130956   1.390   1.786   2.832
10019SOL    HW230957   1.547   1.747   2.856
10020SOL     OW30958   0.539   2.726   1.499
10020SOL    HW130959   0.600   2.672   1.441
10020SOL    HW230960   0.551   2.699   1.595
10021SOL     OW30961   0.426   3.360   1.290
10021SOL    HW130962   0.376   3.442   1.262
10021SOL    HW230963   0.429   3.356   1.390
10022SOL     OW30964   3.440   6.941   0.713
10022SOL    HW130965   3.396   6.991   0.639
10022SOL    HW230966   3.536   6.927   0.691
10023SOL     OW30967   1.555   5.121   6.380
10023SOL    HW130968   1.459   5.136   6.355
10023SOL    HW230969   1.560   5.065   6.462
10024SOL     OW30970   2.377   6.867   1.559
10024SOL    HW130971   2.323   6.809   1.498
10024SOL    HW230972   2.322   6.946   1.587
10025SOL     OW30973   0.848   1.020   1.513
10025SOL    HW130974   0.919   0.956   1.543
10025SOL    HW230975   0.844   1.098   1.576
10026SOL     OW30976   4.859   6.855   3.814
10026SOL    HW130977   4.859   6.919   3.891
10026SOL    HW230978   4.808   6.896   3.737
10027SOL     OW30979   0.342   3.880   5.186
10027SOL    HW130980   0.314   3.977   5.186
10027SOL    HW230981   0.402   3.863   5.264
10028SOL     OW30982   1.140   1.975   1.526
10028SOL    HW130983   1.099   2.062   1.554
10028SOL    HW230984   1.150   1.916   1.606
10029SOL     OW30985   3.804   2.136   3.770
10029SOL    HW130986   3.846   2.166   3.684
10029SOL    HW230987   3.706   2.126   3.757
10030SOL     OW30988   2.181   6.298   3.907
10030SOL    HW130989   2.189   6.361   3.984
10030SOL    HW230990   2.162   6.350   3.823
10031SOL     OW30991   5.725   5.127   4.020
10031SOL    HW130992   5.646   5.114   4.079
10031SOL    HW230993   5.797   5.062   4.046
10032SOL     OW30994   2.942   1.984   4.904
10032SOL    HW130995   2.960   2.066   4.849
10032SOL    HW230996   2.968   2.002   4.999
10033SOL     OW30997   4.692   2.278   3.996
10033SOL    HW130998   4.605   2.268   3.948
10033SOL    HW230999   4.747   2.196   3.984
10034SOL     OW31000   2.932   0.121   3.953
10034SOL    HW131001   2.932   0.034   3.904
10034SOL    HW231002   2.839   0.157   3.957
10035SOL     OW31003   6.738   4.444   2.094
10035SOL    HW131004   6.832   4.448   2.061
10035SOL    HW231005   6.736   4.467   2.192
10036SOL     OW31006   5.844   2.040   1.288
10036SOL    HW131007   5.759   1.992   1.266
10036SOL    HW231008   5.825   2.136   1.304
10037SOL     OW31009   5.933   1.207   0.968
10037SOL    HW131010   5.954   1.234   0.873
10037SOL    HW231011   5.851   1.151   0.970
10038SOL     OW31012   4.736   0.778   6.848
10038SOL    HW131013   4.749   0.679   6.841
10038SOL    HW231014   4.808   0.817   6.905
10039SOL     OW31015   3.531   0.698   3.656
10039SOL    HW131016   3.450   0.746   3.623
10039SOL    HW231017   3.537   0.608   3.612
10040SOL     OW31018   4.321   5.770   6.267
10040SOL    HW131019   4.249   5.784   6.334
10040SOL    HW231020   4.407   5.749   6.314
10041SOL     OW31021   4.173   6.109   6.740
10041SOL    HW131022   4.269   6.132   6.755
10041SOL    HW231023   4.153   6.111   6.642
10042SOL     OW31024   1.111   2.036   4.498
10042SOL    HW131025   1.142   1.946   4.468
10042SOL    HW231026   1.188   2.086   4.539
10043SOL     OW31027   6.467   1.660   4.956
10043SOL    HW131028   6.389   1.707   4.915
10043SOL    HW231029   6.552   1.698   4.919
10044SOL     OW31030   2.531   1.681   4.990
10044SOL    HW131031   2.594   1.699   4.914
10044SOL    HW231032   2.487   1.592   4.977
10045SOL     OW31033   3.683   0.312   3.240
10045SOL    HW131034   3.746   0.387   3.220
10045SOL    HW231035   3.679   0.250   3.161
10046SOL     OW31036   2.334   3.931   0.744
10046SOL    HW131037   2.328   3.957   0.840
10046SOL    HW231038   2.244   3.901   0.712
10047SOL     OW31039   0.995   3.623   4.439
10047SOL    HW131040   1.065   3.667   4.496
10047SOL    HW231041   1.006   3.524   4.444
10048SOL     OW31042   6.450   0.324   2.627
10048SOL    HW131043   6.546   0.353   2.619
10048SOL    HW231044   6.393   0.404   2.644
10049SOL     OW31045   1.396   1.838   6.329
10049SOL    HW131046   1.479   1.890   6.310
10049SOL    HW231047   1.419   1.744   6.352
10050SOL     OW31048   5.327   3.554   5.039
10050SOL    HW131049   5.309   3.456   5.042
10050SOL    HW231050   5.280   3.598   5.116
10051SOL     OW31051   6.218   3.917   5.365
10051SOL    HW131052   6.120   3.897   5.367
10051SOL    HW231053   6.249   3.944   5.456
10052SOL     OW31054   2.161   1.239   2.802
10052SOL    HW131055   2.159   1.147   2.765
10052SOL    HW231056   2.071   1.282   2.790
10053SOL     OW31057   3.867   5.524   3.159
10053SOL    HW131058   3.886   5.566   3.070
10053SOL    HW231059   3.881   5.591   3.232
10054SOL     OW31060   5.743   6.291   6.212
10054SOL    HW131061   5.782   6.307   6.302
10054SOL    HW231062   5.740   6.192   6.194
10055SOL     OW31063   6.081   1.167   4.948
10055SOL    HW131064   6.132   1.110   4.884
10055SOL    HW231065   6.145   1.207   5.015
10056SOL     OW31066   5.113   4.620   2.694
10056SOL    HW131067   5.123   4.551   2.766
10056SOL    HW231068   5.022   4.613   2.653
10057SOL     OW31069   3.995   2.661   5.585
10057SOL    HW131070   4.022   2.565   5.597
10057SOL    HW231071   4.056   2.704   5.518
10058SOL     OW31072   6.017   3.864   5.014
10058SOL    HW131073   6.086   3.936   5.013
10058SOL    HW231074   6.059   3.778   4.985
10059SOL     OW31075   0.213   1.495   6.632
10059SOL    HW131076   0.174   1.510   6.542
10059SOL    HW231077   0.189   1.571   6.692
10060SOL     OW31078   2.406   2.655   2.270
10060SOL    HW131079   2.488   2.619   2.315
10060SOL    HW231080   2.394   2.751   2.295
10061SOL     OW31081   5.023   1.718   3.851
10061SOL    HW131082   4.963   1.728   3.930
10061SOL    HW231083   5.102   1.662   3.877
10062SOL     OW31084   5.989   0.485   3.629
10062SOL    HW131085   5.902   0.486   3.678
10062SOL    HW231086   6.064   0.485   3.695
10063SOL     OW31087   2.890   1.273   4.568
10063SOL    HW131088   2.933   1.345   4.514
10063SOL    HW231089   2.810   1.238   4.519
10064SOL     OW31090   5.016   6.417   0.483
10064SOL    HW131091   5.079   6.384   0.413
10064SOL    HW231092   4.950   6.345   0.505
10065SOL     OW31093   2.588   0.424   2.569
10065SOL    HW131094   2.513   0.408   2.505
10065SOL    HW231095   2.595   0.522   2.588
10066SOL     OW31096   0.478   2.697   5.030
10066SOL    HW131097   0.424   2.761   4.976
10066SOL    HW231098   0.509   2.622   4.972
10067SOL     OW31099   0.563   3.354   5.231
10067SOL    HW131100   0.595   3.393   5.145
10067SOL    HW231101   0.481   3.403   5.261
10068SOL     OW31102   0.885   3.444   3.868
10068SOL    HW131103   0.924   3.474   3.781
10068SOL    HW231104   0.889   3.519   3.933
10069SOL     OW31105   3.223   5.223   1.459
10069SOL    HW131106   3.248   5.272   1.543
10069SOL    HW231107   3.285   5.146   1.445
10070SOL     OW31108   0.283   6.036   5.370
10070SOL    HW131109   0.304   6.118   5.424
10070SOL    HW231110   0.345   6.031   5.292
10071SOL     OW31111   6.808   6.156   4.392
10071SOL    HW131112   6.761   6.118   4.471
10071SOL    HW231113   6.875   6.090   4.358
10072SOL     OW31114   0.248   0.155   4.207
10072SOL    HW131115   0.287   0.113   4.125
10072SOL    HW231116   0.320   0.202   4.259
10073SOL     OW31117   6.671   3.902   4.213
10073SOL    HW131118   6.593   3.859   4.260
10073SOL    HW231119   6.722   3.957   4.279
10074SOL     OW31120   2.222   6.873   6.515
10074SOL    HW131121   2.192   6.792   6.464
10074SOL    HW231122   2.239   6.948   6.452
10075SOL     OW31123   1.544   2.452   1.879
10075SOL    HW131124   1.597   2.383   1.930
10075SOL    HW231125   1.598   2.535   1.869
10076SOL     OW31126   5.748   6.623   2.969
10076SOL    HW131127   5.740   6.636   3.068
10076SOL    HW231128   5.836   6.659   2.938
10077SOL     OW31129   4.094   3.651   0.596
10077SOL    HW131130   4.156   3.698   0.660
10077SOL    HW231131   4.041   3.719   0.546
10078SOL     OW31132   6.109   6.199   4.456
10078SOL    HW131133   6.077   6.215   4.362
10078SOL    HW231134   6.032   6.175   4.514
10079SOL     OW31135   5.656   3.299   3.159
10079SOL    HW131136   5.711   3.229   3.114
10079SOL    HW231137   5.653   3.280   3.258
10080SOL     OW31138   4.943   1.468   6.252
10080SOL    HW131139   5.037   1.450   6.221
10080SOL    HW231140   4.903   1.540   6.196
10081SOL     OW31141   0.753   1.497   6.892
10081SOL    HW131142   0.699   1.417   6.918
10081SOL    HW231143   0.819   1.518   6.964
10082SOL     OW31144   0.737   5.453   2.112
10082SOL    HW131145   0.650   5.454   2.062
10082SOL    HW231146   0.792   5.376   2.079
10083SOL     OW31147   3.614   0.103   3.730
10083SOL    HW131148   3.595   0.121   3.634
10083SOL    HW231149   3.542   0.043   3.768
10084SOL     OW31150   0.901   0.250   5.463
10084SOL    HW131151   0.867   0.156   5.452
10084SOL    HW231152   0.984   0.261   5.408
10085SOL     OW31153   3.679   0.122   0.925
10085SOL    HW131154   3.628   0.199   0.889
10085SOL    HW231155   3.686   0.129   1.024
10086SOL     OW31156   6.059   5.770   3.162
10086SOL    HW131157   6.075   5.852   3.216
10086SOL    HW231158   5.998   5.708   3.212
10087SOL     OW31159   6.379   5.704   4.147
10087SOL    HW131160   6.324   5.763   4.205
10087SOL    HW231161   6.443   5.652   4.203
10088SOL     OW31162   6.793   0.197   1.885
10088SOL    HW131163   6.819   0.146   1.803
10088SOL    HW231164   6.724   0.265   1.862
10089SOL     OW31165   3.226   2.158   3.467
10089SOL    HW131166   3.246   2.061   3.475
10089SOL    HW231167   3.190   2.192   3.554
10090SOL     OW31168   0.166   4.930   2.010
10090SOL    HW131169   0.182   4.957   1.915
10090SOL    HW231170   0.068   4.923   2.026
10091SOL     OW31171   6.547   5.618   6.463
10091SOL    HW131172   6.551   5.677   6.383
10091SOL    HW231173   6.638   5.582   6.483
10092SOL     OW31174   1.890   2.810   6.259
10092SOL    HW131175   1.961   2.751   6.296
10092SOL    HW231176   1.842   2.856   6.335
10093SOL     OW31177   4.620   3.431   5.422
10093SOL    HW131178   4.613   3.487   5.505
10093SOL    HW231179   4.672   3.479   5.353
10094SOL     OW31180   2.484   6.261   1.345
10094SOL    HW131181   2.428   6.256   1.263
10094SOL    HW231182   2.495   6.356   1.373
10095SOL     OW31183   5.236   1.506   4.668
10095SOL    HW131184   5.331   1.493   4.642
10095SOL    HW231185   5.226   1.593   4.717
10096SOL     OW31186   4.715   6.747   3.129
10096SOL    HW131187   4.750   6.691   3.054
10096SOL    HW231188   4.733   6.702   3.216
10097SOL     OW31189   1.581   2.154   6.740
10097SOL    HW131190   1.494   2.188   6.704
10097SOL    HW231191   1.620   2.221   6.803
10098SOL     OW31192   2.861   6.761   4.842
10098SOL    HW131193   2.869   6.841   4.901
10098SOL    HW231194   2.795   6.697   4.882
10099SOL     OW31195   0.122   4.761   1.320
10099SOL    HW131196   0.170   4.675   1.300
10099SOL    HW231197   0.065   4.749   1.401
10100SOL     OW31198   5.228   5.989   5.737
10100SOL    HW131199   5.245   5.969   5.640
10100SOL    HW231200   5.280   6.070   5.763
10101SOL     OW31201   6.964   3.166   2.020
10101SOL    HW131202   0.039   3.172   2.029
10101SOL    HW231203   6.923   3.153   2.111
10102SOL     OW31204   6.212   0.926   1.279
10102SOL    HW131205   6.236   0.867   1.202
10102SOL    HW231206   6.184   0.871   1.357
10103SOL     OW31207   2.450   0.295   5.522
10103SOL    HW131208   2.377   0.355   5.554
10103SOL    HW231209   2.489   0.331   5.437
10104SOL     OW31210   1.514   1.463   5.517
10104SOL    HW131211   1.436   1.525   5.505
10104SOL    HW231212   1.525   1.407   5.435
10105SOL     OW31213   2.243   0.833   6.204
10105SOL    HW131214   2.161   0.794   6.247
10105SOL    HW231215   2.283   0.767   6.142
10106SOL     OW31216   4.141   6.587   1.015
10106SOL    HW131217   4.201   6.561   1.091
10106SOL    HW231218   4.048   6.554   1.034
10107SOL     OW31219   5.385   1.492   6.384
10107SOL    HW131220   5.366   1.589   6.364
10107SOL    HW231221   5.451   1.487   6.459
10108SOL     OW31222   0.144   1.693   6.811
10108SOL    HW131223   0.151   1.744   6.725
10108SOL    HW231224   0.149   1.756   6.888
10109SOL     OW31225   0.443   1.174   1.027
10109SOL    HW131226   0.538   1.192   1.053
10109SOL    HW231227   0.406   1.256   0.982
10110SOL     OW31228   4.627   4.543   4.201
10110SOL    HW131229   4.650   4.447   4.189
10110SOL    HW231230   4.640   4.569   4.297
10111SOL     OW31231   6.961   3.675   3.547
10111SOL    HW131232   6.878   3.640   3.590
10111SOL    HW231233   6.953   3.774   3.533
10112SOL     OW31234   5.987   3.471   2.778
10112SOL    HW131235   6.025   3.409   2.847
10112SOL    HW231236   5.972   3.421   2.693
10113SOL     OW31237   4.395   0.122   0.766
10113SOL    HW131238   4.342   0.108   0.683
10113SOL    HW231239   4.406   0.034   0.813
10114SOL     OW31240   4.384   1.998   2.685
10114SOL    HW131241   4.336   1.912   2.703
10114SOL    HW231242   4.323   2.075   2.701
10115SOL     OW31243   4.103   1.947   4.954
10115SOL    HW131244   4.115   2.039   4.916
10115SOL    HW231245   4.048   1.892   4.892
10116SOL     OW31246   0.436   6.816   7.010
10116SOL    HW131247   0.401   6.827   6.917
10116SOL    HW231248   0.384   6.875   0.048
10117SOL     OW31249   6.983   6.238   5.820
10117SOL    HW131250   6.929   6.154   5.808
10117SOL    HW231251   0.034   6.240   5.755
10118SOL     OW31252   2.441   4.506   4.017
10118SOL    HW131253   2.456   4.544   3.926
10118SOL    HW231254   2.430   4.407   4.010
10119SOL     OW31255   6.404   4.619   3.851
10119SOL    HW131256   6.360   4.627   3.762
10119SOL    HW231257   6.343   4.654   3.922
10120SOL     OW31258   1.805   3.527   4.172
10120SOL    HW131259   1.825   3.588   4.248
10120SOL    HW231260   1.871   3.543   4.098
10121SOL     OW31261   5.667   3.619   0.066
10121SOL    HW131262   5.571   3.601   0.042
10121SOL    HW231263   5.697   3.553   0.135
10122SOL     OW31264   5.501   1.999   3.618
10122SOL    HW131265   5.461   2.025   3.530
10122SOL    HW231266   5.599   2.016   3.617
10123SOL     OW31267   5.868   6.350   0.823
10123SOL    HW131268   5.894   6.254   0.839
10123SOL    HW231269   5.776   6.354   0.784
10124SOL     OW31270   1.586   5.358   0.569
10124SOL    HW131271   1.661   5.296   0.589
10124SOL    HW231272   1.620   5.435   0.516
10125SOL     OW31273   2.430   1.314   0.834
10125SOL    HW131274   2.338   1.325   0.872
10125SOL    HW231275   2.481   1.248   0.889
10126SOL     OW31276   0.162   0.168   6.161
10126SOL    HW131277   0.087   0.113   6.125
10126SOL    HW231278   0.125   0.237   6.224
10127SOL     OW31279   1.947   3.489   0.532
10127SOL    HW131280   1.889   3.408   0.546
10127SOL    HW231281   1.968   3.530   0.621
10128SOL     OW31282   2.794   0.883   5.681
10128SOL    HW131283   2.772   0.971   5.723
10128SOL    HW231284   2.734   0.812   5.719
10129SOL     OW31285   6.933   1.708   2.397
10129SOL    HW131286   6.855   1.671   2.346
10129SOL    HW231287   6.910   1.712   2.495
10130SOL     OW31288   0.432   3.410   1.551
10130SOL    HW131289   0.520   3.437   1.591
10130SOL    HW231290   0.361   3.473   1.582
10131SOL     OW31291   1.600   0.518   4.019
10131SOL    HW131292   1.525   0.553   4.074
10131SOL    HW231293   1.613   0.577   3.939
10132SOL     OW31294   1.711   0.465   2.895
10132SOL    HW131295   1.719   0.493   2.991
10132SOL    HW231296   1.753   0.375   2.884
10133SOL     OW31297   4.601   6.645   0.936
10133SOL    HW131298   4.521   6.706   0.936
10133SOL    HW231299   4.642   6.644   1.027
10134SOL     OW31300   5.744   1.028   2.776
10134SOL    HW131301   5.687   1.085   2.835
10134SOL    HW231302   5.691   1.002   2.694
10135SOL     OW31303   4.859   2.491   3.961
10135SOL    HW131304   4.933   2.458   3.902
10135SOL    HW231305   4.800   2.414   3.988
10136SOL     OW31306   5.382   1.709   2.314
10136SOL    HW131307   5.293   1.717   2.270
10136SOL    HW231308   5.369   1.698   2.413
10137SOL     OW31309   0.410   4.818   5.451
10137SOL    HW131310   0.470   4.738   5.454
10137SOL    HW231311   0.428   4.877   5.530
10138SOL     OW31312   5.952   3.287   0.523
10138SOL    HW131313   5.857   3.275   0.552
10138SOL    HW231314   5.981   3.381   0.542
10139SOL     OW31315   3.048   4.057   4.624
10139SOL    HW131316   3.001   4.132   4.671
10139SOL    HW231317   3.079   3.991   4.692
10140SOL     OW31318   0.057   6.528   6.384
10140SOL    HW131319   0.150   6.514   6.350
10140SOL    HW231320   0.013   6.602   6.334
10141SOL     OW31321   4.023   1.004   4.855
10141SOL    HW131322   3.992   1.048   4.939
10141SOL    HW231323   4.008   1.065   4.778
10142SOL     OW31324   6.040   6.701   5.931
10142SOL    HW131325   6.132   6.671   5.957
10142SOL    HW231326   5.998   6.749   6.008
10143SOL     OW31327   5.519   2.866   0.124
10143SOL    HW131328   5.558   2.898   0.038
10143SOL    HW231329   5.445   2.801   0.105
10144SOL     OW31330   4.883   6.141   5.256
10144SOL    HW131331   4.919   6.052   5.283
10144SOL    HW231332   4.800   6.129   5.201
10145SOL     OW31333   3.584   5.504   3.204
10145SOL    HW131334   3.541   5.416   3.228
10145SOL    HW231335   3.683   5.492   3.198
10146SOL     OW31336   6.816   3.702   4.565
10146SOL    HW131337   6.836   3.676   4.660
10146SOL    HW231338   6.755   3.781   4.564
10147SOL     OW31339   4.936   4.225   6.416
10147SOL    HW131340   4.921   4.133   6.452
10147SOL    HW231341   5.013   4.267   6.462
10148SOL     OW31342   5.831   4.159   1.075
10148SOL    HW131343   5.858   4.063   1.080
10148SOL    HW231344   5.855   4.195   0.984
10149SOL     OW31345   5.149   4.666   1.397
10149SOL    HW131346   5.193   4.582   1.431
10149SOL    HW231347   5.059   4.644   1.359
10150SOL     OW31348   4.434   3.377   1.566
10150SOL    HW131349   4.375   3.414   1.637
10150SOL    HW231350   4.526   3.364   1.602
10151SOL     OW31351   1.161   0.223   6.747
10151SOL    HW131352   1.124   0.302   6.699
10151SOL    HW231353   1.209   0.253   6.829
10152SOL     OW31354   6.328   5.613   3.902
10152SOL    HW131355   6.233   5.608   3.874
10152SOL    HW231356   6.334   5.650   3.995
10153SOL     OW31357   4.815   5.797   4.340
10153SOL    HW131358   4.775   5.780   4.430
10153SOL    HW231359   4.894   5.737   4.327
10154SOL     OW31360   3.525   6.390   5.644
10154SOL    HW131361   3.600   6.391   5.579
10154SOL    HW231362   3.561   6.386   5.737
10155SOL     OW31363   5.102   2.672   5.469
10155SOL    HW131364   5.184   2.614   5.465
10155SOL    HW231365   5.035   2.638   5.403
10156SOL     OW31366   5.455   0.727   1.572
10156SOL    HW131367   5.517   0.661   1.531
10156SOL    HW231368   5.377   0.679   1.613
10157SOL     OW31369   6.985   2.343   0.275
10157SOL    HW131370   0.058   2.320   0.273
10157SOL    HW231371   6.966   2.413   0.206
10158SOL     OW31372   6.270   6.603   1.556
10158SOL    HW131373   6.327   6.524   1.575
10158SOL    HW231374   6.270   6.622   1.458
10159SOL     OW31375   3.894   3.314   2.353
10159SOL    HW131376   3.984   3.315   2.309
10159SOL    HW231377   3.884   3.231   2.408
10160SOL     OW31378   1.803   3.968   3.181
10160SOL    HW131379   1.799   4.068   3.186
10160SOL    HW231380   1.736   3.936   3.114
10161SOL     OW31381   3.276   4.899   6.590
10161SOL    HW131382   3.242   4.852   6.671
10161SOL    HW231383   3.231   4.988   6.582
10162SOL     OW31384   2.386   4.433   0.744
10162SOL    HW131385   2.454   4.372   0.784
10162SOL    HW231386   2.417   4.528   0.751
10163SOL     OW31387   0.547   4.819   6.341
10163SOL    HW131388   0.583   4.899   6.389
10163SOL    HW231389   0.453   4.802   6.370
10164SOL     OW31390   5.873   3.187   4.647
10164SOL    HW131391   5.880   3.258   4.716
10164SOL    HW231392   5.960   3.179   4.598
10165SOL     OW31393   6.540   2.594   3.669
10165SOL    HW131394   6.581   2.675   3.627
10165SOL    HW231395   6.602   2.516   3.658
10166SOL     OW31396   1.414   1.676   1.636
10166SOL    HW131397   1.450   1.592   1.595
10166SOL    HW231398   1.480   1.750   1.624
10167SOL     OW31399   6.970   5.873   6.957
10167SOL    HW131400   0.032   5.843   6.916
10167SOL    HW231401   6.893   5.835   6.905
10168SOL     OW31402   6.859   1.825   6.202
10168SOL    HW131403   6.942   1.882   6.201
10168SOL    HW231404   6.785   1.876   6.245
10169SOL     OW31405   6.345   3.758   3.225
10169SOL    HW131406   6.285   3.814   3.167
10169SOL    HW231407   6.290   3.707   3.291
10170SOL     OW31408   6.398   5.832   6.329
10170SOL    HW131409   6.373   5.755   6.269
10170SOL    HW231410   6.375   5.918   6.283
10171SOL     OW31411   0.686   2.574   4.350
10171SOL    HW131412   0.650   2.666   4.336
10171SOL    HW231413   0.710   2.562   4.447
10172SOL     OW31414   0.447   6.861   4.410
10172SOL    HW131415   0.464   6.787   4.475
10172SOL    HW231416   0.389   6.931   4.453
10173SOL     OW31417   2.279   3.195   6.468
10173SOL    HW131418   2.284   3.228   6.373
10173SOL    HW231419   2.213   3.250   6.519
10174SOL     OW31420   4.452   4.576   3.695
10174SOL    HW131421   4.452   4.516   3.775
10174SOL    HW231422   4.379   4.644   3.706
10175SOL     OW31423   6.153   1.803   4.023
10175SOL    HW131424   6.128   1.890   4.065
10175SOL    HW231425   6.225   1.818   3.955
10176SOL     OW31426   6.387   2.969   5.277
10176SOL    HW131427   6.370   2.937   5.370
10176SOL    HW231428   6.482   2.997   5.268
10177SOL     OW31429   1.508   0.047   0.916
10177SOL    HW131430   1.480   6.975   0.921
10177SOL    HW231431   1.563   0.061   0.833
10178SOL     OW31432   1.601   0.864   0.350
10178SOL    HW131433   1.585   0.873   0.252
10178SOL    HW231434   1.564   0.945   0.397
10179SOL     OW31435   0.339   3.743   6.470
10179SOL    HW131436   0.244   3.751   6.499
10179SOL    HW231437   0.344   3.746   6.370
10180SOL     OW31438   4.488   0.479   0.665
10180SOL    HW131439   4.479   0.539   0.585
10180SOL    HW231440   4.406   0.421   0.673
10181SOL     OW31441   0.699   3.323   1.178
10181SOL    HW131442   0.610   3.353   1.214
10181SOL    HW231443   0.721   3.233   1.216
10182SOL     OW31444   4.879   1.459   0.318
10182SOL    HW131445   4.954   1.397   0.294
10182SOL    HW231446   4.915   1.552   0.328
10183SOL     OW31447   5.770   2.953   6.042
10183SOL    HW131448   5.692   2.999   6.001
10183SOL    HW231449   5.739   2.899   6.121
10184SOL     OW31450   5.043   2.601   0.188
10184SOL    HW131451   4.963   2.579   0.131
10184SOL    HW231452   5.069   2.696   0.173
10185SOL     OW31453   6.167   5.964   2.473
10185SOL    HW131454   6.114   6.030   2.420
10185SOL    HW231455   6.122   5.875   2.470
10186SOL     OW31456   4.906   3.547   4.784
10186SOL    HW131457   4.877   3.570   4.877
10186SOL    HW231458   4.839   3.485   4.742
10187SOL     OW31459   1.693   4.344   5.688
10187SOL    HW131460   1.754   4.418   5.661
10187SOL    HW231461   1.729   4.298   5.770
10188SOL     OW31462   2.617   4.892   6.951
10188SOL    HW131463   2.549   4.960   6.923
10188SOL    HW231464   2.598   4.865   0.021
10189SOL     OW31465   1.620   0.539   6.228
10189SOL    HW131466   1.620   0.478   6.149
10189SOL    HW231467   1.659   0.492   6.307
10190SOL     OW31468   4.253   3.228   1.794
10190SOL    HW131469   4.311   3.165   1.742
10190SOL    HW231470   4.303   3.313   1.811
10191SOL     OW31471   5.286   5.457   0.497
10191SOL    HW131472   5.217   5.453   0.569
10191SOL    HW231473   5.261   5.393   0.424
10192SOL     OW31474   3.353   1.832   4.936
10192SOL    HW131475   3.260   1.814   4.903
10192SOL    HW231476   3.366   1.787   5.025
10193SOL     OW31477   2.952   3.742   2.320
10193SOL    HW131478   2.921   3.731   2.225
10193SOL    HW231479   3.004   3.827   2.329
10194SOL     OW31480   4.480   0.675   4.349
10194SOL    HW131481   4.390   0.657   4.389
10194SOL    HW231482   4.545   0.606   4.379
10195SOL     OW31483   6.538   0.295   1.775
10195SOL    HW131484   6.441   0.274   1.765
10195SOL    HW231485   6.570   0.344   1.694
10196SOL     OW31486   5.341   1.816   3.387
10196SOL    HW131487   5.400   1.738   3.369
10196SOL    HW231488   5.295   1.804   3.475
10197SOL     OW31489   4.742   1.521   4.232
10197SOL    HW131490   4.828   1.473   4.250
10197SOL    HW231491   4.743   1.557   4.139
10198SOL     OW31492   3.813   6.903   0.975
10198SOL    HW131493   3.902   6.942   0.954
10198SOL    HW231494   3.743   6.975   0.973
10199SOL     OW31495   0.570   2.104   6.539
10199SOL    HW131496   0.511   2.025   6.526
10199SOL    HW231497   0.583   2.121   6.637
10200SOL     OW31498   5.005   3.538   5.453
10200SOL    HW131499   4.973   3.530   5.548
10200SOL    HW231500   5.104   3.528   5.450
10201SOL     OW31501   0.451   5.695   1.190
10201SOL    HW131502   0.367   5.654   1.223
10201SOL    HW231503   0.445   5.712   1.091
10202SOL     OW31504   1.365   3.967   0.437
10202SOL    HW131505   1.386   3.872   0.415
10202SOL    HW231506   1.340   3.975   0.533
10203SOL     OW31507   1.259   3.119   1.591
10203SOL    HW131508   1.293   3.040   1.540
10203SOL    HW231509   1.303   3.123   1.681
10204SOL     OW31510   3.157   5.593   6.106
10204SOL    HW131511   3.152   5.496   6.131
10204SOL    HW231512   3.135   5.602   6.008
10205SOL     OW31513   3.391   1.240   2.242
10205SOL    HW131514   3.432   1.191   2.165
10205SOL    HW231515   3.351   1.175   2.306
10206SOL     OW31516   5.092   6.562   6.456
10206SOL    HW131517   5.035   6.641   6.479
10206SOL    HW231518   5.035   6.492   6.413
10207SOL     OW31519   1.969   1.510   0.465
10207SOL    HW131520   1.977   1.546   0.372
10207SOL    HW231521   2.049   1.538   0.518
10208SOL     OW31522   6.228   4.677   4.068
10208SOL    HW131523   6.173   4.637   4.142
10208SOL    HW231524   6.168   4.712   3.996
10209SOL     OW31525   0.689   0.687   5.455
10209SOL    HW131526   0.688   0.592   5.423
10209SOL    HW231527   0.653   0.746   5.383
10210SOL     OW31528   5.008   0.227   1.799
10210SOL    HW131529   4.973   0.161   1.734
10210SOL    HW231530   4.961   0.315   1.787
10211SOL     OW31531   4.201   6.491   5.351
10211SOL    HW131532   4.267   6.480   5.277
10211SOL    HW231533   4.238   6.554   5.419
10212SOL     OW31534   0.405   0.885   4.654
10212SOL    HW131535   0.488   0.939   4.668
10212SOL    HW231536   0.411   0.839   4.565
10213SOL     OW31537   5.808   2.705   2.130
10213SOL    HW131538   5.752   2.634   2.087
10213SOL    HW231539   5.749   2.769   2.180
10214SOL     OW31540   1.150   2.219   2.505
10214SOL    HW131541   1.204   2.137   2.490
10214SOL    HW231542   1.181   2.291   2.443
10215SOL     OW31543   3.632   2.948   3.998
10215SOL    HW131544   3.540   2.986   4.012
10215SOL    HW231545   3.700   3.007   4.042
10216SOL     OW31546   0.676   0.230   0.986
10216SOL    HW131547   0.659   0.256   0.891
10216SOL    HW231548   0.758   0.172   0.991
10217SOL     OW31549   2.615   1.719   3.790
10217SOL    HW131550   2.705   1.683   3.815
10217SOL    HW231551   2.554   1.643   3.767
10218SOL     OW31552   1.607   0.562   1.905
10218SOL    HW131553   1.645   0.533   1.817
10218SOL    HW231554   1.509   0.578   1.894
10219SOL     OW31555   0.589   3.330   1.917
10219SOL    HW131556   0.504   3.382   1.909
10219SOL    HW231557   0.569   3.238   1.951
10220SOL     OW31558   4.276   1.380   1.952
10220SOL    HW131559   4.258   1.356   1.856
10220SOL    HW231560   4.320   1.469   1.956
10221SOL     OW31561   1.660   2.652   3.783
10221SOL    HW131562   1.602   2.572   3.803
10221SOL    HW231563   1.607   2.735   3.797
10222SOL     OW31564   2.274   3.258   6.202
10222SOL    HW131565   2.223   3.175   6.179
10222SOL    HW231566   2.286   3.314   6.119
10223SOL     OW31567   1.604   5.962   6.692
10223SOL    HW131568   1.551   6.021   6.631
10223SOL    HW231569   1.628   5.878   6.645
10224SOL     OW31570   6.710   1.810   4.874
10224SOL    HW131571   6.765   1.729   4.853
10224SOL    HW231572   6.741   1.850   4.960
10225SOL     OW31573   1.985   6.245   6.406
10225SOL    HW131574   2.001   6.187   6.326
10225SOL    HW231575   1.916   6.201   6.464
10226SOL     OW31576   2.807   6.978   6.993
10226SOL    HW131577   2.776   0.038   6.949
10226SOL    HW231578   2.744   6.955   0.043
10227SOL     OW31579   5.036   4.968   1.071
10227SOL    HW131580   5.055   4.890   1.011
10227SOL    HW231581   5.111   4.979   1.136
10228SOL     OW31582   1.078   5.505   2.117
10228SOL    HW131583   1.078   5.586   2.058
10228SOL    HW231584   0.994   5.453   2.102
10229SOL     OW31585   0.723   1.746   4.123
10229SOL    HW131586   0.787   1.689   4.071
10229SOL    HW231587   0.756   1.841   4.124
10230SOL     OW31588   6.352   6.208   3.141
10230SOL    HW131589   6.291   6.288   3.140
10230SOL    HW231590   6.414   6.215   3.219
10231SOL     OW31591   6.513   5.506   5.576
10231SOL    HW131592   6.490   5.410   5.586
10231SOL    HW231593   6.550   5.523   5.485
10232SOL     OW31594   2.799   0.496   4.026
10232SOL    HW131595   2.789   0.509   4.125
10232SOL    HW231596   2.804   0.398   4.006
10233SOL     OW31597   4.817   3.672   5.336
10233SOL    HW131598   4.792   3.630   5.249
10233SOL    HW231599   4.885   3.615   5.382
10234SOL     OW31600   4.953   1.283   0.507
10234SOL    HW131601   5.042   1.249   0.477
10234SOL    HW231602   4.918   1.349   0.440
10235SOL     OW31603   4.645   2.538   0.269
10235SOL    HW131604   4.662   2.450   0.314
10235SOL    HW231605   4.575   2.526   0.199
10236SOL     OW31606   2.739   6.962   1.922
10236SOL    HW131607   2.696   7.000   2.004
10236SOL    HW231608   2.686   6.990   1.841
10237SOL     OW31609   6.187   4.236   0.804
10237SOL    HW131610   6.141   4.289   0.732
10237SOL    HW231611   6.285   4.234   0.785
10238SOL     OW31612   3.161   4.018   3.623
10238SOL    HW131613   3.224   4.073   3.567
10238SOL    HW231614   3.213   3.970   3.694
10239SOL     OW31615   1.303   4.021   5.062
10239SOL    HW131616   1.234   4.001   4.992
10239SOL    HW231617   1.381   4.068   5.019
10240SOL     OW31618   2.098   4.909   3.101
10240SOL    HW131619   2.173   4.861   3.147
10240SOL    HW231620   2.129   4.998   3.069
10241SOL     OW31621   6.671   0.472   2.480
10241SOL    HW131622   6.747   0.441   2.537
10241SOL    HW231623   6.672   0.423   2.393
10242SOL     OW31624   6.954   1.169   6.880
10242SOL    HW131625   7.023   1.223   6.929
10242SOL    HW231626   6.998   1.089   6.840
10243SOL     OW31627   0.859   5.222   1.414
10243SOL    HW131628   0.822   5.263   1.498
10243SOL    HW231629   0.785   5.177   1.365
10244SOL     OW31630   1.195   4.561   0.387
10244SOL    HW131631   1.275   4.602   0.431
10244SOL    HW231632   1.186   4.466   0.416
10245SOL     OW31633   2.877   4.880   6.835
10245SOL    HW131634   2.813   4.900   6.908
10245SOL    HW231635   2.852   4.932   6.753
10246SOL     OW31636   3.038   3.899   3.966
10246SOL    HW131637   2.995   3.868   3.881
10246SOL    HW231638   3.014   3.837   4.040
10247SOL     OW31639   0.212   5.347   5.380
10247SOL    HW131640   0.293   5.312   5.333
10247SOL    HW231641   0.140   5.365   5.313
10248SOL     OW31642   3.646   6.817   2.234
10248SOL    HW131643   3.552   6.784   2.224
10248SOL    HW231644   3.699   6.790   2.153
10249SOL     OW31645   3.471   1.333   6.256
10249SOL    HW131646   3.438   1.243   6.285
10249SOL    HW231647   3.465   1.340   6.156
10250SOL     OW31648   6.744   2.564   0.928
10250SOL    HW131649   6.784   2.588   0.840
10250SOL    HW231650   6.645   2.577   0.925
10251SOL     OW31651   2.543   2.210   5.141
10251SOL    HW131652   2.575   2.305   5.137
10251SOL    HW231653   2.619   2.149   5.120
10252SOL     OW31654   5.231   5.826   6.853
10252SOL    HW131655   5.316   5.815   6.801
10252SOL    HW231656   5.192   5.737   6.873
10253SOL     OW31657   4.455   5.460   0.069
10253SOL    HW131658   4.518   5.524   0.026
10253SOL    HW231659   4.500   5.372   0.084
10254SOL     OW31660   4.385   1.490   5.154
10254SOL    HW131661   4.337   1.535   5.229
10254SOL    HW231662   4.322   1.430   5.105
10255SOL     OW31663   1.829   6.198   1.431
10255SOL    HW131664   1.889   6.269   1.470
10255SOL    HW231665   1.846   6.111   1.478
10256SOL     OW31666   5.703   0.527   1.963
10256SOL    HW131667   5.692   0.514   1.865
10256SOL    HW231668   5.798   0.553   1.982
10257SOL     OW31669   1.865   5.487   4.249
10257SOL    HW131670   1.811   5.559   4.206
10257SOL    HW231671   1.894   5.421   4.181
10258SOL     OW31672   4.258   0.884   4.255
10258SOL    HW131673   4.357   0.870   4.261
10258SOL    HW231674   4.238   0.948   4.181
10259SOL     OW31675   0.263   4.568   3.154
10259SOL    HW131676   0.348   4.613   3.127
10259SOL    HW231677   0.213   4.538   3.073
10260SOL     OW31678   0.454   0.289   3.285
10260SOL    HW131679   0.414   0.238   3.209
10260SOL    HW231680   0.474   0.226   3.361
10261SOL     OW31681   6.509   4.966   3.572
10261SOL    HW131682   6.466   5.022   3.501
10261SOL    HW231683   6.592   4.924   3.534
10262SOL     OW31684   2.425   6.647   4.738
10262SOL    HW131685   2.491   6.605   4.676
10262SOL    HW231686   2.354   6.694   4.685
10263SOL     OW31687   4.859   0.825   6.268
10263SOL    HW131688   4.860   0.866   6.359
10263SOL    HW231689   4.872   0.726   6.275
10264SOL     OW31690   5.877   2.145   6.466
10264SOL    HW131691   5.879   2.132   6.565
10264SOL    HW231692   5.792   2.107   6.430
10265SOL     OW31693   3.195   2.157   2.934
10265SOL    HW131694   3.294   2.144   2.930
10265SOL    HW231695   3.157   2.154   2.842
10266SOL     OW31696   3.057   3.065   5.073
10266SOL    HW131697   2.966   3.065   5.115
10266SOL    HW231698   3.113   3.135   5.116
10267SOL     OW31699   5.998   1.575   0.205
10267SOL    HW131700   6.043   1.556   0.293
10267SOL    HW231701   6.066   1.611   0.141
10268SOL     OW31702   4.801   4.865   1.741
10268SOL    HW131703   4.787   4.941   1.677
10268SOL    HW231704   4.723   4.859   1.803
10269SOL     OW31705   1.087   2.722   5.163
10269SOL    HW131706   1.018   2.734   5.092
10269SOL    HW231707   1.132   2.809   5.182
10270SOL     OW31708   2.632   5.141   3.784
10270SOL    HW131709   2.720   5.149   3.736
10270SOL    HW231710   2.644   5.165   3.880
10271SOL     OW31711   3.986   2.765   0.534
10271SOL    HW131712   3.912   2.723   0.586
10271SOL    HW231713   4.074   2.742   0.577
10272SOL     OW31714   0.456   0.022   4.978
10272SOL    HW131715   0.477   0.118   4.957
10272SOL    HW231716   0.506   6.987   4.914
10273SOL     OW31717   4.092   5.078   3.465
10273SOL    HW131718   4.114   5.111   3.374
10273SOL    HW231719   4.145   5.129   3.533
10274SOL     OW31720   0.517   4.368   4.424
10274SOL    HW131721   0.469   4.403   4.504
10274SOL    HW231722   0.579   4.295   4.452
10275SOL     OW31723   0.937   6.178   2.118
10275SOL    HW131724   0.969   6.144   2.029
10275SOL    HW231725   0.890   6.266   2.105
10276SOL     OW31726   6.084   5.958   5.675
10276SOL    HW131727   6.123   5.891   5.612
10276SOL    HW231728   6.105   6.050   5.644
10277SOL     OW31729   2.587   5.603   3.950
10277SOL    HW131730   2.563   5.582   4.045
10277SOL    HW231731   2.684   5.583   3.935
10278SOL     OW31732   6.233   1.567   4.516
10278SOL    HW131733   6.182   1.652   4.505
10278SOL    HW231734   6.286   1.550   4.433
10279SOL     OW31735   2.247   5.963   5.052
10279SOL    HW131736   2.265   6.044   4.996
10279SOL    HW231737   2.152   5.965   5.083
10280SOL     OW31738   1.382   3.886   0.771
10280SOL    HW131739   1.361   3.798   0.812
10280SOL    HW231740   1.480   3.892   0.751
10281SOL     OW31741   6.348   1.341   3.104
10281SOL    HW131742   6.368   1.439   3.099
10281SOL    HW231743   6.265   1.321   3.053
10282SOL     OW31744   6.382   4.305   4.271
10282SOL    HW131745   6.309   4.366   4.240
10282SOL    HW231746   6.345   4.214   4.289
10283SOL     OW31747   0.719   3.366   0.465
10283SOL    HW131748   0.722   3.268   0.444
10283SOL    HW231749   0.805   3.394   0.505
10284SOL     OW31750   5.187   3.659   5.250
10284SOL    HW131751   5.150   3.705   5.330
10284SOL    HW231752   5.132   3.578   5.229
10285SOL     OW31753   4.741   1.448   1.400
10285SOL    HW131754   4.837   1.477   1.400
10285SOL    HW231755   4.697   1.477   1.315
10286SOL     OW31756   2.921   1.783   3.598
10286SOL    HW131757   2.934   1.769   3.697
10286SOL    HW231758   3.011   1.791   3.554
10287SOL     OW31759   2.457   6.025   1.816
10287SOL    HW131760   2.545   5.977   1.817
10287SOL    HW231761   2.419   6.028   1.908
10288SOL     OW31762   5.304   6.000   2.596
10288SOL    HW131763   5.320   5.918   2.541
10288SOL    HW231764   5.230   5.984   2.661
10289SOL     OW31765   3.143   0.805   1.903
10289SOL    HW131766   3.045   0.820   1.889
10289SOL    HW231767   3.165   0.813   2.000
10290SOL     OW31768   3.097   3.994   2.240
10290SOL    HW131769   3.070   4.028   2.150
10290SOL    HW231770   3.190   4.022   2.260
10291SOL     OW31771   4.143   1.336   4.081
10291SOL    HW131772   4.123   1.252   4.132
10291SOL    HW231773   4.214   1.388   4.129
10292SOL     OW31774   2.022   0.724   4.337
10292SOL    HW131775   2.009   0.821   4.314
10292SOL    HW231776   1.950   0.695   4.400
10293SOL     OW31777   1.783   5.648   3.752
10293SOL    HW131778   1.865   5.608   3.793
10293SOL    HW231779   1.810   5.712   3.680
10294SOL     OW31780   4.904   4.013   2.545
10294SOL    HW131781   4.992   4.003   2.591
10294SOL    HW231782   4.911   3.981   2.451
10295SOL     OW31783   5.898   5.785   5.763
10295SOL    HW131784   5.941   5.696   5.779
10295SOL    HW231785   5.967   5.850   5.731
10296SOL     OW31786   4.273   3.604   6.982
10296SOL    HW131787   4.188   3.647   6.952
10296SOL    HW231788   4.285   3.620   0.055
10297SOL     OW31789   2.029   6.480   6.517
10297SOL    HW131790   2.013   6.392   6.472
10297SOL    HW231791   2.051   6.465   6.613
10298SOL     OW31792   3.492   5.069   1.978
10298SOL    HW131793   3.530   5.028   1.896
10298SOL    HW231794   3.535   5.028   2.059
10299SOL     OW31795   4.771   4.963   2.748
10299SOL    HW131796   4.816   5.018   2.818
10299SOL    HW231797   4.773   5.011   2.660
10300SOL     OW31798   1.612   4.729   2.961
10300SOL    HW131799   1.631   4.734   3.060
10300SOL    HW231800   1.694   4.754   2.910
10301SOL     OW31801   6.142   2.256   3.435
10301SOL    HW131802   6.062   2.275   3.379
10301SOL    HW231803   6.165   2.159   3.428
10302SOL     OW31804   0.635   5.631   4.194
10302SOL    HW131805   0.603   5.539   4.171
10302SOL    HW231806   0.717   5.652   4.140
10303SOL     OW31807   2.143   5.358   1.925
10303SOL    HW131808   2.070   5.425   1.933
10303SOL    HW231809   2.223   5.389   1.977
10304SOL     OW31810   5.182   1.193   2.828
10304SOL    HW131811   5.205   1.257   2.901
10304SOL    HW231812   5.265   1.166   2.780
10305SOL     OW31813   0.485   4.859   6.919
10305SOL    HW131814   0.455   4.950   6.947
10305SOL    HW231815   0.547   4.822   6.988
10306SOL     OW31816   4.278   6.527   0.082
10306SOL    HW131817   4.281   6.548   0.179
10306SOL    HW231818   4.193   6.562   0.043
10307SOL     OW31819   1.802   2.377   4.599
10307SOL    HW131820   1.757   2.430   4.527
10307SOL    HW231821   1.899   2.401   4.603
10308SOL     OW31822   2.723   5.268   4.015
10308SOL    HW131823   2.729   5.350   3.958
10308SOL    HW231824   2.798   5.268   4.081
10309SOL     OW31825   6.003   1.166   3.363
10309SOL    HW131826   5.972   1.233   3.430
10309SOL    HW231827   5.950   1.082   3.373
10310SOL     OW31828   4.464   2.746   1.675
10310SOL    HW131829   4.491   2.712   1.585
10310SOL    HW231830   4.545   2.758   1.733
10311SOL     OW31831   0.770   5.461   1.012
10311SOL    HW131832   0.826   5.504   1.082
10311SOL    HW231833   0.827   5.401   0.955
10312SOL     OW31834   2.366   6.228   0.589
10312SOL    HW131835   2.299   6.302   0.588
10312SOL    HW231836   2.367   6.185   0.679
10313SOL     OW31837   3.870   0.147   1.577
10313SOL    HW131838   3.877   0.147   1.677
10313SOL    HW231839   3.852   0.054   1.545
10314SOL     OW31840   6.953   0.407   1.895
10314SOL    HW131841   6.908   0.473   1.954
10314SOL    HW231842   6.898   0.324   1.888
10315SOL     OW31843   6.282   5.478   4.427
10315SOL    HW131844   6.196   5.523   4.454
10315SOL    HW231845   6.266   5.426   4.343
10316SOL     OW31846   6.217   2.165   4.580
10316SOL    HW131847   6.205   2.245   4.521
10316SOL    HW231848   6.279   2.188   4.655
10317SOL     OW31849   3.408   6.322   6.296
10317SOL    HW131850   3.430   6.381   6.219
10317SOL    HW231851   3.350   6.246   6.265
10318SOL     OW31852   4.685   6.332   0.096
10318SOL    HW131853   4.725   6.242   0.114
10318SOL    HW231854   4.752   6.391   0.052
10319SOL     OW31855   1.975   2.722   5.501
10319SOL    HW131856   1.965   2.649   5.569
10319SOL    HW231857   2.018   2.685   5.419
10320SOL     OW31858   0.595   0.675   1.317
10320SOL    HW131859   0.598   0.588   1.269
10320SOL    HW231860   0.652   0.742   1.269
10321SOL     OW31861   4.257   0.638   3.686
10321SOL    HW131862   4.188   0.622   3.616
10321SOL    HW231863   4.215   0.634   3.776
10322SOL     OW31864   6.018   5.780   6.134
10322SOL    HW131865   5.921   5.783   6.159
10322SOL    HW231866   6.038   5.856   6.071
10323SOL     OW31867   6.398   3.990   5.571
10323SOL    HW131868   6.497   3.991   5.554
10323SOL    HW231869   6.367   3.896   5.584
10324SOL     OW31870   2.982   3.200   3.289
10324SOL    HW131871   2.914   3.134   3.322
10324SOL    HW231872   3.072   3.173   3.322
10325SOL     OW31873   6.469   4.258   3.162
10325SOL    HW131874   6.429   4.201   3.234
10325SOL    HW231875   6.555   4.217   3.130
10326SOL     OW31876   4.091   2.834   6.990
10326SOL    HW131877   4.182   2.794   6.976
10326SOL    HW231878   4.059   2.813   0.057
10327SOL     OW31879   2.625   1.423   1.857
10327SOL    HW131880   2.609   1.471   1.943
10327SOL    HW231881   2.645   1.490   1.785
10328SOL     OW31882   6.425   3.464   1.655
10328SOL    HW131883   6.427   3.563   1.672
10328SOL    HW231884   6.367   3.420   1.722
10329SOL     OW31885   3.702   0.079   4.302
10329SOL    HW131886   3.730   0.157   4.246
10329SOL    HW231887   3.617   0.102   4.351
10330SOL     OW31888   3.662   5.153   2.492
10330SOL    HW131889   3.580   5.186   2.538
10330SOL    HW231890   3.676   5.056   2.513
10331SOL     OW31891   6.816   0.493   3.358
10331SOL    HW131892   6.754   0.556   3.403
10331SOL    HW231893   6.904   0.537   3.343
10332SOL     OW31894   6.027   1.937   0.591
10332SOL    HW131895   6.046   1.879   0.670
10332SOL    HW231896   6.002   2.028   0.622
10333SOL     OW31897   6.537   4.450   4.468
10333SOL    HW131898   6.481   4.508   4.527
10333SOL    HW231899   6.487   4.434   4.382
10334SOL     OW31900   2.099   5.666   4.169
10334SOL    HW131901   2.106   5.684   4.071
10334SOL    HW231902   2.014   5.616   4.189
10335SOL     OW31903   2.387   4.877   0.247
10335SOL    HW131904   2.435   4.963   0.230
10335SOL    HW231905   2.289   4.894   0.252
10336SOL     OW31906   5.979   6.346   3.432
10336SOL    HW131907   5.926   6.267   3.401
10336SOL    HW231908   5.922   6.428   3.428
10337SOL     OW31909   6.555   6.913   5.829
10337SOL    HW131910   6.647   6.876   5.818
10337SOL    HW231911   6.512   6.923   5.739
10338SOL     OW31912   3.070   6.707   1.742
10338SOL    HW131913   2.971   6.725   1.742
10338SOL    HW231914   3.099   6.689   1.648
10339SOL     OW31915   3.647   5.264   0.618
10339SOL    HW131916   3.743   5.236   0.614
10339SOL    HW231917   3.605   5.251   0.528
10340SOL     OW31918   1.744   5.614   0.459
10340SOL    HW131919   1.659   5.666   0.458
10340SOL    HW231920   1.734   5.532   0.402
10341SOL     OW31921   2.190   3.303   1.720
10341SOL    HW131922   2.256   3.373   1.746
10341SOL    HW231923   2.141   3.272   1.801
10342SOL     OW31924   2.237   5.909   5.773
10342SOL    HW131925   2.284   5.897   5.686
10342SOL    HW231926   2.158   5.848   5.777
10343SOL     OW31927   2.446   3.976   0.484
10343SOL    HW131928   2.410   3.973   0.577
10343SOL    HW231929   2.371   3.961   0.419
10344SOL     OW31930   4.054   3.844   2.074
10344SOL    HW131931   4.116   3.808   2.004
10344SOL    HW231932   3.968   3.871   2.030
10345SOL     OW31933   1.374   0.636   6.309
10345SOL    HW131934   1.470   0.642   6.283
10345SOL    HW231935   1.358   0.549   6.356
10346SOL     OW31936   6.376   1.475   1.085
10346SOL    HW131937   6.344   1.382   1.104
10346SOL    HW231938   6.383   1.525   1.171
10347SOL     OW31939   5.628   2.491   2.024
10347SOL    HW131940   5.551   2.427   2.016
10347SOL    HW231941   5.713   2.442   2.003
10348SOL     OW31942   6.739   1.102   6.688
10348SOL    HW131943   6.796   1.115   6.606
10348SOL    HW231944   6.798   1.094   6.768
10349SOL     OW31945   6.999   1.499   6.947
10349SOL    HW131946   0.031   1.422   6.977
10349SOL    HW231947   0.031   1.565   6.897
10350SOL     OW31948   2.828   6.235   4.695
10350SOL    HW131949   2.820   6.184   4.781
10350SOL    HW231950   2.908   6.296   4.701
10351SOL     OW31951   5.909   5.413   6.030
10351SOL    HW131952   5.955   5.326   6.049
10351SOL    HW231953   5.894   5.462   6.116
10352SOL     OW31954   5.850   1.872   6.717
10352SOL    HW131955   5.758   1.837   6.731
10352SOL    HW231956   5.883   1.845   6.626
10353SOL     OW31957   6.965   2.623   4.438
10353SOL    HW131958   6.975   2.670   4.351
10353SOL    HW231959   0.009   2.550   4.445
10354SOL     OW31960   0.461   2.184   1.521
10354SOL    HW131961   0.376   2.140   1.551
10354SOL    HW231962   0.439   2.259   1.458
10355SOL     OW31963   1.315   0.593   1.092
10355SOL    HW131964   1.240   0.567   1.154
10355SOL    HW231965   1.362   0.510   1.062
10356SOL     OW31966   6.810   3.717   5.702
10356SOL    HW131967   6.744   3.723   5.627
10356SOL    HW231968   6.789   3.637   5.759
10357SOL     OW31969   4.288   2.597   6.086
10357SOL    HW131970   4.300   2.691   6.118
10357SOL    HW231971   4.316   2.534   6.158
10358SOL     OW31972   0.782   3.190   3.816
10358SOL    HW131973   0.757   3.283   3.843
10358SOL    HW231974   0.862   3.160   3.868
10359SOL     OW31975   5.146   2.202   2.276
10359SOL    HW131976   5.215   2.142   2.237
10359SOL    HW231977   5.070   2.213   2.211
10360SOL     OW31978   5.422   5.972   1.905
10360SOL    HW131979   5.381   5.965   1.996
10360SOL    HW231980   5.521   5.982   1.914
10361SOL     OW31981   2.589   1.150   2.464
10361SOL    HW131982   2.640   1.147   2.378
10361SOL    HW231983   2.500   1.192   2.448
10362SOL     OW31984   0.709   5.078   3.186
10362SOL    HW131985   0.794   5.056   3.233
10362SOL    HW231986   0.721   5.063   3.088
10363SOL     OW31987   5.561   2.531   1.420
10363SOL    HW131988   5.502   2.463   1.375
10363SOL    HW231989   5.505   2.590   1.478
10364SOL     OW31990   4.554   4.165   1.385
10364SOL    HW131991   4.515   4.200   1.470
10364SOL    HW231992   4.516   4.075   1.365
10365SOL     OW31993   5.948   4.464   6.835
10365SOL    HW131994   6.026   4.505   6.883
10365SOL    HW231995   5.866   4.472   6.893
10366SOL     OW31996   3.036   6.686   3.747
10366SOL    HW131997   3.118   6.696   3.692
10366SOL    HW231998   3.057   6.634   3.829
10367SOL     OW31999   0.242   1.665   1.449
10367SOL    HW132000   0.142   1.663   1.445
10367SOL    HW232001   0.278   1.578   1.415
10368SOL     OW32002   1.818   1.270   2.251
10368SOL    HW132003   1.827   1.197   2.319
10368SOL    HW232004   1.788   1.232   2.164
10369SOL     OW32005   2.960   6.410   5.999
10369SOL    HW132006   3.017   6.483   5.962
10369SOL    HW232007   2.869   6.414   5.958
10370SOL     OW32008   6.466   1.418   5.115
10370SOL    HW132009   6.546   1.360   5.102
10370SOL    HW232010   6.471   1.496   5.053
10371SOL     OW32011   2.304   6.524   4.446
10371SOL    HW132012   2.379   6.590   4.454
10371SOL    HW232013   2.218   6.573   4.432
10372SOL     OW32014   2.271   0.890   0.513
10372SOL    HW132015   2.336   0.886   0.436
10372SOL    HW232016   2.241   0.985   0.525
10373SOL     OW32017   0.973   6.826   5.168
10373SOL    HW132018   0.911   6.862   5.098
10373SOL    HW232019   1.062   6.871   5.160
10374SOL     OW32020   3.893   0.542   3.734
10374SOL    HW132021   3.820   0.513   3.796
10374SOL    HW232022   3.871   0.513   3.641
10375SOL     OW32023   2.559   2.227   6.035
10375SOL    HW132024   2.616   2.236   5.953
10375SOL    HW232025   2.551   2.315   6.080
10376SOL     OW32026   1.327   6.219   4.269
10376SOL    HW132027   1.402   6.218   4.334
10376SOL    HW232028   1.242   6.196   4.316
10377SOL     OW32029   0.089   0.637   2.065
10377SOL    HW132030   0.103   0.728   2.104
10377SOL    HW232031   0.098   0.642   1.966
10378SOL     OW32032   5.952   6.020   5.413
10378SOL    HW132033   5.894   6.101   5.426
10378SOL    HW232034   6.021   6.040   5.343
10379SOL     OW32035   3.501   5.827   4.516
10379SOL    HW132036   3.408   5.789   4.515
10379SOL    HW232037   3.522   5.863   4.426
10380SOL     OW32038   1.127   2.609   4.773
10380SOL    HW132039   1.041   2.659   4.786
10380SOL    HW232040   1.134   2.536   4.842
10381SOL     OW32041   4.557   3.646   1.153
10381SOL    HW132042   4.514   3.716   1.210
10381SOL    HW232043   4.549   3.557   1.197
10382SOL     OW32044   2.903   5.502   1.683
10382SOL    HW132045   2.875   5.412   1.650
10382SOL    HW232046   2.957   5.548   1.612
10383SOL     OW32047   0.886   4.450   0.745
10383SOL    HW132048   0.937   4.390   0.683
10383SOL    HW232049   0.913   4.431   0.840
10384SOL     OW32050   6.799   6.839   0.861
10384SOL    HW132051   6.780   6.743   0.841
10384SOL    HW232052   6.854   6.846   0.944
10385SOL     OW32053   3.873   5.919   6.642
10385SOL    HW132054   3.893   5.946   6.735
10385SOL    HW232055   3.852   6.000   6.587
10386SOL     OW32056   0.456   1.540   5.895
10386SOL    HW132057   0.547   1.518   5.930
10386SOL    HW232058   0.460   1.548   5.796
10387SOL     OW32059   4.885   2.810   3.039
10387SOL    HW132060   4.980   2.802   3.009
10387SOL    HW232061   4.883   2.839   3.135
10388SOL     OW32062   1.458   5.706   1.772
10388SOL    HW132063   1.509   5.622   1.755
10388SOL    HW232064   1.461   5.729   1.869
10389SOL     OW32065   6.334   4.446   0.958
10389SOL    HW132066   6.237   4.448   0.982
10389SOL    HW232067   6.368   4.352   0.963
10390SOL     OW32068   2.367   3.535   0.570
10390SOL    HW132069   2.283   3.563   0.524
10390SOL    HW232070   2.415   3.616   0.604
10391SOL     OW32071   0.026   6.102   4.051
10391SOL    HW132072   6.968   6.150   4.020
10391SOL    HW232073   0.051   6.032   3.984
10392SOL     OW32074   6.055   4.671   5.706
10392SOL    HW132075   6.111   4.588   5.719
10392SOL    HW232076   5.961   4.644   5.685
10393SOL     OW32077   2.306   2.740   2.889
10393SOL    HW132078   2.257   2.750   2.802
10393SOL    HW232079   2.268   2.803   2.956
10394SOL     OW32080   2.330   5.167   5.627
10394SOL    HW132081   2.295   5.180   5.535
10394SOL    HW232082   2.344   5.069   5.645
10395SOL     OW32083   0.587   0.983   1.690
10395SOL    HW132084   0.671   0.930   1.682
10395SOL    HW232085   0.589   1.037   1.774
10396SOL     OW32086   3.459   1.109   4.143
10396SOL    HW132087   3.521   1.160   4.082
10396SOL    HW232088   3.514   1.056   4.208
10397SOL     OW32089   3.466   1.179   4.446
10397SOL    HW132090   3.520   1.207   4.367
10397SOL    HW232091   3.507   1.214   4.530
10398SOL     OW32092   5.805   2.238   0.972
10398SOL    HW132093   5.789   2.141   0.991
10398SOL    HW232094   5.721   2.289   0.986
10399SOL     OW32095   4.727   1.874   3.302
10399SOL    HW132096   4.672   1.795   3.278
10399SOL    HW232097   4.734   1.935   3.223
10400SOL     OW32098   4.212   5.933   6.990
10400SOL    HW132099   4.221   5.934   6.890
10400SOL    HW232100   4.187   6.025   7.021
10401SOL     OW32101   0.495   6.377   2.474
10401SOL    HW132102   0.564   6.444   2.501
10401SOL    HW232103   0.512   6.346   2.381
10402SOL     OW32104   0.258   1.696   6.035
10402SOL    HW132105   0.164   1.662   6.039
10402SOL    HW232106   0.315   1.629   5.987
10403SOL     OW32107   4.495   2.530   3.227
10403SOL    HW132108   4.541   2.570   3.148
10403SOL    HW232109   4.524   2.576   3.311
10404SOL     OW32110   5.965   6.104   4.248
10404SOL    HW132111   5.962   6.033   4.319
10404SOL    HW232112   5.899   6.081   4.176
10405SOL     OW32113   1.443   6.303   4.585
10405SOL    HW132114   1.381   6.318   4.662
10405SOL    HW232115   1.436   6.379   4.520
10406SOL     OW32116   1.912   3.020   3.876
10406SOL    HW132117   1.884   2.978   3.962
10406SOL    HW232118   1.948   3.111   3.894
10407SOL     OW32119   2.711   6.895   6.216
10407SOL    HW132120   2.714   6.833   6.138
10407SOL    HW232121   2.801   6.901   6.259
10408SOL     OW32122   4.607   0.548   1.398
10408SOL    HW132123   4.672   0.616   1.364
10408SOL    HW232124   4.657   0.472   1.439
10409SOL     OW32125   6.757   4.849   1.148
10409SOL    HW132126   6.854   4.873   1.150
10409SOL    HW232127   6.722   4.843   1.241
10410SOL     OW32128   5.233   2.052   1.874
10410SOL    HW132129   5.270   2.053   1.967
10410SOL    HW232130   5.162   2.122   1.866
10411SOL     OW32131   2.807   6.417   3.531
10411SOL    HW132132   2.818   6.354   3.608
10411SOL    HW232133   2.772   6.505   3.564
10412SOL     OW32134   0.329   1.381   0.881
10412SOL    HW132135   0.399   1.397   0.811
10412SOL    HW232136   0.274   1.464   0.892
10413SOL     OW32137   6.776   3.039   1.393
10413SOL    HW132138   6.685   3.082   1.393
10413SOL    HW232139   6.780   2.969   1.464
10414SOL     OW32140   3.284   5.140   5.486
10414SOL    HW132141   3.275   5.072   5.413
10414SOL    HW232142   3.301   5.094   5.573
10415SOL     OW32143   1.369   4.000   4.268
10415SOL    HW132144   1.452   4.039   4.228
10415SOL    HW232145   1.372   3.901   4.258
10416SOL     OW32146   5.816   0.082   5.426
10416SOL    HW132147   5.809   0.028   5.509
10416SOL    HW232148   5.888   0.045   5.368
10417SOL     OW32149   3.234   4.869   3.886
10417SOL    HW132150   3.322   4.901   3.920
10417SOL    HW232151   3.215   4.778   3.922
10418SOL     OW32152   6.322   4.208   5.745
10418SOL    HW132153   6.279   4.169   5.826
10418SOL    HW232154   6.350   4.134   5.684
10419SOL     OW32155   3.353   6.839   6.348
10419SOL    HW132156   3.349   6.744   6.316
10419SOL    HW232157   3.262   6.879   6.342
10420SOL     OW32158   0.150   3.303   4.104
10420SOL    HW132159   0.092   3.377   4.137
10420SOL    HW232160   0.123   3.217   4.146
10421SOL     OW32161   1.196   2.744   3.912
10421SOL    HW132162   1.178   2.658   3.865
10421SOL    HW232163   1.178   2.733   4.010
10422SOL     OW32164   6.208   2.957   4.689
10422SOL    HW132165   6.166   3.047   4.682
10422SOL    HW232166   6.148   2.888   4.648
10423SOL     OW32167   5.615   5.247   6.056
10423SOL    HW132168   5.608   5.331   6.002
10423SOL    HW232169   5.555   5.254   6.136
10424SOL     OW32170   3.974   3.170   1.217
10424SOL    HW132171   3.930   3.084   1.241
10424SOL    HW232172   4.070   3.168   1.244
10425SOL     OW32173   1.512   6.987   2.427
10425SOL    HW132174   1.534   0.005   2.515
10425SOL    HW232175   1.417   7.008   2.403
10426SOL     OW32176   5.491   4.569   0.277
10426SOL    HW132177   5.421   4.538   0.213
10426SOL    HW232178   5.468   4.660   0.310
10427SOL     OW32179   4.137   1.257   6.849
10427SOL    HW132180   4.232   1.272   6.876
10427SOL    HW232181   4.076   1.292   6.921
10428SOL     OW32182   3.636   0.858   3.865
10428SOL    HW132183   3.733   0.846   3.883
10428SOL    HW232184   3.612   0.809   3.781
10429SOL     OW32185   0.089   3.918   1.981
10429SOL    HW132186   0.042   4.007   1.983
10429SOL    HW232187   0.022   3.845   1.967
10430SOL     OW32188   5.070   0.044   4.774
10430SOL    HW132189   5.083   0.105   4.695
10430SOL    HW232190   5.152   7.013   4.787
10431SOL     OW32191   2.486   5.916   4.720
10431SOL    HW132192   2.410   5.852   4.723
10431SOL    HW232193   2.503   5.943   4.625
10432SOL     OW32194   6.011   0.185   4.655
10432SOL    HW132195   6.048   0.245   4.727
10432SOL    HW232196   6.058   0.204   4.569
10433SOL     OW32197   1.296   6.117   2.380
10433SOL    HW132198   1.292   6.027   2.423
10433SOL    HW232199   1.256   6.111   2.288
10434SOL     OW32200   3.775   5.863   2.458
10434SOL    HW132201   3.716   5.892   2.383
10434SOL    HW232202   3.863   5.911   2.452
10435SOL     OW32203   0.838   1.353   5.399
10435SOL    HW132204   0.831   1.450   5.421
10435SOL    HW232205   0.873   1.303   5.478
10436SOL     OW32206   6.312   4.638   5.475
10436SOL    HW132207   6.215   4.618   5.465
10436SOL    HW232208   6.364   4.591   5.404
10437SOL     OW32209   4.593   4.122   6.077
10437SOL    HW132210   4.664   4.090   6.014
10437SOL    HW232211   4.626   4.114   6.171
10438SOL     OW32212   6.741   6.681   6.748
10438SOL    HW132213   6.808   6.608   6.733
10438SOL    HW232214   6.739   6.741   6.668
10439SOL     OW32215   4.009   1.792   4.754
10439SOL    HW132216   4.099   1.798   4.710
10439SOL    HW232217   3.940   1.832   4.694
10440SOL     OW32218   0.697   6.316   0.807
10440SOL    HW132219   0.747   6.399   0.780
10440SOL    HW232220   0.756   6.257   0.861
10441SOL     OW32221   4.101   1.495   1.375
10441SOL    HW132222   4.059   1.507   1.465
10441SOL    HW232223   4.189   1.449   1.385
10442SOL     OW32224   4.153   6.520   6.614
10442SOL    HW132225   4.225   6.579   6.580
10442SOL    HW232226   4.106   6.476   6.538
10443SOL     OW32227   4.881   3.659   4.050
10443SOL    HW132228   4.908   3.592   3.981
10443SOL    HW232229   4.841   3.612   4.128
10444SOL     OW32230   4.397   5.642   3.605
10444SOL    HW132231   4.377   5.633   3.703
10444SOL    HW232232   4.398   5.738   3.579
10445SOL     OW32233   0.670   4.562   4.083
10445SOL    HW132234   0.634   4.475   4.050
10445SOL    HW232235   0.691   4.556   4.180
10446SOL     OW32236   1.842   3.197   5.978
10446SOL    HW132237   1.813   3.112   5.935
10446SOL    HW232238   1.932   3.184   6.021
10447SOL     OW32239   0.388   1.146   2.205
10447SOL    HW132240   0.372   1.190   2.293
10447SOL    HW232241   0.335   1.193   2.134
10448SOL     OW32242   4.652   0.757   2.448
10448SOL    HW132243   4.620   0.850   2.431
10448SOL    HW232244   4.573   0.696   2.460
10449SOL     OW32245   1.728   5.495   4.974
10449SOL    HW132246   1.769   5.586   4.976
10449SOL    HW232247   1.634   5.501   4.939
10450SOL     OW32248   0.758   1.515   0.810
10450SOL    HW132249   0.715   1.591   0.859
10450SOL    HW232250   0.856   1.532   0.802
10451SOL     OW32251   2.248   5.781   2.529
10451SOL    HW132252   2.329   5.726   2.548
10451SOL    HW232253   2.229   5.842   2.606
10452SOL     OW32254   6.751   3.396   2.016
10452SOL    HW132255   6.689   3.382   2.093
10452SOL    HW232256   6.828   3.333   2.022
10453SOL     OW32257   4.092   0.005   1.388
10453SOL    HW132258   4.063   6.938   1.418
10453SOL    HW232259   4.156   0.044   1.454
10454SOL     OW32260   4.721   3.286   0.477
10454SOL    HW132261   4.711   3.187   0.473
10454SOL    HW232262   4.807   3.313   0.434
10455SOL     OW32263   5.956   5.923   3.651
10455SOL    HW132264   6.050   5.937   3.681
10455SOL    HW232265   5.948   5.946   3.554
10456SOL     OW32266   1.985   5.653   0.308
10456SOL    HW132267   2.010   5.561   0.280
10456SOL    HW232268   1.916   5.649   0.380
10457SOL     OW32269   3.482   3.170   1.458
10457SOL    HW132270   3.472   3.157   1.557
10457SOL    HW232271   3.578   3.191   1.437
10458SOL     OW32272   6.427   0.504   6.814
10458SOL    HW132273   6.488   0.431   6.846
10458SOL    HW232274   6.481   0.580   6.779
10459SOL     OW32275   4.853   5.883   1.792
10459SOL    HW132276   4.771   5.875   1.849
10459SOL    HW232277   4.930   5.911   1.849
10460SOL     OW32278   0.734   4.241   2.371
10460SOL    HW132279   0.696   4.319   2.421
10460SOL    HW232280   0.806   4.198   2.426
10461SOL     OW32281   6.843   5.300   5.874
10461SOL    HW132282   6.768   5.366   5.874
10461SOL    HW232283   6.927   5.346   5.845
10462SOL     OW32284   5.866   1.392   3.499
10462SOL    HW132285   5.834   1.337   3.576
10462SOL    HW232286   5.788   1.434   3.453
10463SOL     OW32287   4.562   2.956   5.966
10463SOL    HW132288   4.526   3.048   5.980
10463SOL    HW232289   4.599   2.948   5.874
10464SOL     OW32290   6.563   6.690   1.565
10464SOL    HW132291   6.577   6.615   1.630
10464SOL    HW232292   6.605   6.774   1.602
10465SOL     OW32293   6.204   5.305   0.843
10465SOL    HW132294   6.251   5.268   0.763
10465SOL    HW232295   6.180   5.400   0.827
10466SOL     OW32296   4.311   5.031   6.050
10466SOL    HW132297   4.378   4.992   5.987
10466SOL    HW232298   4.228   4.975   6.049
10467SOL     OW32299   2.924   1.166   6.949
10467SOL    HW132300   2.847   1.165   6.884
10467SOL    HW232301   2.958   1.259   6.960
10468SOL     OW32302   3.861   5.258   3.148
10468SOL    HW132303   3.874   5.356   3.162
10468SOL    HW232304   3.784   5.226   3.204
10469SOL     OW32305   4.152   4.408   5.639
10469SOL    HW132306   4.063   4.452   5.640
10469SOL    HW232307   4.142   4.312   5.667
10470SOL     OW32308   2.304   2.600   3.902
10470SOL    HW132309   2.364   2.607   3.823
10470SOL    HW232310   2.232   2.533   3.884
10471SOL     OW32311   2.723   1.929   1.201
10471SOL    HW132312   2.724   1.864   1.125
10471SOL    HW232313   2.804   1.988   1.194
10472SOL     OW32314   4.093   5.499   0.406
10472SOL    HW132315   4.097   5.403   0.377
10472SOL    HW232316   4.000   5.521   0.434
10473SOL     OW32317   6.733   0.410   6.355
10473SOL    HW132318   6.757   0.332   6.296
10473SOL    HW232319   6.785   0.404   6.440
10474SOL     OW32320   3.413   1.973   4.361
10474SOL    HW132321   3.448   2.010   4.447
10474SOL    HW232322   3.316   1.995   4.352
10475SOL     OW32323   4.579   6.608   1.402
10475SOL    HW132324   4.509   6.671   1.437
10475SOL    HW232325   4.539   6.517   1.393
10476SOL     OW32326   6.990   5.890   0.200
10476SOL    HW132327   0.034   5.825   0.233
10476SOL    HW232328   6.998   5.899   0.100
10477SOL     OW32329   0.078   1.746   4.657
10477SOL    HW132330   0.021   1.716   4.580
10477SOL    HW232331   0.084   1.846   4.655
10478SOL     OW32332   6.971   0.598   1.162
10478SOL    HW132333   7.006   0.507   1.141
10478SOL    HW232334   0.013   0.667   1.132
10479SOL     OW32335   0.229   2.420   2.364
10479SOL    HW132336   0.140   2.373   2.366
10479SOL    HW232337   0.237   2.481   2.443
10480SOL     OW32338   6.490   0.047   1.876
10480SOL    HW132339   6.527   6.993   1.826
10480SOL    HW232340   6.517   0.132   1.830
10481SOL     OW32341   2.412   6.773   4.449
10481SOL    HW132342   2.505   6.798   4.475
10481SOL    HW232343   2.360   6.856   4.429
10482SOL     OW32344   6.127   5.153   4.689
10482SOL    HW132345   6.045   5.179   4.639
10482SOL    HW232346   6.208   5.188   4.641
10483SOL     OW32347   6.600   4.752   6.837
10483SOL    HW132348   6.632   4.666   6.799
10483SOL    HW232349   6.540   4.734   6.915
10484SOL     OW32350   5.854   0.966   1.987
10484SOL    HW132351   5.830   0.883   2.036
10484SOL    HW232352   5.771   1.018   1.966
10485SOL     OW32353   3.181   3.813   1.236
10485SOL    HW132354   3.224   3.847   1.152
10485SOL    HW232355   3.171   3.888   1.300
10486SOL     OW32356   6.723   0.762   0.067
10486SOL    HW132357   6.738   0.687   0.002
10486SOL    HW232358   6.692   0.843   0.018
10487SOL     OW32359   4.682   1.559   2.583
10487SOL    HW132360   4.768   1.519   2.552
10487SOL    HW232361   4.640   1.499   2.652
10488SOL     OW32362   2.963   2.018   5.493
10488SOL    HW132363   2.975   2.113   5.465
10488SOL    HW232364   2.889   1.977   5.439
10489SOL     OW32365   0.235   0.033   4.533
10489SOL    HW132366   0.157   6.995   4.539
10489SOL    HW232367   0.208   0.116   4.485
10490SOL     OW32368   5.960   1.633   0.727
10490SOL    HW132369   6.027   1.641   0.801
10490SOL    HW232370   5.990   1.563   0.663
10491SOL     OW32371   2.887   2.082   5.789
10491SOL    HW132372   2.917   2.056   5.697
10491SOL    HW232373   2.844   2.004   5.833
10492SOL     OW32374   5.500   5.372   0.625
10492SOL    HW132375   5.569   5.340   0.560
10492SOL    HW232376   5.422   5.408   0.575
10493SOL     OW32377   3.229   6.803   1.936
10493SOL    HW132378   3.202   6.757   1.852
10493SOL    HW232379   3.182   6.890   1.944
10494SOL     OW32380   5.507   4.525   6.057
10494SOL    HW132381   5.535   4.621   6.065
10494SOL    HW232382   5.491   4.487   6.148
10495SOL     OW32383   0.947   6.408   1.198
10495SOL    HW132384   0.964   6.435   1.293
10495SOL    HW232385   1.031   6.367   1.161
10496SOL     OW32386   6.122   3.725   6.030
10496SOL    HW132387   6.057   3.745   5.956
10496SOL    HW232388   6.072   3.704   6.113
10497SOL     OW32389   2.133   0.012   1.584
10497SOL    HW132390   2.106   0.087   1.643
10497SOL    HW232391   2.083   0.019   1.497
10498SOL     OW32392   5.102   5.173   0.823
10498SOL    HW132393   5.128   5.077   0.810
10498SOL    HW232394   5.075   5.213   0.735
10499SOL     OW32395   4.815   0.448   2.357
10499SOL    HW132396   4.834   0.540   2.324
10499SOL    HW232397   4.828   0.444   2.456
10500SOL     OW32398   6.114   1.451   5.847
10500SOL    HW132399   6.106   1.439   5.946
10500SOL    HW232400   6.106   1.362   5.802
10501SOL     OW32401   2.064   5.561   2.348
10501SOL    HW132402   2.037   5.549   2.252
10501SOL    HW232403   2.129   5.488   2.373
10502SOL     OW32404   2.650   2.090   1.662
10502SOL    HW132405   2.588   2.131   1.595
10502SOL    HW232406   2.713   2.160   1.696
10503SOL     OW32407   5.221   2.907   0.937
10503SOL    HW132408   5.272   2.908   0.851
10503SOL    HW232409   5.280   2.940   1.011
10504SOL     OW32410   1.569   2.909   5.696
10504SOL    HW132411   1.518   2.887   5.612
10504SOL    HW232412   1.534   2.853   5.771
10505SOL     OW32413   5.355   5.170   0.986
10505SOL    HW132414   5.258   5.153   0.964
10505SOL    HW232415   5.412   5.116   0.924
10506SOL     OW32416   0.177   3.715   0.129
10506SOL    HW132417   0.115   3.768   0.071
10506SOL    HW232418   0.247   3.671   0.073
10507SOL     OW32419   1.694   6.018   0.878
10507SOL    HW132420   1.638   5.965   0.943
10507SOL    HW232421   1.780   6.045   0.922
10508SOL     OW32422   6.746   5.899   4.938
10508SOL    HW132423   6.736   5.992   4.973
10508SOL    HW232424   6.837   5.888   4.897
10509SOL     OW32425   6.935   5.453   4.953
10509SOL    HW132426   6.840   5.447   4.923
10509SOL    HW232427   6.942   5.426   5.049
10510SOL     OW32428   4.890   6.458   7.021
10510SOL    HW132429   4.965   6.392   0.002
10510SOL    HW232430   4.911   6.526   6.951
10511SOL     OW32431   2.588   1.436   2.375
10511SOL    HW132432   2.620   1.495   2.300
10511SOL    HW232433   2.591   1.487   2.461
10512SOL     OW32434   4.241   0.431   5.296
10512SOL    HW132435   4.232   0.484   5.380
10512SOL    HW232436   4.337   0.423   5.271
10513SOL     OW32437   6.572   3.077   3.526
10513SOL    HW132438   6.495   3.082   3.590
10513SOL    HW232439   6.537   3.068   3.432
10514SOL     OW32440   0.674   3.376   0.897
10514SOL    HW132441   0.667   3.374   0.997
10514SOL    HW232442   0.602   3.319   0.858
10515SOL     OW32443   1.240   4.012   3.949
10515SOL    HW132444   1.142   3.992   3.945
10515SOL    HW232445   1.280   3.970   4.030
10516SOL     OW32446   3.343   1.964   0.689
10516SOL    HW132447   3.412   1.897   0.660
10516SOL    HW232448   3.347   2.043   0.628
10517SOL     OW32449   0.523   2.940   0.828
10517SOL    HW132450   0.425   2.956   0.844
10517SOL    HW232451   0.559   3.014   0.771
10518SOL     OW32452   0.054   5.924   0.808
10518SOL    HW132453   7.004   5.972   0.761
10518SOL    HW232454   0.049   5.944   0.906
10519SOL     OW32455   3.138   3.666   0.951
10519SOL    HW132456   3.163   3.758   0.981
10519SOL    HW232457   3.061   3.634   1.005
10520SOL     OW32458   0.877   2.258   6.039
10520SOL    HW132459   0.969   2.276   6.074
10520SOL    HW232460   0.863   2.160   6.032
10521SOL     OW32461   6.435   5.192   1.556
10521SOL    HW132462   6.400   5.098   1.563
10521SOL    HW232463   6.509   5.205   1.622
10522SOL     OW32464   0.499   1.177   4.279
10522SOL    HW132465   0.458   1.246   4.220
10522SOL    HW232466   0.499   1.088   4.232
10523SOL     OW32467   0.789   4.624   3.088
10523SOL    HW132468   0.861   4.684   3.124
10523SOL    HW232469   0.822   4.576   3.007
10524SOL     OW32470   0.734   6.249   4.000
10524SOL    HW132471   0.771   6.340   3.982
10524SOL    HW232472   0.668   6.225   3.929
10525SOL     OW32473   3.834   0.546   5.362
10525SOL    HW132474   3.798   0.577   5.450
10525SOL    HW232475   3.843   0.446   5.363
10526SOL     OW32476   0.999   6.876   2.846
10526SOL    HW132477   0.949   6.821   2.913
10526SOL    HW232478   1.003   6.828   2.759
10527SOL     OW32479   1.227   0.792   5.276
10527SOL    HW132480   1.209   0.757   5.368
10527SOL    HW232481   1.253   0.716   5.216
10528SOL     OW32482   1.361   3.814   5.765
10528SOL    HW132483   1.391   3.766   5.848
10528SOL    HW232484   1.365   3.751   5.687
10529SOL     OW32485   2.765   6.405   4.348
10529SOL    HW132486   2.753   6.310   4.377
10529SOL    HW232487   2.857   6.436   4.373
10530SOL     OW32488   1.163   0.305   6.392
10530SOL    HW132489   1.145   0.299   6.294
10530SOL    HW232490   1.114   0.231   6.439
10531SOL     OW32491   1.768   2.474   4.127
10531SOL    HW132492   1.701   2.417   4.175
10531SOL    HW232493   1.724   2.516   4.047
10532SOL     OW32494   0.837   6.937   6.250
10532SOL    HW132495   0.753   6.890   6.277
10532SOL    HW232496   0.823   6.983   6.162
10533SOL     OW32497   2.997   6.820   3.443
10533SOL    HW132498   3.073   6.819   3.378
10533SOL    HW232499   3.012   6.891   3.511
10534SOL     OW32500   6.350   5.302   2.316
10534SOL    HW132501   6.363   5.400   2.302
10534SOL    HW232502   6.252   5.282   2.320
10535SOL     OW32503   1.679   1.773   2.117
10535SOL    HW132504   1.665   1.740   2.211
10535SOL    HW232505   1.618   1.850   2.099
10536SOL     OW32506   4.552   0.717   4.085
10536SOL    HW132507   4.496   0.645   4.044
10536SOL    HW232508   4.534   0.722   4.183
10537SOL     OW32509   4.440   6.293   4.524
10537SOL    HW132510   4.391   6.366   4.572
10537SOL    HW232511   4.520   6.332   4.478
10538SOL     OW32512   6.543   3.706   1.339
10538SOL    HW132513   6.509   3.612   1.344
10538SOL    HW232514   6.611   3.713   1.266
10539SOL     OW32515   6.984   4.984   0.353
10539SOL    HW132516   6.977   4.953   0.259
10539SOL    HW232517   6.972   4.906   0.415
10540SOL     OW32518   1.712   3.318   5.741
10540SOL    HW132519   1.762   3.277   5.817
10540SOL    HW232520   1.748   3.408   5.721
10541SOL     OW32521   3.612   4.097   2.033
10541SOL    HW132522   3.612   4.100   2.133
10541SOL    HW232523   3.518   4.093   1.999
10542SOL     OW32524   0.053   1.447   5.513
10542SOL    HW132525   0.013   1.463   5.604
10542SOL    HW232526   7.004   1.427   5.448
10543SOL     OW32527   0.250   1.869   4.950
10543SOL    HW132528   0.315   1.938   4.982
10543SOL    HW232529   0.218   1.894   4.859
10544SOL     OW32530   2.786   6.745   1.776
10544SOL    HW132531   2.781   6.823   1.838
10544SOL    HW232532   2.735   6.668   1.815
10545SOL     OW32533   0.691   2.139   1.084
10545SOL    HW132534   0.743   2.195   1.149
10545SOL    HW232535   0.730   2.047   1.081
10546SOL     OW32536   1.688   0.022   0.661
10546SOL    HW132537   1.778   7.017   0.695
10546SOL    HW232538   1.674   7.008   0.569
10547SOL     OW32539   5.262   3.022   3.376
10547SOL    HW132540   5.224   3.109   3.410
10547SOL    HW232541   5.193   2.950   3.386
10548SOL     OW32542   5.926   4.142   4.646
10548SOL    HW132543   5.949   4.045   4.639
10548SOL    HW232544   6.010   4.195   4.661
10549SOL     OW32545   0.682   0.718   1.664
10549SOL    HW132546   0.725   0.643   1.614
10549SOL    HW232547   0.608   0.757   1.608
10550SOL     OW32548   5.050   6.843   3.496
10550SOL    HW132549   5.133   6.800   3.462
10550SOL    HW232550   5.059   6.857   3.595
10551SOL     OW32551   1.975   2.502   6.556
10551SOL    HW132552   1.899   2.456   6.509
10551SOL    HW232553   2.029   2.553   6.489
10552SOL     OW32554   2.218   0.906   5.788
10552SOL    HW132555   2.273   0.865   5.715
10552SOL    HW232556   2.276   0.962   5.846
10553SOL     OW32557   0.146   4.422   1.479
10553SOL    HW132558   0.225   4.459   1.431
10553SOL    HW232559   0.155   4.323   1.488
10554SOL     OW32560   5.344   4.840   1.233
10554SOL    HW132561   5.282   4.772   1.271
10554SOL    HW232562   5.438   4.817   1.258
10555SOL     OW32563   2.583   2.566   1.088
10555SOL    HW132564   2.559   2.600   0.997
10555SOL    HW232565   2.500   2.536   1.136
10556SOL     OW32566   1.106   1.462   4.066
10556SOL    HW132567   1.149   1.421   4.146
10556SOL    HW232568   1.165   1.535   4.030
10557SOL     OW32569   2.083   3.137   2.884
10557SOL    HW132570   1.983   3.138   2.890
10557SOL    HW232571   2.112   3.186   2.802
10558SOL     OW32572   3.838   6.603   4.859
10558SOL    HW132573   3.800   6.529   4.915
10558SOL    HW232574   3.927   6.575   4.824
10559SOL     OW32575   4.606   1.400   1.906
10559SOL    HW132576   4.682   1.350   1.864
10559SOL    HW232577   4.520   1.352   1.888
10560SOL     OW32578   4.911   6.693   2.589
10560SOL    HW132579   4.840   6.754   2.554
10560SOL    HW232580   4.889   6.598   2.565
10561SOL     OW32581   3.620   4.476   1.667
10561SOL    HW132582   3.619   4.389   1.618
10561SOL    HW232583   3.534   4.487   1.717
10562SOL     OW32584   3.957   5.399   6.996
10562SOL    HW132585   4.042   5.436   0.008
10562SOL    HW232586   3.969   5.302   6.973
10563SOL     OW32587   0.013   0.874   3.030
10563SOL    HW132588   0.058   0.895   2.944
10563SOL    HW232589   6.940   0.855   3.013
10564SOL     OW32590   5.379   5.924   2.912
10564SOL    HW132591   5.288   5.956   2.886
10564SOL    HW232592   5.448   5.986   2.873
10565SOL     OW32593   0.352   6.880   6.019
10565SOL    HW132594   0.319   6.972   5.999
10565SOL    HW232595   0.445   6.884   6.055
10566SOL     OW32596   3.770   1.961   6.484
10566SOL    HW132597   3.757   2.004   6.394
10566SOL    HW232598   3.768   2.032   6.555
10567SOL     OW32599   2.557   2.447   4.974
10567SOL    HW132600   2.641   2.421   4.927
10567SOL    HW232601   2.491   2.482   4.907
10568SOL     OW32602   6.885   2.870   1.169
10568SOL    HW132603   6.950   2.814   1.220
10568SOL    HW232604   6.845   2.939   1.230
10569SOL     OW32605   5.499   1.501   1.722
10569SOL    HW132606   5.491   1.597   1.751
10569SOL    HW232607   5.409   1.465   1.702
10570SOL     OW32608   1.674   4.280   3.301
10570SOL    HW132609   1.608   4.255   3.231
10570SOL    HW232610   1.625   4.317   3.380
10571SOL     OW32611   0.228   4.482   5.164
10571SOL    HW132612   0.190   4.392   5.186
10571SOL    HW232613   0.165   4.531   5.104
10572SOL     OW32614   7.009   4.402   2.871
10572SOL    HW132615   0.026   4.486   2.906
10572SOL    HW232616   0.037   4.370   2.793
10573SOL     OW32617   5.463   0.753   4.919
10573SOL    HW132618   5.530   0.812   4.875
10573SOL    HW232619   5.385   0.808   4.949
10574SOL     OW32620   0.598   1.513   4.671
10574SOL    HW132621   0.517   1.538   4.617
10574SOL    HW232622   0.680   1.542   4.623
10575SOL     OW32623   6.881   1.077   3.732
10575SOL    HW132624   6.952   1.143   3.708
10575SOL    HW232625   6.847   1.096   3.824
10576SOL     OW32626   0.547   5.447   4.709
10576SOL    HW132627   0.624   5.459   4.646
10576SOL    HW232628   0.566   5.370   4.770
10577SOL     OW32629   1.776   4.950   0.461
10577SOL    HW132630   1.870   4.952   0.428
10577SOL    HW232631   1.713   4.961   0.384
10578SOL     OW32632   4.204   1.298   2.540
10578SOL    HW132633   4.252   1.373   2.495
10578SOL    HW232634   4.165   1.330   2.626
10579SOL     OW32635   4.440   3.063   1.560
10579SOL    HW132636   4.437   3.161   1.541
10579SOL    HW232637   4.440   3.048   1.659
10580SOL     OW32638   6.865   0.493   6.598
10580SOL    HW132639   6.929   0.442   6.656
10580SOL    HW232640   6.913   0.569   6.555
10581SOL     OW32641   5.709   0.054   2.982
10581SOL    HW132642   5.713   0.154   2.980
10581SOL    HW232643   5.639   0.022   2.919
10582SOL     OW32644   4.521   4.133   5.574
10582SOL    HW132645   4.579   4.078   5.635
10582SOL    HW232646   4.550   4.120   5.480
10583SOL     OW32647   3.676   1.262   3.924
10583SOL    HW132648   3.736   1.316   3.983
10583SOL    HW232649   3.731   1.196   3.872
10584SOL     OW32650   6.768   0.566   0.306
10584SOL    HW132651   6.730   0.633   0.241
10584SOL    HW232652   6.701   0.548   0.378
10585SOL     OW32653   2.661   1.898   5.114
10585SOL    HW132654   2.611   1.811   5.112
10585SOL    HW232655   2.694   1.920   5.023
10586SOL     OW32656   5.745   4.823   5.757
10586SOL    HW132657   5.674   4.840   5.688
10586SOL    HW232658   5.733   4.888   5.832
10587SOL     OW32659   6.407   4.831   0.035
10587SOL    HW132660   6.468   4.873   0.102
10587SOL    HW232661   6.354   4.759   0.079
10588SOL     OW32662   1.421   2.641   4.736
10588SOL    HW132663   1.416   2.713   4.805
10588SOL    HW232664   1.341   2.581   4.744
10589SOL     OW32665   6.058   0.996   4.505
10589SOL    HW132666   6.126   1.069   4.507
10589SOL    HW232667   6.008   1.001   4.418
10590SOL     OW32668   0.233   0.260   0.868
10590SOL    HW132669   0.252   0.308   0.953
10590SOL    HW232670   0.240   0.324   0.791
10591SOL     OW32671   1.231   2.237   0.078
10591SOL    HW132672   1.195   2.153   0.036
10591SOL    HW232673   1.168   2.267   0.149
10592SOL     OW32674   5.862   3.827   3.044
10592SOL    HW132675   5.775   3.778   3.042
10592SOL    HW232676   5.922   3.792   2.972
10593SOL     OW32677   2.892   5.782   0.678
10593SOL    HW132678   2.917   5.689   0.650
10593SOL    HW232679   2.849   5.779   0.768
10594SOL     OW32680   5.464   1.390   3.127
10594SOL    HW132681   5.396   1.328   3.166
10594SOL    HW232682   5.418   1.462   3.075
10595SOL     OW32683   5.550   0.133   0.082
10595SOL    HW132684   5.485   0.107   0.154
10595SOL    HW232685   5.623   0.065   0.077
10596SOL     OW32686   4.410   0.981   0.254
10596SOL    HW132687   4.397   1.049   0.182
10596SOL    HW232688   4.493   0.928   0.236
10597SOL     OW32689   3.456   1.479   5.745
10597SOL    HW132690   3.369   1.515   5.711
10597SOL    HW232691   3.520   1.466   5.669
10598SOL     OW32692   3.035   2.717   0.255
10598SOL    HW132693   2.991   2.795   0.211
10598SOL    HW232694   3.023   2.725   0.355
10599SOL     OW32695   5.333   3.346   6.529
10599SOL    HW132696   5.286   3.426   6.491
10599SOL    HW232697   5.419   3.331   6.480
10600SOL     OW32698   3.520   2.783   0.938
10600SOL    HW132699   3.459   2.765   0.861
10600SOL    HW232700   3.540   2.697   0.985
10601SOL     OW32701   1.282   4.874   5.080
10601SOL    HW132702   1.340   4.862   4.999
10601SOL    HW232703   1.282   4.971   5.106
10602SOL     OW32704   1.472   0.406   2.291
10602SOL    HW132705   1.544   0.336   2.293
10602SOL    HW232706   1.509   0.490   2.251
10603SOL     OW32707   4.028   0.205   3.591
10603SOL    HW132708   4.128   0.214   3.584
10603SOL    HW232709   3.988   0.207   3.500
10604SOL     OW32710   6.616   6.148   5.479
10604SOL    HW132711   6.695   6.086   5.473
10604SOL    HW232712   6.639   6.235   5.436
10605SOL     OW32713   2.125   6.426   6.755
10605SOL    HW132714   2.071   6.342   6.766
10605SOL    HW232715   2.222   6.403   6.748
10606SOL     OW32716   0.259   0.108   1.472
10606SOL    HW132717   0.265   0.104   1.571
10606SOL    HW232718   0.309   0.188   1.439
10607SOL     OW32719   3.970   5.762   6.086
10607SOL    HW132720   4.007   5.732   5.998
10607SOL    HW232721   3.885   5.712   6.105
10608SOL     OW32722   6.707   3.263   4.224
10608SOL    HW132723   6.609   3.266   4.242
10608SOL    HW232724   6.745   3.355   4.231
10609SOL     OW32725   2.919   6.624   6.797
10609SOL    HW132726   2.985   6.657   6.864
10609SOL    HW232727   2.966   6.572   6.726
10610SOL     OW32728   0.461   2.460   3.850
10610SOL    HW132729   0.492   2.409   3.769
10610SOL    HW232730   0.455   2.398   3.928
10611SOL     OW32731   2.650   4.167   0.073
10611SOL    HW132732   2.680   4.077   0.040
10611SOL    HW232733   2.712   4.237   0.038
10612SOL     OW32734   3.506   2.112   4.593
10612SOL    HW132735   3.585   2.129   4.651
10612SOL    HW232736   3.426   2.157   4.632
10613SOL     OW32737   5.648   5.992   5.524
10613SOL    HW132738   5.699   5.907   5.536
10613SOL    HW232739   5.710   6.063   5.489
10614SOL     OW32740   4.741   1.642   5.249
10614SOL    HW132741   4.666   1.706   5.233
10614SOL    HW232742   4.801   1.641   5.170
10615SOL     OW32743   3.862   0.504   5.632
10615SOL    HW132744   3.916   0.431   5.674
10615SOL    HW232745   3.890   0.592   5.670
10616SOL     OW32746   2.229   6.929   0.280
10616SOL    HW132747   2.210   6.853   0.219
10616SOL    HW232748   2.176   6.918   0.365
10617SOL     OW32749   2.996   4.272   1.085
10617SOL    HW132750   3.022   4.237   1.175
10617SOL    HW232751   2.939   4.204   1.039
10618SOL     OW32752   1.023   3.787   5.799
10618SOL    HW132753   0.995   3.710   5.855
10618SOL    HW232754   1.118   3.811   5.819
10619SOL     OW32755   0.622   3.197   3.036
10619SOL    HW132756   0.644   3.130   3.106
10619SOL    HW232757   0.539   3.169   2.988
10620SOL     OW32758   1.402   6.549   5.420
10620SOL    HW132759   1.375   6.574   5.513
10620SOL    HW232760   1.417   6.450   5.415
10621SOL     OW32761   0.827   4.942   1.728
10621SOL    HW132762   0.769   4.861   1.720
10621SOL    HW232763   0.890   4.930   1.805
10622SOL     OW32764   5.134   1.740   2.202
10622SOL    HW132765   5.105   1.770   2.293
10622SOL    HW232766   5.054   1.721   2.146
10623SOL     OW32767   0.191   4.905   5.327
10623SOL    HW132768   0.207   4.963   5.247
10623SOL    HW232769   0.279   4.870   5.361
10624SOL     OW32770   0.807   2.383   4.899
10624SOL    HW132771   0.898   2.387   4.941
10624SOL    HW232772   0.814   2.340   4.810
10625SOL     OW32773   0.279   4.658   0.936
10625SOL    HW132774   0.334   4.738   0.961
10625SOL    HW232775   0.230   4.678   0.851
10626SOL     OW32776   2.547   3.178   0.766
10626SOL    HW132777   2.525   3.082   0.781
10626SOL    HW232778   2.637   3.198   0.803
10627SOL     OW32779   5.420   0.615   6.448
10627SOL    HW132780   5.419   0.522   6.487
10627SOL    HW232781   5.386   0.680   6.516
10628SOL     OW32782   5.098   5.996   0.977
10628SOL    HW132783   5.021   6.055   1.001
10628SOL    HW232784   5.184   6.039   1.006
10629SOL     OW32785   2.440   5.226   4.831
10629SOL    HW132786   2.417   5.263   4.741
10629SOL    HW232787   2.535   5.194   4.830
10630SOL     OW32788   6.442   1.197   3.626
10630SOL    HW132789   6.505   1.267   3.593
10630SOL    HW232790   6.488   1.108   3.628
10631SOL     OW32791   3.140   5.188   5.149
10631SOL    HW132792   3.146   5.108   5.209
10631SOL    HW232793   3.198   5.174   5.069
10632SOL     OW32794   5.313   6.960   4.062
10632SOL    HW132795   5.309   6.878   4.120
10632SOL    HW232796   5.380   7.024   4.101
10633SOL     OW32797   2.614   2.692   0.767
10633SOL    HW132798   2.643   2.690   0.671
10633SOL    HW232799   2.690   2.663   0.825
10634SOL     OW32800   3.026   4.214   0.579
10634SOL    HW132801   3.055   4.127   0.619
10634SOL    HW232802   3.066   4.224   0.488
10635SOL     OW32803   1.893   3.654   0.093
10635SOL    HW132804   1.868   3.751   0.096
10635SOL    HW232805   1.817   3.602   0.054
10636SOL     OW32806   0.366   1.912   0.927
10636SOL    HW132807   0.378   1.860   1.012
10636SOL    HW232808   0.295   1.980   0.940
10637SOL     OW32809   1.132   4.714   5.841
10637SOL    HW132810   1.199   4.777   5.801
10637SOL    HW232811   1.108   4.745   5.933
10638SOL     OW32812   5.485   5.682   2.838
10638SOL    HW132813   5.457   5.769   2.880
10638SOL    HW232814   5.414   5.651   2.775
10639SOL     OW32815   0.748   3.919   3.154
10639SOL    HW132816   0.787   3.897   3.243
10639SOL    HW232817   0.651   3.939   3.164
10640SOL     OW32818   4.897   0.000   4.279
10640SOL    HW132819   4.919   0.097   4.262
10640SOL    HW232820   4.816   7.000   4.226
10641SOL     OW32821   1.757   2.307   2.040
10641SOL    HW132822   1.827   2.364   1.997
10641SOL    HW232823   1.787   2.281   2.132
10642SOL     OW32824   6.598   2.742   1.388
10642SOL    HW132825   6.613   2.708   1.481
10642SOL    HW232826   6.636   2.677   1.322
10643SOL     OW32827   1.574   5.832   4.294
10643SOL    HW132828   1.622   5.758   4.249
10643SOL    HW232829   1.477   5.829   4.269
10644SOL     OW32830   6.124   2.738   2.196
10644SOL    HW132831   6.150   2.641   2.196
10644SOL    HW232832   6.167   2.784   2.118
10645SOL     OW32833   1.819   2.893   4.533
10645SOL    HW132834   1.891   2.840   4.488
10645SOL    HW232835   1.761   2.937   4.464
10646SOL     OW32836   0.536   0.138   6.898
10646SOL    HW132837   0.571   0.127   6.805
10646SOL    HW232838   0.437   0.131   6.898
10647SOL     OW32839   2.925   5.783   4.876
10647SOL    HW132840   2.839   5.738   4.853
10647SOL    HW232841   2.907   5.866   4.929
10648SOL     OW32842   5.954   3.963   6.581
10648SOL    HW132843   5.879   3.973   6.516
10648SOL    HW232844   5.955   3.869   6.617
10649SOL     OW32845   0.094   4.402   2.607
10649SOL    HW132846   0.177   4.412   2.552
10649SOL    HW232847   0.042   4.487   2.606
10650SOL     OW32848   0.821   0.685   3.690
10650SOL    HW132849   0.879   0.696   3.609
10650SOL    HW232850   0.879   0.678   3.772
10651SOL     OW32851   5.542   6.419   0.042
10651SOL    HW132852   5.567   6.326   0.066
10651SOL    HW232853   5.471   6.418   6.996
10652SOL     OW32854   3.511   6.744   5.452
10652SOL    HW132855   3.470   6.835   5.464
10652SOL    HW232856   3.456   6.676   5.501
10653SOL     OW32857   4.115   5.343   3.883
10653SOL    HW132858   4.017   5.338   3.862
10653SOL    HW232859   4.167   5.299   3.810
10654SOL     OW32860   5.481   0.920   0.852
10654SOL    HW132861   5.559   0.858   0.861
10654SOL    HW232862   5.446   0.943   0.943
10655SOL     OW32863   2.329   5.451   0.526
10655SOL    HW132864   2.272   5.481   0.450
10655SOL    HW232865   2.425   5.449   0.498
10656SOL     OW32866   0.092   1.927   2.990
10656SOL    HW132867   0.034   1.990   2.938
10656SOL    HW232868   0.159   1.885   2.928
10657SOL     OW32869   5.534   0.323   5.779
10657SOL    HW132870   5.626   0.300   5.809
10657SOL    HW232871   5.535   0.410   5.730
10658SOL     OW32872   6.441   4.839   5.249
10658SOL    HW132873   6.408   4.828   5.343
10658SOL    HW232874   6.538   4.816   5.245
10659SOL     OW32875   0.516   5.403   1.472
10659SOL    HW132876   0.439   5.446   1.519
10659SOL    HW232877   0.533   5.312   1.510
10660SOL     OW32878   5.119   3.563   6.064
10660SOL    HW132879   5.068   3.516   6.136
10660SOL    HW232880   5.055   3.594   5.993
10661SOL     OW32881   1.255   6.769   1.698
10661SOL    HW132882   1.304   6.850   1.731
10661SOL    HW232883   1.315   6.716   1.638
10662SOL     OW32884   5.662   6.682   2.331
10662SOL    HW132885   5.682   6.771   2.291
10662SOL    HW232886   5.628   6.694   2.425
10663SOL     OW32887   0.559   2.171   2.825
10663SOL    HW132888   0.557   2.194   2.922
10663SOL    HW232889   0.612   2.240   2.776
10664SOL     OW32890   6.549   4.212   4.624
10664SOL    HW132891   6.644   4.201   4.595
10664SOL    HW232892   6.504   4.280   4.567
10665SOL     OW32893   0.942   1.769   0.591
10665SOL    HW132894   0.869   1.735   0.532
10665SOL    HW232895   0.971   1.860   0.561
10666SOL     OW32896   3.506   3.891   1.687
10666SOL    HW132897   3.448   3.815   1.718
10666SOL    HW232898   3.592   3.854   1.651
10667SOL     OW32899   4.758   2.407   4.954
10667SOL    HW132900   4.680   2.385   5.013
10667SOL    HW232901   4.741   2.494   4.908
10668SOL     OW32902   2.355   0.528   5.049
10668SOL    HW132903   2.317   0.617   5.024
10668SOL    HW232904   2.332   0.461   4.978
10669SOL     OW32905   5.948   6.903   1.391
10669SOL    HW132906   5.936   6.838   1.466
10669SOL    HW232907   5.858   6.940   1.365
10670SOL     OW32908   5.264   4.293   5.378
10670SOL    HW132909   5.320   4.328   5.453
10670SOL    HW232910   5.227   4.370   5.326
10671SOL     OW32911   2.793   2.347   3.014
10671SOL    HW132912   2.727   2.371   2.943
10671SOL    HW232913   2.775   2.254   3.047
10672SOL     OW32914   6.548   3.312   1.147
10672SOL    HW132915   6.476   3.291   1.080
10672SOL    HW232916   6.507   3.355   1.228
10673SOL     OW32917   1.055   0.815   6.668
10673SOL    HW132918   1.004   0.775   6.592
10673SOL    HW232919   0.992   0.863   6.729
10674SOL     OW32920   3.566   4.149   2.333
10674SOL    HW132921   3.652   4.106   2.361
10674SOL    HW232922   3.566   4.245   2.362
10675SOL     OW32923   1.775   0.250   6.764
10675SOL    HW132924   1.835   0.207   6.696
10675SOL    HW232925   1.824   0.261   6.850
10676SOL     OW32926   6.646   6.065   6.160
10676SOL    HW132927   6.629   6.026   6.070
10676SOL    HW232928   6.676   6.160   6.150
10677SOL     OW32929   1.259   0.335   2.091
10677SOL    HW132930   1.206   0.257   2.123
10677SOL    HW232931   1.345   0.339   2.142
10678SOL     OW32932   4.362   5.186   4.143
10678SOL    HW132933   4.319   5.275   4.158
10678SOL    HW232934   4.325   5.120   4.209
10679SOL     OW32935   4.580   5.770   6.363
10679SOL    HW132936   4.639   5.702   6.406
10679SOL    HW232937   4.635   5.826   6.300
10680SOL     OW32938   3.720   1.726   3.644
10680SOL    HW132939   3.707   1.800   3.578
10680SOL    HW232940   3.787   1.753   3.713
10681SOL     OW32941   0.668   3.721   0.616
10681SOL    HW132942   0.741   3.658   0.593
10681SOL    HW232943   0.623   3.692   0.701
10682SOL     OW32944   0.938   1.215   5.036
10682SOL    HW132945   0.999   1.196   5.112
10682SOL    HW232946   0.871   1.284   5.063
10683SOL     OW32947   3.703   1.969   3.530
10683SOL    HW132948   3.792   2.012   3.545
10683SOL    HW232949   3.636   2.039   3.505
10684SOL     OW32950   5.494   4.450   2.129
10684SOL    HW132951   5.426   4.499   2.182
10684SOL    HW232952   5.525   4.507   2.052
10685SOL     OW32953   0.576   5.512   2.569
10685SOL    HW132954   0.638   5.522   2.492
10685SOL    HW232955   0.606   5.436   2.627
10686SOL     OW32956   0.774   4.673   6.302
10686SOL    HW132957   0.726   4.586   6.297
10686SOL    HW232958   0.709   4.746   6.326
10687SOL     OW32959   6.452   5.278   1.839
10687SOL    HW132960   6.532   5.316   1.793
10687SOL    HW232961   6.475   5.189   1.879
10688SOL     OW32962   6.698   3.806   2.655
10688SOL    HW132963   6.634   3.844   2.722
10688SOL    HW232964   6.717   3.711   2.678
10689SOL     OW32965   0.229   5.667   3.610
10689SOL    HW132966   0.228   5.766   3.628
10689SOL    HW232967   0.304   5.645   3.546
10690SOL     OW32968   6.891   6.031   3.680
10690SOL    HW132969   6.911   6.071   3.591
10690SOL    HW232970   6.872   5.934   3.670
10691SOL     OW32971   0.372   2.206   2.413
10691SOL    HW132972   0.469   2.231   2.411
10691SOL    HW232973   0.317   2.282   2.380
10692SOL     OW32974   3.156   6.354   3.136
10692SOL    HW132975   3.251   6.366   3.165
10692SOL    HW232976   3.097   6.350   3.217
10693SOL     OW32977   2.281   6.773   0.054
10693SOL    HW132978   2.346   6.817   7.017
10693SOL    HW232979   2.208   6.731   0.001
10694SOL     OW32980   5.491   6.304   2.037
10694SOL    HW132981   5.422   6.316   2.109
10694SOL    HW232982   5.465   6.226   1.980
10695SOL     OW32983   5.622   1.980   3.197
10695SOL    HW132984   5.574   2.054   3.245
10695SOL    HW232985   5.601   1.893   3.241
10696SOL     OW32986   0.257   3.594   3.841
10696SOL    HW132987   0.321   3.518   3.841
10696SOL    HW232988   0.216   3.603   3.750
10697SOL     OW32989   0.096   6.086   4.762
10697SOL    HW132990   0.135   6.053   4.676
10697SOL    HW232991   7.021   6.085   4.755
10698SOL     OW32992   4.502   5.444   5.616
10698SOL    HW132993   4.567   5.432   5.690
10698SOL    HW232994   4.413   5.470   5.653
10699SOL     OW32995   4.021   3.382   1.948
10699SOL    HW132996   3.924   3.383   1.972
10699SOL    HW232997   4.074   3.352   2.028
10700SOL     OW32998   6.857   6.768   1.622
10700SOL    HW132999   6.848   6.669   1.629
10700SOL    HW233000   6.944   6.797   1.663
10701SOL     OW33001   3.539   6.305   0.133
10701SOL    HW133002   3.470   6.235   0.149
10701SOL    HW233003   3.497   6.386   0.093
10702SOL     OW33004   5.931   2.954   2.005
10702SOL    HW133005   5.893   2.869   2.042
10702SOL    HW233006   5.985   3.001   2.075
10703SOL     OW33007   3.107   4.077   5.138
10703SOL    HW133008   3.043   4.012   5.097
10703SOL    HW233009   3.055   4.154   5.177
10704SOL     OW33010   6.216   5.104   1.722
10704SOL    HW133011   6.149   5.095   1.648
10704SOL    HW233012   6.261   5.194   1.715
10705SOL     OW33013   6.632   4.641   1.591
10705SOL    HW133014   6.555   4.629   1.527
10705SOL    HW233015   6.697   4.566   1.579
10706SOL     OW33016   5.124   0.062   2.329
10706SOL    HW133017   5.124   0.070   2.229
10706SOL    HW233018   5.141   6.992   2.355
10707SOL     OW33019   0.031   6.274   3.736
10707SOL    HW133020   7.015   6.350   3.787
10707SOL    HW233021   6.992   6.196   3.736
10708SOL     OW33022   4.011   0.782   2.328
10708SOL    HW133023   3.968   0.850   2.269
10708SOL    HW233024   4.034   0.701   2.274
10709SOL     OW33025   6.337   6.350   4.973
10709SOL    HW133026   6.278   6.271   4.957
10709SOL    HW233027   6.320   6.419   4.904
10710SOL     OW33028   0.533   6.586   4.877
10710SOL    HW133029   0.606   6.596   4.944
10710SOL    HW233030   0.504   6.490   4.872
10711SOL     OW33031   1.685   6.645   3.924
10711SOL    HW133032   1.750   6.708   3.880
10711SOL    HW233033   1.671   6.672   4.019
10712SOL     OW33034   2.631   1.517   1.424
10712SOL    HW133035   2.636   1.423   1.390
10712SOL    HW233036   2.560   1.522   1.495
10713SOL     OW33037   1.334   4.229   1.542
10713SOL    HW133038   1.358   4.150   1.598
10713SOL    HW233039   1.247   4.212   1.496
10714SOL     OW33040   6.173   3.617   4.597
10714SOL    HW133041   6.256   3.561   4.593
10714SOL    HW233042   6.118   3.602   4.515
10715SOL     OW33043   5.346   6.703   2.903
10715SOL    HW133044   5.296   6.790   2.902
10715SOL    HW233045   5.307   6.642   2.835
10716SOL     OW33046   5.687   2.020   4.290
10716SOL    HW133047   5.713   2.067   4.374
10716SOL    HW233048   5.595   1.981   4.301
10717SOL     OW33049   1.092   2.705   0.834
10717SOL    HW133050   1.024   2.765   0.875
10717SOL    HW233051   1.148   2.757   0.769
10718SOL     OW33052   1.633   2.766   6.625
10718SOL    HW133053   1.608   2.688   6.567
10718SOL    HW233054   1.720   2.803   6.595
10719SOL     OW33055   5.176   5.733   1.028
10719SOL    HW133056   5.276   5.735   1.038
10719SOL    HW233057   5.141   5.827   1.025
10720SOL     OW33058   6.631   3.419   4.818
10720SOL    HW133059   6.626   3.480   4.740
10720SOL    HW233060   6.724   3.416   4.853
10721SOL     OW33061   6.144   4.426   5.010
10721SOL    HW133062   6.201   4.481   5.071
10721SOL    HW233063   6.057   4.473   4.995
10722SOL     OW33064   0.203   3.861   0.764
10722SOL    HW133065   0.298   3.866   0.731
10722SOL    HW233066   0.204   3.849   0.863
10723SOL     OW33067   0.597   3.898   6.115
10723SOL    HW133068   0.612   3.892   6.016
10723SOL    HW233069   0.519   3.840   6.140
10724SOL     OW33070   4.509   0.908   6.883
10724SOL    HW133071   4.518   0.970   6.960
10724SOL    HW233072   4.600   0.885   6.847
10725SOL     OW33073   0.333   4.483   4.590
10725SOL    HW133074   0.241   4.475   4.551
10725SOL    HW233075   0.374   4.570   4.561
10726SOL     OW33076   5.214   0.007   5.758
10726SOL    HW133077   5.176   0.071   5.824
10726SOL    HW233078   5.313   0.017   5.755
10727SOL     OW33079   0.495   5.212   4.529
10727SOL    HW133080   0.471   5.294   4.477
10727SOL    HW233081   0.412   5.158   4.546
10728SOL     OW33082   6.368   6.422   0.798
10728SOL    HW133083   6.364   6.502   0.858
10728SOL    HW233084   6.425   6.351   0.840
10729SOL     OW33085   5.326   1.129   2.580
10729SOL    HW133086   5.398   1.078   2.532
10729SOL    HW233087   5.241   1.123   2.528
10730SOL     OW33088   2.248   0.211   2.085
10730SOL    HW133089   2.187   0.290   2.099
10730SOL    HW233090   2.334   0.243   2.046
10731SOL     OW33091   3.067   5.582   0.296
10731SOL    HW133092   3.009   5.519   0.347
10731SOL    HW233093   3.015   5.663   0.270
10732SOL     OW33094   4.845   5.168   2.190
10732SOL    HW133095   4.850   5.068   2.186
10732SOL    HW233096   4.773   5.196   2.253
10733SOL     OW33097   5.181   2.096   0.127
10733SOL    HW133098   5.092   2.120   0.088
10733SOL    HW233099   5.252   2.108   0.058
10734SOL     OW33100   1.198   0.087   0.366
10734SOL    HW133101   1.259   0.017   0.403
10734SOL    HW233102   1.191   0.163   0.431
10735SOL     OW33103   1.725   4.528   2.717
10735SOL    HW133104   1.681   4.608   2.675
10735SOL    HW233105   1.668   4.448   2.703
10736SOL     OW33106   0.080   0.554   3.302
10736SOL    HW133107   0.153   0.491   3.331
10736SOL    HW233108   0.101   0.589   3.211
10737SOL     OW33109   1.393   1.736   0.087
10737SOL    HW133110   1.397   1.706   7.016
10737SOL    HW233111   1.337   1.819   0.092
10738SOL     OW33112   2.666   0.734   3.419
10738SOL    HW133113   2.623   0.798   3.356
10738SOL    HW233114   2.617   0.647   3.417
10739SOL     OW33115   6.958   1.008   1.251
10739SOL    HW133116   6.894   0.939   1.285
10739SOL    HW233117   0.020   1.001   1.301
10740SOL     OW33118   0.612   4.710   5.736
10740SOL    HW133119   0.709   4.719   5.758
10740SOL    HW233120   0.602   4.667   5.647
10741SOL     OW33121   0.797   0.703   2.970
10741SOL    HW133122   0.880   0.646   2.976
10741SOL    HW233123   0.823   0.795   2.942
10742SOL     OW33124   5.710   0.067   1.436
10742SOL    HW133125   5.679   6.999   1.457
10742SOL    HW233126   5.659   0.103   1.358
10743SOL     OW33127   2.058   1.808   4.981
10743SOL    HW133128   2.064   1.713   4.951
10743SOL    HW233129   2.124   1.824   5.054
10744SOL     OW33130   2.668   1.602   2.089
10744SOL    HW133131   2.665   1.667   2.165
10744SOL    HW233132   2.760   1.598   2.052
10745SOL     OW33133   0.880   4.724   0.740
10745SOL    HW133134   0.863   4.628   0.717
10745SOL    HW233135   0.872   4.780   0.658
10746SOL     OW33136   1.902   4.008   1.527
10746SOL    HW133137   1.809   3.980   1.552
10746SOL    HW233138   1.951   3.929   1.490
10747SOL     OW33139   4.237   0.429   3.093
10747SOL    HW133140   4.253   0.422   2.994
10747SOL    HW233141   4.319   0.404   3.142
10748SOL     OW33142   3.589   0.726   1.354
10748SOL    HW133143   3.688   0.741   1.353
10748SOL    HW233144   3.547   0.785   1.423
10749SOL     OW33145   0.032   4.920   3.778
10749SOL    HW133146   6.980   4.972   3.815
10749SOL    HW233147   0.074   4.866   3.851
10750SOL     OW33148   3.790   6.111   4.292
10750SOL    HW133149   3.832   6.061   4.368
10750SOL    HW233150   3.696   6.134   4.316
10751SOL     OW33151   1.386   4.396   4.439
10751SOL    HW133152   1.344   4.481   4.469
10751SOL    HW233153   1.467   4.377   4.494
10752SOL     OW33154   6.374   3.795   5.911
10752SOL    HW133155   6.457   3.793   5.967
10752SOL    HW233156   6.296   3.768   5.966
10753SOL     OW33157   4.093   6.924   4.572
10753SOL    HW133158   4.049   6.931   4.661
10753SOL    HW233159   4.120   6.829   4.555
10754SOL     OW33160   1.120   1.725   3.491
10754SOL    HW133161   1.095   1.806   3.545
10754SOL    HW233162   1.159   1.656   3.551
10755SOL     OW33163   0.440   2.008   6.849
10755SOL    HW133164   0.433   2.010   6.948
10755SOL    HW233165   0.533   2.031   6.821
10756SOL     OW33166   6.489   4.453   0.008
10756SOL    HW133167   6.570   4.507   0.028
10756SOL    HW233168   6.418   4.472   0.075
10757SOL     OW33169   0.959   2.662   6.871
10757SOL    HW133170   0.877   2.697   6.826
10757SOL    HW233171   0.977   2.714   6.954
10758SOL     OW33172   1.040   6.769   5.460
10758SOL    HW133173   1.139   6.777   5.473
10758SOL    HW233174   1.019   6.761   5.363
10759SOL     OW33175   1.962   3.068   6.751
10759SOL    HW133176   1.951   3.155   6.704
10759SOL    HW233177   2.051   3.066   6.798
10760SOL     OW33178   6.365   1.061   7.020
10760SOL    HW133179   6.306   1.141   0.006
10760SOL    HW233180   6.340   1.012   6.937
10761SOL     OW33181   1.630   1.957   6.265
10761SOL    HW133182   1.697   1.886   6.241
10761SOL    HW233183   1.671   2.019   6.333
10762SOL     OW33184   3.865   1.621   5.104
10762SOL    HW133185   3.937   1.581   5.048
10762SOL    HW233186   3.867   1.721   5.093
10763SOL     OW33187   4.800   6.382   1.613
10763SOL    HW133188   4.850   6.450   1.560
10763SOL    HW233189   4.739   6.427   1.679
10764SOL     OW33190   5.752   1.631   5.690
10764SOL    HW133191   5.831   1.638   5.630
10764SOL    HW233192   5.671   1.668   5.644
10765SOL     OW33193   5.608   2.809   0.949
10765SOL    HW133194   5.578   2.770   1.036
10765SOL    HW233195   5.708   2.813   0.947
10766SOL     OW33196   3.586   2.861   1.483
10766SOL    HW133197   3.566   2.882   1.387
10766SOL    HW233198   3.658   2.792   1.488
10767SOL     OW33199   1.402   0.576   0.024
10767SOL    HW133200   1.477   0.561   0.088
10767SOL    HW233201   1.429   0.645   6.980
10768SOL     OW33202   4.313   5.159   0.793
10768SOL    HW133203   4.318   5.233   0.860
10768SOL    HW233204   4.228   5.167   0.740
10769SOL     OW33205   2.217   5.238   5.009
10769SOL    HW133206   2.304   5.250   4.963
10769SOL    HW233207   2.167   5.324   5.009
10770SOL     OW33208   5.585   0.254   5.050
10770SOL    HW133209   5.537   0.179   5.097
10770SOL    HW233210   5.523   0.332   5.040
10771SOL     OW33211   5.177   1.162   4.774
10771SOL    HW133212   5.135   1.215   4.848
10771SOL    HW233213   5.276   1.161   4.787
10772SOL     OW33214   0.007   6.372   4.397
10772SOL    HW133215   0.066   6.342   4.322
10772SOL    HW233216   6.965   6.300   4.418
10773SOL     OW33217   6.959   5.267   6.582
10773SOL    HW133218   6.880   5.221   6.541
10773SOL    HW233219   6.930   5.319   6.662
10774SOL     OW33220   1.648   1.892   6.739
10774SOL    HW133221   1.574   1.829   6.712
10774SOL    HW233222   1.610   1.983   6.756
10775SOL     OW33223   0.244   2.664   0.512
10775SOL    HW133224   0.300   2.582   0.522
10775SOL    HW233225   0.304   2.743   0.496
10776SOL     OW33226   1.398   6.430   6.818
10776SOL    HW133227   1.467   6.476   6.874
10776SOL    HW233228   1.389   6.478   6.731
10777SOL     OW33229   4.094   5.742   4.044
10777SOL    HW133230   4.093   5.789   3.956
10777SOL    HW233231   4.066   5.805   4.116
10778SOL     OW33232   5.724   6.518   5.216
10778SOL    HW133233   5.710   6.448   5.146
10778SOL    HW233234   5.638   6.563   5.237
10779SOL     OW33235   6.106   5.050   3.196
10779SOL    HW133236   6.180   5.072   3.260
10779SOL    HW233237   6.139   4.980   3.131
10780SOL     OW33238   1.669   0.274   3.969
10780SOL    HW133239   1.624   0.224   4.044
10780SOL    HW233240   1.657   0.372   3.983
10781SOL     OW33241   3.946   1.303   3.017
10781SOL    HW133242   4.005   1.335   3.091
10781SOL    HW233243   3.850   1.316   3.042
10782SOL     OW33244   0.142   1.783   3.616
10782SOL    HW133245   0.043   1.775   3.624
10782SOL    HW233246   0.170   1.877   3.636
10783SOL     OW33247   0.990   3.474   3.106
10783SOL    HW133248   1.039   3.454   3.190
10783SOL    HW233249   0.947   3.390   3.071
10784SOL     OW33250   3.200   0.569   3.733
10784SOL    HW133251   3.269   0.515   3.782
10784SOL    HW233252   3.171   0.645   3.791
10785SOL     OW33253   0.212   5.106   1.208
10785SOL    HW133254   0.235   5.037   1.139
10785SOL    HW233255   0.272   5.185   1.198
10786SOL     OW33256   5.046   4.959   2.003
10786SOL    HW133257   4.963   4.938   2.055
10786SOL    HW233258   5.023   4.976   1.908
10787SOL     OW33259   2.984   1.495   4.459
10787SOL    HW133260   3.025   1.502   4.368
10787SOL    HW233261   2.960   1.586   4.492
10788SOL     OW33262   2.286   4.860   6.598
10788SOL    HW133263   2.262   4.837   6.692
10788SOL    HW233264   2.384   4.846   6.584
10789SOL     OW33265   5.764   2.765   0.241
10789SOL    HW133266   5.670   2.791   0.262
10789SOL    HW233267   5.773   2.749   0.143
10790SOL     OW33268   0.876   0.779   2.348
10790SOL    HW133269   0.887   0.681   2.366
10790SOL    HW233270   0.798   0.814   2.399
10791SOL     OW33271   7.000   0.235   0.769
10791SOL    HW133272   7.011   0.278   0.680
10791SOL    HW233273   0.057   0.253   0.825
10792SOL     OW33274   3.787   3.952   2.435
10792SOL    HW133275   3.729   3.870   2.427
10792SOL    HW233276   3.839   3.964   2.350
10793SOL     OW33277   5.204   2.754   4.256
10793SOL    HW133278   5.124   2.731   4.200
10793SOL    HW233279   5.178   2.753   4.353
10794SOL     OW33280   3.015   3.576   3.896
10794SOL    HW133281   3.114   3.563   3.906
10794SOL    HW233282   2.996   3.626   3.811
10795SOL     OW33283   0.135   4.160   3.223
10795SOL    HW133284   0.139   4.068   3.263
10795SOL    HW233285   0.052   4.168   3.166
10796SOL     OW33286   5.699   6.827   0.639
10796SOL    HW133287   5.766   6.756   0.658
10796SOL    HW233288   5.649   6.805   0.555
10797SOL     OW33289   3.735   1.685   1.449
10797SOL    HW133290   3.705   1.703   1.355
10797SOL    HW233291   3.729   1.587   1.468
10798SOL     OW33292   2.557   6.172   1.043
10798SOL    HW133293   2.609   6.220   0.972
10798SOL    HW233294   2.540   6.235   1.119
10799SOL     OW33295   3.615   0.767   2.119
10799SOL    HW133296   3.524   0.804   2.101
10799SOL    HW233297   3.655   0.735   2.033
10800SOL     OW33298   0.172   0.105   0.460
10800SOL    HW133299   0.133   0.018   0.491
10800SOL    HW233300   0.194   0.162   0.539
10801SOL     OW33301   1.232   6.952   5.794
10801SOL    HW133302   1.259   0.010   5.842
10801SOL    HW233303   1.283   6.944   5.708
10802SOL     OW33304   1.210   2.554   3.105
10802SOL    HW133305   1.190   2.604   3.020
10802SOL    HW233306   1.306   2.568   3.130
10803SOL     OW33307   3.344   3.749   5.931
10803SOL    HW133308   3.405   3.808   5.878
10803SOL    HW233309   3.391   3.662   5.950
10804SOL     OW33310   5.850   3.613   1.581
10804SOL    HW133311   5.932   3.561   1.555
10804SOL    HW233312   5.821   3.584   1.672
10805SOL     OW33313   4.010   6.711   6.753
10805SOL    HW133314   4.075   6.665   6.693
10805SOL    HW233315   4.032   6.691   6.849
10806SOL     OW33316   4.732   3.717   5.903
10806SOL    HW133317   4.829   3.696   5.889
10806SOL    HW233318   4.701   3.675   5.989
10807SOL     OW33319   1.453   6.539   2.788
10807SOL    HW133320   1.446   6.549   2.688
10807SOL    HW233321   1.401   6.613   2.832
10808SOL     OW33322   6.398   3.381   6.465
10808SOL    HW133323   6.375   3.322   6.387
10808SOL    HW233324   6.488   3.421   6.451
10809SOL     OW33325   3.110   6.131   3.872
10809SOL    HW133326   3.156   6.047   3.903
10809SOL    HW233327   3.170   6.180   3.808
10810SOL     OW33328   2.179   0.507   4.692
10810SOL    HW133329   2.184   0.439   4.765
10810SOL    HW233330   2.168   0.460   4.604
10811SOL     OW33331   3.918   4.533   5.597
10811SOL    HW133332   3.882   4.471   5.528
10811SOL    HW233333   3.843   4.582   5.641
10812SOL     OW33334   0.870   3.558   1.617
10812SOL    HW133335   0.860   3.498   1.697
10812SOL    HW233336   0.962   3.596   1.615
10813SOL     OW33337   2.153   4.981   0.002
10813SOL    HW133338   2.078   5.036   0.038
10813SOL    HW233339   2.121   4.888   7.010
10814SOL     OW33340   1.398   6.566   6.544
10814SOL    HW133341   1.480   6.572   6.487
10814SOL    HW233342   1.366   6.658   6.566
10815SOL     OW33343   4.530   4.441   3.924
10815SOL    HW133344   4.505   4.391   4.007
10815SOL    HW233345   4.600   4.509   3.946
10816SOL     OW33346   1.855   2.370   1.429
10816SOL    HW133347   1.950   2.347   1.448
10816SOL    HW233348   1.817   2.422   1.506
10817SOL     OW33349   5.226   6.756   3.313
10817SOL    HW133350   5.249   6.683   3.250
10817SOL    HW233351   5.304   6.818   3.323
10818SOL     OW33352   4.321   4.532   5.473
10818SOL    HW133353   4.412   4.515   5.512
10818SOL    HW233354   4.254   4.478   5.523
10819SOL     OW33355   6.693   4.552   6.665
10819SOL    HW133356   6.595   4.546   6.646
10819SOL    HW233357   6.742   4.575   6.582
10820SOL     OW33358   6.098   5.865   4.021
10820SOL    HW133359   6.033   5.941   4.026
10820SOL    HW233360   6.048   5.779   4.020
10821SOL     OW33361   5.719   6.649   1.847
10821SOL    HW133362   5.705   6.706   1.766
10821SOL    HW233363   5.639   6.590   1.860
10822SOL     OW33364   1.001   2.986   3.002
10822SOL    HW133365   0.965   3.055   3.065
10822SOL    HW233366   0.998   3.021   2.909
10823SOL     OW33367   1.661   5.624   1.098
10823SOL    HW133368   1.681   5.589   1.189
10823SOL    HW233369   1.585   5.573   1.058
10824SOL     OW33370   6.168   0.943   3.294
10824SOL    HW133371   6.189   0.890   3.376
10824SOL    HW233372   6.103   1.015   3.316
10825SOL     OW33373   2.778   0.499   6.182
10825SOL    HW133374   2.860   0.477   6.129
10825SOL    HW233375   2.733   0.414   6.210
10826SOL     OW33376   0.721   3.335   3.589
10826SOL    HW133377   0.745   3.274   3.665
10826SOL    HW233378   0.671   3.414   3.625
10827SOL     OW33379   6.079   4.198   4.381
10827SOL    HW133380   6.098   4.194   4.479
10827SOL    HW233381   6.010   4.130   4.356
10828SOL     OW33382   0.893   5.255   2.040
10828SOL    HW133383   0.877   5.156   2.047
10828SOL    HW233384   0.953   5.274   1.963
10829SOL     OW33385   3.418   2.113   0.933
10829SOL    HW133386   3.404   2.048   0.858
10829SOL    HW233387   3.492   2.176   0.908
10830SOL     OW33388   5.362   1.833   3.814
10830SOL    HW133389   5.421   1.754   3.830
10830SOL    HW233390   5.412   1.901   3.760
10831SOL     OW33391   3.825   6.040   2.036
10831SOL    HW133392   3.921   6.039   2.065
10831SOL    HW233393   3.810   5.968   1.968
10832SOL     OW33394   1.215   2.595   0.189
10832SOL    HW133395   1.270   2.536   0.249
10832SOL    HW233396   1.126   2.610   0.231
10833SOL     OW33397   1.400   1.218   2.104
10833SOL    HW133398   1.411   1.261   2.015
10833SOL    HW233399   1.481   1.163   2.125
10834SOL     OW33400   1.010   2.214   6.431
10834SOL    HW133401   1.008   2.313   6.432
10834SOL    HW233402   1.032   2.180   6.523
10835SOL     OW33403   6.570   1.975   0.178
10835SOL    HW133404   6.637   1.967   0.103
10835SOL    HW233405   6.517   1.890   0.183
10836SOL     OW33406   0.074   2.114   4.477
10836SOL    HW133407   0.051   2.212   4.472
10836SOL    HW233408   0.003   2.061   4.431
10837SOL     OW33409   6.992   4.909   0.016
10837SOL    HW133410   0.049   4.957   7.006
10837SOL    HW233411   6.910   4.955   7.009
10838SOL     OW33412   5.839   6.481   4.893
10838SOL    HW133413   5.882   6.391   4.901
10838SOL    HW233414   5.770   6.478   4.821
10839SOL     OW33415   3.858   2.906   1.229
10839SOL    HW133416   3.890   2.834   1.291
10839SOL    HW233417   3.758   2.910   1.231
10840SOL     OW33418   3.877   5.504   1.983
10840SOL    HW133419   3.793   5.469   2.025
10840SOL    HW233420   3.876   5.482   1.885
10841SOL     OW33421   4.959   5.409   0.281
10841SOL    HW133422   4.882   5.421   0.343
10841SOL    HW233423   4.927   5.374   0.193
10842SOL     OW33424   4.986   2.451   1.412
10842SOL    HW133425   5.022   2.386   1.479
10842SOL    HW233426   4.894   2.480   1.439
10843SOL     OW33427   1.195   2.444   1.225
10843SOL    HW133428   1.213   2.346   1.231
10843SOL    HW233429   1.125   2.461   1.156
10844SOL     OW33430   0.560   6.739   3.786
10844SOL    HW133431   0.547   6.696   3.696
10844SOL    HW233432   0.509   6.688   3.855
10845SOL     OW33433   3.245   0.318   5.704
10845SOL    HW133434   3.243   0.312   5.604
10845SOL    HW233435   3.289   0.237   5.742
10846SOL     OW33436   4.767   2.381   1.242
10846SOL    HW133437   4.854   2.408   1.202
10846SOL    HW233438   4.777   2.373   1.341
10847SOL     OW33439   3.963   3.735   6.395
10847SOL    HW133440   3.945   3.638   6.376
10847SOL    HW233441   4.024   3.742   6.474
10848SOL     OW33442   3.097   2.621   6.621
10848SOL    HW133443   3.088   2.622   6.521
10848SOL    HW233444   3.160   2.547   6.647
10849SOL     OW33445   2.582   5.672   3.213
10849SOL    HW133446   2.573   5.771   3.206
10849SOL    HW233447   2.571   5.631   3.123
10850SOL     OW33448   3.696   5.551   0.019
10850SOL    HW133449   3.668   5.598   6.959
10850SOL    HW233450   3.776   5.495   0.000
10851SOL     OW33451   2.511   2.687   6.297
10851SOL    HW133452   2.428   2.669   6.348
10851SOL    HW233453   2.579   2.731   6.357
10852SOL     OW33454   0.998   0.013   6.756
10852SOL    HW133455   1.076   0.076   6.755
10852SOL    HW233456   0.936   0.039   6.830
10853SOL     OW33457   3.226   2.273   5.656
10853SOL    HW133458   3.176   2.360   5.650
10853SOL    HW233459   3.313   2.288   5.702
10854SOL     OW33460   5.007   6.704   5.081
10854SOL    HW133461   4.912   6.702   5.049
10854SOL    HW233462   5.008   6.711   5.181
10855SOL     OW33463   2.762   6.482   1.567
10855SOL    HW133464   2.679   6.465   1.514
10855SOL    HW233465   2.739   6.491   1.664
10856SOL     OW33466   5.908   1.961   1.716
10856SOL    HW133467   5.950   2.044   1.679
10856SOL    HW233468   5.891   1.897   1.642
10857SOL     OW33469   5.807   2.413   3.089
10857SOL    HW133470   5.847   2.425   3.179
10857SOL    HW233471   5.806   2.502   3.041
10858SOL     OW33472   0.774   2.098   6.356
10858SOL    HW133473   0.852   2.156   6.381
10858SOL    HW233474   0.718   2.082   6.437
10859SOL     OW33475   2.155   3.402   4.124
10859SOL    HW133476   2.138   3.320   4.179
10859SOL    HW233477   2.252   3.423   4.125
10860SOL     OW33478   6.638   1.502   6.018
10860SOL    HW133479   6.638   1.572   6.089
10860SOL    HW233480   6.602   1.541   5.933
10861SOL     OW33481   3.844   3.394   3.025
10861SOL    HW133482   3.937   3.358   3.038
10861SOL    HW233483   3.819   3.386   2.929
10862SOL     OW33484   2.821   1.729   6.295
10862SOL    HW133485   2.859   1.752   6.205
10862SOL    HW233486   2.892   1.740   6.365
10863SOL     OW33487   3.958   0.276   3.026
10863SOL    HW133488   3.958   0.374   3.007
10863SOL    HW233489   4.045   0.251   3.070
10864SOL     OW33490   3.684   5.518   0.645
10864SOL    HW133491   3.713   5.536   0.739
10864SOL    HW233492   3.662   5.421   0.634
10865SOL     OW33493   6.115   1.343   2.970
10865SOL    HW133494   6.136   1.432   2.928
10865SOL    HW233495   6.062   1.288   2.906
10866SOL     OW33496   4.624   4.543   0.544
10866SOL    HW133497   4.564   4.620   0.520
10866SOL    HW233498   4.572   4.458   0.540
10867SOL     OW33499   3.125   3.996   0.053
10867SOL    HW133500   3.127   4.042   0.141
10867SOL    HW233501   3.209   4.017   0.002
10868SOL     OW33502   2.576   2.391   3.584
10868SOL    HW133503   2.608   2.409   3.491
10868SOL    HW233504   2.606   2.300   3.613
10869NA      NA33505   0.685   2.338   5.932
10870NA      NA33506   4.284   4.635   5.258
10871NA      NA33507   1.980   4.317   2.416
10872NA      NA33508   4.996   4.280   3.801
10873NA      NA33509   4.167   2.295   5.238
10874NA      NA33510   3.171   4.677   1.491
10875NA      NA33511   0.055   4.522   0.273
10876NA      NA33512   3.287   3.440   3.110
10877NA      NA33513   4.868   5.161   1.069
10878NA      NA33514   3.701   6.865   5.335
10879NA      NA33515   6.053   5.521   1.162
10880NA      NA33516   2.144   0.754   4.766
10881NA      NA33517   3.964   5.088   1.855
10882NA      NA33518   4.027   3.294   1.727
   7.02433   7.02433   7.02433
