Generated by trjconv : CNT in water t= 262.00000
33518
    1C        C    1   2.841   2.766   4.747
    1C        C    2   2.896   2.716   4.867
    1C        C    3   2.841   2.771   4.983
    1C        C    4   2.844   2.769   4.258
    1C        C    5   2.896   2.721   4.380
    1C        C    6   2.845   2.770   4.502
    1C        C    7   3.009   2.638   4.624
    1C        C    8   2.893   2.719   4.625
    1C        C    9   3.075   2.603   4.743
    1C        C   10   3.008   2.630   4.864
    1C        C   11   3.177   2.490   4.976
    1C        C   12   3.054   2.557   4.974
    1C        C   13   2.847   2.767   3.772
    1C        C   14   2.896   2.717   3.894
    1C        C   15   2.844   2.765   4.016
    1C        C   16   3.014   2.637   4.140
    1C        C   17   2.898   2.718   4.138
    1C        C   18   3.078   2.606   4.262
    1C        C   19   3.013   2.641   4.382
    1C        C   20   3.208   2.558   4.505
    1C        C   21   3.074   2.602   4.503
    1C        C   22   3.276   2.536   4.627
    1C        C   23   3.206   2.547   4.749
    1C        C   24   3.413   2.491   4.868
    1C        C   25   3.271   2.504   4.868
    1C        C   26   3.490   2.485   4.985
    1C        C   27   2.852   2.769   3.284
    1C        C   28   2.907   2.723   3.405
    1C        C   29   2.857   2.771   3.528
    1C        C   30   3.021   2.641   3.652
    1C        C   31   2.906   2.722   3.651
    1C        C   32   3.080   2.605   3.776
    1C        C   33   3.014   2.639   3.897
    1C        C   34   3.205   2.545   4.020
    1C        C   35   3.075   2.600   4.018
    1C        C   36   3.274   2.523   4.141
    1C        C   37   3.207   2.549   4.262
    1C        C   38   3.416   2.511   4.382
    1C        C   39   3.277   2.535   4.384
    1C        C   40   3.485   2.502   4.505
    1C        C   41   3.414   2.506   4.628
    1C        C   42   3.630   2.493   4.748
    1C        C   43   3.488   2.492   4.747
    1C        C   44   3.706   2.484   4.866
    1C        C   45   3.629   2.482   4.983
    1C        C   46   2.844   2.758   2.795
    1C        C   47   2.897   2.713   2.918
    1C        C   48   2.845   2.765   3.038
    1C        C   49   3.015   2.636   3.163
    1C        C   50   2.901   2.720   3.161
    1C        C   51   3.081   2.605   3.284
    1C        C   52   3.021   2.639   3.407
    1C        C   53   3.210   2.546   3.528
    1C        C   54   3.082   2.604   3.530
    1C        C   55   3.274   2.520   3.651
    1C        C   56   3.207   2.544   3.773
    1C        C   57   3.412   2.503   3.895
    1C        C   58   3.274   2.529   3.897
    1C        C   59   3.482   2.489   4.017
    1C        C   60   3.413   2.495   4.140
    1C        C   61   3.628   2.503   4.259
    1C        C   62   3.487   2.497   4.260
    1C        C   63   3.697   2.512   4.382
    1C        C   64   3.626   2.505   4.504
    1C        C   65   3.833   2.552   4.623
    1C        C   66   3.698   2.513   4.625
    1C        C   67   3.902   2.568   4.745
    1C        C   68   3.839   2.532   4.866
    1C        C   69   4.051   2.584   4.977
    1C        C   70   3.920   2.535   4.980
    1C        C   71   2.824   2.731   2.313
    1C        C   72   2.888   2.690   2.432
    1C        C   73   2.837   2.746   2.551
    1C        C   74   3.009   2.624   2.674
    1C        C   75   2.892   2.703   2.674
    1C        C   76   3.071   2.590   2.796
    1C        C   77   3.014   2.633   2.918
    1C        C   78   3.206   2.546   3.037
    1C        C   79   3.075   2.599   3.041
    1C        C   80   3.274   2.528   3.159
    1C        C   81   3.208   2.544   3.283
    1C        C   82   3.414   2.494   3.404
    1C        C   83   3.275   2.520   3.405
    1C        C   84   3.484   2.493   3.526
    1C        C   85   3.414   2.501   3.649
    1C        C   86   3.624   2.504   3.770
    1C        C   87   3.483   2.495   3.772
    1C        C   88   3.694   2.514   3.892
    1C        C   89   3.623   2.503   4.014
    1C        C   90   3.831   2.551   4.137
    1C        C   91   3.695   2.514   4.135
    1C        C   92   3.898   2.576   4.259
    1C        C   93   3.834   2.545   4.381
    1C        C   94   4.026   2.641   4.501
    1C        C   95   3.901   2.575   4.501
    1C        C   96   4.089   2.677   4.622
    1C        C   97   4.030   2.631   4.742
    1C        C   98   4.196   2.761   4.862
    1C        C   99   4.100   2.655   4.863
    1C        C  100   4.221   2.841   4.975
    1C        C  101   2.825   2.729   2.073
    1C        C  102   2.993   2.594   2.192
    1C        C  103   2.875   2.676   2.192
    1C        C  104   3.067   2.573   2.311
    1C        C  105   3.002   2.607   2.432
    1C        C  106   3.200   2.527   2.552
    1C        C  107   3.069   2.580   2.554
    1C        C  108   3.270   2.511   2.674
    1C        C  109   3.200   2.532   2.795
    1C        C  110   3.412   2.496   2.916
    1C        C  111   3.273   2.519   2.916
    1C        C  112   3.484   2.489   3.037
    1C        C  113   3.413   2.503   3.159
    1C        C  114   3.625   2.503   3.282
    1C        C  115   3.484   2.494   3.281
    1C        C  116   3.695   2.514   3.404
    1C        C  117   3.625   2.498   3.527
    1C        C  118   3.831   2.551   3.649
    1C        C  119   3.695   2.512   3.649
    1C        C  120   3.896   2.572   3.773
    1C        C  121   3.831   2.546   3.895
    1C        C  122   4.021   2.648   4.015
    1C        C  123   3.898   2.578   4.016
    1C        C  124   4.084   2.683   4.136
    1C        C  125   4.024   2.640   4.257
    1C        C  126   4.195   2.768   4.379
    1C        C  127   4.084   2.681   4.378
    1C        C  128   4.247   2.820   4.499
    1C        C  129   4.195   2.770   4.621
    1C        C  130   4.326   2.937   4.738
    1C        C  131   4.244   2.822   4.743
    1C        C  132   4.359   3.000   4.860
    1C        C  133   4.288   2.963   4.975
    1C        C  134   3.170   2.466   2.085
    1C        C  135   3.036   2.509   2.085
    1C        C  136   3.261   2.471   2.191
    1C        C  137   3.198   2.517   2.309
    1C        C  138   3.406   2.476   2.431
    1C        C  139   3.267   2.497   2.431
    1C        C  140   3.481   2.481   2.551
    1C        C  141   3.409   2.488   2.672
    1C        C  142   3.623   2.496   2.793
    1C        C  143   3.482   2.487   2.794
    1C        C  144   3.696   2.506   2.913
    1C        C  145   3.625   2.493   3.035
    1C        C  146   3.830   2.541   3.156
    1C        C  147   3.693   2.506   3.158
    1C        C  148   3.896   2.569   3.278
    1C        C  149   3.831   2.549   3.402
    1C        C  150   4.024   2.631   3.525
    1C        C  151   3.897   2.570   3.525
    1C        C  152   4.078   2.678   3.647
    1C        C  153   4.019   2.641   3.770
    1C        C  154   4.191   2.769   3.887
    1C        C  155   4.080   2.681   3.891
    1C        C  156   4.246   2.814   4.009
    1C        C  157   4.199   2.766   4.134
    1C        C  158   4.343   2.919   4.250
    1C        C  159   4.251   2.812   4.257
    1C        C  160   4.381   2.982   4.371
    1C        C  161   4.334   2.931   4.494
    1C        C  162   4.444   3.114   4.616
    1C        C  163   4.367   2.995   4.616
    1C        C  164   4.477   3.181   4.736
    1C        C  165   4.440   3.116   4.856
    1C        C  166   4.516   3.317   4.973
    1C        C  167   4.479   3.183   4.972
    1C        C  168   3.475   2.437   2.073
    1C        C  169   3.401   2.452   2.190
    1C        C  170   3.618   2.474   2.305
    1C        C  171   3.476   2.462   2.309
    1C        C  172   3.692   2.489   2.424
    1C        C  173   3.622   2.488   2.547
    1C        C  174   3.828   2.540   2.664
    1C        C  175   3.690   2.508   2.669
    1C        C  176   3.895   2.564   2.786
    1C        C  177   3.832   2.545   2.911
    1C        C  178   4.025   2.626   3.032
    1C        C  179   3.899   2.563   3.035
    1C        C  180   4.079   2.671   3.155
    1C        C  181   4.020   2.637   3.279
    1C        C  182   4.196   2.752   3.399
    1C        C  183   4.082   2.669   3.402
    1C        C  184   4.250   2.802   3.520
    1C        C  185   4.193   2.760   3.642
    1C        C  186   4.340   2.915   3.765
    1C        C  187   4.247   2.808   3.763
    1C        C  188   4.385   2.973   3.886
    1C        C  189   4.337   2.922   4.009
    1C        C  190   4.448   3.105   4.127
    1C        C  191   4.382   2.980   4.129
    1C        C  192   4.472   3.173   4.249
    1C        C  193   4.447   3.107   4.371
    1C        C  194   4.507   3.312   4.491
    1C        C  195   4.476   3.174   4.492
    1C        C  196   4.525   3.386   4.610
    1C        C  197   4.513   3.318   4.733
    1C        C  198   4.561   3.530   4.849
    1C        C  199   4.534   3.390   4.854
    1C        C  200   4.588   3.618   4.959
    1C        C  201   3.613   2.414   2.076
    1C        C  202   3.828   2.507   2.182
    1C        C  203   3.693   2.461   2.185
    1C        C  204   3.901   2.537   2.301
    1C        C  205   3.830   2.520   2.421
    1C        C  206   4.023   2.616   2.542
    1C        C  207   3.896   2.554   2.541
    1C        C  208   4.083   2.657   2.663
    1C        C  209   4.022   2.626   2.786
    1C        C  210   4.193   2.750   2.906
    1C        C  211   4.085   2.659   2.909
    1C        C  212   4.245   2.798   3.029
    1C        C  213   4.192   2.756   3.153
    1C        C  214   4.331   2.913   3.270
    1C        C  215   4.245   2.801   3.276
    1C        C  216   4.372   2.970   3.393
    1C        C  217   4.339   2.912   3.518
    1C        C  218   4.432   3.101   3.639
    1C        C  219   4.375   2.972   3.641
    1C        C  220   4.458   3.168   3.761
    1C        C  221   4.444   3.101   3.884
    1C        C  222   4.501   3.308   4.005
    1C        C  223   4.472   3.170   4.004
    1C        C  224   4.511   3.381   4.125
    1C        C  225   4.503   3.310   4.248
    1C        C  226   4.522   3.523   4.366
    1C        C  227   4.520   3.382   4.368
    1C        C  228   4.524   3.599   4.485
    1C        C  229   4.537   3.526   4.606
    1C        C  230   4.503   3.737   4.723
    1C        C  231   4.541   3.600   4.727
    1C        C  232   4.495   3.814   4.841
    1C        C  233   4.548   3.752   4.955
    1C        C  234   4.014   2.615   2.062
    1C        C  235   3.896   2.541   2.064
    1C        C  236   4.083   2.652   2.178
    1C        C  237   4.025   2.607   2.298
    1C        C  238   4.199   2.734   2.421
    1C        C  239   4.084   2.651   2.419
    1C        C  240   4.252   2.785   2.541
    1C        C  241   4.195   2.744   2.664
    1C        C  242   4.341   2.902   2.783
    1C        C  243   4.248   2.795   2.784
    1C        C  244   4.378   2.962   2.905
    1C        C  245   4.338   2.904   3.028
    1C        C  246   4.443   3.092   3.149
    1C        C  247   4.378   2.967   3.148
    1C        C  248   4.465   3.158   3.271
    1C        C  249   4.434   3.097   3.395
    1C        C  250   4.501   3.299   3.515
    1C        C  251   4.460   3.164   3.516
    1C        C  252   4.505   3.372   3.636
    1C        C  253   4.495   3.305   3.759
    1C        C  254   4.518   3.516   3.877
    1C        C  255   4.515   3.374   3.881
    1C        C  256   4.516   3.590   3.997
    1C        C  257   4.520   3.522   4.121
    1C        C  258   4.486   3.731   4.240
    1C        C  259   4.514   3.592   4.243
    1C        C  260   4.466   3.801   4.361
    1C        C  261   4.489   3.735   4.484
    1C        C  262   4.428   3.941   4.603
    1C        C  263   4.473   3.807   4.604
    1C        C  264   4.403   4.011   4.723
    1C        C  265   4.439   3.944   4.842
    1C        C  266   4.321   4.128   4.961
    1C        C  267   4.390   4.007   4.957
    1C        C  268   4.261   2.778   2.061
    1C        C  269   4.193   2.741   2.178
    1C        C  270   4.343   2.893   2.297
    1C        C  271   4.249   2.786   2.299
    1C        C  272   4.389   2.951   2.417
    1C        C  273   4.343   2.893   2.537
    1C        C  274   4.446   3.081   2.662
    1C        C  275   4.378   2.958   2.658
    1C        C  276   4.475   3.151   2.782
    1C        C  277   4.442   3.088   2.904
    1C        C  278   4.503   3.293   3.025
    1C        C  279   4.468   3.156   3.025
    1C        C  280   4.508   3.364   3.147
    1C        C  281   4.498   3.296   3.270
    1C        C  282   4.515   3.509   3.392
    1C        C  283   4.511   3.368   3.391
    1C        C  284   4.514   3.584   3.512
    1C        C  285   4.513   3.513   3.635
    1C        C  286   4.493   3.727   3.753
    1C        C  287   4.516   3.587   3.755
    1C        C  288   4.478   3.797   3.875
    1C        C  289   4.494   3.729   3.998
    1C        C  290   4.422   3.932   4.114
    1C        C  291   4.476   3.802   4.118
    1C        C  292   4.391   3.998   4.235
    1C        C  293   4.414   3.932   4.358
    1C        C  294   4.322   4.123   4.479
    1C        C  295   4.392   4.000   4.480
    1C        C  296   4.283   4.181   4.602
    1C        C  297   4.332   4.134   4.725
    1C        C  298   4.205   4.315   4.838
    1C        C  299   4.287   4.198   4.844
    1C        C  300   4.169   4.402   4.946
    1C        C  301   4.348   2.887   2.062
    1C        C  302   4.475   3.069   2.174
    1C        C  303   4.395   2.950   2.178
    1C        C  304   4.489   3.140   2.296
    1C        C  305   4.453   3.077   2.417
    1C        C  306   4.507   3.282   2.535
    1C        C  307   4.477   3.144   2.539
    1C        C  308   4.516   3.356   2.655
    1C        C  309   4.505   3.289   2.779
    1C        C  310   4.527   3.500   2.900
    1C        C  311   4.521   3.359   2.901
    1C        C  312   4.513   3.572   3.021
    1C        C  313   4.509   3.505   3.145
    1C        C  314   4.482   3.714   3.264
    1C        C  315   4.506   3.575   3.268
    1C        C  316   4.472   3.786   3.386
    1C        C  317   4.493   3.723   3.511
    1C        C  318   4.421   3.926   3.627
    1C        C  319   4.472   3.794   3.631
    1C        C  320   4.391   3.990   3.749
    1C        C  321   4.423   3.927   3.871
    1C        C  322   4.317   4.115   3.991
    1C        C  323   4.389   3.994   3.991
    1C        C  324   4.276   4.173   4.113
    1C        C  325   4.323   4.121   4.236
    1C        C  326   4.193   4.290   4.356
    1C        C  327   4.287   4.185   4.357
    1C        C  328   4.140   4.340   4.477
    1C        C  329   4.193   4.290   4.599
    1C        C  330   4.026   4.433   4.714
    1C        C  331   4.141   4.350   4.716
    1C        C  332   3.972   4.492   4.830
    1C        C  333   4.053   4.480   4.944
    1C        C  334   4.554   3.269   2.059
    1C        C  335   4.536   3.130   2.060
    1C        C  336   4.539   3.350   2.173
    1C        C  337   4.515   3.280   2.293
    1C        C  338   4.524   3.495   2.411
    1C        C  339   4.517   3.354   2.414
    1C        C  340   4.528   3.566   2.533
    1C        C  341   4.525   3.497   2.656
    1C        C  342   4.494   3.707   2.774
    1C        C  343   4.519   3.568   2.777
    1C        C  344   4.474   3.779   2.894
    1C        C  345   4.490   3.711   3.017
    1C        C  346   4.418   3.911   3.138
    1C        C  347   4.469   3.779   3.139
    1C        C  348   4.391   3.981   3.258
    1C        C  349   4.426   3.919   3.380
    1C        C  350   4.320   4.105   3.502
    1C        C  351   4.394   3.985   3.501
    1C        C  352   4.277   4.167   3.621
    1C        C  353   4.318   4.111   3.744
    1C        C  354   4.180   4.271   3.866
    1C        C  355   4.279   4.170   3.866
    1C        C  356   4.128   4.321   3.987
    1C        C  357   4.178   4.275   4.110
    1C        C  358   4.018   4.409   4.229
    1C        C  359   4.134   4.329   4.233
    1C        C  360   3.957   4.452   4.349
    1C        C  361   4.021   4.415   4.470
    1C        C  362   3.833   4.515   4.591
    1C        C  363   3.962   4.459   4.590
    1C        C  364   3.765   4.543   4.712
    1C        C  365   3.842   4.547   4.830
    1C        C  366   3.634   4.593   4.947
    1C        C  367   3.772   4.578   4.947
    1C        C  368   4.514   3.568   2.054
    1C        C  369   4.528   3.491   2.170
    1C        C  370   4.508   3.707   2.289
    1C        C  371   4.524   3.567   2.289
    1C        C  372   4.488   3.775   2.412
    1C        C  373   4.505   3.706   2.534
    1C        C  374   4.420   3.906   2.651
    1C        C  375   4.478   3.777   2.652
    1C        C  376   4.394   3.975   2.772
    1C        C  377   4.426   3.912   2.894
    1C        C  378   4.321   4.098   3.012
    1C        C  379   4.392   3.976   3.016
    1C        C  380   4.273   4.154   3.132
    1C        C  381   4.312   4.097   3.256
    1C        C  382   4.178   4.261   3.376
    1C        C  383   4.272   4.155   3.379
    1C        C  384   4.125   4.310   3.498
    1C        C  385   4.181   4.270   3.622
    1C        C  386   4.008   4.394   3.742
    1C        C  387   4.128   4.318   3.743
    1C        C  388   3.947   4.429   3.864
    1C        C  389   4.011   4.401   3.987
    1C        C  390   3.821   4.496   4.107
    1C        C  391   3.950   4.438   4.109
    1C        C  392   3.755   4.521   4.229
    1C        C  393   3.827   4.507   4.350
    1C        C  394   3.621   4.557   4.472
    1C        C  395   3.760   4.533   4.472
    1C        C  396   3.550   4.567   4.594
    1C        C  397   3.625   4.567   4.714
    1C        C  398   3.414   4.546   4.839
    1C        C  399   3.552   4.572   4.834
    1C        C  400   3.346   4.513   4.957
    1C        C  401   4.505   3.706   2.050
    1C        C  402   4.458   3.916   2.169
    1C        C  403   4.495   3.780   2.169
    1C        C  404   4.420   3.979   2.289
    1C        C  405   4.439   3.907   2.409
    1C        C  406   4.327   4.093   2.528
    1C        C  407   4.400   3.972   2.528
    1C        C  408   4.276   4.147   2.648
    1C        C  409   4.314   4.091   2.772
    1C        C  410   4.172   4.252   2.887
    1C        C  411   4.276   4.156   2.891
    1C        C  412   4.120   4.300   3.009
    1C        C  413   4.175   4.256   3.131
    1C        C  414   4.004   4.380   3.253
    1C        C  415   4.123   4.304   3.253
    1C        C  416   3.942   4.418   3.375
    1C        C  417   4.005   4.385   3.497
    1C        C  418   3.813   4.475   3.619
    1C        C  419   3.943   4.419   3.619
    1C        C  420   3.748   4.502   3.741
    1C        C  421   3.818   4.487   3.863
    1C        C  422   3.613   4.534   3.985
    1C        C  423   3.752   4.513   3.985
    1C        C  424   3.543   4.541   4.108
    1C        C  425   3.616   4.542   4.229
    1C        C  426   3.406   4.544   4.357
    1C        C  427   3.547   4.557   4.351
    1C        C  428   3.334   4.549   4.478
    1C        C  429   3.409   4.557   4.597
    1C        C  430   3.199   4.519   4.722
    1C        C  431   3.339   4.546   4.719
    1C        C  432   3.127   4.498   4.842
    1C        C  433   3.208   4.497   4.956
    1C        C  434   4.389   4.122   2.054
    1C        C  435   4.452   3.997   2.055
    1C        C  436   4.308   4.159   2.165
    1C        C  437   4.341   4.098   2.289
    1C        C  438   4.180   4.246   2.401
    1C        C  439   4.286   4.152   2.407
    1C        C  440   4.124   4.294   2.521
    1C        C  441   4.178   4.249   2.644
    1C        C  442   4.004   4.378   2.763
    1C        C  443   4.121   4.297   2.763
    1C        C  444   3.946   4.412   2.887
    1C        C  445   4.005   4.382   3.012
    1C        C  446   3.812   4.474   3.131
    1C        C  447   3.942   4.418   3.133
    1C        C  448   3.745   4.498   3.253
    1C        C  449   3.812   4.472   3.375
    1C        C  450   3.609   4.533   3.499
    1C        C  451   3.747   4.501   3.497
    1C        C  452   3.540   4.542   3.622
    1C        C  453   3.610   4.533   3.744
    1C        C  454   3.397   4.538   3.868
    1C        C  455   3.538   4.540   3.865
    1C        C  456   3.331   4.529   3.992
    1C        C  457   3.402   4.539   4.114
    1C        C  458   3.195   4.498   4.239
    1C        C  459   3.333   4.530   4.237
    1C        C  460   3.128   4.480   4.362
    1C        C  461   3.197   4.514   4.481
    1C        C  462   2.998   4.439   4.604
    1C        C  463   3.127   4.495   4.603
    1C        C  464   2.932   4.403   4.724
    1C        C  465   2.993   4.448   4.844
    1C        C  466   2.805   4.335   4.960
    1C        C  467   2.914   4.423   4.961
    1C        C  468   4.132   4.285   2.043
    1C        C  469   4.188   4.238   2.162
    1C        C  470   4.005   4.366   2.275
    1C        C  471   4.126   4.291   2.279
    1C        C  472   3.945   4.405   2.397
    1C        C  473   4.006   4.372   2.520
    1C        C  474   3.813   4.465   2.642
    1C        C  475   3.943   4.411   2.640
    1C        C  476   3.747   4.490   2.765
    1C        C  477   3.817   4.471   2.886
    1C        C  478   3.609   4.521   3.010
    1C        C  479   3.747   4.493   3.007
    1C        C  480   3.535   4.528   3.130
    1C        C  481   3.606   4.521   3.253
    1C        C  482   3.398   4.535   3.379
    1C        C  483   3.540   4.538   3.376
    1C        C  484   3.327   4.532   3.501
    1C        C  485   3.399   4.542   3.623
    1C        C  486   3.191   4.497   3.746
    1C        C  487   3.328   4.532   3.745
    1C        C  488   3.126   4.476   3.870
    1C        C  489   3.193   4.499   3.992
    1C        C  490   3.007   4.405   4.117
    1C        C  491   3.129   4.478   4.116
    1C        C  492   2.944   4.379   4.240
    1C        C  493   3.001   4.420   4.363
    1C        C  494   2.824   4.307   4.482
    1C        C  495   2.934   4.395   4.485
    1C        C  496   2.773   4.260   4.605
    1C        C  497   2.820   4.315   4.726
    1C        C  498   2.669   4.162   4.846
    1C        C  499   2.755   4.274   4.845
    1C        C  500   2.595   4.119   4.958
    1C        C  501   4.011   4.353   2.038
    1C        C  502   3.817   4.462   2.152
    1C        C  503   3.943   4.399   2.152
    1C        C  504   3.750   4.482   2.275
    1C        C  505   3.814   4.457   2.398
    1C        C  506   3.606   4.505   2.518
    1C        C  507   3.745   4.481   2.519
    1C        C  508   3.537   4.511   2.641
    1C        C  509   3.608   4.514   2.763
    1C        C  510   3.398   4.528   2.888
    1C        C  511   3.540   4.526   2.887
    1C        C  512   3.327   4.522   3.010
    1C        C  513   3.394   4.534   3.133
    1C        C  514   3.191   4.487   3.257
    1C        C  515   3.328   4.523   3.257
    1C        C  516   3.124   4.463   3.380
    1C        C  517   3.191   4.495   3.500
    1C        C  518   3.001   4.406   3.626
    1C        C  519   3.125   4.474   3.623
    1C        C  520   2.943   4.369   3.749
    1C        C  521   3.002   4.409   3.871
    1C        C  522   2.831   4.287   3.997
    1C        C  523   2.946   4.369   3.994
    1C        C  524   2.781   4.241   4.121
    1C        C  525   2.834   4.290   4.242
    1C        C  526   2.687   4.138   4.363
    1C        C  527   2.774   4.249   4.363
    1C        C  528   2.652   4.079   4.486
    1C        C  529   2.685   4.149   4.604
    1C        C  530   2.584   3.963   4.728
    1C        C  531   2.642   4.093   4.726
    1C        C  532   2.538   3.903   4.848
    1C        C  533   2.528   3.997   4.956
    1C        C  534   3.622   4.558   2.039
    1C        C  535   3.754   4.511   2.037
    1C        C  536   3.540   4.534   2.154
    1C        C  537   3.612   4.518   2.276
    1C        C  538   3.396   4.521   2.400
    1C        C  539   3.537   4.519   2.395
    1C        C  540   3.325   4.513   2.522
    1C        C  541   3.396   4.514   2.644
    1C        C  542   3.190   4.483   2.764
    1C        C  543   3.327   4.515   2.767
    1C        C  544   3.127   4.455   2.887
    1C        C  545   3.192   4.480   3.011
    1C        C  546   2.998   4.402   3.134
    1C        C  547   3.126   4.462   3.135
    1C        C  548   2.936   4.367   3.256
    1C        C  549   2.999   4.398   3.379
    1C        C  550   2.830   4.280   3.508
    1C        C  551   2.939   4.370   3.504
    1C        C  552   2.777   4.234   3.630
    1C        C  553   2.829   4.286   3.751
    1C        C  554   2.693   4.127   3.877
    1C        C  555   2.777   4.241   3.875
    1C        C  556   2.656   4.067   3.999
    1C        C  557   2.695   4.129   4.120
    1C        C  558   2.594   3.946   4.246
    1C        C  559   2.648   4.076   4.242
    1C        C  560   2.565   3.882   4.369
    1C        C  561   2.590   3.952   4.489
    1C        C  562   2.539   3.748   4.615
    1C        C  563   2.562   3.887   4.611
    1C        C  564   2.527   3.681   4.738
    1C        C  565   2.525   3.760   4.856
    1C        C  566   2.527   3.547   4.981
    1C        C  567   2.521   3.686   4.975
    1C        C  568   3.330   4.470   2.046
    1C        C  569   3.399   4.518   2.159
    1C        C  570   3.185   4.484   2.282
    1C        C  571   3.323   4.516   2.279
    1C        C  572   3.115   4.466   2.403
    1C        C  573   3.186   4.488   2.524
    1C        C  574   2.989   4.407   2.651
    1C        C  575   3.115   4.470   2.644
    1C        C  576   2.930   4.365   2.773
    1C        C  577   2.998   4.398   2.892
    1C        C  578   2.828   4.271   3.017
    1C        C  579   2.938   4.360   3.013
    1C        C  580   2.776   4.224   3.140
    1C        C  581   2.828   4.277   3.261
    1C        C  582   2.693   4.118   3.385
    1C        C  583   2.781   4.229   3.385
    1C        C  584   2.660   4.059   3.509
    1C        C  585   2.696   4.118   3.632
    1C        C  586   2.601   3.934   3.756
    1C        C  587   2.661   4.062   3.756
    1C        C  588   2.573   3.872   3.880
    1C        C  589   2.596   3.939   4.002
    1C        C  590   2.535   3.739   4.127
    1C        C  591   2.571   3.876   4.125
    1C        C  592   2.525   3.672   4.251
    1C        C  593   2.534   3.744   4.372
    1C        C  594   2.517   3.533   4.499
    1C        C  595   2.527   3.674   4.495
    1C        C  596   2.516   3.464   4.622
    1C        C  597   2.518   3.539   4.742
    1C        C  598   2.539   3.329   4.864
    1C        C  599   2.528   3.470   4.864
    1C        C  600   2.533   3.247   4.978
    1C        C  601   3.195   4.444   2.044
    1C        C  602   2.983   4.401   2.162
    1C        C  603   3.119   4.445   2.162
    1C        C  604   2.927   4.364   2.287
    1C        C  605   2.991   4.398   2.408
    1C        C  606   2.823   4.271   2.532
    1C        C  607   2.929   4.365   2.530
    1C        C  608   2.772   4.221   2.653
    1C        C  609   2.822   4.274   2.774
    1C        C  610   2.687   4.110   2.897
    1C        C  611   2.774   4.221   2.896
    1C        C  612   2.650   4.051   3.020
    1C        C  613   2.689   4.113   3.141
    1C        C  614   2.587   3.931   3.267
    1C        C  615   2.652   4.056   3.265
    1C        C  616   2.568   3.865   3.390
    1C        C  617   2.597   3.932   3.511
    1C        C  618   2.535   3.731   3.638
    1C        C  619   2.573   3.867   3.634
    1C        C  620   2.522   3.664   3.762
    1C        C  621   2.534   3.736   3.883
    1C        C  622   2.519   3.526   4.010
    1C        C  623   2.525   3.667   4.006
    1C        C  624   2.520   3.457   4.134
    1C        C  625   2.519   3.531   4.254
    1C        C  626   2.545   3.323   4.380
    1C        C  627   2.521   3.462   4.377
    1C        C  628   2.559   3.254   4.502
    1C        C  629   2.536   3.325   4.622
    1C        C  630   2.596   3.121   4.743
    1C        C  631   2.551   3.256   4.744
    1C        C  632   2.618   3.047   4.863
    1C        C  633   2.553   3.108   4.975
    1C        C  634   2.786   4.300   2.057
    1C        C  635   2.894   4.388   2.050
    1C        C  636   2.758   4.226   2.172
    1C        C  637   2.815   4.276   2.291
    1C        C  638   2.679   4.111   2.410
    1C        C  639   2.765   4.223   2.412
    1C        C  640   2.643   4.050   2.532
    1C        C  641   2.686   4.109   2.653
    1C        C  642   2.587   3.922   2.779
    1C        C  643   2.648   4.050   2.776
    1C        C  644   2.562   3.856   2.901
    1C        C  645   2.590   3.923   3.022
    1C        C  646   2.536   3.722   3.148
    1C        C  647   2.564   3.861   3.147
    1C        C  648   2.519   3.656   3.271
    1C        C  649   2.527   3.729   3.391
    1C        C  650   2.513   3.522   3.520
    1C        C  651   2.519   3.663   3.516
    1C        C  652   2.519   3.452   3.643
    1C        C  653   2.514   3.523   3.765
    1C        C  654   2.544   3.315   3.890
    1C        C  655   2.523   3.455   3.888
    1C        C  656   2.553   3.249   4.014
    1C        C  657   2.542   3.318   4.138
    1C        C  658   2.605   3.116   4.257
    1C        C  659   2.560   3.249   4.260
    1C        C  660   2.636   3.053   4.380
    1C        C  661   2.606   3.120   4.501
    1C        C  662   2.712   2.939   4.626
    1C        C  663   2.631   3.055   4.623
    1C        C  664   2.748   2.874   4.746
    1C        C  665   2.699   2.930   4.868
    1C        C  666   2.745   2.872   4.987
    1C        C  667   2.684   4.019   2.053
    1C        C  668   2.699   4.098   2.168
    1C        C  669   2.591   3.915   2.292
    1C        C  670   2.650   4.044   2.289
    1C        C  671   2.560   3.850   2.414
    1C        C  672   2.589   3.919   2.533
    1C        C  673   2.519   3.721   2.661
    1C        C  674   2.565   3.854   2.657
    1C        C  675   2.508   3.649   2.782
    1C        C  676   2.529   3.719   2.903
    1C        C  677   2.509   3.510   3.030
    1C        C  678   2.524   3.650   3.027
    1C        C  679   2.508   3.442   3.154
    1C        C  680   2.509   3.515   3.275
    1C        C  681   2.536   3.308   3.402
    1C        C  682   2.512   3.448   3.399
    1C        C  683   2.559   3.241   3.524
    1C        C  684   2.541   3.313   3.645
    1C        C  685   2.607   3.112   3.773
    1C        C  686   2.559   3.245   3.768
    1C        C  687   2.634   3.049   3.896
    1C        C  688   2.600   3.116   4.016
    1C        C  689   2.716   2.934   4.137
    1C        C  690   2.634   3.050   4.136
    1C        C  691   2.753   2.877   4.261
    1C        C  692   2.711   2.934   4.383
    1C        C  693   2.750   2.875   4.506
    1C        C  694   2.630   3.890   2.056
    1C        C  695   2.525   3.706   2.182
    1C        C  696   2.583   3.835   2.176
    1C        C  697   2.507   3.638   2.304
    1C        C  698   2.517   3.715   2.422
    1C        C  699   2.491   3.504   2.544
    1C        C  700   2.504   3.644   2.544
    1C        C  701   2.499   3.435   2.668
    1C        C  702   2.501   3.508   2.789
    1C        C  703   2.518   3.295   2.912
    1C        C  704   2.500   3.435   2.910
    1C        C  705   2.536   3.229   3.036
    1C        C  706   2.527   3.302   3.157
    1C        C  707   2.600   3.105   3.279
    1C        C  708   2.551   3.238   3.280
    1C        C  709   2.634   3.047   3.404
    1C        C  710   2.608   3.109   3.528
    1C        C  711   2.711   2.926   3.647
    1C        C  712   2.635   3.045   3.651
    1C        C  713   2.758   2.876   3.771
    1C        C  714   2.712   2.932   3.892
    1C        C  715   2.755   2.875   4.015
    1C        C  716   2.458   3.502   2.063
    1C        C  717   2.493   3.638   2.064
    1C        C  718   2.469   3.423   2.182
    1C        C  719   2.486   3.497   2.302
    1C        C  720   2.524   3.291   2.426
    1C        C  721   2.489   3.428   2.425
    1C        C  722   2.538   3.223   2.549
    1C        C  723   2.520   3.296   2.669
    1C        C  724   2.590   3.096   2.792
    1C        C  725   2.532   3.225   2.790
    1C        C  726   2.614   3.032   2.916
    1C        C  727   2.577   3.094   3.038
    1C        C  728   2.706   2.921   3.159
    1C        C  729   2.625   3.037   3.158
    1C        C  730   2.755   2.872   3.282
    1C        C  731   2.715   2.931   3.404
    1C        C  732   2.759   2.873   3.526
    1C        C  733   2.493   3.194   2.077
    1C        C  734   2.496   3.283   2.185
    1C        C  735   2.590   3.087   2.308
    1C        C  736   2.533   3.218   2.306
    1C        C  737   2.618   3.021   2.430
    1C        C  738   2.589   3.091   2.549
    1C        C  739   2.701   2.912   2.671
    1C        C  740   2.621   3.029   2.672
    1C        C  741   2.748   2.861   2.795
    1C        C  742   2.697   2.918   2.914
    1C        C  743   2.748   2.867   3.036
    1C        C  744   2.545   3.065   2.079
    1C        C  745   2.680   2.889   2.189
    1C        C  746   2.609   3.011   2.191
    1C        C  747   2.725   2.834   2.311
    1C        C  748   2.686   2.898   2.431
    1C        C  749   2.739   2.848   2.552
    1C        C  750   2.738   2.837   2.072
    1C        C  751   3.643   2.284   2.011
    1C        O  752   3.605   2.175   2.059
    1C        O  753   3.642   2.283   1.871
    1C        C  754   4.631   3.057   1.973
    1C        O  755   4.588   3.006   1.865
    1C        O  756   4.763   3.027   2.007
    1C        C  757   4.441   4.224   1.960
    1C        O  758   4.500   4.323   2.011
    1C        O  759   4.471   4.207   1.825
    1C        C  760   3.587   4.634   1.917
    1C        O  761   3.561   4.758   1.917
    1C        O  762   3.534   4.574   1.802
    1C        C  763   2.871   4.505   1.962
    1C        O  764   2.916   4.502   1.844
    1C        O  765   2.753   4.580   1.969
    1C        C  766   2.357   3.474   1.958
    1C        O  767   2.393   3.416   1.852
    1C        O  768   2.219   3.491   1.973
    1C        C  769   4.715   3.583   5.027
    1C        O  770   4.712   3.564   5.151
    1C        O  771   4.843   3.594   4.971
    1C        C  772   4.262   4.450   5.051
    1C        O  773   4.266   4.383   5.157
    1C        O  774   4.386   4.502   5.013
    1C        C  775   4.146   2.513   5.067
    1C        O  776   4.200   2.404   5.036
    1C        O  777   4.107   2.501   5.201
    1C        C  778   2.898   4.534   5.058
    1C        O  779   2.804   4.614   5.033
    1C        O  780   2.913   4.506   5.195
    1C        C  781   2.462   3.027   5.058
    1C        O  782   2.360   2.968   5.013
    1C        O  783   2.487   3.002   5.193
    1C        C  784   2.426   3.986   5.063
    1C        O  785   2.304   4.014   5.043
    1C        O  786   2.448   3.942   5.194
    1C        C  787   2.941   2.451   1.988
    1C        O  788   2.955   2.470   1.865
    1C        O  789   2.839   2.361   2.019
    1C        C  790   3.174   2.371   5.063
    1C        O  791   3.163   2.253   5.018
    1C        O  792   3.157   2.390   5.201
    1C        H  793   4.268   3.029   5.056
    1C        H  794   4.225   2.789   5.068
    1C        H  795   4.516   3.116   5.047
    1C        H  796   4.534   3.370   5.064
    1C        H  797   4.605   3.813   5.022
    1C        H  798   4.392   3.958   5.052
    1C        H  799   4.346   4.183   5.049
    1C        H  800   3.997   4.473   5.035
    1C        H  801   3.825   4.625   5.027
    1C        H  802   3.583   4.604   5.040
    1C        H  803   3.392   4.452   5.032
    1C        H  804   3.165   4.476   5.052
    1C        H  805   3.876   2.536   5.078
    1C        H  806   3.672   2.452   5.076
    1C        H  807   3.018   2.579   5.072
    1C        H  808   3.443   2.520   5.075
    1C        H  809   2.840   2.710   5.071
    1C        H  810   2.692   2.890   5.078
    1C        H  811   2.552   3.289   5.074
    1C        H  812   2.475   3.500   5.063
    1C        H  813   2.551   3.734   5.065
    1C        H  814   2.550   4.191   5.024
    1C        H  815   2.769   4.301   5.055
    1C        H  816   2.697   2.866   1.978
    1C        H  817   2.863   2.705   1.976
    1C        H  818   3.208   2.453   1.985
    1C        H  819   3.436   2.470   1.979
    1C        H  820   3.846   2.510   1.974
    1C        H  821   4.033   2.663   1.968
    1C        H  822   4.277   2.699   1.990
    1C        H  823   4.321   2.960   1.989
    1C        H  824   4.606   3.313   1.977
    1C        H  825   4.472   3.518   1.969
    1C        H  826   4.462   3.748   1.961
    1C        H  827   3.807   4.519   1.945
    1C        H  828   3.947   4.334   1.955
    1C        H  829   4.169   4.244   1.951
    1C        H  830   4.524   3.979   1.977
    1C        H  831   2.649   3.830   1.969
    1C        H  832   2.707   4.056   1.955
    1C        H  833   2.727   4.295   1.968
    1C        H  834   3.389   4.435   1.964
    1C        H  835   3.145   4.496   1.965
    1C        H  836   2.548   3.025   1.980
    1C        H  837   2.503   3.234   1.977
    1C        H  838   2.456   3.700   1.985
    2V3OU   H29  839   2.801   3.551   2.524
    2V3OU   C27  840   2.790   3.507   2.626
    2V3OU   H27  841   2.734   3.570   2.701
    2V3OU   H28  842   2.743   3.406   2.613
    2V3OU   O11  843   2.914   3.476   2.690
    2V3OU   C15  844   2.929   3.394   2.800
    2V3OU   C13  845   3.058   3.370   2.854
    2V3OU   C14  846   3.078   3.273   2.952
    2V3OU   C16  847   2.979   3.189   3.001
    2V3OU    H6  848   2.994   3.097   3.060
    2V3OU   C12  849   3.215   3.234   2.995
    2V3OU    O2  850   3.234   3.120   3.043
    2V3OU   C10  851   3.330   3.314   2.954
    2V3OU    C8  852   3.463   3.276   2.972
    2V3OU   O10  853   3.491   3.157   3.029
    2V3OU   H26  854   3.407   3.116   3.056
    2V3OU    C6  855   3.572   3.352   2.917
    2V3OU    C5  856   3.538   3.462   2.840
    2V3OU    C4  857   3.708   3.292   2.923
    2V3OU    H4  858   3.729   3.229   3.014
    2V3OU    H5  859   3.717   3.224   2.833
    2V3OU    C2  860   3.819   3.398   2.920
    2V3OU    O6  861   3.806   3.474   3.041
    2V3OU   H21  862   3.763   3.556   3.013
    2V3OU    C3  863   3.780   3.494   2.807
    2V3OU    H2  864   3.863   3.569   2.797
    2V3OU    H3  865   3.787   3.435   2.713
    2V3OU   C25  866   3.951   3.323   2.903
    2V3OU    O7  867   3.998   3.295   2.793
    2V3OU   C26  868   4.029   3.286   3.028
    2V3OU   H22  869   4.066   3.380   3.077
    2V3OU   H23  870   4.119   3.226   3.000
    2V3OU    O8  871   3.970   3.210   3.130
    2V3OU   H24  872   3.926   3.271   3.192
    2V3OU    C1  873   3.646   3.565   2.820
    2V3OU    H1  874   3.619   3.615   2.723
    2V3OU    O3  875   3.659   3.654   2.931
    2V3OU   C19  876   3.621   3.792   2.919
    2V3OU    H9  877   3.525   3.800   2.860
    2V3OU    O4  878   3.722   3.844   2.835
    2V3OU   C20  879   3.848   3.871   2.897
    2V3OU   H10  880   3.892   3.767   2.903
    2V3OU   C24  881   3.607   3.856   3.057
    2V3OU   H16  882   3.536   3.796   3.119
    2V3OU   H17  883   3.569   3.961   3.045
    2V3OU   C23  884   3.744   3.876   3.123
    2V3OU   H15  885   3.796   3.776   3.137
    2V3OU    N1  886   3.736   3.956   3.243
    2V3OU   H19  887   3.811   3.927   3.302
    2V3OU   H20  888   3.655   3.931   3.297
    2V3OU   C21  889   3.846   3.948   3.029
    2V3OU   H11  890   3.946   3.931   3.079
    2V3OU    O5  891   3.827   4.089   3.028
    2V3OU   H18  892   3.776   4.104   3.110
    2V3OU   C22  893   3.922   3.949   2.789
    2V3OU   H12  894   3.865   4.044   2.775
    2V3OU   H13  895   3.914   3.896   2.691
    2V3OU   H14  896   4.032   3.959   2.812
    2V3OU   C11  897   3.164   3.470   2.836
    2V3OU    O1  898   3.138   3.583   2.791
    2V3OU    C9  899   3.301   3.427   2.872
    2V3OU    C7  900   3.403   3.504   2.818
    2V3OU    O9  901   3.386   3.613   2.735
    2V3OU   H25  902   3.289   3.622   2.729
    2V3OU   C17  903   2.828   3.311   2.853
    2V3OU    H7  904   2.729   3.353   2.834
    2V3OU   C18  905   2.852   3.219   2.954
    2V3OU    H8  906   2.781   3.166   3.019
    3SOL     OW  907   2.071   5.564   0.015
    3SOL    HW1  908   2.106   5.654   7.015
    3SOL    HW2  909   1.974   5.559   7.016
    4SOL     OW  910   6.481   0.505   2.146
    4SOL    HW1  911   6.523   0.415   2.147
    4SOL    HW2  912   6.421   0.515   2.225
    5SOL     OW  913   4.173   1.799   2.427
    5SOL    HW1  914   4.099   1.809   2.360
    5SOL    HW2  915   4.244   1.867   2.409
    6SOL     OW  916   4.053   0.928   1.740
    6SOL    HW1  917   4.003   0.892   1.661
    6SOL    HW2  918   4.073   0.854   1.804
    7SOL     OW  919   0.486   4.053   2.917
    7SOL    HW1  920   0.512   3.960   2.892
    7SOL    HW2  921   0.428   4.050   2.999
    8SOL     OW  922   3.388   1.001   5.887
    8SOL    HW1  923   3.320   0.950   5.938
    8SOL    HW2  924   3.343   1.074   5.835
    9SOL     OW  925   4.585   0.792   5.783
    9SOL    HW1  926   4.507   0.808   5.722
    9SOL    HW2  927   4.665   0.839   5.748
   10SOL     OW  928   1.874   4.826   5.116
   10SOL    HW1  929   1.942   4.788   5.053
   10SOL    HW2  930   1.912   4.907   5.160
   11SOL     OW  931   3.105   0.822   5.874
   11SOL    HW1  932   3.143   0.869   5.794
   11SOL    HW2  933   3.087   0.726   5.850
   12SOL     OW  934   3.202   5.817   3.692
   12SOL    HW1  935   3.156   5.879   3.628
   12SOL    HW2  936   3.173   5.723   3.674
   13SOL     OW  937   4.124   6.144   3.981
   13SOL    HW1  938   4.075   6.207   3.919
   13SOL    HW2  939   4.084   6.053   3.973
   14SOL     OW  940   3.889   5.144   6.281
   14SOL    HW1  941   3.874   5.166   6.377
   14SOL    HW2  942   3.951   5.211   6.240
   15SOL     OW  943   0.796   6.788   1.730
   15SOL    HW1  944   0.885   6.771   1.688
   15SOL    HW2  945   0.739   6.706   1.721
   16SOL     OW  946   5.485   2.324   6.100
   16SOL    HW1  947   5.418   2.286   6.164
   16SOL    HW2  948   5.572   2.338   6.147
   17SOL     OW  949   5.752   6.476   6.314
   17SOL    HW1  950   5.683   6.548   6.305
   17SOL    HW2  951   5.707   6.387   6.323
   18SOL     OW  952   3.362   1.041   5.336
   18SOL    HW1  953   3.317   1.098   5.267
   18SOL    HW2  954   3.460   1.064   5.339
   19SOL     OW  955   6.961   0.936   2.756
   19SOL    HW1  956   0.009   0.873   2.729
   19SOL    HW2  957   7.001   1.020   2.792
   20SOL     OW  958   4.928   1.753   4.323
   20SOL    HW1  959   4.980   1.803   4.392
   20SOL    HW2  960   4.937   1.799   4.234
   21SOL     OW  961   3.076   0.812   2.313
   21SOL    HW1  962   3.007   0.748   2.281
   21SOL    HW2  963   3.043   0.858   2.395
   22SOL     OW  964   1.198   6.227   6.962
   22SOL    HW1  965   1.220   6.235   6.864
   22SOL    HW2  966   1.137   6.149   6.976
   23SOL     OW  967   5.793   5.473   2.355
   23SOL    HW1  968   5.776   5.499   2.260
   23SOL    HW2  969   5.809   5.374   2.361
   24SOL     OW  970   3.652   0.446   3.286
   24SOL    HW1  971   3.583   0.374   3.300
   24SOL    HW2  972   3.726   0.434   3.351
   25SOL     OW  973   3.856   0.463   4.281
   25SOL    HW1  974   3.833   0.560   4.290
   25SOL    HW2  975   3.943   0.445   4.329
   26SOL     OW  976   6.672   0.598   0.111
   26SOL    HW1  977   6.731   0.671   0.074
   26SOL    HW2  978   6.631   0.629   0.196
   27SOL     OW  979   1.766   1.569   2.832
   27SOL    HW1  980   1.864   1.591   2.826
   27SOL    HW2  981   1.713   1.644   2.792
   28SOL     OW  982   2.773   1.132   5.846
   28SOL    HW1  983   2.740   1.052   5.797
   28SOL    HW2  984   2.721   1.213   5.817
   29SOL     OW  985   6.106   1.720   2.195
   29SOL    HW1  986   6.193   1.759   2.165
   29SOL    HW2  987   6.050   1.792   2.237
   30SOL     OW  988   3.863   1.297   3.383
   30SOL    HW1  989   3.770   1.266   3.399
   30SOL    HW2  990   3.867   1.349   3.297
   31SOL     OW  991   0.675   2.416   6.410
   31SOL    HW1  992   0.592   2.420   6.466
   31SOL    HW2  993   0.704   2.321   6.401
   32SOL     OW  994   0.036   1.746   2.965
   32SOL    HW1  995   0.011   1.749   2.868
   32SOL    HW2  996   6.977   1.735   3.020
   33SOL     OW  997   1.111   4.734   5.366
   33SOL    HW1  998   1.108   4.755   5.268
   33SOL    HW2  999   1.146   4.641   5.379
   34SOL     OW 1000   2.781   6.859   4.961
   34SOL    HW1 1001   2.864   6.899   5.002
   34SOL    HW2 1002   2.788   6.864   4.861
   35SOL     OW 1003   4.531   3.105   6.512
   35SOL    HW1 1004   4.470   3.174   6.473
   35SOL    HW2 1005   4.622   3.114   6.471
   36SOL     OW 1006   5.064   1.191   4.669
   36SOL    HW1 1007   5.045   1.285   4.640
   36SOL    HW2 1008   4.990   1.131   4.639
   37SOL     OW 1009   1.239   2.099   6.429
   37SOL    HW1 1010   1.267   2.131   6.519
   37SOL    HW2 1011   1.140   2.084   6.428
   38SOL     OW 1012   0.991   5.282   2.766
   38SOL    HW1 1013   0.927   5.208   2.747
   38SOL    HW2 1014   0.945   5.370   2.756
   39SOL     OW 1015   6.524   4.516   6.464
   39SOL    HW1 1016   6.529   4.553   6.371
   39SOL    HW2 1017   6.462   4.574   6.519
   40SOL     OW 1018   4.402   1.550   0.670
   40SOL    HW1 1019   4.361   1.602   0.596
   40SOL    HW2 1020   4.397   1.603   0.755
   41SOL     OW 1021   6.833   4.718   3.647
   41SOL    HW1 1022   6.844   4.751   3.741
   41SOL    HW2 1023   6.762   4.772   3.601
   42SOL     OW 1024   3.038   4.863   4.206
   42SOL    HW1 1025   2.956   4.830   4.253
   42SOL    HW2 1026   3.032   4.962   4.193
   43SOL     OW 1027   4.754   7.018   5.453
   43SOL    HW1 1028   4.696   6.965   5.516
   43SOL    HW2 1029   4.714   0.085   5.442
   44SOL     OW 1030   4.815   1.896   5.779
   44SOL    HW1 1031   4.731   1.871   5.827
   44SOL    HW2 1032   4.887   1.831   5.803
   45SOL     OW 1033   4.774   6.052   1.511
   45SOL    HW1 1034   4.754   6.034   1.415
   45SOL    HW2 1035   4.740   6.143   1.536
   46SOL     OW 1036   0.887   2.919   3.313
   46SOL    HW1 1037   0.956   2.978   3.354
   46SOL    HW2 1038   0.796   2.948   3.343
   47SOL     OW 1039   4.449   4.246   1.023
   47SOL    HW1 1040   4.372   4.264   0.962
   47SOL    HW2 1041   4.465   4.148   1.028
   48SOL     OW 1042   6.391   2.777   6.376
   48SOL    HW1 1043   6.422   2.848   6.312
   48SOL    HW2 1044   6.469   2.724   6.408
   49SOL     OW 1045   5.948   3.599   1.888
   49SOL    HW1 1046   5.870   3.655   1.912
   49SOL    HW2 1047   6.020   3.611   1.956
   50SOL     OW 1048   5.776   1.238   4.826
   50SOL    HW1 1049   5.817   1.321   4.864
   50SOL    HW2 1050   5.849   1.176   4.797
   51SOL     OW 1051   2.086   6.543   3.284
   51SOL    HW1 1052   2.113   6.458   3.238
   51SOL    HW2 1053   1.991   6.564   3.262
   52SOL     OW 1054   5.997   3.381   2.530
   52SOL    HW1 1055   5.967   3.363   2.436
   52SOL    HW2 1056   5.950   3.319   2.593
   53SOL     OW 1057   4.657   6.960   3.693
   53SOL    HW1 1058   4.657   6.984   3.790
   53SOL    HW2 1059   4.572   6.910   3.671
   54SOL     OW 1060   4.488   5.179   1.101
   54SOL    HW1 1061   4.467   5.182   1.003
   54SOL    HW2 1062   4.466   5.268   1.142
   55SOL     OW 1063   1.879   2.933   6.211
   55SOL    HW1 1064   1.784   2.903   6.206
   55SOL    HW2 1065   1.890   2.996   6.288
   56SOL     OW 1066   0.242   0.941   1.089
   56SOL    HW1 1067   0.229   0.852   1.133
   56SOL    HW2 1068   0.233   1.014   1.156
   57SOL     OW 1069   4.634   0.715   1.228
   57SOL    HW1 1070   4.706   0.784   1.235
   57SOL    HW2 1071   4.590   0.721   1.139
   58SOL     OW 1072   0.604   0.135   5.249
   58SOL    HW1 1073   0.557   0.182   5.175
   58SOL    HW2 1074   0.631   0.044   5.220
   59SOL     OW 1075   0.703   2.823   6.154
   59SOL    HW1 1076   0.607   2.840   6.133
   59SOL    HW2 1077   0.745   2.908   6.187
   60SOL     OW 1078   5.198   2.616   4.438
   60SOL    HW1 1079   5.255   2.686   4.395
   60SOL    HW2 1080   5.118   2.659   4.479
   61SOL     OW 1081   6.591   2.050   4.028
   61SOL    HW1 1082   6.653   1.987   3.981
   61SOL    HW2 1083   6.641   2.132   4.056
   62SOL     OW 1084   1.133   0.693   1.581
   62SOL    HW1 1085   1.139   0.662   1.676
   62SOL    HW2 1086   1.207   0.757   1.562
   63SOL     OW 1087   5.176   1.228   3.846
   63SOL    HW1 1088   5.155   1.307   3.905
   63SOL    HW2 1089   5.202   1.150   3.904
   64SOL     OW 1090   0.374   2.834   6.245
   64SOL    HW1 1091   0.280   2.800   6.254
   64SOL    HW2 1092   0.425   2.812   6.329
   65SOL     OW 1093   0.724   4.479   5.842
   65SOL    HW1 1094   0.758   4.430   5.922
   65SOL    HW2 1095   0.715   4.576   5.863
   66SOL     OW 1096   4.305   0.804   4.744
   66SOL    HW1 1097   4.323   0.776   4.838
   66SOL    HW2 1098   4.233   0.872   4.743
   67SOL     OW 1099   0.137   2.768   5.726
   67SOL    HW1 1100   0.106   2.840   5.664
   67SOL    HW2 1101   0.199   2.807   5.794
   68SOL     OW 1102   6.717   1.434   6.986
   68SOL    HW1 1103   6.673   1.365   6.930
   68SOL    HW2 1104   6.712   1.523   6.940
   69SOL     OW 1105   1.000   3.347   6.500
   69SOL    HW1 1106   0.909   3.335   6.540
   69SOL    HW2 1107   0.991   3.389   6.409
   70SOL     OW 1108   5.387   4.446   5.177
   70SOL    HW1 1109   5.415   4.439   5.081
   70SOL    HW2 1110   5.444   4.513   5.224
   71SOL     OW 1111   4.143   1.650   3.509
   71SOL    HW1 1112   4.223   1.616   3.558
   71SOL    HW2 1113   4.173   1.707   3.432
   72SOL     OW 1114   1.726   0.917   4.007
   72SOL    HW1 1115   1.789   0.885   4.078
   72SOL    HW2 1116   1.772   0.984   3.949
   73SOL     OW 1117   3.928   0.615   1.233
   73SOL    HW1 1118   4.003   0.677   1.209
   73SOL    HW2 1119   3.956   0.556   1.309
   74SOL     OW 1120   4.027   0.848   0.146
   74SOL    HW1 1121   4.011   0.753   0.172
   74SOL    HW2 1122   4.009   0.908   0.225
   75SOL     OW 1123   4.471   0.665   1.008
   75SOL    HW1 1124   4.482   0.716   0.922
   75SOL    HW2 1125   4.510   0.574   0.998
   76SOL     OW 1126   3.058   3.491   1.177
   76SOL    HW1 1127   3.003   3.522   1.254
   76SOL    HW2 1128   2.999   3.446   1.110
   77SOL     OW 1129   0.753   0.442   3.815
   77SOL    HW1 1130   0.847   0.437   3.779
   77SOL    HW2 1131   0.714   0.531   3.794
   78SOL     OW 1132   5.560   1.540   0.439
   78SOL    HW1 1133   5.623   1.604   0.395
   78SOL    HW2 1134   5.529   1.579   0.526
   79SOL     OW 1135   3.209   6.075   1.211
   79SOL    HW1 1136   3.303   6.108   1.200
   79SOL    HW2 1137   3.196   5.993   1.155
   80SOL     OW 1138   4.182   1.341   3.810
   80SOL    HW1 1139   4.176   1.275   3.735
   80SOL    HW2 1140   4.252   1.409   3.789
   81SOL     OW 1141   2.466   0.333   2.483
   81SOL    HW1 1142   2.384   0.365   2.436
   81SOL    HW2 1143   2.442   0.263   2.550
   82SOL     OW 1144   6.142   4.886   0.584
   82SOL    HW1 1145   6.143   4.820   0.659
   82SOL    HW2 1146   6.062   4.871   0.527
   83SOL     OW 1147   6.930   0.209   0.440
   83SOL    HW1 1148   6.930   0.283   0.372
   83SOL    HW2 1149   7.024   0.178   0.455
   84SOL     OW 1150   5.952   3.143   2.669
   84SOL    HW1 1151   6.015   3.098   2.733
   84SOL    HW2 1152   5.920   3.077   2.602
   85SOL     OW 1153   1.599   1.496   4.203
   85SOL    HW1 1154   1.635   1.443   4.279
   85SOL    HW2 1155   1.502   1.515   4.218
   86SOL     OW 1156   0.703   1.421   6.648
   86SOL    HW1 1157   0.684   1.518   6.634
   86SOL    HW2 1158   0.763   1.388   6.575
   87SOL     OW 1159   4.958   4.402   0.971
   87SOL    HW1 1160   4.936   4.305   0.964
   87SOL    HW2 1161   5.050   4.412   1.011
   88SOL     OW 1162   2.886   1.627   6.533
   88SOL    HW1 1163   2.933   1.711   6.561
   88SOL    HW2 1164   2.868   1.571   6.614
   89SOL     OW 1165   2.396   2.250   6.898
   89SOL    HW1 1166   2.470   2.216   6.840
   89SOL    HW2 1167   2.345   2.320   6.849
   90SOL     OW 1168   4.313   5.203   1.725
   90SOL    HW1 1169   4.285   5.153   1.643
   90SOL    HW2 1170   4.341   5.138   1.796
   91SOL     OW 1171   5.991   3.916   6.146
   91SOL    HW1 1172   6.068   3.856   6.167
   91SOL    HW2 1173   5.971   3.974   6.225
   92SOL     OW 1174   4.451   4.374   1.268
   92SOL    HW1 1175   4.453   4.472   1.247
   92SOL    HW2 1176   4.444   4.322   1.183
   93SOL     OW 1177   3.884   3.550   0.724
   93SOL    HW1 1178   3.842   3.550   0.633
   93SOL    HW2 1179   3.828   3.603   0.787
   94SOL     OW 1180   2.449   5.630   6.384
   94SOL    HW1 1181   2.507   5.559   6.424
   94SOL    HW2 1182   2.353   5.608   6.401
   95SOL     OW 1183   1.172   0.178   2.861
   95SOL    HW1 1184   1.087   0.224   2.884
   95SOL    HW2 1185   1.171   0.085   2.898
   96SOL     OW 1186   3.765   0.197   5.109
   96SOL    HW1 1187   3.816   0.218   5.026
   96SOL    HW2 1188   3.821   0.218   5.189
   97SOL     OW 1189   2.338   3.037   5.983
   97SOL    HW1 1190   2.362   3.067   6.076
   97SOL    HW2 1191   2.415   3.052   5.922
   98SOL     OW 1192   1.290   2.715   0.552
   98SOL    HW1 1193   1.326   2.642   0.610
   98SOL    HW2 1194   1.231   2.775   0.607
   99SOL     OW 1195   3.917   2.691   1.419
   99SOL    HW1 1196   4.004   2.735   1.400
   99SOL    HW2 1197   3.844   2.741   1.371
  100SOL     OW 1198   0.882   6.571   3.797
  100SOL    HW1 1199   0.808   6.601   3.858
  100SOL    HW2 1200   0.846   6.560   3.704
  101SOL     OW 1201   1.825   4.610   2.046
  101SOL    HW1 1202   1.892   4.665   2.096
  101SOL    HW2 1203   1.872   4.538   1.996
  102SOL     OW 1204   3.378   5.466   1.474
  102SOL    HW1 1205   3.373   5.543   1.537
  102SOL    HW2 1206   3.389   5.499   1.380
  103SOL     OW 1207   2.308   1.674   2.211
  103SOL    HW1 1208   2.342   1.720   2.293
  103SOL    HW2 1209   2.379   1.613   2.175
  104SOL     OW 1210   1.254   5.633   3.028
  104SOL    HW1 1211   1.156   5.638   3.045
  104SOL    HW2 1212   1.303   5.680   3.102
  105SOL     OW 1213   6.190   1.177   6.704
  105SOL    HW1 1214   6.285   1.153   6.720
  105SOL    HW2 1215   6.175   1.196   6.607
  106SOL     OW 1216   3.541   6.046   4.246
  106SOL    HW1 1217   3.555   6.077   4.340
  106SOL    HW2 1218   3.451   6.078   4.214
  107SOL     OW 1219   0.913   1.038   0.137
  107SOL    HW1 1220   0.896   0.999   0.228
  107SOL    HW2 1221   0.852   1.116   0.122
  108SOL     OW 1222   3.721   0.314   5.536
  108SOL    HW1 1223   3.767   0.355   5.615
  108SOL    HW2 1224   3.699   0.218   5.556
  109SOL     OW 1225   1.662   1.213   2.550
  109SOL    HW1 1226   1.605   1.135   2.523
  109SOL    HW2 1227   1.758   1.190   2.535
  110SOL     OW 1228   2.994   5.430   3.988
  110SOL    HW1 1229   3.066   5.483   4.032
  110SOL    HW2 1230   2.905   5.460   4.023
  111SOL     OW 1231   1.983   1.221   4.063
  111SOL    HW1 1232   2.020   1.171   3.985
  111SOL    HW2 1233   2.017   1.315   4.061
  112SOL     OW 1234   3.362   5.691   6.721
  112SOL    HW1 1235   3.338   5.597   6.696
  112SOL    HW2 1236   3.282   5.749   6.712
  113SOL     OW 1237   1.285   5.864   2.689
  113SOL    HW1 1238   1.233   5.911   2.618
  113SOL    HW2 1239   1.273   5.765   2.679
  114SOL     OW 1240   0.769   6.444   1.753
  114SOL    HW1 1241   0.770   6.479   1.846
  114SOL    HW2 1242   0.809   6.352   1.752
  115SOL     OW 1243   4.635   1.521   3.148
  115SOL    HW1 1244   4.728   1.523   3.185
  115SOL    HW2 1245   4.624   1.438   3.093
  116SOL     OW 1246   6.482   6.044   1.349
  116SOL    HW1 1247   6.432   6.115   1.398
  116SOL    HW2 1248   6.497   5.966   1.411
  117SOL     OW 1249   0.970   1.682   1.286
  117SOL    HW1 1250   1.053   1.669   1.341
  117SOL    HW2 1251   0.896   1.627   1.324
  118SOL     OW 1252   1.385   0.905   2.064
  118SOL    HW1 1253   1.317   0.957   2.116
  118SOL    HW2 1254   1.457   0.874   2.126
  119SOL     OW 1255   0.316   0.604   0.439
  119SOL    HW1 1256   0.289   0.557   0.355
  119SOL    HW2 1257   0.376   0.681   0.416
  120SOL     OW 1258   5.219   1.424   5.795
  120SOL    HW1 1259   5.127   1.439   5.756
  120SOL    HW2 1260   5.264   1.351   5.745
  121SOL     OW 1261   2.054   2.619   0.356
  121SOL    HW1 1262   2.043   2.711   0.392
  121SOL    HW2 1263   2.151   2.598   0.345
  122SOL     OW 1264   0.988   3.698   6.933
  122SOL    HW1 1265   1.065   3.692   6.996
  122SOL    HW2 1266   1.014   3.658   6.845
  123SOL     OW 1267   0.575   1.323   2.792
  123SOL    HW1 1268   0.655   1.272   2.761
  123SOL    HW2 1269   0.601   1.386   2.865
  124SOL     OW 1270   3.744   2.533   0.779
  124SOL    HW1 1271   3.716   2.442   0.749
  124SOL    HW2 1272   3.735   2.540   0.878
  125SOL     OW 1273   4.217   2.262   0.468
  125SOL    HW1 1274   4.170   2.231   0.386
  125SOL    HW2 1275   4.311   2.286   0.446
  126SOL     OW 1276   3.132   3.644   1.631
  126SOL    HW1 1277   3.216   3.696   1.647
  126SOL    HW2 1278   3.155   3.549   1.610
  127SOL     OW 1279   0.946   5.248   6.693
  127SOL    HW1 1280   0.984   5.155   6.697
  127SOL    HW2 1281   0.847   5.244   6.689
  128SOL     OW 1282   4.744   2.837   1.216
  128SOL    HW1 1283   4.761   2.745   1.180
  128SOL    HW2 1284   4.646   2.855   1.217
  129SOL     OW 1285   3.287   3.592   6.335
  129SOL    HW1 1286   3.190   3.616   6.342
  129SOL    HW2 1287   3.296   3.493   6.324
  130SOL     OW 1288   1.284   1.532   4.225
  130SOL    HW1 1289   1.272   1.458   4.291
  130SOL    HW2 1290   1.212   1.526   4.155
  131SOL     OW 1291   4.524   0.474   3.074
  131SOL    HW1 1292   4.545   0.435   2.984
  131SOL    HW2 1293   4.447   0.425   3.114
  132SOL     OW 1294   3.007   2.680   1.723
  132SOL    HW1 1295   3.096   2.705   1.761
  132SOL    HW2 1296   2.970   2.602   1.774
  133SOL     OW 1297   5.263   0.929   4.417
  133SOL    HW1 1298   5.217   1.017   4.410
  133SOL    HW2 1299   5.292   0.899   4.325
  134SOL     OW 1300   6.855   1.008   2.467
  134SOL    HW1 1301   6.812   0.941   2.527
  134SOL    HW2 1302   6.827   0.992   2.372
  135SOL     OW 1303   5.178   3.874   3.797
  135SOL    HW1 1304   5.151   3.810   3.725
  135SOL    HW2 1305   5.268   3.913   3.776
  136SOL     OW 1306   1.846   5.370   5.142
  136SOL    HW1 1307   1.757   5.327   5.158
  136SOL    HW2 1308   1.840   5.468   5.160
  137SOL     OW 1309   4.844   1.881   3.145
  137SOL    HW1 1310   4.803   1.933   3.220
  137SOL    HW2 1311   4.787   1.888   3.064
  138SOL     OW 1312   1.078   3.738   2.913
  138SOL    HW1 1313   1.153   3.731   2.848
  138SOL    HW2 1314   1.061   3.835   2.934
  139SOL     OW 1315   1.502   6.754   5.260
  139SOL    HW1 1316   1.404   6.765   5.241
  139SOL    HW2 1317   1.515   6.679   5.325
  140SOL     OW 1318   1.922   0.087   3.887
  140SOL    HW1 1319   1.836   0.127   3.856
  140SOL    HW2 1320   1.987   0.086   3.811
  141SOL     OW 1321   0.371   2.680   4.894
  141SOL    HW1 1322   0.368   2.604   4.829
  141SOL    HW2 1323   0.397   2.646   4.984
  142SOL     OW 1324   1.675   4.345   1.755
  142SOL    HW1 1325   1.764   4.376   1.788
  142SOL    HW2 1326   1.687   4.296   1.668
  143SOL     OW 1327   6.011   4.683   0.037
  143SOL    HW1 1328   5.947   4.619   7.019
  143SOL    HW2 1329   5.977   4.776   0.027
  144SOL     OW 1330   1.912   4.633   5.712
  144SOL    HW1 1331   1.922   4.655   5.615
  144SOL    HW2 1332   1.892   4.535   5.722
  145SOL     OW 1333   1.826   4.674   1.628
  145SOL    HW1 1334   1.852   4.684   1.531
  145SOL    HW2 1335   1.741   4.724   1.644
  146SOL     OW 1336   5.343   6.949   5.780
  146SOL    HW1 1337   5.392   0.012   5.785
  146SOL    HW2 1338   5.382   6.893   5.708
  147SOL     OW 1339   5.222   2.402   6.058
  147SOL    HW1 1340   5.320   2.387   6.065
  147SOL    HW2 1341   5.199   2.494   6.091
  148SOL     OW 1342   6.878   5.063   0.663
  148SOL    HW1 1343   6.885   4.988   0.597
  148SOL    HW2 1344   6.929   5.041   0.745
  149SOL     OW 1345   3.769   2.056   3.963
  149SOL    HW1 1346   3.794   2.090   3.873
  149SOL    HW2 1347   3.798   1.961   3.972
  150SOL     OW 1348   5.599   6.731   0.245
  150SOL    HW1 1349   5.671   6.795   0.218
  150SOL    HW2 1350   5.623   6.639   0.214
  151SOL     OW 1351   3.065   0.954   1.794
  151SOL    HW1 1352   3.069   1.023   1.721
  151SOL    HW2 1353   3.156   0.941   1.833
  152SOL     OW 1354   6.845   1.187   1.370
  152SOL    HW1 1355   6.940   1.157   1.376
  152SOL    HW2 1356   6.799   1.140   1.295
  153SOL     OW 1357   2.797   0.298   3.567
  153SOL    HW1 1358   2.893   0.271   3.557
  153SOL    HW2 1359   2.790   0.369   3.637
  154SOL     OW 1360   1.148   3.318   1.349
  154SOL    HW1 1361   1.059   3.343   1.311
  154SOL    HW2 1362   1.196   3.256   1.286
  155SOL     OW 1363   0.768   1.549   5.230
  155SOL    HW1 1364   0.803   1.635   5.269
  155SOL    HW2 1365   0.709   1.570   5.153
  156SOL     OW 1366   6.989   0.419   0.959
  156SOL    HW1 1367   6.972   0.423   1.057
  156SOL    HW2 1368   6.908   0.384   0.912
  157SOL     OW 1369   5.967   3.361   1.208
  157SOL    HW1 1370   6.057   3.387   1.173
  157SOL    HW2 1371   5.971   3.353   1.308
  158SOL     OW 1372   1.191   3.149   1.808
  158SOL    HW1 1373   1.177   3.168   1.905
  158SOL    HW2 1374   1.288   3.140   1.789
  159SOL     OW 1375   4.528   5.444   1.717
  159SOL    HW1 1376   4.576   5.483   1.796
  159SOL    HW2 1377   4.430   5.466   1.724
  160SOL     OW 1378   5.758   6.450   0.919
  160SOL    HW1 1379   5.701   6.467   0.838
  160SOL    HW2 1380   5.703   6.465   1.002
  161SOL     OW 1381   1.080   6.609   3.567
  161SOL    HW1 1382   1.011   6.537   3.569
  161SOL    HW2 1383   1.041   6.695   3.598
  162SOL     OW 1384   4.048   6.267   0.057
  162SOL    HW1 1385   4.080   6.290   0.149
  162SOL    HW2 1386   4.107   6.196   0.018
  163SOL     OW 1387   6.687   5.730   2.322
  163SOL    HW1 1388   6.740   5.804   2.281
  163SOL    HW2 1389   6.731   5.700   2.406
  164SOL     OW 1390   0.642   4.171   3.124
  164SOL    HW1 1391   0.691   4.086   3.139
  164SOL    HW2 1392   0.550   4.151   3.090
  165SOL     OW 1393   4.640   4.203   0.762
  165SOL    HW1 1394   4.737   4.197   0.785
  165SOL    HW2 1395   4.599   4.281   0.808
  166SOL     OW 1396   1.213   3.133   2.099
  166SOL    HW1 1397   1.263   3.077   2.164
  166SOL    HW2 1398   1.229   3.230   2.119
  167SOL     OW 1399   5.576   2.560   6.925
  167SOL    HW1 1400   5.608   2.654   6.916
  167SOL    HW2 1401   5.604   2.507   6.845
  168SOL     OW 1402   3.645   2.242   0.690
  168SOL    HW1 1403   3.712   2.181   0.647
  168SOL    HW2 1404   3.553   2.205   0.677
  169SOL     OW 1405   6.578   1.935   1.494
  169SOL    HW1 1406   6.554   1.987   1.412
  169SOL    HW2 1407   6.501   1.876   1.519
  170SOL     OW 1408   6.808   0.062   2.334
  170SOL    HW1 1409   6.846   0.155   2.337
  170SOL    HW2 1410   6.848   0.007   2.406
  171SOL     OW 1411   2.890   4.472   6.787
  171SOL    HW1 1412   2.843   4.518   6.711
  171SOL    HW2 1413   2.980   4.515   6.801
  172SOL     OW 1414   5.957   1.549   2.781
  172SOL    HW1 1415   5.881   1.559   2.717
  172SOL    HW2 1416   6.042   1.535   2.729
  173SOL     OW 1417   6.152   1.066   3.774
  173SOL    HW1 1418   6.208   1.148   3.790
  173SOL    HW2 1419   6.149   1.047   3.675
  174SOL     OW 1420   4.138   5.589   3.782
  174SOL    HW1 1421   4.196   5.655   3.735
  174SOL    HW2 1422   4.044   5.597   3.747
  175SOL     OW 1423   2.943   0.274   1.857
  175SOL    HW1 1424   2.882   0.299   1.781
  175SOL    HW2 1425   3.022   0.225   1.821
  176SOL     OW 1426   6.980   4.688   1.726
  176SOL    HW1 1427   0.024   4.727   1.788
  176SOL    HW2 1428   7.009   4.596   1.698
  177SOL     OW 1429   5.880   3.511   4.126
  177SOL    HW1 1430   5.826   3.440   4.080
  177SOL    HW2 1431   5.887   3.488   4.224
  178SOL     OW 1432   3.440   4.281   5.589
  178SOL    HW1 1433   3.441   4.305   5.492
  178SOL    HW2 1434   3.454   4.183   5.600
  179SOL     OW 1435   4.176   1.133   5.806
  179SOL    HW1 1436   4.144   1.192   5.879
  179SOL    HW2 1437   4.128   1.045   5.810
  180SOL     OW 1438   1.966   6.786   0.810
  180SOL    HW1 1439   1.951   6.866   0.751
  180SOL    HW2 1440   1.971   6.703   0.754
  181SOL     OW 1441   3.659   3.529   6.285
  181SOL    HW1 1442   3.741   3.517   6.341
  181SOL    HW2 1443   3.584   3.474   6.322
  182SOL     OW 1444   3.958   1.864   5.937
  182SOL    HW1 1445   4.029   1.825   5.996
  182SOL    HW2 1446   3.995   1.943   5.888
  183SOL     OW 1447   3.278   1.845   3.698
  183SOL    HW1 1448   3.367   1.855   3.742
  183SOL    HW2 1449   3.289   1.855   3.599
  184SOL     OW 1450   0.535   6.294   3.963
  184SOL    HW1 1451   0.562   6.250   3.878
  184SOL    HW2 1452   0.447   6.340   3.950
  185SOL     OW 1453   1.096   1.063   5.040
  185SOL    HW1 1454   1.071   1.134   5.106
  185SOL    HW2 1455   1.100   1.103   4.949
  186SOL     OW 1456   6.229   1.340   4.062
  186SOL    HW1 1457   6.204   1.325   3.966
  186SOL    HW2 1458   6.178   1.278   4.120
  187SOL     OW 1459   4.773   6.498   2.603
  187SOL    HW1 1460   4.773   6.591   2.564
  187SOL    HW2 1461   4.727   6.436   2.540
  188SOL     OW 1462   1.667   3.068   3.196
  188SOL    HW1 1463   1.567   3.064   3.193
  188SOL    HW2 1464   1.705   3.012   3.123
  189SOL     OW 1465   2.178   5.718   0.663
  189SOL    HW1 1466   2.261   5.765   0.633
  189SOL    HW2 1467   2.197   5.620   0.670
  190SOL     OW 1468   5.984   3.433   5.564
  190SOL    HW1 1469   6.026   3.480   5.486
  190SOL    HW2 1470   5.938   3.350   5.532
  191SOL     OW 1471   5.803   0.534   6.823
  191SOL    HW1 1472   5.711   0.500   6.842
  191SOL    HW2 1473   5.837   0.585   6.902
  192SOL     OW 1474   0.786   5.144   2.595
  192SOL    HW1 1475   0.701   5.150   2.543
  192SOL    HW2 1476   0.844   5.071   2.556
  193SOL     OW 1477   4.449   3.617   5.290
  193SOL    HW1 1478   4.413   3.539   5.341
  193SOL    HW2 1479   4.538   3.592   5.251
  194SOL     OW 1480   4.255   6.727   2.947
  194SOL    HW1 1481   4.236   6.637   2.908
  194SOL    HW2 1482   4.346   6.727   2.988
  195SOL     OW 1483   1.502   0.688   4.418
  195SOL    HW1 1484   1.518   0.666   4.322
  195SOL    HW2 1485   1.478   0.604   4.468
  196SOL     OW 1486   2.437   0.091   0.175
  196SOL    HW1 1487   2.521   0.041   0.154
  196SOL    HW2 1488   2.460   0.181   0.212
  197SOL     OW 1489   2.673   6.989   1.587
  197SOL    HW1 1490   2.585   6.968   1.543
  197SOL    HW2 1491   2.745   6.991   1.518
  198SOL     OW 1492   5.025   0.073   2.044
  198SOL    HW1 1493   5.060   0.078   1.951
  198SOL    HW2 1494   5.026   0.164   2.086
  199SOL     OW 1495   6.324   1.290   3.797
  199SOL    HW1 1496   6.307   1.382   3.762
  199SOL    HW2 1497   6.419   1.265   3.780
  200SOL     OW 1498   1.100   4.365   1.718
  200SOL    HW1 1499   1.139   4.434   1.778
  200SOL    HW2 1500   1.163   4.287   1.711
  201SOL     OW 1501   6.619   0.028   6.011
  201SOL    HW1 1502   6.619   6.978   5.943
  201SOL    HW2 1503   6.525   0.046   6.041
  202SOL     OW 1504   5.104   0.834   5.575
  202SOL    HW1 1505   5.121   0.750   5.524
  202SOL    HW2 1506   5.036   0.817   5.646
  203SOL     OW 1507   4.186   2.316   4.196
  203SOL    HW1 1508   4.090   2.301   4.169
  203SOL    HW2 1509   4.194   2.307   4.295
  204SOL     OW 1510   0.149   0.921   6.162
  204SOL    HW1 1511   0.226   0.943   6.222
  204SOL    HW2 1512   0.077   0.877   6.216
  205SOL     OW 1513   0.592   0.723   3.561
  205SOL    HW1 1514   0.666   0.740   3.627
  205SOL    HW2 1515   0.577   0.805   3.506
  206SOL     OW 1516   0.859   4.995   2.153
  206SOL    HW1 1517   0.767   4.955   2.146
  206SOL    HW2 1518   0.870   5.065   2.083
  207SOL     OW 1519   5.154   0.859   3.894
  207SOL    HW1 1520   5.112   0.775   3.929
  207SOL    HW2 1521   5.150   0.930   3.964
  208SOL     OW 1522   5.660   3.114   5.284
  208SOL    HW1 1523   5.641   3.140   5.189
  208SOL    HW2 1524   5.587   3.053   5.317
  209SOL     OW 1525   0.670   4.941   4.752
  209SOL    HW1 1526   0.578   4.904   4.741
  209SOL    HW2 1527   0.738   4.872   4.729
  210SOL     OW 1528   4.636   2.229   1.134
  210SOL    HW1 1529   4.554   2.274   1.167
  210SOL    HW2 1530   4.627   2.130   1.146
  211SOL     OW 1531   2.526   6.456   3.497
  211SOL    HW1 1532   2.440   6.507   3.501
  211SOL    HW2 1533   2.584   6.495   3.425
  212SOL     OW 1534   1.878   4.715   1.366
  212SOL    HW1 1535   1.972   4.749   1.381
  212SOL    HW2 1536   1.834   4.772   1.297
  213SOL     OW 1537   3.630   0.668   6.116
  213SOL    HW1 1538   3.611   0.573   6.144
  213SOL    HW2 1539   3.659   0.720   6.196
  214SOL     OW 1540   4.581   5.614   1.914
  214SOL    HW1 1541   4.675   5.590   1.939
  214SOL    HW2 1542   4.570   5.713   1.915
  215SOL     OW 1543   2.217   3.288   0.846
  215SOL    HW1 1544   2.229   3.228   0.767
  215SOL    HW2 1545   2.269   3.373   0.832
  216SOL     OW 1546   2.166   5.978   4.385
  216SOL    HW1 1547   2.084   5.970   4.441
  216SOL    HW2 1548   2.245   5.943   4.436
  217SOL     OW 1549   2.087   2.642   3.732
  217SOL    HW1 1550   2.161   2.708   3.725
  217SOL    HW2 1551   2.124   2.550   3.739
  218SOL     OW 1552   1.227   2.888   4.728
  218SOL    HW1 1553   1.315   2.844   4.708
  218SOL    HW2 1554   1.201   2.869   4.823
  219SOL     OW 1555   4.027   6.309   6.031
  219SOL    HW1 1556   3.995   6.214   6.039
  219SOL    HW2 1557   4.003   6.358   6.115
  220SOL     OW 1558   3.827   6.673   0.726
  220SOL    HW1 1559   3.766   6.626   0.662
  220SOL    HW2 1560   3.864   6.755   0.682
  221SOL     OW 1561   6.615   3.328   2.418
  221SOL    HW1 1562   6.576   3.246   2.460
  221SOL    HW2 1563   6.665   3.381   2.487
  222SOL     OW 1564   2.805   5.127   5.820
  222SOL    HW1 1565   2.708   5.148   5.831
  222SOL    HW2 1566   2.817   5.066   5.741
  223SOL     OW 1567   5.849   3.287   0.963
  223SOL    HW1 1568   5.773   3.348   0.937
  223SOL    HW2 1569   5.881   3.310   1.054
  224SOL     OW 1570   2.219   2.159   4.419
  224SOL    HW1 1571   2.247   2.168   4.324
  224SOL    HW2 1572   2.162   2.077   4.430
  225SOL     OW 1573   5.097   2.298   5.827
  225SOL    HW1 1574   5.000   2.295   5.853
  225SOL    HW2 1575   5.145   2.363   5.886
  226SOL     OW 1576   1.727   0.597   6.284
  226SOL    HW1 1577   1.803   0.597   6.349
  226SOL    HW2 1578   1.664   0.672   6.306
  227SOL     OW 1579   1.752   3.584   3.178
  227SOL    HW1 1580   1.733   3.534   3.263
  227SOL    HW2 1581   1.669   3.591   3.124
  228SOL     OW 1582   3.484   6.258   3.375
  228SOL    HW1 1583   3.448   6.165   3.372
  228SOL    HW2 1584   3.584   6.255   3.375
  229SOL     OW 1585   4.900   5.883   6.758
  229SOL    HW1 1586   4.910   5.818   6.683
  229SOL    HW2 1587   4.966   5.957   6.748
  230SOL     OW 1588   3.261   4.872   2.843
  230SOL    HW1 1589   3.250   4.860   2.942
  230SOL    HW2 1590   3.213   4.954   2.813
  231SOL     OW 1591   5.902   1.900   6.817
  231SOL    HW1 1592   5.925   1.804   6.803
  231SOL    HW2 1593   5.896   1.919   6.916
  232SOL     OW 1594   1.581   3.926   6.083
  232SOL    HW1 1595   1.518   4.004   6.075
  232SOL    HW2 1596   1.584   3.897   6.179
  233SOL     OW 1597   2.300   2.164   4.152
  233SOL    HW1 1598   2.333   2.124   4.067
  233SOL    HW2 1599   2.257   2.252   4.134
  234SOL     OW 1600   4.617   6.533   5.196
  234SOL    HW1 1601   4.695   6.595   5.201
  234SOL    HW2 1602   4.574   6.539   5.106
  235SOL     OW 1603   3.441   2.948   1.809
  235SOL    HW1 1604   3.472   3.030   1.858
  235SOL    HW2 1605   3.518   2.887   1.794
  236SOL     OW 1606   5.321   2.724   6.616
  236SOL    HW1 1607   5.372   2.750   6.699
  236SOL    HW2 1608   5.303   2.626   6.618
  237SOL     OW 1609   6.213   5.530   1.861
  237SOL    HW1 1610   6.307   5.499   1.876
  237SOL    HW2 1611   6.156   5.452   1.837
  238SOL     OW 1612   5.535   2.057   0.074
  238SOL    HW1 1613   5.570   2.151   0.073
  238SOL    HW2 1614   5.458   2.051   0.137
  239SOL     OW 1615   0.119   5.477   6.070
  239SOL    HW1 1616   0.082   5.491   5.978
  239SOL    HW2 1617   0.062   5.525   6.137
  240SOL     OW 1618   0.541   2.555   4.598
  240SOL    HW1 1619   0.517   2.556   4.501
  240SOL    HW2 1620   0.506   2.471   4.639
  241SOL     OW 1621   1.915   6.967   4.847
  241SOL    HW1 1622   1.915   6.998   4.753
  241SOL    HW2 1623   1.936   6.869   4.850
  242SOL     OW 1624   2.568   3.251   5.647
  242SOL    HW1 1625   2.596   3.166   5.692
  242SOL    HW2 1626   2.544   3.233   5.552
  243SOL     OW 1627   4.899   0.557   5.894
  243SOL    HW1 1628   4.998   0.551   5.885
  243SOL    HW2 1629   4.859   0.579   5.805
  244SOL     OW 1630   5.360   2.655   5.020
  244SOL    HW1 1631   5.329   2.697   4.935
  244SOL    HW2 1632   5.442   2.601   5.002
  245SOL     OW 1633   6.805   3.092   5.412
  245SOL    HW1 1634   6.823   3.062   5.318
  245SOL    HW2 1635   6.791   3.190   5.414
  246SOL     OW 1636   4.889   2.601   3.424
  246SOL    HW1 1637   4.829   2.663   3.374
  246SOL    HW2 1638   4.956   2.653   3.477
  247SOL     OW 1639   2.824   1.229   1.643
  247SOL    HW1 1640   2.918   1.197   1.629
  247SOL    HW2 1641   2.805   1.234   1.741
  248SOL     OW 1642   3.809   2.066   3.158
  248SOL    HW1 1643   3.797   1.982   3.104
  248SOL    HW2 1644   3.721   2.113   3.166
  249SOL     OW 1645   4.717   7.024   5.931
  249SOL    HW1 1646   4.732   0.044   5.842
  249SOL    HW2 1647   4.624   6.988   5.935
  250SOL     OW 1648   5.854   2.743   1.048
  250SOL    HW1 1649   5.831   2.772   0.955
  250SOL    HW2 1650   5.773   2.707   1.093
  251SOL     OW 1651   4.922   3.941   5.870
  251SOL    HW1 1652   4.999   3.878   5.877
  251SOL    HW2 1653   4.927   3.989   5.783
  252SOL     OW 1654   6.481   0.229   6.198
  252SOL    HW1 1655   6.521   0.175   6.273
  252SOL    HW2 1656   6.404   0.282   6.233
  253SOL     OW 1657   2.182   4.349   6.715
  253SOL    HW1 1658   2.129   4.339   6.800
  253SOL    HW2 1659   2.275   4.315   6.729
  254SOL     OW 1660   5.457   3.079   2.940
  254SOL    HW1 1661   5.376   3.098   2.885
  254SOL    HW2 1662   5.480   2.982   2.933
  255SOL     OW 1663   2.183   3.001   4.476
  255SOL    HW1 1664   2.115   3.070   4.498
  255SOL    HW2 1665   2.228   2.970   4.559
  256SOL     OW 1666   5.864   4.810   6.411
  256SOL    HW1 1667   5.905   4.752   6.340
  256SOL    HW2 1668   5.891   4.905   6.397
  257SOL     OW 1669   4.659   0.043   3.935
  257SOL    HW1 1670   4.619   6.994   3.991
  257SOL    HW2 1671   4.660   0.128   3.988
  258SOL     OW 1672   0.027   4.731   5.067
  258SOL    HW1 1673   6.974   4.668   5.069
  258SOL    HW2 1674   7.018   4.825   5.071
  259SOL     OW 1675   1.691   2.002   2.196
  259SOL    HW1 1676   1.766   1.977   2.135
  259SOL    HW2 1677   1.726   2.062   2.268
  260SOL     OW 1678   4.287   0.752   0.778
  260SOL    HW1 1679   4.257   0.674   0.723
  260SOL    HW2 1680   4.207   0.798   0.817
  261SOL     OW 1681   6.936   3.835   0.814
  261SOL    HW1 1682   6.981   3.773   0.750
  261SOL    HW2 1683   6.853   3.871   0.772
  262SOL     OW 1684   0.222   4.176   0.724
  262SOL    HW1 1685   0.309   4.133   0.748
  262SOL    HW2 1686   0.226   4.274   0.744
  263SOL     OW 1687   0.667   1.184   4.192
  263SOL    HW1 1688   0.589   1.218   4.140
  263SOL    HW2 1689   0.690   1.092   4.161
  264SOL     OW 1690   4.704   3.369   5.752
  264SOL    HW1 1691   4.667   3.281   5.722
  264SOL    HW2 1692   4.742   3.360   5.844
  265SOL     OW 1693   4.845   4.478   3.123
  265SOL    HW1 1694   4.830   4.497   3.026
  265SOL    HW2 1695   4.943   4.475   3.141
  266SOL     OW 1696   3.923   3.442   6.116
  266SOL    HW1 1697   3.926   3.376   6.190
  266SOL    HW2 1698   3.832   3.442   6.075
  267SOL     OW 1699   6.134   2.233   6.098
  267SOL    HW1 1700   6.219   2.190   6.129
  267SOL    HW2 1701   6.133   2.329   6.125
  268SOL     OW 1702   4.292   0.218   4.785
  268SOL    HW1 1703   4.298   0.119   4.771
  268SOL    HW2 1704   4.270   0.236   4.881
  269SOL     OW 1705   1.714   3.430   1.269
  269SOL    HW1 1706   1.663   3.487   1.204
  269SOL    HW2 1707   1.652   3.392   1.337
  270SOL     OW 1708   6.670   0.160   1.167
  270SOL    HW1 1709   6.705   0.223   1.098
  270SOL    HW2 1710   6.644   0.074   1.124
  271SOL     OW 1711   3.158   1.265   0.786
  271SOL    HW1 1712   3.072   1.305   0.818
  271SOL    HW2 1713   3.155   1.254   0.687
  272SOL     OW 1714   3.292   5.215   4.087
  272SOL    HW1 1715   3.230   5.201   4.010
  272SOL    HW2 1716   3.385   5.228   4.053
  273SOL     OW 1717   2.333   5.187   4.820
  273SOL    HW1 1718   2.397   5.125   4.866
  273SOL    HW2 1719   2.354   5.281   4.844
  274SOL     OW 1720   4.769   2.565   3.952
  274SOL    HW1 1721   4.716   2.481   3.941
  274SOL    HW2 1722   4.845   2.549   4.015
  275SOL     OW 1723   5.888   5.387   5.710
  275SOL    HW1 1724   5.888   5.483   5.736
  275SOL    HW2 1725   5.920   5.331   5.787
  276SOL     OW 1726   0.303   5.359   2.995
  276SOL    HW1 1727   0.277   5.264   3.009
  276SOL    HW2 1728   0.391   5.377   3.040
  277SOL     OW 1729   2.500   3.325   0.706
  277SOL    HW1 1730   2.459   3.415   0.712
  277SOL    HW2 1731   2.430   3.257   0.684
  278SOL     OW 1732   0.285   5.382   1.900
  278SOL    HW1 1733   0.327   5.370   1.990
  278SOL    HW2 1734   0.191   5.349   1.903
  279SOL     OW 1735   0.302   3.278   3.946
  279SOL    HW1 1736   0.286   3.354   4.010
  279SOL    HW2 1737   0.224   3.271   3.883
  280SOL     OW 1738   1.991   6.928   2.975
  280SOL    HW1 1739   1.921   6.918   2.904
  280SOL    HW2 1740   2.026   6.838   2.999
  281SOL     OW 1741   3.556   4.960   2.096
  281SOL    HW1 1742   3.623   5.025   2.060
  281SOL    HW2 1743   3.560   4.875   2.043
  282SOL     OW 1744   4.093   1.954   5.455
  282SOL    HW1 1745   4.075   1.861   5.423
  282SOL    HW2 1746   4.007   1.996   5.484
  283SOL     OW 1747   6.525   1.392   6.125
  283SOL    HW1 1748   6.511   1.387   6.224
  283SOL    HW2 1749   6.551   1.302   6.090
  284SOL     OW 1750   0.193   4.249   4.905
  284SOL    HW1 1751   0.158   4.342   4.916
  284SOL    HW2 1752   0.202   4.227   4.808
  285SOL     OW 1753   5.620   5.099   6.143
  285SOL    HW1 1754   5.674   5.056   6.070
  285SOL    HW2 1755   5.530   5.123   6.108
  286SOL     OW 1756   3.321   4.879   5.564
  286SOL    HW1 1757   3.267   4.830   5.632
  286SOL    HW2 1758   3.281   4.969   5.548
  287SOL     OW 1759   0.429   4.563   6.729
  287SOL    HW1 1760   0.447   4.564   6.827
  287SOL    HW2 1761   0.495   4.622   6.683
  288SOL     OW 1762   4.458   2.296   0.347
  288SOL    HW1 1763   4.429   2.377   0.297
  288SOL    HW2 1764   4.557   2.286   0.341
  289SOL     OW 1765   0.048   5.389   5.227
  289SOL    HW1 1766   0.121   5.347   5.174
  289SOL    HW2 1767   0.022   5.328   5.302
  290SOL     OW 1768   4.669   1.472   3.810
  290SOL    HW1 1769   4.741   1.423   3.759
  290SOL    HW2 1770   4.666   1.438   3.904
  291SOL     OW 1771   3.005   1.491   5.340
  291SOL    HW1 1772   3.091   1.540   5.355
  291SOL    HW2 1773   3.004   1.451   5.249
  292SOL     OW 1774   2.851   1.816   2.575
  292SOL    HW1 1775   2.939   1.786   2.613
  292SOL    HW2 1776   2.818   1.747   2.511
  293SOL     OW 1777   5.052   5.064   1.763
  293SOL    HW1 1778   5.017   4.999   1.696
  293SOL    HW2 1779   5.127   5.117   1.723
  294SOL     OW 1780   6.489   5.517   6.213
  294SOL    HW1 1781   6.562   5.449   6.222
  294SOL    HW2 1782   6.412   5.491   6.271
  295SOL     OW 1783   3.380   1.622   4.650
  295SOL    HW1 1784   3.405   1.718   4.633
  295SOL    HW2 1785   3.315   1.618   4.726
  296SOL     OW 1786   5.950   1.900   2.364
  296SOL    HW1 1787   5.909   1.984   2.398
  296SOL    HW2 1788   6.002   1.856   2.437
  297SOL     OW 1789   2.848   4.901   2.753
  297SOL    HW1 1790   2.938   4.891   2.710
  297SOL    HW2 1791   2.805   4.985   2.720
  298SOL     OW 1792   3.336   6.231   0.555
  298SOL    HW1 1793   3.357   6.248   0.651
  298SOL    HW2 1794   3.383   6.148   0.524
  299SOL     OW 1795   4.390   2.853   6.618
  299SOL    HW1 1796   4.436   2.927   6.570
  299SOL    HW2 1797   4.310   2.889   6.666
  300SOL     OW 1798   5.049   0.850   1.718
  300SOL    HW1 1799   5.019   0.781   1.784
  300SOL    HW2 1800   4.974   0.872   1.656
  301SOL     OW 1801   5.680   3.058   0.890
  301SOL    HW1 1802   5.732   3.142   0.906
  301SOL    HW2 1803   5.591   3.065   0.934
  302SOL     OW 1804   0.028   0.957   3.851
  302SOL    HW1 1805   0.091   0.904   3.908
  302SOL    HW2 1806   0.067   1.048   3.835
  303SOL     OW 1807   6.740   6.581   2.202
  303SOL    HW1 1808   6.702   6.673   2.201
  303SOL    HW2 1809   6.821   6.579   2.261
  304SOL     OW 1810   1.609   6.675   5.657
  304SOL    HW1 1811   1.659   6.762   5.651
  304SOL    HW2 1812   1.583   6.646   5.565
  305SOL     OW 1813   1.488   3.178   0.162
  305SOL    HW1 1814   1.416   3.109   0.160
  305SOL    HW2 1815   1.451   3.267   0.134
  306SOL     OW 1816   1.684   0.705   3.812
  306SOL    HW1 1817   1.691   0.606   3.824
  306SOL    HW2 1818   1.707   0.750   3.898
  307SOL     OW 1819   5.028   5.604   0.670
  307SOL    HW1 1820   5.083   5.687   0.678
  307SOL    HW2 1821   4.932   5.626   0.687
  308SOL     OW 1822   5.497   3.535   4.561
  308SOL    HW1 1823   5.415   3.525   4.617
  308SOL    HW2 1824   5.515   3.449   4.513
  309SOL     OW 1825   2.164   5.820   0.286
  309SOL    HW1 1826   2.223   5.795   0.362
  309SOL    HW2 1827   2.193   5.908   0.248
  310SOL     OW 1828   5.355   6.726   5.521
  310SOL    HW1 1829   5.300   6.796   5.477
  310SOL    HW2 1830   5.333   6.636   5.482
  311SOL     OW 1831   4.384   4.913   2.544
  311SOL    HW1 1832   4.333   4.962   2.614
  311SOL    HW2 1833   4.361   4.816   2.548
  312SOL     OW 1834   4.160   1.264   4.604
  312SOL    HW1 1835   4.106   1.191   4.563
  312SOL    HW2 1836   4.256   1.237   4.607
  313SOL     OW 1837   3.140   3.700   2.566
  313SOL    HW1 1838   3.125   3.665   2.658
  313SOL    HW2 1839   3.181   3.629   2.509
  314SOL     OW 1840   2.346   4.834   6.662
  314SOL    HW1 1841   2.425   4.849   6.602
  314SOL    HW2 1842   2.372   4.776   6.738
  315SOL     OW 1843   1.112   2.998   3.872
  315SOL    HW1 1844   1.123   2.921   3.935
  315SOL    HW2 1845   1.201   3.025   3.837
  316SOL     OW 1846   2.996   1.217   4.332
  316SOL    HW1 1847   2.984   1.123   4.363
  316SOL    HW2 1848   3.003   1.219   4.233
  317SOL     OW 1849   6.907   1.332   0.855
  317SOL    HW1 1850   6.887   1.422   0.894
  317SOL    HW2 1851   6.893   1.334   0.756
  318SOL     OW 1852   0.493   5.418   6.710
  318SOL    HW1 1853   0.403   5.375   6.706
  318SOL    HW2 1854   0.486   5.512   6.676
  319SOL     OW 1855   6.369   1.259   3.458
  319SOL    HW1 1856   6.364   1.359   3.449
  319SOL    HW2 1857   6.448   1.225   3.408
  320SOL     OW 1858   6.811   2.059   1.325
  320SOL    HW1 1859   6.720   2.041   1.286
  320SOL    HW2 1860   6.830   2.157   1.322
  321SOL     OW 1861   3.680   1.683   6.945
  321SOL    HW1 1862   3.741   1.618   6.990
  321SOL    HW2 1863   3.727   1.770   6.933
  322SOL     OW 1864   3.276   2.929   4.114
  322SOL    HW1 1865   3.243   2.996   4.048
  322SOL    HW2 1866   3.287   2.841   4.069
  323SOL     OW 1867   1.078   2.768   6.739
  323SOL    HW1 1868   0.980   2.767   6.758
  323SOL    HW2 1869   1.094   2.808   6.649
  324SOL     OW 1870   2.758   1.107   4.578
  324SOL    HW1 1871   2.733   1.180   4.514
  324SOL    HW2 1872   2.721   1.128   4.668
  325SOL     OW 1873   0.262   2.942   1.831
  325SOL    HW1 1874   0.178   2.889   1.840
  325SOL    HW2 1875   0.243   3.030   1.789
  326SOL     OW 1876   1.110   5.039   6.642
  326SOL    HW1 1877   1.102   4.944   6.671
  326SOL    HW2 1878   1.195   5.051   6.590
  327SOL     OW 1879   1.305   4.318   3.375
  327SOL    HW1 1880   1.263   4.338   3.464
  327SOL    HW2 1881   1.235   4.320   3.304
  328SOL     OW 1882   1.466   5.817   1.622
  328SOL    HW1 1883   1.497   5.902   1.666
  328SOL    HW2 1884   1.529   5.743   1.646
  329SOL     OW 1885   4.108   3.462   4.643
  329SOL    HW1 1886   4.149   3.456   4.734
  329SOL    HW2 1887   4.104   3.558   4.615
  330SOL     OW 1888   3.721   6.751   1.463
  330SOL    HW1 1889   3.659   6.711   1.530
  330SOL    HW2 1890   3.681   6.834   1.426
  331SOL     OW 1891   3.422   5.565   0.374
  331SOL    HW1 1892   3.351   5.515   0.424
  331SOL    HW2 1893   3.384   5.652   0.340
  332SOL     OW 1894   4.680   2.024   5.140
  332SOL    HW1 1895   4.715   1.940   5.180
  332SOL    HW2 1896   4.618   2.002   5.064
  333SOL     OW 1897   3.147   0.414   6.044
  333SOL    HW1 1898   3.236   0.446   6.013
  333SOL    HW2 1899   3.089   0.493   6.065
  334SOL     OW 1900   3.768   0.586   1.597
  334SOL    HW1 1901   3.707   0.514   1.563
  334SOL    HW2 1902   3.723   0.636   1.671
  335SOL     OW 1903   4.375   7.011   5.371
  335SOL    HW1 1904   4.453   0.006   5.312
  335SOL    HW2 1905   4.340   6.919   5.352
  336SOL     OW 1906   1.723   1.022   3.525
  336SOL    HW1 1907   1.702   1.082   3.602
  336SOL    HW2 1908   1.788   0.952   3.554
  337SOL     OW 1909   0.555   2.719   0.250
  337SOL    HW1 1910   0.480   2.677   0.200
  337SOL    HW2 1911   0.621   2.649   0.277
  338SOL     OW 1912   3.080   2.551   1.466
  338SOL    HW1 1913   3.172   2.519   1.487
  338SOL    HW2 1914   3.036   2.583   1.551
  339SOL     OW 1915   3.626   6.055   3.973
  339SOL    HW1 1916   3.578   6.050   4.061
  339SOL    HW2 1917   3.592   6.133   3.921
  340SOL     OW 1918   4.942   4.082   5.333
  340SOL    HW1 1919   4.961   4.021   5.256
  340SOL    HW2 1920   4.844   4.082   5.353
  341SOL     OW 1921   6.568   0.462   4.766
  341SOL    HW1 1922   6.505   0.486   4.692
  341SOL    HW2 1923   6.518   0.423   4.843
  342SOL     OW 1924   6.321   3.753   6.829
  342SOL    HW1 1925   6.260   3.708   6.894
  342SOL    HW2 1926   6.317   3.705   6.741
  343SOL     OW 1927   1.686   5.427   0.612
  343SOL    HW1 1928   1.746   5.435   0.532
  343SOL    HW2 1929   1.637   5.340   0.608
  344SOL     OW 1930   1.191   3.714   1.894
  344SOL    HW1 1931   1.154   3.743   1.806
  344SOL    HW2 1932   1.266   3.649   1.880
  345SOL     OW 1933   4.239   1.642   3.153
  345SOL    HW1 1934   4.240   1.714   3.222
  345SOL    HW2 1935   4.262   1.555   3.195
  346SOL     OW 1936   2.037   0.829   2.803
  346SOL    HW1 1937   1.953   0.875   2.774
  346SOL    HW2 1938   2.038   0.736   2.767
  347SOL     OW 1939   2.883   5.838   6.296
  347SOL    HW1 1940   2.970   5.825   6.344
  347SOL    HW2 1941   2.885   5.789   6.209
  348SOL     OW 1942   5.266   4.180   2.488
  348SOL    HW1 1943   5.307   4.268   2.467
  348SOL    HW2 1944   5.336   4.117   2.522
  349SOL     OW 1945   6.902   5.291   0.894
  349SOL    HW1 1946   6.938   5.267   0.985
  349SOL    HW2 1947   6.809   5.256   0.886
  350SOL     OW 1948   3.518   3.383   0.805
  350SOL    HW1 1949   3.537   3.438   0.724
  350SOL    HW2 1950   3.425   3.403   0.838
  351SOL     OW 1951   2.046   3.063   1.581
  351SOL    HW1 1952   2.095   3.003   1.519
  351SOL    HW2 1953   2.101   3.081   1.662
  352SOL     OW 1954   3.105   0.813   4.873
  352SOL    HW1 1955   3.036   0.865   4.824
  352SOL    HW2 1956   3.183   0.871   4.894
  353SOL     OW 1957   2.005   0.052   0.991
  353SOL    HW1 1958   1.971   0.035   1.083
  353SOL    HW2 1959   1.933   0.031   0.924
  354SOL     OW 1960   3.806   2.805   0.692
  354SOL    HW1 1961   3.828   2.714   0.727
  354SOL    HW2 1962   3.858   2.821   0.608
  355SOL     OW 1963   0.988   3.498   2.463
  355SOL    HW1 1964   0.980   3.579   2.405
  355SOL    HW2 1965   0.911   3.437   2.445
  356SOL     OW 1966   2.970   0.216   6.088
  356SOL    HW1 1967   3.033   0.288   6.060
  356SOL    HW2 1968   3.023   0.135   6.115
  357SOL     OW 1969   6.650   6.245   5.921
  357SOL    HW1 1970   6.628   6.161   5.872
  357SOL    HW2 1971   6.589   6.255   5.999
  358SOL     OW 1972   4.059   6.753   0.474
  358SOL    HW1 1973   4.050   6.760   0.374
  358SOL    HW2 1974   4.005   6.826   0.517
  359SOL     OW 1975   1.795   2.721   2.134
  359SOL    HW1 1976   1.768   2.721   2.230
  359SOL    HW2 1977   1.826   2.812   2.108
  360SOL     OW 1978   0.616   5.265   6.292
  360SOL    HW1 1979   0.677   5.187   6.309
  360SOL    HW2 1980   0.549   5.272   6.366
  361SOL     OW 1981   6.098   5.762   3.079
  361SOL    HW1 1982   6.128   5.853   3.110
  361SOL    HW2 1983   6.011   5.740   3.124
  362SOL     OW 1984   3.903   3.778   1.444
  362SOL    HW1 1985   3.929   3.768   1.348
  362SOL    HW2 1986   3.927   3.695   1.494
  363SOL     OW 1987   5.373   4.257   3.360
  363SOL    HW1 1988   5.464   4.215   3.357
  363SOL    HW2 1989   5.350   4.294   3.270
  364SOL     OW 1990   6.814   5.416   6.692
  364SOL    HW1 1991   6.823   5.500   6.745
  364SOL    HW2 1992   6.863   5.342   6.738
  365SOL     OW 1993   6.230   6.173   2.424
  365SOL    HW1 1994   6.276   6.134   2.504
  365SOL    HW2 1995   6.157   6.234   2.454
  366SOL     OW 1996   6.038   0.758   6.342
  366SOL    HW1 1997   5.939   0.777   6.344
  366SOL    HW2 1998   6.054   0.678   6.284
  367SOL     OW 1999   5.426   3.058   0.990
  367SOL    HW1 2000   5.396   3.153   1.000
  367SOL    HW2 2001   5.346   2.998   0.999
  368SOL     OW 2002   0.159   3.946   4.909
  368SOL    HW1 2003   0.128   4.041   4.909
  368SOL    HW2 2004   0.244   3.939   4.962
  369SOL     OW 2005   6.297   5.164   2.209
  369SOL    HW1 2006   6.375   5.169   2.147
  369SOL    HW2 2007   6.228   5.102   2.172
  370SOL     OW 2008   2.761   1.498   6.044
  370SOL    HW1 2009   2.682   1.552   6.014
  370SOL    HW2 2010   2.765   1.499   6.144
  371SOL     OW 2011   2.268   3.595   5.909
  371SOL    HW1 2012   2.193   3.532   5.928
  371SOL    HW2 2013   2.296   3.585   5.814
  372SOL     OW 2014   0.907   6.455   6.067
  372SOL    HW1 2015   0.889   6.482   6.162
  372SOL    HW2 2016   0.940   6.534   6.015
  373SOL     OW 2017   6.437   6.814   4.615
  373SOL    HW1 2018   6.449   6.900   4.665
  373SOL    HW2 2019   6.343   6.808   4.581
  374SOL     OW 2020   2.579   1.774   3.592
  374SOL    HW1 2021   2.624   1.863   3.591
  374SOL    HW2 2022   2.623   1.715   3.660
  375SOL     OW 2023   0.984   3.959   3.988
  375SOL    HW1 2024   1.073   3.958   3.942
  375SOL    HW2 2025   0.929   4.033   3.951
  376SOL     OW 2026   2.721   1.694   5.328
  376SOL    HW1 2027   2.723   1.759   5.403
  376SOL    HW2 2028   2.686   1.606   5.361
  377SOL     OW 2029   1.305   1.922   1.438
  377SOL    HW1 2030   1.399   1.953   1.430
  377SOL    HW2 2031   1.260   1.929   1.349
  378SOL     OW 2032   3.705   2.336   5.955
  378SOL    HW1 2033   3.702   2.410   6.023
  378SOL    HW2 2034   3.623   2.279   5.964
  379SOL     OW 2035   6.016   4.364   1.042
  379SOL    HW1 2036   6.084   4.292   1.058
  379SOL    HW2 2037   6.011   4.384   0.944
  380SOL     OW 2038   2.690   1.526   1.371
  380SOL    HW1 2039   2.622   1.529   1.297
  380SOL    HW2 2040   2.685   1.438   1.417
  381SOL     OW 2041   1.589   3.550   2.464
  381SOL    HW1 2042   1.666   3.614   2.469
  381SOL    HW2 2043   1.554   3.533   2.556
  382SOL     OW 2044   6.119   0.122   6.332
  382SOL    HW1 2045   6.189   0.057   6.360
  382SOL    HW2 2046   6.129   0.143   6.235
  383SOL     OW 2047   4.489   3.969   5.778
  383SOL    HW1 2048   4.515   3.875   5.756
  383SOL    HW2 2049   4.487   4.023   5.694
  384SOL     OW 2050   6.822   5.974   4.534
  384SOL    HW1 2051   6.778   5.911   4.469
  384SOL    HW2 2052   6.755   6.006   4.600
  385SOL     OW 2053   3.994   5.704   5.147
  385SOL    HW1 2054   3.912   5.655   5.178
  385SOL    HW2 2055   4.075   5.667   5.192
  386SOL     OW 2056   2.238   6.762   5.254
  386SOL    HW1 2057   2.326   6.763   5.301
  386SOL    HW2 2058   2.217   6.853   5.220
  387SOL     OW 2059   0.979   6.858   3.690
  387SOL    HW1 2060   0.913   6.906   3.633
  387SOL    HW2 2061   0.932   6.816   3.767
  388SOL     OW 2062   1.860   1.537   4.186
  388SOL    HW1 2063   1.873   1.578   4.276
  388SOL    HW2 2064   1.763   1.541   4.161
  389SOL     OW 2065   3.935   4.508   0.857
  389SOL    HW1 2066   4.016   4.485   0.804
  389SOL    HW2 2067   3.958   4.579   0.924
  390SOL     OW 2068   3.761   1.274   0.133
  390SOL    HW1 2069   3.787   1.302   0.040
  390SOL    HW2 2070   3.716   1.350   0.179
  391SOL     OW 2071   2.701   3.762   5.728
  391SOL    HW1 2072   2.676   3.676   5.684
  391SOL    HW2 2073   2.732   3.827   5.659
  392SOL     OW 2074   1.895   4.217   0.624
  392SOL    HW1 2075   1.964   4.285   0.597
  392SOL    HW2 2076   1.940   4.137   0.662
  393SOL     OW 2077   1.276   4.476   6.414
  393SOL    HW1 2078   1.268   4.376   6.422
  393SOL    HW2 2079   1.369   4.499   6.383
  394SOL     OW 2080   6.754   2.504   0.916
  394SOL    HW1 2081   6.676   2.470   0.969
  394SOL    HW2 2082   6.727   2.512   0.820
  395SOL     OW 2083   4.971   4.812   2.863
  395SOL    HW1 2084   4.994   4.760   2.946
  395SOL    HW2 2085   5.018   4.772   2.785
  396SOL     OW 2086   2.884   3.603   2.156
  396SOL    HW1 2087   2.930   3.574   2.072
  396SOL    HW2 2088   2.787   3.619   2.138
  397SOL     OW 2089   5.570   1.680   6.056
  397SOL    HW1 2090   5.610   1.705   5.968
  397SOL    HW2 2091   5.500   1.609   6.042
  398SOL     OW 2092   1.239   6.954   3.695
  398SOL    HW1 2093   1.145   6.922   3.705
  398SOL    HW2 2094   1.299   6.900   3.754
  399SOL     OW 2095   5.324   6.367   3.743
  399SOL    HW1 2096   5.247   6.415   3.702
  399SOL    HW2 2097   5.294   6.320   3.826
  400SOL     OW 2098   6.050   6.575   5.258
  400SOL    HW1 2099   6.014   6.660   5.218
  400SOL    HW2 2100   6.136   6.551   5.214
  401SOL     OW 2101   5.262   0.087   6.405
  401SOL    HW1 2102   5.167   0.078   6.377
  401SOL    HW2 2103   5.271   0.066   6.502
  402SOL     OW 2104   6.349   0.495   3.651
  402SOL    HW1 2105   6.308   0.576   3.609
  402SOL    HW2 2106   6.439   0.518   3.687
  403SOL     OW 2107   3.837   1.195   4.910
  403SOL    HW1 2108   3.841   1.252   4.992
  403SOL    HW2 2109   3.771   1.234   4.845
  404SOL     OW 2110   1.748   4.514   3.713
  404SOL    HW1 2111   1.740   4.414   3.714
  404SOL    HW2 2112   1.798   4.544   3.794
  405SOL     OW 2113   2.146   3.101   2.998
  405SOL    HW1 2114   2.086   3.107   2.918
  405SOL    HW2 2115   2.198   3.185   3.008
  406SOL     OW 2116   0.299   4.519   4.687
  406SOL    HW1 2117   0.259   4.498   4.776
  406SOL    HW2 2118   0.315   4.435   4.636
  407SOL     OW 2119   0.955   1.776   5.283
  407SOL    HW1 2120   1.001   1.726   5.210
  407SOL    HW2 2121   0.977   1.874   5.275
  408SOL     OW 2122   3.007   2.004   3.123
  408SOL    HW1 2123   3.094   2.034   3.085
  408SOL    HW2 2124   2.938   2.075   3.109
  409SOL     OW 2125   6.038   3.625   2.234
  409SOL    HW1 2126   6.030   3.526   2.221
  409SOL    HW2 2127   6.013   3.648   2.328
  410SOL     OW 2128   1.045   1.737   0.798
  410SOL    HW1 2129   1.080   1.715   0.889
  410SOL    HW2 2130   1.113   1.790   0.748
  411SOL     OW 2131   6.629   0.689   1.227
  411SOL    HW1 2132   6.576   0.737   1.156
  411SOL    HW2 2133   6.615   0.734   1.315
  412SOL     OW 2134   3.579   5.570   3.065
  412SOL    HW1 2135   3.496   5.625   3.063
  412SOL    HW2 2136   3.586   5.517   2.980
  413SOL     OW 2137   6.120   3.967   1.996
  413SOL    HW1 2138   6.163   4.042   2.046
  413SOL    HW2 2139   6.134   3.980   1.898
  414SOL     OW 2140   3.898   5.819   3.261
  414SOL    HW1 2141   3.991   5.853   3.276
  414SOL    HW2 2142   3.879   5.744   3.324
  415SOL     OW 2143   0.176   0.408   6.861
  415SOL    HW1 2144   0.121   0.488   6.840
  415SOL    HW2 2145   0.116   0.334   6.894
  416SOL     OW 2146   4.922   5.990   4.770
  416SOL    HW1 2147   4.824   6.008   4.778
  416SOL    HW2 2148   4.958   6.040   4.691
  417SOL     OW 2149   2.184   6.820   5.562
  417SOL    HW1 2150   2.147   6.740   5.515
  417SOL    HW2 2151   2.282   6.806   5.580
  418SOL     OW 2152   3.492   6.402   6.707
  418SOL    HW1 2153   3.473   6.311   6.743
  418SOL    HW2 2154   3.478   6.402   6.608
  419SOL     OW 2155   1.516   6.435   3.156
  419SOL    HW1 2156   1.451   6.389   3.096
  419SOL    HW2 2157   1.606   6.392   3.147
  420SOL     OW 2158   6.135   1.430   6.953
  420SOL    HW1 2159   6.213   1.458   7.009
  420SOL    HW2 2160   6.163   1.357   6.891
  421SOL     OW 2161   6.102   4.009   5.180
  421SOL    HW1 2162   6.179   3.991   5.242
  421SOL    HW2 2163   6.132   4.070   5.107
  422SOL     OW 2164   5.286   3.691   1.351
  422SOL    HW1 2165   5.378   3.683   1.313
  422SOL    HW2 2166   5.224   3.630   1.302
  423SOL     OW 2167   0.953   2.483   6.610
  423SOL    HW1 2168   1.004   2.505   6.693
  423SOL    HW2 2169   1.016   2.463   6.536
  424SOL     OW 2170   1.922   5.087   1.878
  424SOL    HW1 2171   1.953   5.017   1.814
  424SOL    HW2 2172   1.912   5.174   1.830
  425SOL     OW 2173   4.864   1.708   3.832
  425SOL    HW1 2174   4.920   1.626   3.844
  425SOL    HW2 2175   4.769   1.682   3.817
  426SOL     OW 2176   2.834   2.121   4.573
  426SOL    HW1 2177   2.837   2.094   4.669
  426SOL    HW2 2178   2.928   2.135   4.540
  427SOL     OW 2179   6.363   6.986   3.965
  427SOL    HW1 2180   6.414   0.046   3.949
  427SOL    HW2 2181   6.401   6.939   4.045
  428SOL     OW 2182   3.800   0.146   3.399
  428SOL    HW1 2183   3.898   0.168   3.403
  428SOL    HW2 2184   3.783   0.062   3.451
  429SOL     OW 2185   0.604   4.598   3.344
  429SOL    HW1 2186   0.514   4.637   3.366
  429SOL    HW2 2187   0.603   4.500   3.363
  430SOL     OW 2188   1.405   6.149   4.328
  430SOL    HW1 2189   1.412   6.249   4.332
  430SOL    HW2 2190   1.434   6.110   4.415
  431SOL     OW 2191   2.976   0.452   1.355
  431SOL    HW1 2192   3.073   0.430   1.355
  431SOL    HW2 2193   2.953   0.504   1.437
  432SOL     OW 2194   6.626   2.003   0.998
  432SOL    HW1 2195   6.606   2.059   0.918
  432SOL    HW2 2196   6.624   1.906   0.972
  433SOL     OW 2197   2.415   6.481   5.557
  433SOL    HW1 2198   2.320   6.492   5.527
  433SOL    HW2 2199   2.454   6.401   5.512
  434SOL     OW 2200   4.223   5.556   3.337
  434SOL    HW1 2201   4.241   5.636   3.281
  434SOL    HW2 2202   4.125   5.535   3.336
  435SOL     OW 2203   4.170   1.810   6.083
  435SOL    HW1 2204   4.185   1.820   6.182
  435SOL    HW2 2205   4.258   1.821   6.036
  436SOL     OW 2206   3.085   5.298   1.788
  436SOL    HW1 2207   2.989   5.274   1.780
  436SOL    HW2 2208   3.134   5.226   1.838
  437SOL     OW 2209   0.653   1.061   6.466
  437SOL    HW1 2210   0.602   1.064   6.552
  437SOL    HW2 2211   0.743   1.103   6.479
  438SOL     OW 2212   1.640   3.730   4.356
  438SOL    HW1 2213   1.725   3.683   4.331
  438SOL    HW2 2214   1.565   3.664   4.360
  439SOL     OW 2215   5.897   6.169   2.782
  439SOL    HW1 2216   5.845   6.168   2.867
  439SOL    HW2 2217   5.976   6.108   2.789
  440SOL     OW 2218   3.031   1.899   5.832
  440SOL    HW1 2219   2.933   1.900   5.850
  440SOL    HW2 2220   3.048   1.911   5.735
  441SOL     OW 2221   0.192   3.847   3.052
  441SOL    HW1 2222   0.190   3.854   2.952
  441SOL    HW2 2223   0.237   3.762   3.078
  442SOL     OW 2224   4.468   5.910   5.704
  442SOL    HW1 2225   4.399   5.923   5.633
  442SOL    HW2 2226   4.557   5.941   5.671
  443SOL     OW 2227   5.594   4.283   4.740
  443SOL    HW1 2228   5.532   4.207   4.723
  443SOL    HW2 2229   5.661   4.289   4.666
  444SOL     OW 2230   5.132   0.034   6.066
  444SOL    HW1 2231   5.034   0.025   6.084
  444SOL    HW2 2232   5.178   6.971   6.085
  445SOL     OW 2233   1.891   6.030   3.224
  445SOL    HW1 2234   1.896   5.930   3.219
  445SOL    HW2 2235   1.968   6.069   3.174
  446SOL     OW 2236   4.224   5.335   2.642
  446SOL    HW1 2237   4.238   5.364   2.547
  446SOL    HW2 2238   4.145   5.382   2.680
  447SOL     OW 2239   6.548   3.935   5.441
  447SOL    HW1 2240   6.614   3.997   5.483
  447SOL    HW2 2241   6.531   3.858   5.503
  448SOL     OW 2242   2.626   0.617   2.899
  448SOL    HW1 2243   2.572   0.661   2.970
  448SOL    HW2 2244   2.568   0.601   2.818
  449SOL     OW 2245   3.017   1.157   4.044
  449SOL    HW1 2246   3.067   1.154   3.957
  449SOL    HW2 2247   2.997   1.064   4.074
  450SOL     OW 2248   1.618   4.571   3.462
  450SOL    HW1 2249   1.664   4.545   3.547
  450SOL    HW2 2250   1.657   4.656   3.428
  451SOL     OW 2251   1.824   2.059   4.436
  451SOL    HW1 2252   1.813   2.061   4.535
  451SOL    HW2 2253   1.911   2.014   4.413
  452SOL     OW 2254   4.472   6.699   1.330
  452SOL    HW1 2255   4.514   6.771   1.275
  452SOL    HW2 2256   4.539   6.626   1.346
  453SOL     OW 2257   3.730   6.963   6.698
  453SOL    HW1 2258   3.722   6.913   6.784
  453SOL    HW2 2259   3.827   6.968   6.671
  454SOL     OW 2260   6.988   3.346   6.480
  454SOL    HW1 2261   6.909   3.390   6.523
  454SOL    HW2 2262   0.045   3.401   6.496
  455SOL     OW 2263   5.054   2.778   4.824
  455SOL    HW1 2264   5.054   2.753   4.727
  455SOL    HW2 2265   4.978   2.731   4.870
  456SOL     OW 2266   1.176   0.084   4.610
  456SOL    HW1 2267   1.263   0.124   4.639
  456SOL    HW2 2268   1.138   0.029   4.685
  457SOL     OW 2269   2.024   4.233   4.296
  457SOL    HW1 2270   1.950   4.301   4.296
  457SOL    HW2 2271   2.092   4.258   4.364
  458SOL     OW 2272   2.701   6.485   2.843
  458SOL    HW1 2273   2.719   6.458   2.937
  458SOL    HW2 2274   2.653   6.573   2.842
  459SOL     OW 2275   1.556   0.095   5.883
  459SOL    HW1 2276   1.604   0.045   5.811
  459SOL    HW2 2277   1.560   0.193   5.864
  460SOL     OW 2278   1.418   6.957   4.657
  460SOL    HW1 2279   1.468   6.872   4.642
  460SOL    HW2 2280   1.480   0.000   4.698
  461SOL     OW 2281   6.685   5.110   5.725
  461SOL    HW1 2282   6.626   5.188   5.704
  461SOL    HW2 2283   6.628   5.028   5.734
  462SOL     OW 2284   3.893   3.211   6.276
  462SOL    HW1 2285   3.826   3.138   6.266
  462SOL    HW2 2286   3.903   3.235   6.373
  463SOL     OW 2287   6.955   0.146   3.939
  463SOL    HW1 2288   6.871   0.093   3.931
  463SOL    HW2 2289   0.008   0.083   3.954
  464SOL     OW 2290   2.769   0.736   5.822
  464SOL    HW1 2291   2.858   0.706   5.788
  464SOL    HW2 2292   2.767   0.730   5.922
  465SOL     OW 2293   0.528   2.440   6.962
  465SOL    HW1 2294   0.489   2.361   7.008
  465SOL    HW2 2295   0.481   2.523   6.992
  466SOL     OW 2296   2.720   6.797   4.286
  466SOL    HW1 2297   2.763   6.887   4.277
  466SOL    HW2 2298   2.723   6.750   4.198
  467SOL     OW 2299   1.625   1.583   2.183
  467SOL    HW1 2300   1.556   1.654   2.167
  467SOL    HW2 2301   1.640   1.573   2.282
  468SOL     OW 2302   3.376   5.405   5.179
  468SOL    HW1 2303   3.289   5.454   5.188
  468SOL    HW2 2304   3.371   5.342   5.102
  469SOL     OW 2305   2.864   3.562   6.190
  469SOL    HW1 2306   2.892   3.472   6.158
  469SOL    HW2 2307   2.874   3.628   6.116
  470SOL     OW 2308   4.060   6.129   1.265
  470SOL    HW1 2309   4.118   6.059   1.224
  470SOL    HW2 2310   4.098   6.156   1.353
  471SOL     OW 2311   2.404   2.668   3.850
  471SOL    HW1 2312   2.479   2.615   3.890
  471SOL    HW2 2313   2.341   2.695   3.922
  472SOL     OW 2314   5.580   4.400   6.748
  472SOL    HW1 2315   5.660   4.419   6.691
  472SOL    HW2 2316   5.515   4.344   6.697
  473SOL     OW 2317   1.470   1.839   2.187
  473SOL    HW1 2318   1.537   1.913   2.179
  473SOL    HW2 2319   1.418   1.831   2.103
  474SOL     OW 2320   5.215   5.447   4.731
  474SOL    HW1 2321   5.157   5.506   4.787
  474SOL    HW2 2322   5.306   5.442   4.770
  475SOL     OW 2323   6.385   2.599   0.680
  475SOL    HW1 2324   6.336   2.590   0.766
  475SOL    HW2 2325   6.358   2.525   0.618
  476SOL     OW 2326   6.905   3.970   1.827
  476SOL    HW1 2327   6.959   4.053   1.835
  476SOL    HW2 2328   6.848   3.959   1.909
  477SOL     OW 2329   2.926   5.919   3.301
  477SOL    HW1 2330   2.833   5.914   3.337
  477SOL    HW2 2331   2.926   5.966   3.213
  478SOL     OW 2332   3.980   5.722   2.782
  478SOL    HW1 2333   4.059   5.750   2.727
  478SOL    HW2 2334   3.983   5.623   2.796
  479SOL     OW 2335   3.926   3.287   4.978
  479SOL    HW1 2336   3.931   3.265   4.880
  479SOL    HW2 2337   4.003   3.345   5.004
  480SOL     OW 2338   2.911   0.629   1.087
  480SOL    HW1 2339   2.826   0.596   1.128
  480SOL    HW2 2340   2.943   0.561   1.020
  481SOL     OW 2341   0.722   6.970   1.901
  481SOL    HW1 2342   0.741   6.897   1.835
  481SOL    HW2 2343   0.788   0.019   1.889
  482SOL     OW 2344   4.793   5.080   1.919
  482SOL    HW1 2345   4.726   5.123   1.980
  482SOL    HW2 2346   4.767   4.984   1.904
  483SOL     OW 2347   6.662   2.355   2.840
  483SOL    HW1 2348   6.759   2.379   2.839
  483SOL    HW2 2349   6.650   2.263   2.803
  484SOL     OW 2350   1.377   3.940   4.540
  484SOL    HW1 2351   1.415   3.858   4.583
  484SOL    HW2 2352   1.399   4.020   4.596
  485SOL     OW 2353   4.861   4.515   2.450
  485SOL    HW1 2354   4.820   4.439   2.400
  485SOL    HW2 2355   4.941   4.548   2.400
  486SOL     OW 2356   5.833   2.000   0.094
  486SOL    HW1 2357   5.733   1.994   0.097
  486SOL    HW2 2358   5.860   2.088   0.055
  487SOL     OW 2359   0.445   0.529   3.506
  487SOL    HW1 2360   0.503   0.609   3.519
  487SOL    HW2 2361   0.457   0.467   3.584
  488SOL     OW 2362   0.861   0.080   2.215
  488SOL    HW1 2363   0.762   0.086   2.207
  488SOL    HW2 2364   0.887   7.016   2.256
  489SOL     OW 2365   5.472   6.245   5.469
  489SOL    HW1 2366   5.502   6.170   5.528
  489SOL    HW2 2367   5.375   6.264   5.486
  490SOL     OW 2368   2.297   6.137   3.902
  490SOL    HW1 2369   2.370   6.117   3.837
  490SOL    HW2 2370   2.309   6.230   3.938
  491SOL     OW 2371   1.459   2.959   1.102
  491SOL    HW1 2372   1.494   2.865   1.105
  491SOL    HW2 2373   1.513   3.016   1.164
  492SOL     OW 2374   1.450   0.901   5.611
  492SOL    HW1 2375   1.413   0.884   5.520
  492SOL    HW2 2376   1.374   0.918   5.674
  493SOL     OW 2377   2.975   6.917   5.815
  493SOL    HW1 2378   2.934   6.943   5.727
  493SOL    HW2 2379   3.058   6.970   5.829
  494SOL     OW 2380   1.339   6.897   6.569
  494SOL    HW1 2381   1.332   6.926   6.664
  494SOL    HW2 2382   1.367   6.975   6.512
  495SOL     OW 2383   3.618   5.886   3.735
  495SOL    HW1 2384   3.639   5.939   3.817
  495SOL    HW2 2385   3.617   5.947   3.655
  496SOL     OW 2386   5.754   2.873   1.860
  496SOL    HW1 2387   5.772   2.777   1.843
  496SOL    HW2 2388   5.676   2.882   1.923
  497SOL     OW 2389   3.068   1.295   4.719
  497SOL    HW1 2390   3.115   1.213   4.687
  497SOL    HW2 2391   3.057   1.359   4.644
  498SOL     OW 2392   0.898   4.550   2.640
  498SOL    HW1 2393   0.907   4.584   2.733
  498SOL    HW2 2394   0.873   4.453   2.642
  499SOL     OW 2395   1.712   5.368   4.539
  499SOL    HW1 2396   1.733   5.457   4.580
  499SOL    HW2 2397   1.613   5.361   4.526
  500SOL     OW 2398   5.890   2.479   0.051
  500SOL    HW1 2399   5.836   2.506   0.130
  500SOL    HW2 2400   5.959   2.549   0.032
  501SOL     OW 2401   3.935   6.740   0.945
  501SOL    HW1 2402   3.887   6.699   0.868
  501SOL    HW2 2403   3.915   6.688   1.028
  502SOL     OW 2404   0.747   4.731   5.970
  502SOL    HW1 2405   0.686   4.774   5.903
  502SOL    HW2 2406   0.837   4.716   5.929
  503SOL     OW 2407   1.149   4.596   6.140
  503SOL    HW1 2408   1.122   4.572   6.233
  503SOL    HW2 2409   1.245   4.572   6.126
  504SOL     OW 2410   1.104   5.714   2.373
  504SOL    HW1 2411   1.060   5.648   2.433
  504SOL    HW2 2412   1.187   5.674   2.334
  505SOL     OW 2413   4.177   6.484   4.758
  505SOL    HW1 2414   4.204   6.390   4.774
  505SOL    HW2 2415   4.105   6.511   4.823
  506SOL     OW 2416   3.304   6.037   2.343
  506SOL    HW1 2417   3.296   6.134   2.319
  506SOL    HW2 2418   3.311   6.027   2.442
  507SOL     OW 2419   3.048   6.235   3.319
  507SOL    HW1 2420   3.078   6.327   3.292
  507SOL    HW2 2421   3.030   6.234   3.417
  508SOL     OW 2422   0.222   3.579   2.034
  508SOL    HW1 2423   0.140   3.575   1.976
  508SOL    HW2 2424   0.253   3.486   2.052
  509SOL     OW 2425   3.540   1.359   1.106
  509SOL    HW1 2426   3.491   1.445   1.120
  509SOL    HW2 2427   3.489   1.301   1.042
  510SOL     OW 2428   6.535   4.426   5.912
  510SOL    HW1 2429   6.540   4.523   5.934
  510SOL    HW2 2430   6.612   4.378   5.956
  511SOL     OW 2431   0.842   2.196   6.549
  511SOL    HW1 2432   0.781   2.181   6.627
  511SOL    HW2 2433   0.833   2.291   6.518
  512SOL     OW 2434   6.845   2.670   6.851
  512SOL    HW1 2435   6.870   2.584   6.808
  512SOL    HW2 2436   6.919   2.737   6.836
  513SOL     OW 2437   5.390   6.868   3.349
  513SOL    HW1 2438   5.305   6.917   3.332
  513SOL    HW2 2439   5.458   6.931   3.386
  514SOL     OW 2440   6.721   0.800   4.298
  514SOL    HW1 2441   6.763   0.709   4.307
  514SOL    HW2 2442   6.748   0.856   4.376
  515SOL     OW 2443   1.904   0.993   0.399
  515SOL    HW1 2444   1.837   0.968   0.328
  515SOL    HW2 2445   1.983   0.932   0.392
  516SOL     OW 2446   2.741   4.828   1.878
  516SOL    HW1 2447   2.774   4.734   1.893
  516SOL    HW2 2448   2.642   4.830   1.887
  517SOL     OW 2449   3.295   4.752   1.847
  517SOL    HW1 2450   3.381   4.703   1.864
  517SOL    HW2 2451   3.306   4.848   1.874
  518SOL     OW 2452   2.487   2.222   3.585
  518SOL    HW1 2453   2.508   2.304   3.639
  518SOL    HW2 2454   2.390   2.200   3.594
  519SOL     OW 2455   0.409   6.653   3.271
  519SOL    HW1 2456   0.451   6.743   3.260
  519SOL    HW2 2457   0.477   6.582   3.251
  520SOL     OW 2458   6.378   3.613   6.579
  520SOL    HW1 2459   6.318   3.566   6.514
  520SOL    HW2 2460   6.438   3.676   6.529
  521SOL     OW 2461   6.113   5.926   5.439
  521SOL    HW1 2462   6.194   5.938   5.381
  521SOL    HW2 2463   6.139   5.932   5.535
  522SOL     OW 2464   4.053   3.708   3.260
  522SOL    HW1 2465   4.074   3.610   3.269
  522SOL    HW2 2466   4.012   3.741   3.345
  523SOL     OW 2467   0.141   6.041   1.436
  523SOL    HW1 2468   0.096   6.075   1.519
  523SOL    HW2 2469   0.193   6.115   1.394
  524SOL     OW 2470   1.413   2.534   2.800
  524SOL    HW1 2471   1.464   2.614   2.833
  524SOL    HW2 2472   1.415   2.463   2.870
  525SOL     OW 2473   1.840   4.360   5.832
  525SOL    HW1 2474   1.924   4.330   5.876
  525SOL    HW2 2475   1.817   4.298   5.757
  526SOL     OW 2476   3.595   6.616   4.028
  526SOL    HW1 2477   3.640   6.532   4.060
  526SOL    HW2 2478   3.509   6.627   4.076
  527SOL     OW 2479   6.737   2.877   0.682
  527SOL    HW1 2480   6.835   2.883   0.700
  527SOL    HW2 2481   6.686   2.893   0.766
  528SOL     OW 2482   1.736   2.550   3.565
  528SOL    HW1 2483   1.786   2.585   3.485
  528SOL    HW2 2484   1.640   2.577   3.558
  529SOL     OW 2485   1.545   6.711   4.987
  529SOL    HW1 2486   1.516   6.741   5.078
  529SOL    HW2 2487   1.562   6.791   4.930
  530SOL     OW 2488   4.137   3.648   3.003
  530SOL    HW1 2489   4.237   3.647   2.997
  530SOL    HW2 2490   4.110   3.680   3.094
  531SOL     OW 2491   0.908   1.266   2.885
  531SOL    HW1 2492   0.922   1.169   2.864
  531SOL    HW2 2493   0.864   1.275   2.974
  532SOL     OW 2494   1.057   2.564   0.481
  532SOL    HW1 2495   1.118   2.536   0.555
  532SOL    HW2 2496   1.082   2.656   0.451
  533SOL     OW 2497   4.191   0.044   3.372
  533SOL    HW1 2498   4.156   6.976   3.356
  533SOL    HW2 2499   4.124   0.098   3.422
  534SOL     OW 2500   5.857   5.845   2.953
  534SOL    HW1 2501   5.952   5.829   2.927
  534SOL    HW2 2502   5.853   5.893   3.041
  535SOL     OW 2503   6.620   4.286   3.309
  535SOL    HW1 2504   6.639   4.297   3.212
  535SOL    HW2 2505   6.659   4.363   3.360
  536SOL     OW 2506   6.540   4.840   2.740
  536SOL    HW1 2507   6.467   4.853   2.806
  536SOL    HW2 2508   6.627   4.826   2.788
  537SOL     OW 2509   3.123   6.928   4.826
  537SOL    HW1 2510   3.092   6.924   4.920
  537SOL    HW2 2511   3.215   6.968   4.823
  538SOL     OW 2512   0.335   4.451   3.955
  538SOL    HW1 2513   0.337   4.488   4.047
  538SOL    HW2 2514   0.273   4.505   3.898
  539SOL     OW 2515   1.926   4.495   1.809
  539SOL    HW1 2516   1.992   4.434   1.764
  539SOL    HW2 2517   1.881   4.552   1.740
  540SOL     OW 2518   1.230   1.548   2.813
  540SOL    HW1 2519   1.187   1.460   2.792
  540SOL    HW2 2520   1.300   1.568   2.746
  541SOL     OW 2521   5.716   5.264   4.321
  541SOL    HW1 2522   5.683   5.190   4.263
  541SOL    HW2 2523   5.640   5.323   4.347
  542SOL     OW 2524   4.464   6.428   6.727
  542SOL    HW1 2525   4.526   6.390   6.795
  542SOL    HW2 2526   4.395   6.360   6.703
  543SOL     OW 2527   6.290   3.638   4.142
  543SOL    HW1 2528   6.375   3.587   4.123
  543SOL    HW2 2529   6.268   3.630   4.240
  544SOL     OW 2530   0.961   4.624   6.633
  544SOL    HW1 2531   0.915   4.675   6.706
  544SOL    HW2 2532   1.055   4.656   6.624
  545SOL     OW 2533   3.540   0.812   1.108
  545SOL    HW1 2534   3.603   0.748   1.153
  545SOL    HW2 2535   3.475   0.760   1.052
  546SOL     OW 2536   1.294   3.776   0.942
  546SOL    HW1 2537   1.317   3.695   0.996
  546SOL    HW2 2538   1.354   3.781   0.862
  547SOL     OW 2539   3.978   1.853   0.266
  547SOL    HW1 2540   3.983   1.855   0.166
  547SOL    HW2 2541   3.916   1.925   0.298
  548SOL     OW 2542   3.189   3.099   1.819
  548SOL    HW1 2543   3.274   3.056   1.791
  548SOL    HW2 2544   3.176   3.086   1.918
  549SOL     OW 2545   5.149   2.258   1.977
  549SOL    HW1 2546   5.224   2.205   1.939
  549SOL    HW2 2547   5.148   2.349   1.935
  550SOL     OW 2548   1.366   5.524   3.573
  550SOL    HW1 2549   1.417   5.598   3.616
  550SOL    HW2 2550   1.269   5.549   3.568
  551SOL     OW 2551   0.490   0.028   1.790
  551SOL    HW1 2552   0.510   0.109   1.735
  551SOL    HW2 2553   0.568   0.006   1.848
  552SOL     OW 2554   6.000   4.412   6.784
  552SOL    HW1 2555   5.930   4.351   6.747
  552SOL    HW2 2556   6.075   4.421   6.719
  553SOL     OW 2557   2.591   6.728   4.502
  553SOL    HW1 2558   2.650   6.766   4.431
  553SOL    HW2 2559   2.521   6.670   4.460
  554SOL     OW 2560   5.749   0.165   0.030
  554SOL    HW1 2561   5.789   0.175   6.964
  554SOL    HW2 2562   5.649   0.169   0.024
  555SOL     OW 2563   3.451   4.982   4.927
  555SOL    HW1 2564   3.492   4.960   4.838
  555SOL    HW2 2565   3.521   5.021   4.987
  556SOL     OW 2566   5.185   1.656   3.850
  556SOL    HW1 2567   5.134   1.582   3.805
  556SOL    HW2 2568   5.169   1.742   3.801
  557SOL     OW 2569   6.747   5.425   0.560
  557SOL    HW1 2570   6.829   5.411   0.617
  557SOL    HW2 2571   6.765   5.498   0.494
  558SOL     OW 2572   2.972   3.306   3.324
  558SOL    HW1 2573   2.990   3.362   3.405
  558SOL    HW2 2574   2.986   3.210   3.346
  559SOL     OW 2575   0.185   5.888   6.241
  559SOL    HW1 2576   0.159   5.806   6.190
  559SOL    HW2 2577   0.248   5.943   6.186
  560SOL     OW 2578   6.498   3.756   3.570
  560SOL    HW1 2579   6.480   3.768   3.667
  560SOL    HW2 2580   6.471   3.838   3.520
  561SOL     OW 2581   0.594   2.419   1.165
  561SOL    HW1 2582   0.536   2.395   1.087
  561SOL    HW2 2583   0.650   2.498   1.142
  562SOL     OW 2584   4.607   6.945   6.466
  562SOL    HW1 2585   4.589   6.990   6.379
  562SOL    HW2 2586   4.671   7.000   6.520
  563SOL     OW 2587   2.883   0.514   3.720
  563SOL    HW1 2588   2.979   0.506   3.744
  563SOL    HW2 2589   2.873   0.578   3.643
  564SOL     OW 2590   1.195   2.643   0.142
  564SOL    HW1 2591   1.239   2.710   0.082
  564SOL    HW2 2592   1.104   2.675   0.166
  565SOL     OW 2593   3.362   3.776   4.779
  565SOL    HW1 2594   3.295   3.834   4.733
  565SOL    HW2 2595   3.448   3.826   4.790
  566SOL     OW 2596   0.510   4.342   3.524
  566SOL    HW1 2597   0.498   4.367   3.620
  566SOL    HW2 2598   0.423   4.354   3.476
  567SOL     OW 2599   2.746   2.796   1.658
  567SOL    HW1 2600   2.835   2.840   1.641
  567SOL    HW2 2601   2.753   2.698   1.640
  568SOL     OW 2602   5.024   0.237   0.013
  568SOL    HW1 2603   4.976   0.150   0.020
  568SOL    HW2 2604   5.037   0.260   6.941
  569SOL     OW 2605   1.559   2.829   7.016
  569SOL    HW1 2606   1.553   2.733   0.020
  569SOL    HW2 2607   1.539   2.837   6.919
  570SOL     OW 2608   3.805   6.722   6.504
  570SOL    HW1 2609   3.736   6.759   6.567
  570SOL    HW2 2610   3.860   6.653   6.550
  571SOL     OW 2611   3.090   4.989   2.646
  571SOL    HW1 2612   3.179   5.021   2.616
  571SOL    HW2 2613   3.021   5.060   2.629
  572SOL     OW 2614   2.860   4.752   5.689
  572SOL    HW1 2615   2.924   4.825   5.666
  572SOL    HW2 2616   2.869   4.678   5.623
  573SOL     OW 2617   5.259   1.138   5.840
  573SOL    HW1 2618   5.242   1.206   5.912
  573SOL    HW2 2619   5.318   1.066   5.876
  574SOL     OW 2620   3.599   1.521   4.825
  574SOL    HW1 2621   3.508   1.515   4.784
  574SOL    HW2 2622   3.666   1.540   4.754
  575SOL     OW 2623   5.188   3.870   1.543
  575SOL    HW1 2624   5.159   3.926   1.465
  575SOL    HW2 2625   5.244   3.794   1.510
  576SOL     OW 2626   1.460   2.327   2.972
  576SOL    HW1 2627   1.458   2.235   3.011
  576SOL    HW2 2628   1.503   2.389   3.038
  577SOL     OW 2629   1.108   1.332   2.721
  577SOL    HW1 2630   1.130   1.234   2.722
  577SOL    HW2 2631   1.022   1.348   2.770
  578SOL     OW 2632   6.700   5.270   4.448
  578SOL    HW1 2633   6.617   5.280   4.394
  578SOL    HW2 2634   6.748   5.357   4.453
  579SOL     OW 2635   1.789   3.442   4.150
  579SOL    HW1 2636   1.855   3.383   4.103
  579SOL    HW2 2637   1.771   3.522   4.093
  580SOL     OW 2638   4.619   5.131   5.524
  580SOL    HW1 2639   4.610   5.230   5.527
  580SOL    HW2 2640   4.712   5.107   5.493
  581SOL     OW 2641   1.690   2.524   1.622
  581SOL    HW1 2642   1.646   2.494   1.538
  581SOL    HW2 2643   1.625   2.577   1.677
  582SOL     OW 2644   4.813   5.696   2.293
  582SOL    HW1 2645   4.753   5.756   2.240
  582SOL    HW2 2646   4.782   5.602   2.284
  583SOL     OW 2647   2.897   6.128   5.231
  583SOL    HW1 2648   2.807   6.165   5.252
  583SOL    HW2 2649   2.913   6.129   5.133
  584SOL     OW 2650   2.566   5.393   6.491
  584SOL    HW1 2651   2.602   5.429   6.578
  584SOL    HW2 2652   2.536   5.299   6.504
  585SOL     OW 2653   4.753   1.560   6.459
  585SOL    HW1 2654   4.803   1.519   6.536
  585SOL    HW2 2655   4.800   1.540   6.374
  586SOL     OW 2656   3.434   0.271   6.308
  586SOL    HW1 2657   3.491   0.304   6.233
  586SOL    HW2 2658   3.364   0.340   6.330
  587SOL     OW 2659   4.597   2.087   3.988
  587SOL    HW1 2660   4.522   2.058   4.047
  587SOL    HW2 2661   4.677   2.030   4.005
  588SOL     OW 2662   2.810   5.579   1.360
  588SOL    HW1 2663   2.743   5.506   1.368
  588SOL    HW2 2664   2.834   5.592   1.264
  589SOL     OW 2665   3.338   4.519   1.578
  589SOL    HW1 2666   3.250   4.553   1.611
  589SOL    HW2 2667   3.411   4.548   1.641
  590SOL     OW 2668   5.281   2.763   2.126
  590SOL    HW1 2669   5.200   2.768   2.068
  590SOL    HW2 2670   5.333   2.680   2.104
  591SOL     OW 2671   3.476   5.704   3.521
  591SOL    HW1 2672   3.536   5.659   3.454
  591SOL    HW2 2673   3.527   5.717   3.606
  592SOL     OW 2674   3.795   1.144   1.099
  592SOL    HW1 2675   3.816   1.052   1.064
  592SOL    HW2 2676   3.826   1.212   1.033
  593SOL     OW 2677   3.933   2.182   4.421
  593SOL    HW1 2678   3.852   2.215   4.471
  593SOL    HW2 2679   3.981   2.115   4.477
  594SOL     OW 2680   6.601   1.244   0.191
  594SOL    HW1 2681   6.624   1.322   0.134
  594SOL    HW2 2682   6.537   1.272   0.263
  595SOL     OW 2683   5.392   0.903   3.749
  595SOL    HW1 2684   5.344   0.979   3.703
  595SOL    HW2 2685   5.329   0.858   3.813
  596SOL     OW 2686   0.888   5.529   3.589
  596SOL    HW1 2687   0.918   5.529   3.685
  596SOL    HW2 2688   0.790   5.547   3.584
  597SOL     OW 2689   2.076   0.279   0.211
  597SOL    HW1 2690   2.057   0.374   0.189
  597SOL    HW2 2691   2.128   0.236   0.137
  598SOL     OW 2692   3.802   3.800   5.379
  598SOL    HW1 2693   3.884   3.823   5.431
  598SOL    HW2 2694   3.724   3.795   5.442
  599SOL     OW 2695   2.868   6.426   2.117
  599SOL    HW1 2696   2.811   6.373   2.055
  599SOL    HW2 2697   2.873   6.521   2.086
  600SOL     OW 2698   6.352   1.523   0.054
  600SOL    HW1 2699   6.412   1.601   0.070
  600SOL    HW2 2700   6.402   1.453   0.003
  601SOL     OW 2701   1.320   0.328   4.723
  601SOL    HW1 2702   1.239   0.358   4.774
  601SOL    HW2 2703   1.395   0.392   4.738
  602SOL     OW 2704   1.323   1.206   6.144
  602SOL    HW1 2705   1.298   1.117   6.182
  602SOL    HW2 2706   1.250   1.271   6.161
  603SOL     OW 2707   2.855   2.575   5.323
  603SOL    HW1 2708   2.953   2.593   5.329
  603SOL    HW2 2709   2.805   2.645   5.374
  604SOL     OW 2710   1.094   2.080   1.516
  604SOL    HW1 2711   1.166   2.013   1.499
  604SOL    HW2 2712   1.029   2.042   1.583
  605SOL     OW 2713   6.804   5.531   0.195
  605SOL    HW1 2714   6.832   5.531   0.099
  605SOL    HW2 2715   6.726   5.592   0.207
  606SOL     OW 2716   5.025   6.445   6.554
  606SOL    HW1 2717   5.068   6.443   6.464
  606SOL    HW2 2718   4.927   6.428   6.544
  607SOL     OW 2719   6.058   5.423   5.066
  607SOL    HW1 2720   6.129   5.442   5.134
  607SOL    HW2 2721   6.102   5.395   4.980
  608SOL     OW 2722   4.012   6.117   6.809
  608SOL    HW1 2723   3.941   6.167   6.761
  608SOL    HW2 2724   3.986   6.107   6.906
  609SOL     OW 2725   3.658   2.914   2.350
  609SOL    HW1 2726   3.732   2.981   2.353
  609SOL    HW2 2727   3.589   2.937   2.418
  610SOL     OW 2728   5.898   4.172   2.060
  610SOL    HW1 2729   5.960   4.103   2.022
  610SOL    HW2 2730   5.948   4.229   2.126
  611SOL     OW 2731   4.346   6.931   2.195
  611SOL    HW1 2732   4.319   6.994   2.268
  611SOL    HW2 2733   4.382   6.984   2.118
  612SOL     OW 2734   3.911   6.262   4.572
  612SOL    HW1 2735   3.964   6.231   4.650
  612SOL    HW2 2736   3.846   6.191   4.544
  613SOL     OW 2737   4.546   6.283   5.245
  613SOL    HW1 2738   4.566   6.381   5.245
  613SOL    HW2 2739   4.531   6.252   5.339
  614SOL     OW 2740   5.284   5.863   0.187
  614SOL    HW1 2741   5.319   5.770   0.200
  614SOL    HW2 2742   5.184   5.863   0.197
  615SOL     OW 2743   6.743   2.218   1.972
  615SOL    HW1 2744   6.785   2.166   1.897
  615SOL    HW2 2745   6.814   2.245   2.037
  616SOL     OW 2746   0.643   2.990   3.428
  616SOL    HW1 2747   0.646   2.937   3.513
  616SOL    HW2 2748   0.575   3.063   3.435
  617SOL     OW 2749   0.424   4.558   6.017
  617SOL    HW1 2750   0.442   4.581   5.921
  617SOL    HW2 2751   0.402   4.642   6.067
  618SOL     OW 2752   6.651   2.583   0.673
  618SOL    HW1 2753   6.662   2.681   0.657
  618SOL    HW2 2754   6.553   2.561   0.678
  619SOL     OW 2755   4.279   1.014   0.172
  619SOL    HW1 2756   4.330   0.932   0.144
  619SOL    HW2 2757   4.256   1.007   0.269
  620SOL     OW 2758   4.210   2.493   1.380
  620SOL    HW1 2759   4.175   2.586   1.380
  620SOL    HW2 2760   4.146   2.433   1.429
  621SOL     OW 2761   2.098   6.854   0.217
  621SOL    HW1 2762   2.132   6.827   0.127
  621SOL    HW2 2763   2.002   6.830   0.226
  622SOL     OW 2764   0.938   0.283   6.285
  622SOL    HW1 2765   0.891   0.297   6.198
  622SOL    HW2 2766   1.033   0.313   6.276
  623SOL     OW 2767   0.576   5.862   5.255
  623SOL    HW1 2768   0.573   5.783   5.317
  623SOL    HW2 2769   0.666   5.905   5.259
  624SOL     OW 2770   7.012   2.939   1.017
  624SOL    HW1 2771   0.001   2.859   1.075
  624SOL    HW2 2772   0.031   3.019   1.060
  625SOL     OW 2773   1.877   1.827   1.512
  625SOL    HW1 2774   1.803   1.815   1.578
  625SOL    HW2 2775   1.927   1.741   1.501
  626SOL     OW 2776   2.068   6.222   3.632
  626SOL    HW1 2777   2.095   6.172   3.550
  626SOL    HW2 2778   2.121   6.306   3.639
  627SOL     OW 2779   5.189   6.561   0.140
  627SOL    HW1 2780   5.200   6.503   0.058
  627SOL    HW2 2781   5.095   6.554   0.173
  628SOL     OW 2782   6.043   5.821   6.291
  628SOL    HW1 2783   6.133   5.845   6.328
  628SOL    HW2 2784   6.022   5.882   6.214
  629SOL     OW 2785   6.903   6.323   0.017
  629SOL    HW1 2786   6.958   6.392   6.995
  629SOL    HW2 2787   6.963   6.265   0.073
  630SOL     OW 2788   6.846   2.057   2.200
  630SOL    HW1 2789   6.929   2.022   2.155
  630SOL    HW2 2790   6.852   2.156   2.208
  631SOL     OW 2791   3.331   6.898   5.436
  631SOL    HW1 2792   3.385   6.823   5.398
  631SOL    HW2 2793   3.328   6.889   5.536
  632SOL     OW 2794   2.539   1.017   0.873
  632SOL    HW1 2795   2.612   1.055   0.816
  632SOL    HW2 2796   2.579   0.952   0.938
  633SOL     OW 2797   4.584   4.223   0.385
  633SOL    HW1 2798   4.579   4.124   0.398
  633SOL    HW2 2799   4.677   4.255   0.403
  634SOL     OW 2800   4.473   4.662   1.294
  634SOL    HW1 2801   4.453   4.722   1.217
  634SOL    HW2 2802   4.489   4.716   1.376
  635SOL     OW 2803   4.838   5.046   0.862
  635SOL    HW1 2804   4.810   4.998   0.779
  635SOL    HW2 2805   4.825   4.985   0.941
  636SOL     OW 2806   4.476   5.281   6.659
  636SOL    HW1 2807   4.424   5.225   6.594
  636SOL    HW2 2808   4.436   5.272   6.750
  637SOL     OW 2809   6.382   4.104   2.942
  637SOL    HW1 2810   6.373   4.074   2.847
  637SOL    HW2 2811   6.420   4.197   2.943
  638SOL     OW 2812   5.050   2.201   3.298
  638SOL    HW1 2813   5.086   2.284   3.341
  638SOL    HW2 2814   5.040   2.216   3.200
  639SOL     OW 2815   4.921   3.659   2.632
  639SOL    HW1 2816   4.943   3.564   2.652
  639SOL    HW2 2817   4.935   3.715   2.714
  640SOL     OW 2818   0.190   5.090   4.263
  640SOL    HW1 2819   0.243   5.167   4.226
  640SOL    HW2 2820   0.139   5.121   4.343
  641SOL     OW 2821   6.679   6.082   4.735
  641SOL    HW1 2822   6.583   6.075   4.706
  641SOL    HW2 2823   6.697   6.017   4.808
  642SOL     OW 2824   0.301   3.208   4.656
  642SOL    HW1 2825   0.319   3.110   4.654
  642SOL    HW2 2826   0.226   3.230   4.593
  643SOL     OW 2827   4.811   5.339   4.789
  643SOL    HW1 2828   4.739   5.408   4.796
  643SOL    HW2 2829   4.773   5.249   4.807
  644SOL     OW 2830   1.471   5.563   4.337
  644SOL    HW1 2831   1.411   5.544   4.260
  644SOL    HW2 2832   1.564   5.581   4.304
  645SOL     OW 2833   4.567   1.574   4.230
  645SOL    HW1 2834   4.639   1.590   4.297
  645SOL    HW2 2835   4.508   1.654   4.223
  646SOL     OW 2836   3.016   1.433   4.493
  646SOL    HW1 2837   2.977   1.518   4.459
  646SOL    HW2 2838   2.975   1.356   4.444
  647SOL     OW 2839   5.673   2.103   4.937
  647SOL    HW1 2840   5.651   2.179   4.876
  647SOL    HW2 2841   5.588   2.063   4.972
  648SOL     OW 2842   7.005   3.614   4.099
  648SOL    HW1 2843   6.987   3.525   4.057
  648SOL    HW2 2844   7.017   3.683   4.028
  649SOL     OW 2845   3.230   3.697   1.103
  649SOL    HW1 2846   3.210   3.754   1.184
  649SOL    HW2 2847   3.188   3.607   1.114
  650SOL     OW 2848   6.409   4.723   0.967
  650SOL    HW1 2849   6.339   4.792   0.986
  650SOL    HW2 2850   6.477   4.762   0.905
  651SOL     OW 2851   6.472   6.509   5.891
  651SOL    HW1 2852   6.446   6.581   5.827
  651SOL    HW2 2853   6.480   6.422   5.842
  652SOL     OW 2854   5.353   6.047   3.490
  652SOL    HW1 2855   5.347   5.960   3.440
  652SOL    HW2 2856   5.263   6.070   3.527
  653SOL     OW 2857   2.796   5.969   4.912
  653SOL    HW1 2858   2.888   5.995   4.882
  653SOL    HW2 2859   2.730   5.990   4.840
  654SOL     OW 2860   0.180   4.087   6.040
  654SOL    HW1 2861   0.232   4.082   6.125
  654SOL    HW2 2862   0.151   3.995   6.014
  655SOL     OW 2863   0.696   5.994   2.203
  655SOL    HW1 2864   0.758   5.916   2.208
  655SOL    HW2 2865   0.660   6.002   2.110
  656SOL     OW 2866   1.883   5.599   1.974
  656SOL    HW1 2867   1.917   5.693   1.983
  656SOL    HW2 2868   1.860   5.581   1.878
  657SOL     OW 2869   1.636   2.426   1.368
  657SOL    HW1 2870   1.540   2.419   1.340
  657SOL    HW2 2871   1.690   2.467   1.294
  658SOL     OW 2872   3.040   3.670   6.384
  658SOL    HW1 2873   2.976   3.637   6.314
  658SOL    HW2 2874   3.020   3.766   6.404
  659SOL     OW 2875   2.577   6.022   6.055
  659SOL    HW1 2876   2.538   5.935   6.087
  659SOL    HW2 2877   2.509   6.095   6.065
  660SOL     OW 2878   5.346   4.436   2.492
  660SOL    HW1 2879   5.277   4.483   2.547
  660SOL    HW2 2880   5.424   4.497   2.478
  661SOL     OW 2881   4.114   5.296   3.007
  661SOL    HW1 2882   4.174   5.227   3.049
  661SOL    HW2 2883   4.028   5.301   3.059
  662SOL     OW 2884   4.398   0.124   5.620
  662SOL    HW1 2885   4.415   0.054   5.551
  662SOL    HW2 2886   4.301   0.144   5.625
  663SOL     OW 2887   2.450   3.774   6.029
  663SOL    HW1 2888   2.391   3.712   5.976
  663SOL    HW2 2889   2.478   3.850   5.970
  664SOL     OW 2890   6.908   5.251   6.096
  664SOL    HW1 2891   6.928   5.158   6.066
  664SOL    HW2 2892   6.984   5.285   6.151
  665SOL     OW 2893   5.234   5.201   1.626
  665SOL    HW1 2894   5.211   5.137   1.553
  665SOL    HW2 2895   5.198   5.292   1.604
  666SOL     OW 2896   4.989   1.754   2.492
  666SOL    HW1 2897   4.945   1.772   2.580
  666SOL    HW2 2898   4.977   1.833   2.432
  667SOL     OW 2899   1.325   4.904   3.505
  667SOL    HW1 2900   1.380   4.921   3.423
  667SOL    HW2 2901   1.311   4.806   3.516
  668SOL     OW 2902   5.282   6.800   6.081
  668SOL    HW1 2903   5.360   6.801   6.144
  668SOL    HW2 2904   5.299   6.733   6.008
  669SOL     OW 2905   4.160   0.530   2.824
  669SOL    HW1 2906   4.257   0.506   2.831
  669SOL    HW2 2907   4.111   0.496   2.904
  670SOL     OW 2908   3.380   2.322   1.179
  670SOL    HW1 2909   3.425   2.396   1.230
  670SOL    HW2 2910   3.439   2.293   1.104
  671SOL     OW 2911   1.462   6.339   0.465
  671SOL    HW1 2912   1.464   6.248   0.422
  671SOL    HW2 2913   1.445   6.408   0.395
  672SOL     OW 2914   0.990   5.244   2.322
  672SOL    HW1 2915   1.018   5.149   2.338
  672SOL    HW2 2916   0.890   5.250   2.321
  673SOL     OW 2917   6.959   6.623   1.595
  673SOL    HW1 2918   6.999   6.714   1.600
  673SOL    HW2 2919   6.904   6.605   1.676
  674SOL     OW 2920   1.145   1.639   5.115
  674SOL    HW1 2921   1.172   1.710   5.051
  674SOL    HW2 2922   1.218   1.624   5.182
  675SOL     OW 2923   0.736   0.777   3.265
  675SOL    HW1 2924   0.761   0.727   3.348
  675SOL    HW2 2925   0.668   0.847   3.287
  676SOL     OW 2926   3.215   6.278   2.454
  676SOL    HW1 2927   3.145   6.275   2.383
  676SOL    HW2 2928   3.234   6.374   2.478
  677SOL     OW 2929   5.626   2.332   0.548
  677SOL    HW1 2930   5.578   2.264   0.604
  677SOL    HW2 2931   5.671   2.287   0.471
  678SOL     OW 2932   1.966   0.586   5.543
  678SOL    HW1 2933   2.014   0.549   5.463
  678SOL    HW2 2934   1.879   0.538   5.555
  679SOL     OW 2935   4.353   1.834   3.559
  679SOL    HW1 2936   4.442   1.810   3.520
  679SOL    HW2 2937   4.362   1.841   3.659
  680SOL     OW 2938   5.506   5.779   5.712
  680SOL    HW1 2939   5.496   5.771   5.811
  680SOL    HW2 2940   5.598   5.811   5.689
  681SOL     OW 2941   5.567   4.772   1.759
  681SOL    HW1 2942   5.589   4.861   1.799
  681SOL    HW2 2943   5.471   4.772   1.729
  682SOL     OW 2944   0.139   1.250   0.882
  682SOL    HW1 2945   0.165   1.207   0.968
  682SOL    HW2 2946   0.041   1.269   0.882
  683SOL     OW 2947   5.122   3.360   0.493
  683SOL    HW1 2948   5.030   3.333   0.463
  683SOL    HW2 2949   5.185   3.354   0.416
  684SOL     OW 2950   6.971   1.141   0.266
  684SOL    HW1 2951   6.904   1.085   0.315
  684SOL    HW2 2952   6.935   1.234   0.255
  685SOL     OW 2953   3.621   1.023   3.172
  685SOL    HW1 2954   3.579   0.940   3.207
  685SOL    HW2 2955   3.577   1.103   3.214
  686SOL     OW 2956   4.868   3.071   3.735
  686SOL    HW1 2957   4.966   3.065   3.753
  686SOL    HW2 2958   4.819   3.015   3.802
  687SOL     OW 2959   0.201   2.302   4.281
  687SOL    HW1 2960   0.261   2.278   4.204
  687SOL    HW2 2961   0.241   2.268   4.366
  688SOL     OW 2962   0.393   1.492   0.100
  688SOL    HW1 2963   0.441   1.535   0.024
  688SOL    HW2 2964   0.378   1.395   0.080
  689SOL     OW 2965   6.899   4.824   6.619
  689SOL    HW1 2966   6.998   4.830   6.631
  689SOL    HW2 2967   6.875   4.855   6.527
  690SOL     OW 2968   0.511   3.936   2.595
  690SOL    HW1 2969   0.556   3.848   2.609
  690SOL    HW2 2970   0.563   4.008   2.641
  691SOL     OW 2971   2.274   6.803   0.562
  691SOL    HW1 2972   2.374   6.810   0.567
  691SOL    HW2 2973   2.248   6.764   0.474
  692SOL     OW 2974   3.331   0.298   3.974
  692SOL    HW1 2975   3.294   0.216   4.019
  692SOL    HW2 2976   3.431   0.295   3.978
  693SOL     OW 2977   5.519   0.504   3.768
  693SOL    HW1 2978   5.523   0.573   3.695
  693SOL    HW2 2979   5.541   0.547   3.856
  694SOL     OW 2980   4.475   6.208   3.334
  694SOL    HW1 2981   4.500   6.122   3.379
  694SOL    HW2 2982   4.544   6.277   3.355
  695SOL     OW 2983   4.349   7.011   3.863
  695SOL    HW1 2984   4.358   6.934   3.801
  695SOL    HW2 2985   4.399   6.993   3.947
  696SOL     OW 2986   4.615   4.634   2.542
  696SOL    HW1 2987   4.705   4.594   2.559
  696SOL    HW2 2988   4.621   4.734   2.550
  697SOL     OW 2989   1.930   3.689   3.761
  697SOL    HW1 2990   1.872   3.724   3.687
  697SOL    HW2 2991   1.976   3.606   3.730
  698SOL     OW 2992   4.813   6.797   0.893
  698SOL    HW1 2993   4.886   6.862   0.914
  698SOL    HW2 2994   4.727   6.846   0.880
  699SOL     OW 2995   2.007   3.677   6.275
  699SOL    HW1 2996   2.031   3.731   6.194
  699SOL    HW2 2997   2.059   3.592   6.275
  700SOL     OW 2998   2.737   0.376   2.504
  700SOL    HW1 2999   2.642   0.361   2.477
  700SOL    HW2 3000   2.786   0.289   2.505
  701SOL     OW 3001   6.377   3.987   6.119
  701SOL    HW1 3002   6.360   4.056   6.190
  701SOL    HW2 3003   6.431   4.027   6.045
  702SOL     OW 3004   1.639   6.199   4.735
  702SOL    HW1 3005   1.593   6.266   4.793
  702SOL    HW2 3006   1.674   6.125   4.792
  703SOL     OW 3007   3.402   3.711   6.633
  703SOL    HW1 3008   3.353   3.711   6.545
  703SOL    HW2 3009   3.379   3.627   6.683
  704SOL     OW 3010   1.692   2.626   0.331
  704SOL    HW1 3011   1.597   2.597   0.316
  704SOL    HW2 3012   1.743   2.553   0.375
  705SOL     OW 3013   6.000   5.436   2.744
  705SOL    HW1 3014   6.065   5.487   2.801
  705SOL    HW2 3015   5.913   5.485   2.742
  706SOL     OW 3016   4.564   1.970   4.902
  706SOL    HW1 3017   4.597   1.894   4.845
  706SOL    HW2 3018   4.475   2.001   4.868
  707SOL     OW 3019   4.438   5.568   2.320
  707SOL    HW1 3020   4.395   5.537   2.235
  707SOL    HW2 3021   4.513   5.508   2.344
  708SOL     OW 3022   3.873   0.074   2.276
  708SOL    HW1 3023   3.960   0.119   2.257
  708SOL    HW2 3024   3.845   0.093   2.370
  709SOL     OW 3025   0.141   5.928   1.044
  709SOL    HW1 3026   0.204   5.860   1.007
  709SOL    HW2 3027   0.192   6.010   1.070
  710SOL     OW 3028   3.622   2.631   1.051
  710SOL    HW1 3029   3.554   2.642   0.978
  710SOL    HW2 3030   3.579   2.589   1.130
  711SOL     OW 3031   0.086   3.056   5.916
  711SOL    HW1 3032   0.180   3.024   5.903
  711SOL    HW2 3033   0.057   3.108   5.836
  712SOL     OW 3034   4.398   2.587   1.203
  712SOL    HW1 3035   4.323   2.560   1.264
  712SOL    HW2 3036   4.406   2.687   1.204
  713SOL     OW 3037   4.070   2.482   5.838
  713SOL    HW1 3038   4.114   2.571   5.834
  713SOL    HW2 3039   4.134   2.415   5.877
  714SOL     OW 3040   0.063   4.623   3.563
  714SOL    HW1 3041   0.001   4.687   3.609
  714SOL    HW2 3042   0.073   4.649   3.467
  715SOL     OW 3043   5.086   6.080   6.729
  715SOL    HW1 3044   5.146   6.156   6.704
  715SOL    HW2 3045   5.113   6.045   6.819
  716SOL     OW 3046   0.822   0.692   2.010
  716SOL    HW1 3047   0.805   0.706   1.913
  716SOL    HW2 3048   0.873   0.770   2.047
  717SOL     OW 3049   6.535   4.063   4.350
  717SOL    HW1 3050   6.601   3.992   4.325
  717SOL    HW2 3051   6.448   4.020   4.374
  718SOL     OW 3052   4.475   3.024   5.988
  718SOL    HW1 3053   4.394   3.020   6.046
  718SOL    HW2 3054   4.465   2.960   5.912
  719SOL     OW 3055   6.422   0.928   2.708
  719SOL    HW1 3056   6.338   0.979   2.687
  719SOL    HW2 3057   6.418   0.895   2.803
  720SOL     OW 3058   2.345   0.395   6.296
  720SOL    HW1 3059   2.400   0.407   6.379
  720SOL    HW2 3060   2.249   0.415   6.317
  721SOL     OW 3061   2.538   1.906   3.227
  721SOL    HW1 3062   2.570   1.881   3.135
  721SOL    HW2 3063   2.521   1.823   3.280
  722SOL     OW 3064   3.130   0.238   5.633
  722SOL    HW1 3065   3.083   0.210   5.550
  722SOL    HW2 3066   3.065   0.243   5.708
  723SOL     OW 3067   1.183   4.433   3.599
  723SOL    HW1 3068   1.189   4.368   3.675
  723SOL    HW2 3069   1.244   4.510   3.617
  724SOL     OW 3070   1.189   2.421   4.019
  724SOL    HW1 3071   1.211   2.476   4.100
  724SOL    HW2 3072   1.125   2.471   3.961
  725SOL     OW 3073   2.389   5.929   1.519
  725SOL    HW1 3074   2.442   5.922   1.435
  725SOL    HW2 3075   2.297   5.894   1.504
  726SOL     OW 3076   3.555   5.105   1.442
  726SOL    HW1 3077   3.642   5.089   1.488
  726SOL    HW2 3078   3.480   5.072   1.499
  727SOL     OW 3079   6.115   4.875   5.745
  727SOL    HW1 3080   6.115   4.784   5.702
  727SOL    HW2 3081   6.075   4.868   5.836
  728SOL     OW 3082   6.628   3.301   4.224
  728SOL    HW1 3083   6.552   3.278   4.284
  728SOL    HW2 3084   6.598   3.367   4.155
  729SOL     OW 3085   0.441   1.806   1.743
  729SOL    HW1 3086   0.412   1.777   1.834
  729SOL    HW2 3087   0.504   1.883   1.751
  730SOL     OW 3088   5.664   0.090   4.473
  730SOL    HW1 3089   5.746   0.097   4.417
  730SOL    HW2 3090   5.588   0.059   4.417
  731SOL     OW 3091   4.819   4.575   6.279
  731SOL    HW1 3092   4.770   4.580   6.366
  731SOL    HW2 3093   4.917   4.560   6.296
  732SOL     OW 3094   5.620   3.176   1.672
  732SOL    HW1 3095   5.667   3.260   1.699
  732SOL    HW2 3096   5.631   3.107   1.743
  733SOL     OW 3097   5.296   6.783   4.799
  733SOL    HW1 3098   5.220   6.764   4.861
  733SOL    HW2 3099   5.353   6.855   4.838
  734SOL     OW 3100   6.587   5.156   2.913
  734SOL    HW1 3101   6.507   5.117   2.958
  734SOL    HW2 3102   6.562   5.189   2.822
  735SOL     OW 3103   4.577   1.601   0.104
  735SOL    HW1 3104   4.626   1.543   0.169
  735SOL    HW2 3105   4.499   1.550   0.066
  736SOL     OW 3106   6.823   1.782   3.513
  736SOL    HW1 3107   6.785   1.739   3.595
  736SOL    HW2 3108   6.922   1.789   3.523
  737SOL     OW 3109   5.256   1.659   4.907
  737SOL    HW1 3110   5.296   1.745   4.938
  737SOL    HW2 3111   5.208   1.673   4.821
  738SOL     OW 3112   2.373   3.754   1.019
  738SOL    HW1 3113   2.282   3.797   1.013
  738SOL    HW2 3114   2.363   3.660   1.050
  739SOL     OW 3115   4.775   1.008   3.746
  739SOL    HW1 3116   4.860   0.956   3.750
  739SOL    HW2 3117   4.728   0.988   3.660
  740SOL     OW 3118   6.482   1.316   1.474
  740SOL    HW1 3119   6.560   1.292   1.417
  740SOL    HW2 3120   6.463   1.241   1.538
  741SOL     OW 3121   1.524   0.481   3.511
  741SOL    HW1 3122   1.600   0.447   3.566
  741SOL    HW2 3123   1.560   0.532   3.433
  742SOL     OW 3124   3.037   6.673   1.680
  742SOL    HW1 3125   3.101   6.654   1.755
  742SOL    HW2 3126   3.009   6.769   1.683
  743SOL     OW 3127   0.854   4.676   3.616
  743SOL    HW1 3128   0.878   4.579   3.622
  743SOL    HW2 3129   0.938   4.731   3.614
  744SOL     OW 3130   5.436   0.187   0.899
  744SOL    HW1 3131   5.497   0.158   0.972
  744SOL    HW2 3132   5.486   0.193   0.813
  745SOL     OW 3133   1.798   5.177   4.364
  745SOL    HW1 3134   1.778   5.254   4.425
  745SOL    HW2 3135   1.716   5.155   4.311
  746SOL     OW 3136   6.704   4.068   0.026
  746SOL    HW1 3137   6.780   4.130   0.046
  746SOL    HW2 3138   6.630   4.085   0.092
  747SOL     OW 3139   3.719   6.403   4.183
  747SOL    HW1 3140   3.768   6.470   4.239
  747SOL    HW2 3141   3.767   6.316   4.186
  748SOL     OW 3142   3.952   4.804   2.045
  748SOL    HW1 3143   4.040   4.852   2.039
  748SOL    HW2 3144   3.966   4.716   2.089
  749SOL     OW 3145   5.700   3.774   4.812
  749SOL    HW1 3146   5.611   3.819   4.816
  749SOL    HW2 3147   5.765   3.831   4.763
  750SOL     OW 3148   2.665   2.033   1.605
  750SOL    HW1 3149   2.578   2.014   1.560
  750SOL    HW2 3150   2.661   1.999   1.699
  751SOL     OW 3151   4.267   1.572   6.921
  751SOL    HW1 3152   4.309   1.663   6.922
  751SOL    HW2 3153   4.241   1.549   6.827
  752SOL     OW 3154   3.621   0.988   1.851
  752SOL    HW1 3155   3.568   0.998   1.767
  752SOL    HW2 3156   3.560   0.998   1.930
  753SOL     OW 3157   1.589   3.533   5.859
  753SOL    HW1 3158   1.590   3.606   5.791
  753SOL    HW2 3159   1.518   3.466   5.835
  754SOL     OW 3160   4.602   2.243   5.250
  754SOL    HW1 3161   4.652   2.168   5.206
  754SOL    HW2 3162   4.504   2.235   5.229
  755SOL     OW 3163   1.642   4.935   4.984
  755SOL    HW1 3164   1.713   4.864   4.982
  755SOL    HW2 3165   1.554   4.895   4.958
  756SOL     OW 3166   2.901   6.218   6.909
  756SOL    HW1 3167   2.822   6.158   6.926
  756SOL    HW2 3168   2.872   6.296   6.854
  757SOL     OW 3169   0.696   0.261   4.048
  757SOL    HW1 3170   0.718   0.287   4.143
  757SOL    HW2 3171   0.698   0.343   3.991
  758SOL     OW 3172   3.021   0.159   2.983
  758SOL    HW1 3173   2.961   0.184   3.059
  758SOL    HW2 3174   2.999   0.214   2.903
  759SOL     OW 3175   0.343   2.483   1.888
  759SOL    HW1 3176   0.347   2.434   1.800
  759SOL    HW2 3177   0.249   2.511   1.906
  760SOL     OW 3178   6.213   7.009   4.241
  760SOL    HW1 3179   6.242   6.994   4.146
  760SOL    HW2 3180   6.230   0.081   4.265
  761SOL     OW 3181   5.653   3.978   6.170
  761SOL    HW1 3182   5.641   3.902   6.233
  761SOL    HW2 3183   5.625   3.950   6.078
  762SOL     OW 3184   2.466   6.677   4.984
  762SOL    HW1 3185   2.443   6.663   5.080
  762SOL    HW2 3186   2.548   6.625   4.961
  763SOL     OW 3187   4.290   5.282   6.283
  763SOL    HW1 3188   4.207   5.270   6.228
  763SOL    HW2 3189   4.280   5.232   6.369
  764SOL     OW 3190   5.619   0.843   5.059
  764SOL    HW1 3191   5.587   0.749   5.054
  764SOL    HW2 3192   5.645   0.865   5.153
  765SOL     OW 3193   1.378   5.496   1.241
  765SOL    HW1 3194   1.352   5.491   1.337
  765SOL    HW2 3195   1.462   5.550   1.232
  766SOL     OW 3196   2.625   2.486   6.418
  766SOL    HW1 3197   2.691   2.425   6.376
  766SOL    HW2 3198   2.533   2.466   6.383
  767SOL     OW 3199   6.649   5.933   2.746
  767SOL    HW1 3200   6.705   5.872   2.802
  767SOL    HW2 3201   6.669   6.028   2.770
  768SOL     OW 3202   2.807   6.059   2.512
  768SOL    HW1 3203   2.768   6.051   2.603
  768SOL    HW2 3204   2.798   5.971   2.464
  769SOL     OW 3205   2.363   1.283   5.590
  769SOL    HW1 3206   2.339   1.354   5.524
  769SOL    HW2 3207   2.386   1.199   5.541
  770SOL     OW 3208   1.483   4.510   3.228
  770SOL    HW1 3209   1.420   4.438   3.258
  770SOL    HW2 3210   1.551   4.525   3.300
  771SOL     OW 3211   1.116   4.643   2.487
  771SOL    HW1 3212   1.178   4.704   2.538
  771SOL    HW2 3213   1.037   4.620   2.545
  772SOL     OW 3214   5.838   4.931   6.735
  772SOL    HW1 3215   5.914   4.926   6.670
  772SOL    HW2 3216   5.752   4.925   6.685
  773SOL     OW 3217   0.296   4.150   3.765
  773SOL    HW1 3218   0.363   4.217   3.796
  773SOL    HW2 3219   0.237   4.124   3.841
  774SOL     OW 3220   1.799   1.480   1.111
  774SOL    HW1 3221   1.761   1.458   1.201
  774SOL    HW2 3222   1.727   1.478   1.042
  775SOL     OW 3223   1.863   2.398   3.769
  775SOL    HW1 3224   1.961   2.392   3.749
  775SOL    HW2 3225   1.816   2.441   3.692
  776SOL     OW 3226   1.058   0.640   5.287
  776SOL    HW1 3227   1.068   0.732   5.326
  776SOL    HW2 3228   1.064   0.572   5.360
  777SOL     OW 3229   1.937   4.225   2.048
  777SOL    HW1 3230   1.908   4.175   1.966
  777SOL    HW2 3231   1.879   4.198   2.125
  778SOL     OW 3232   2.311   1.329   2.239
  778SOL    HW1 3233   2.408   1.348   2.249
  778SOL    HW2 3234   2.261   1.362   2.319
  779SOL     OW 3235   6.839   2.503   2.617
  779SOL    HW1 3236   6.835   2.541   2.709
  779SOL    HW2 3237   6.779   2.555   2.557
  780SOL     OW 3238   0.726   3.385   4.080
  780SOL    HW1 3239   0.718   3.469   4.134
  780SOL    HW2 3240   0.790   3.323   4.126
  781SOL     OW 3241   6.035   6.869   0.314
  781SOL    HW1 3242   6.088   6.884   0.397
  781SOL    HW2 3243   5.937   6.877   0.335
  782SOL     OW 3244   1.571   3.875   6.358
  782SOL    HW1 3245   1.519   3.938   6.415
  782SOL    HW2 3246   1.663   3.864   6.395
  783SOL     OW 3247   4.979   4.811   2.010
  783SOL    HW1 3248   4.956   4.733   2.067
  783SOL    HW2 3249   5.048   4.785   1.943
  784SOL     OW 3250   4.527   5.134   0.561
  784SOL    HW1 3251   4.490   5.069   0.494
  784SOL    HW2 3252   4.518   5.227   0.525
  785SOL     OW 3253   0.704   1.973   3.459
  785SOL    HW1 3254   0.793   2.017   3.468
  785SOL    HW2 3255   0.635   2.042   3.435
  786SOL     OW 3256   0.811   0.256   3.386
  786SOL    HW1 3257   0.724   0.301   3.408
  786SOL    HW2 3258   0.869   0.320   3.336
  787SOL     OW 3259   1.436   0.463   6.934
  787SOL    HW1 3260   1.402   0.481   6.842
  787SOL    HW2 3261   1.363   0.424   6.990
  788SOL     OW 3262   3.909   1.595   0.318
  788SOL    HW1 3263   3.958   1.682   0.313
  788SOL    HW2 3264   3.844   1.597   0.395
  789SOL     OW 3265   4.072   4.144   1.387
  789SOL    HW1 3266   3.983   4.141   1.341
  789SOL    HW2 3267   4.113   4.053   1.387
  790SOL     OW 3268   1.650   1.680   3.076
  790SOL    HW1 3269   1.556   1.665   3.045
  790SOL    HW2 3270   1.708   1.605   3.046
  791SOL     OW 3271   1.721   5.673   4.531
  791SOL    HW1 3272   1.732   5.671   4.431
  791SOL    HW2 3273   1.624   5.668   4.553
  792SOL     OW 3274   0.438   1.191   1.212
  792SOL    HW1 3275   0.531   1.215   1.240
  792SOL    HW2 3276   0.394   1.271   1.172
  793SOL     OW 3277   4.971   4.904   3.805
  793SOL    HW1 3278   4.928   4.864   3.725
  793SOL    HW2 3279   5.011   4.993   3.781
  794SOL     OW 3280   2.979   3.975   6.159
  794SOL    HW1 3281   2.915   4.046   6.129
  794SOL    HW2 3282   2.947   3.886   6.128
  795SOL     OW 3283   3.561   6.740   4.609
  795SOL    HW1 3284   3.614   6.657   4.593
  795SOL    HW2 3285   3.471   6.731   4.565
  796SOL     OW 3286   0.438   2.614   5.667
  796SOL    HW1 3287   0.360   2.560   5.698
  796SOL    HW2 3288   0.521   2.559   5.677
  797SOL     OW 3289   5.632   1.955   1.214
  797SOL    HW1 3290   5.722   1.976   1.252
  797SOL    HW2 3291   5.616   1.857   1.221
  798SOL     OW 3292   3.382   6.376   2.164
  798SOL    HW1 3293   3.402   6.460   2.215
  798SOL    HW2 3294   3.285   6.355   2.170
  799SOL     OW 3295   0.013   0.405   6.340
  799SOL    HW1 3296   6.972   0.481   6.327
  799SOL    HW2 3297   0.087   0.435   6.400
  800SOL     OW 3298   5.197   1.666   3.032
  800SOL    HW1 3299   5.171   1.636   3.124
  800SOL    HW2 3300   5.189   1.766   3.027
  801SOL     OW 3301   2.250   4.503   4.652
  801SOL    HW1 3302   2.199   4.577   4.608
  801SOL    HW2 3303   2.209   4.415   4.629
  802SOL     OW 3304   2.917   1.422   0.841
  802SOL    HW1 3305   2.835   1.379   0.804
  802SOL    HW2 3306   2.929   1.512   0.801
  803SOL     OW 3307   1.050   0.036   6.248
  803SOL    HW1 3308   1.006   6.997   6.312
  803SOL    HW2 3309   1.024   0.130   6.271
  804SOL     OW 3310   5.857   6.363   0.185
  804SOL    HW1 3311   5.931   6.359   0.252
  804SOL    HW2 3312   5.893   6.397   0.098
  805SOL     OW 3313   3.044   0.867   3.731
  805SOL    HW1 3314   2.962   0.900   3.684
  805SOL    HW2 3315   3.080   0.939   3.790
  806SOL     OW 3316   5.494   1.367   4.364
  806SOL    HW1 3317   5.532   1.361   4.456
  806SOL    HW2 3318   5.394   1.376   4.369
  807SOL     OW 3319   1.354   0.968   5.147
  807SOL    HW1 3320   1.427   1.031   5.122
  807SOL    HW2 3321   1.273   0.986   5.091
  808SOL     OW 3322   4.145   4.210   6.408
  808SOL    HW1 3323   4.236   4.180   6.435
  808SOL    HW2 3324   4.076   4.161   6.462
  809SOL     OW 3325   0.697   5.007   1.353
  809SOL    HW1 3326   0.682   5.023   1.256
  809SOL    HW2 3327   0.641   4.930   1.383
  810SOL     OW 3328   3.412   4.079   1.201
  810SOL    HW1 3329   3.403   3.989   1.244
  810SOL    HW2 3330   3.432   4.068   1.104
  811SOL     OW 3331   5.150   6.048   5.286
  811SOL    HW1 3332   5.226   6.024   5.226
  811SOL    HW2 3333   5.073   5.987   5.270
  812SOL     OW 3334   6.738   0.479   2.408
  812SOL    HW1 3335   6.760   0.457   2.503
  812SOL    HW2 3336   6.646   0.448   2.386
  813SOL     OW 3337   4.095   0.142   4.212
  813SOL    HW1 3338   4.052   0.062   4.170
  813SOL    HW2 3339   4.055   0.225   4.174
  814SOL     OW 3340   5.798   6.170   3.033
  814SOL    HW1 3341   5.817   6.097   3.099
  814SOL    HW2 3342   5.741   6.240   3.076
  815SOL     OW 3343   6.944   3.593   3.638
  815SOL    HW1 3344   6.870   3.651   3.604
  815SOL    HW2 3345   6.911   3.499   3.648
  816SOL     OW 3346   6.127   5.819   0.424
  816SOL    HW1 3347   6.126   5.843   0.327
  816SOL    HW2 3348   6.095   5.724   0.435
  817SOL     OW 3349   1.951   5.581   1.696
  817SOL    HW1 3350   1.920   5.486   1.698
  817SOL    HW2 3351   2.030   5.588   1.635
  818SOL     OW 3352   5.740   2.389   3.013
  818SOL    HW1 3353   5.721   2.321   3.084
  818SOL    HW2 3354   5.661   2.399   2.954
  819SOL     OW 3355   5.918   2.939   2.469
  819SOL    HW1 3356   6.005   2.890   2.473
  819SOL    HW2 3357   5.846   2.877   2.439
  820SOL     OW 3358   3.390   2.088   5.050
  820SOL    HW1 3359   3.310   2.143   5.027
  820SOL    HW2 3360   3.458   2.146   5.096
  821SOL     OW 3361   6.840   4.003   0.523
  821SOL    HW1 3362   6.892   4.056   0.590
  821SOL    HW2 3363   6.858   4.037   0.431
  822SOL     OW 3364   0.616   3.484   3.501
  822SOL    HW1 3365   0.535   3.541   3.516
  822SOL    HW2 3366   0.629   3.424   3.580
  823SOL     OW 3367   5.584   3.815   6.376
  823SOL    HW1 3368   5.635   3.730   6.371
  823SOL    HW2 3369   5.501   3.808   6.320
  824SOL     OW 3370   4.654   1.443   5.973
  824SOL    HW1 3371   4.583   1.480   6.034
  824SOL    HW2 3372   4.739   1.432   6.024
  825SOL     OW 3373   0.094   5.062   1.508
  825SOL    HW1 3374   7.024   5.071   1.542
  825SOL    HW2 3375   0.124   5.150   1.470
  826SOL     OW 3376   3.954   2.224   6.026
  826SOL    HW1 3377   3.860   2.251   6.006
  826SOL    HW2 3378   3.997   2.189   5.942
  827SOL     OW 3379   2.907   4.582   5.471
  827SOL    HW1 3380   2.882   4.548   5.380
  827SOL    HW2 3381   2.981   4.526   5.509
  828SOL     OW 3382   5.219   6.319   6.702
  828SOL    HW1 3383   5.305   6.369   6.694
  828SOL    HW2 3384   5.150   6.363   6.643
  829SOL     OW 3385   3.945   3.686   2.414
  829SOL    HW1 3386   3.928   3.673   2.511
  829SOL    HW2 3387   3.920   3.779   2.388
  830SOL     OW 3388   6.001   5.049   6.403
  830SOL    HW1 3389   5.930   5.118   6.391
  830SOL    HW2 3390   6.072   5.085   6.465
  831SOL     OW 3391   6.115   0.421   6.909
  831SOL    HW1 3392   6.019   0.421   6.880
  831SOL    HW2 3393   6.152   0.513   6.902
  832SOL     OW 3394   4.133   1.119   2.767
  832SOL    HW1 3395   4.165   1.097   2.859
  832SOL    HW2 3396   4.210   1.142   2.709
  833SOL     OW 3397   1.329   3.376   6.758
  833SOL    HW1 3398   1.297   3.421   6.841
  833SOL    HW2 3399   1.424   3.400   6.741
  834SOL     OW 3400   4.186   4.055   1.015
  834SOL    HW1 3401   4.280   4.027   1.034
  834SOL    HW2 3402   4.185   4.151   0.987
  835SOL     OW 3403   3.392   0.149   5.450
  835SOL    HW1 3404   3.397   0.069   5.511
  835SOL    HW2 3405   3.437   0.128   5.364
  836SOL     OW 3406   3.694   6.911   5.363
  836SOL    HW1 3407   3.636   6.936   5.285
  836SOL    HW2 3408   3.731   6.820   5.349
  837SOL     OW 3409   6.178   0.119   0.837
  837SOL    HW1 3410   6.166   0.021   0.823
  837SOL    HW2 3411   6.144   0.169   0.758
  838SOL     OW 3412   1.928   1.130   4.317
  838SOL    HW1 3413   1.941   1.178   4.231
  838SOL    HW2 3414   2.015   1.121   4.364
  839SOL     OW 3415   1.337   1.785   1.927
  839SOL    HW1 3416   1.306   1.704   1.977
  839SOL    HW2 3417   1.335   1.767   1.829
  840SOL     OW 3418   6.547   5.575   6.889
  840SOL    HW1 3419   6.479   5.636   6.928
  840SOL    HW2 3420   6.540   5.485   6.932
  841SOL     OW 3421   3.018   5.550   6.325
  841SOL    HW1 3422   3.103   5.497   6.325
  841SOL    HW2 3423   2.985   5.560   6.231
  842SOL     OW 3424   3.630   0.402   4.711
  842SOL    HW1 3425   3.538   0.435   4.728
  842SOL    HW2 3426   3.689   0.478   4.685
  843SOL     OW 3427   1.297   1.336   1.089
  843SOL    HW1 3428   1.300   1.287   1.176
  843SOL    HW2 3429   1.202   1.358   1.066
  844SOL     OW 3430   5.767   6.983   0.482
  844SOL    HW1 3431   5.681   6.997   0.433
  844SOL    HW2 3432   5.749   6.934   0.568
  845SOL     OW 3433   4.805   4.108   4.321
  845SOL    HW1 3434   4.729   4.172   4.326
  845SOL    HW2 3435   4.866   4.134   4.245
  846SOL     OW 3436   2.244   1.360   6.071
  846SOL    HW1 3437   2.271   1.383   5.977
  846SOL    HW2 3438   2.227   1.444   6.122
  847SOL     OW 3439   1.618   3.568   1.051
  847SOL    HW1 3440   1.633   3.664   1.075
  847SOL    HW2 3441   1.523   3.555   1.023
  848SOL     OW 3442   6.672   0.168   5.748
  848SOL    HW1 3443   6.728   0.250   5.737
  848SOL    HW2 3444   6.683   0.133   5.842
  849SOL     OW 3445   6.492   4.003   5.862
  849SOL    HW1 3446   6.514   4.079   5.801
  849SOL    HW2 3447   6.474   3.921   5.808
  850SOL     OW 3448   4.568   1.350   4.048
  850SOL    HW1 3449   4.570   1.434   4.102
  850SOL    HW2 3450   4.476   1.312   4.048
  851SOL     OW 3451   6.649   2.842   1.952
  851SOL    HW1 3452   6.566   2.898   1.953
  851SOL    HW2 3453   6.714   2.878   2.019
  852SOL     OW 3454   1.249   3.671   0.028
  852SOL    HW1 3455   1.264   3.705   0.121
  852SOL    HW2 3456   1.329   3.693   6.996
  853SOL     OW 3457   0.859   4.627   0.785
  853SOL    HW1 3458   0.832   4.556   0.850
  853SOL    HW2 3459   0.875   4.713   0.835
  854SOL     OW 3460   5.615   5.147   0.869
  854SOL    HW1 3461   5.650   5.203   0.794
  854SOL    HW2 3462   5.606   5.052   0.839
  855SOL     OW 3463   0.017   6.883   1.620
  855SOL    HW1 3464   6.979   6.961   1.626
  855SOL    HW2 3465   0.080   6.885   1.697
  856SOL     OW 3466   1.391   2.094   6.204
  856SOL    HW1 3467   1.325   2.092   6.280
  856SOL    HW2 3468   1.453   2.171   6.217
  857SOL     OW 3469   6.438   5.287   1.632
  857SOL    HW1 3470   6.458   5.381   1.604
  857SOL    HW2 3471   6.482   5.269   1.720
  858SOL     OW 3472   3.346   3.852   1.339
  858SOL    HW1 3473   3.313   3.894   1.423
  858SOL    HW2 3474   3.393   3.766   1.360
  859SOL     OW 3475   5.681   0.013   4.740
  859SOL    HW1 3476   5.693   6.940   4.760
  859SOL    HW2 3477   5.683   0.027   4.640
  860SOL     OW 3478   6.237   2.495   0.907
  860SOL    HW1 3479   6.280   2.564   0.964
  860SOL    HW2 3480   6.137   2.502   0.914
  861SOL     OW 3481   2.913   5.549   3.755
  861SOL    HW1 3482   2.939   5.501   3.838
  861SOL    HW2 3483   2.882   5.642   3.778
  862SOL     OW 3484   1.073   3.557   4.529
  862SOL    HW1 3485   0.988   3.565   4.580
  862SOL    HW2 3486   1.067   3.611   4.445
  863SOL     OW 3487   5.891   1.291   0.375
  863SOL    HW1 3488   5.855   1.199   0.364
  863SOL    HW2 3489   5.924   1.324   0.287
  864SOL     OW 3490   4.272   5.713   4.056
  864SOL    HW1 3491   4.339   5.785   4.077
  864SOL    HW2 3492   4.309   5.653   3.985
  865SOL     OW 3493   1.797   6.252   5.751
  865SOL    HW1 3494   1.746   6.212   5.674
  865SOL    HW2 3495   1.754   6.338   5.778
  866SOL     OW 3496   2.022   1.567   1.451
  866SOL    HW1 3497   2.067   1.481   1.427
  866SOL    HW2 3498   2.075   1.644   1.413
  867SOL     OW 3499   5.161   3.802   0.295
  867SOL    HW1 3500   5.133   3.897   0.307
  867SOL    HW2 3501   5.120   3.745   0.367
  868SOL     OW 3502   6.394   1.261   0.503
  868SOL    HW1 3503   6.301   1.234   0.530
  868SOL    HW2 3504   6.393   1.356   0.473
  869SOL     OW 3505   0.648   4.218   2.781
  869SOL    HW1 3506   0.714   4.257   2.846
  869SOL    HW2 3507   0.588   4.154   2.829
  870SOL     OW 3508   3.981   3.599   0.171
  870SOL    HW1 3509   4.038   3.638   0.244
  870SOL    HW2 3510   3.949   3.673   0.111
  871SOL     OW 3511   5.115   2.183   2.717
  871SOL    HW1 3512   5.029   2.131   2.719
  871SOL    HW2 3513   5.125   2.228   2.628
  872SOL     OW 3514   5.249   3.603   3.923
  872SOL    HW1 3515   5.310   3.579   3.998
  872SOL    HW2 3516   5.245   3.702   3.913
  873SOL     OW 3517   6.123   6.458   4.840
  873SOL    HW1 3518   6.148   6.376   4.891
  873SOL    HW2 3519   6.032   6.445   4.799
  874SOL     OW 3520   0.807   3.911   5.695
  874SOL    HW1 3521   0.890   3.922   5.640
  874SOL    HW2 3522   0.795   3.815   5.720
  875SOL     OW 3523   5.246   4.009   0.852
  875SOL    HW1 3524   5.197   3.921   0.856
  875SOL    HW2 3525   5.217   4.059   0.771
  876SOL     OW 3526   1.150   4.270   2.027
  876SOL    HW1 3527   1.207   4.208   1.972
  876SOL    HW2 3528   1.152   4.361   1.987
  877SOL     OW 3529   3.994   4.659   5.974
  877SOL    HW1 3530   3.907   4.623   6.006
  877SOL    HW2 3531   4.014   4.745   6.022
  878SOL     OW 3532   3.502   5.645   5.213
  878SOL    HW1 3533   3.439   5.567   5.211
  878SOL    HW2 3534   3.595   5.614   5.191
  879SOL     OW 3535   3.640   1.956   0.858
  879SOL    HW1 3536   3.679   2.019   0.925
  879SOL    HW2 3537   3.707   1.885   0.836
  880SOL     OW 3538   3.079   3.619   3.965
  880SOL    HW1 3539   3.038   3.661   4.046
  880SOL    HW2 3540   3.150   3.554   3.994
  881SOL     OW 3541   5.769   3.653   5.519
  881SOL    HW1 3542   5.684   3.601   5.513
  881SOL    HW2 3543   5.844   3.592   5.543
  882SOL     OW 3544   1.070   2.582   4.430
  882SOL    HW1 3545   1.031   2.540   4.512
  882SOL    HW2 3546   1.080   2.680   4.444
  883SOL     OW 3547   3.487   0.561   0.627
  883SOL    HW1 3548   3.396   0.596   0.649
  883SOL    HW2 3549   3.495   0.467   0.659
  884SOL     OW 3550   6.932   4.466   0.295
  884SOL    HW1 3551   6.972   4.547   0.252
  884SOL    HW2 3552   7.001   4.422   0.353
  885SOL     OW 3553   4.410   6.686   5.441
  885SOL    HW1 3554   4.475   6.630   5.392
  885SOL    HW2 3555   4.328   6.700   5.385
  886SOL     OW 3556   4.142   1.146   1.166
  886SOL    HW1 3557   4.151   1.060   1.217
  886SOL    HW2 3558   4.180   1.134   1.074
  887SOL     OW 3559   3.772   5.576   3.566
  887SOL    HW1 3560   3.833   5.506   3.603
  887SOL    HW2 3561   3.716   5.537   3.493
  888SOL     OW 3562   0.155   6.717   2.866
  888SOL    HW1 3563   0.164   6.817   2.862
  888SOL    HW2 3564   0.105   6.692   2.949
  889SOL     OW 3565   0.139   1.130   5.994
  889SOL    HW1 3566   0.163   1.201   6.060
  889SOL    HW2 3567   0.132   1.042   6.041
  890SOL     OW 3568   2.224   4.599   1.936
  890SOL    HW1 3569   2.158   4.573   2.006
  890SOL    HW2 3570   2.307   4.543   1.946
  891SOL     OW 3571   6.939   3.732   0.537
  891SOL    HW1 3572   6.926   3.830   0.525
  891SOL    HW2 3573   6.879   3.682   0.474
  892SOL     OW 3574   3.410   3.738   5.272
  892SOL    HW1 3575   3.348   3.755   5.195
  892SOL    HW2 3576   3.497   3.784   5.255
  893SOL     OW 3577   1.380   0.353   2.866
  893SOL    HW1 3578   1.305   0.287   2.863
  893SOL    HW2 3579   1.392   0.385   2.960
  894SOL     OW 3580   1.132   3.021   2.934
  894SOL    HW1 3581   1.194   3.072   2.874
  894SOL    HW2 3582   1.184   2.980   3.009
  895SOL     OW 3583   1.364   5.047   3.764
  895SOL    HW1 3584   1.371   5.146   3.771
  895SOL    HW2 3585   1.350   5.021   3.669
  896SOL     OW 3586   6.232   5.779   1.376
  896SOL    HW1 3587   6.285   5.852   1.420
  896SOL    HW2 3588   6.292   5.703   1.354
  897SOL     OW 3589   4.448   0.149   6.736
  897SOL    HW1 3590   4.386   0.166   6.812
  897SOL    HW2 3591   4.405   0.087   6.671
  898SOL     OW 3592   3.731   5.827   2.146
  898SOL    HW1 3593   3.737   5.872   2.057
  898SOL    HW2 3594   3.638   5.835   2.182
  899SOL     OW 3595   0.325   5.681   0.176
  899SOL    HW1 3596   0.364   5.753   0.119
  899SOL    HW2 3597   0.395   5.647   0.239
  900SOL     OW 3598   4.675   6.040   6.775
  900SOL    HW1 3599   4.656   6.080   6.685
  900SOL    HW2 3600   4.770   6.008   6.777
  901SOL     OW 3601   0.988   0.685   4.556
  901SOL    HW1 3602   1.017   0.634   4.638
  901SOL    HW2 3603   1.044   0.658   4.478
  902SOL     OW 3604   1.373   2.560   0.961
  902SOL    HW1 3605   1.283   2.602   0.950
  902SOL    HW2 3606   1.363   2.470   1.003
  903SOL     OW 3607   0.022   3.080   6.646
  903SOL    HW1 3608   6.959   3.094   6.692
  903SOL    HW2 3609   0.041   3.158   6.586
  904SOL     OW 3610   2.321   2.783   2.573
  904SOL    HW1 3611   2.314   2.736   2.661
  904SOL    HW2 3612   2.334   2.715   2.500
  905SOL     OW 3613   5.162   4.629   6.360
  905SOL    HW1 3614   5.200   4.648   6.269
  905SOL    HW2 3615   5.233   4.638   6.429
  906SOL     OW 3616   1.145   2.809   6.473
  906SOL    HW1 3617   1.134   2.892   6.419
  906SOL    HW2 3618   1.152   2.730   6.412
  907SOL     OW 3619   5.080   2.503   1.878
  907SOL    HW1 3620   4.980   2.496   1.879
  907SOL    HW2 3621   5.106   2.599   1.877
  908SOL     OW 3622   2.473   4.609   2.893
  908SOL    HW1 3623   2.383   4.649   2.910
  908SOL    HW2 3624   2.463   4.510   2.885
  909SOL     OW 3625   3.455   5.847   2.182
  909SOL    HW1 3626   3.438   5.898   2.098
  909SOL    HW2 3627   3.383   5.868   2.249
  910SOL     OW 3628   3.090   0.798   0.937
  910SOL    HW1 3629   3.029   0.877   0.922
  910SOL    HW2 3630   3.039   0.725   0.983
  911SOL     OW 3631   0.479   5.850   7.017
  911SOL    HW1 3632   0.541   5.912   0.039
  911SOL    HW2 3633   0.531   5.772   6.980
  912SOL     OW 3634   4.693   0.459   3.454
  912SOL    HW1 3635   4.661   0.505   3.372
  912SOL    HW2 3636   4.792   0.447   3.449
  913SOL     OW 3637   2.043   1.026   3.851
  913SOL    HW1 3638   2.081   0.985   3.933
  913SOL    HW2 3639   2.095   0.996   3.771
  914SOL     OW 3640   2.782   6.222   5.542
  914SOL    HW1 3641   2.858   6.192   5.483
  914SOL    HW2 3642   2.818   6.281   5.614
  915SOL     OW 3643   0.337   3.078   0.431
  915SOL    HW1 3644   0.237   3.075   0.433
  915SOL    HW2 3645   0.374   3.009   0.493
  916SOL     OW 3646   2.207   3.014   2.504
  916SOL    HW1 3647   2.139   2.982   2.437
  916SOL    HW2 3648   2.281   2.947   2.510
  917SOL     OW 3649   6.126   0.834   2.740
  917SOL    HW1 3650   6.143   0.806   2.645
  917SOL    HW2 3651   6.130   0.754   2.800
  918SOL     OW 3652   3.260   0.089   0.824
  918SOL    HW1 3653   3.332   0.049   0.880
  918SOL    HW2 3654   3.207   0.154   0.878
  919SOL     OW 3655   6.693   6.644   3.370
  919SOL    HW1 3656   6.780   6.657   3.416
  919SOL    HW2 3657   6.621   6.626   3.438
  920SOL     OW 3658   2.689   4.887   2.488
  920SOL    HW1 3659   2.766   4.877   2.426
  920SOL    HW2 3660   2.645   4.797   2.502
  921SOL     OW 3661   4.269   4.879   2.827
  921SOL    HW1 3662   4.351   4.930   2.851
  921SOL    HW2 3663   4.216   4.930   2.760
  922SOL     OW 3664   3.057   3.376   5.270
  922SOL    HW1 3665   3.149   3.412   5.279
  922SOL    HW2 3666   3.059   3.294   5.212
  923SOL     OW 3667   2.824   4.197   5.690
  923SOL    HW1 3668   2.763   4.276   5.682
  923SOL    HW2 3669   2.805   4.133   5.616
  924SOL     OW 3670   5.779   2.760   3.182
  924SOL    HW1 3671   5.786   2.825   3.106
  924SOL    HW2 3672   5.753   2.670   3.147
  925SOL     OW 3673   0.034   1.951   6.827
  925SOL    HW1 3674   7.005   1.955   6.743
  925SOL    HW2 3675   0.002   1.875   6.884
  926SOL     OW 3676   6.160   1.429   1.078
  926SOL    HW1 3677   6.230   1.418   1.008
  926SOL    HW2 3678   6.189   1.498   1.145
  927SOL     OW 3679   5.782   4.212   2.857
  927SOL    HW1 3680   5.833   4.134   2.820
  927SOL    HW2 3681   5.784   4.208   2.957
  928SOL     OW 3682   1.148   6.514   0.317
  928SOL    HW1 3683   1.136   6.518   0.417
  928SOL    HW2 3684   1.156   6.607   0.281
  929SOL     OW 3685   0.352   0.266   1.158
  929SOL    HW1 3686   0.298   0.270   1.074
  929SOL    HW2 3687   0.292   0.286   1.237
  930SOL     OW 3688   5.727   6.015   3.737
  930SOL    HW1 3689   5.745   5.918   3.752
  930SOL    HW2 3690   5.628   6.032   3.736
  931SOL     OW 3691   5.684   1.845   4.234
  931SOL    HW1 3692   5.780   1.865   4.216
  931SOL    HW2 3693   5.635   1.931   4.252
  932SOL     OW 3694   2.894   7.004   3.573
  932SOL    HW1 3695   2.955   0.055   3.599
  932SOL    HW2 3696   2.905   6.928   3.636
  933SOL     OW 3697   1.984   5.599   3.360
  933SOL    HW1 3698   2.070   5.638   3.393
  933SOL    HW2 3699   1.949   5.654   3.284
  934SOL     OW 3700   1.688   0.241   6.116
  934SOL    HW1 3701   1.700   0.336   6.089
  934SOL    HW2 3702   1.645   0.191   6.040
  935SOL     OW 3703   4.695   4.197   3.929
  935SOL    HW1 3704   4.764   4.140   3.885
  935SOL    HW2 3705   4.651   4.145   4.003
  936SOL     OW 3706   0.700   0.670   6.261
  936SOL    HW1 3707   0.677   0.638   6.353
  936SOL    HW2 3708   0.618   0.666   6.203
  937SOL     OW 3709   5.679   1.567   5.164
  937SOL    HW1 3710   5.625   1.483   5.162
  937SOL    HW2 3711   5.618   1.646   5.168
  938SOL     OW 3712   6.679   5.288   6.286
  938SOL    HW1 3713   6.766   5.303   6.240
  938SOL    HW2 3714   6.677   5.340   6.372
  939SOL     OW 3715   6.581   6.798   5.233
  939SOL    HW1 3716   6.526   6.874   5.267
  939SOL    HW2 3717   6.549   6.713   5.274
  940SOL     OW 3718   1.192   3.358   1.592
  940SOL    HW1 3719   1.147   3.282   1.639
  940SOL    HW2 3720   1.181   3.348   1.493
  941SOL     OW 3721   5.161   1.262   6.107
  941SOL    HW1 3722   5.243   1.257   6.165
  941SOL    HW2 3723   5.107   1.179   6.119
  942SOL     OW 3724   5.082   6.737   2.804
  942SOL    HW1 3725   5.018   6.674   2.847
  942SOL    HW2 3726   5.161   6.686   2.771
  943SOL     OW 3727   2.101   3.753   3.985
  943SOL    HW1 3728   2.044   3.725   3.908
  943SOL    HW2 3729   2.118   3.674   4.044
  944SOL     OW 3730   0.452   5.000   6.478
  944SOL    HW1 3731   0.381   4.929   6.483
  944SOL    HW2 3732   0.527   4.976   6.539
  945SOL     OW 3733   6.735   4.158   5.449
  945SOL    HW1 3734   6.791   4.097   5.394
  945SOL    HW2 3735   6.742   4.251   5.413
  946SOL     OW 3736   4.919   2.966   5.893
  946SOL    HW1 3737   4.847   2.986   5.960
  946SOL    HW2 3738   4.877   2.951   5.803
  947SOL     OW 3739   3.768   2.935   3.619
  947SOL    HW1 3740   3.791   2.888   3.534
  947SOL    HW2 3741   3.821   3.020   3.625
  948SOL     OW 3742   3.577   0.553   2.834
  948SOL    HW1 3743   3.537   0.636   2.794
  948SOL    HW2 3744   3.510   0.510   2.894
  949SOL     OW 3745   0.950   6.103   6.390
  949SOL    HW1 3746   0.973   6.141   6.301
  949SOL    HW2 3747   0.886   6.026   6.379
  950SOL     OW 3748   5.329   5.515   1.579
  950SOL    HW1 3749   5.282   5.485   1.496
  950SOL    HW2 3750   5.263   5.546   1.647
  951SOL     OW 3751   2.192   0.956   4.075
  951SOL    HW1 3752   2.267   0.895   4.049
  951SOL    HW2 3753   2.229   1.047   4.095
  952SOL     OW 3754   4.487   1.912   2.870
  952SOL    HW1 3755   4.453   1.825   2.906
  952SOL    HW2 3756   4.529   1.965   2.944
  953SOL     OW 3757   5.370   4.932   4.105
  953SOL    HW1 3758   5.396   4.895   4.015
  953SOL    HW2 3759   5.281   4.895   4.131
  954SOL     OW 3760   3.870   5.763   1.478
  954SOL    HW1 3761   3.970   5.761   1.485
  954SOL    HW2 3762   3.830   5.708   1.551
  955SOL     OW 3763   0.599   3.441   2.205
  955SOL    HW1 3764   0.581   3.345   2.183
  955SOL    HW2 3765   0.651   3.446   2.290
  956SOL     OW 3766   6.532   0.974   2.468
  956SOL    HW1 3767   6.506   0.973   2.565
  956SOL    HW2 3768   6.544   0.880   2.436
  957SOL     OW 3769   6.047   3.375   4.753
  957SOL    HW1 3770   5.990   3.436   4.698
  957SOL    HW2 3771   6.047   3.406   4.848
  958SOL     OW 3772   4.118   1.921   1.839
  958SOL    HW1 3773   4.024   1.892   1.859
  958SOL    HW2 3774   4.121   2.021   1.834
  959SOL     OW 3775   4.539   6.079   2.911
  959SOL    HW1 3776   4.534   5.986   2.875
  959SOL    HW2 3777   4.476   6.138   2.862
  960SOL     OW 3778   0.751   6.485   2.020
  960SOL    HW1 3779   0.686   6.448   2.086
  960SOL    HW2 3780   0.836   6.510   2.066
  961SOL     OW 3781   4.686   6.284   3.563
  961SOL    HW1 3782   4.675   6.378   3.531
  961SOL    HW2 3783   4.765   6.243   3.519
  962SOL     OW 3784   0.301   1.610   5.400
  962SOL    HW1 3785   0.275   1.522   5.440
  962SOL    HW2 3786   0.256   1.621   5.311
  963SOL     OW 3787   5.845   1.823   6.442
  963SOL    HW1 3788   5.939   1.794   6.459
  963SOL    HW2 3789   5.837   1.854   6.347
  964SOL     OW 3790   5.395   4.550   0.259
  964SOL    HW1 3791   5.385   4.603   0.175
  964SOL    HW2 3792   5.462   4.477   0.245
  965SOL     OW 3793   5.226   2.159   1.611
  965SOL    HW1 3794   5.129   2.177   1.625
  965SOL    HW2 3795   5.256   2.204   1.526
  966SOL     OW 3796   5.659   2.202   2.702
  966SOL    HW1 3797   5.613   2.171   2.618
  966SOL    HW2 3798   5.603   2.271   2.747
  967SOL     OW 3799   2.433   4.665   0.834
  967SOL    HW1 3800   2.464   4.703   0.747
  967SOL    HW2 3801   2.374   4.731   0.880
  968SOL     OW 3802   3.575   0.337   2.024
  968SOL    HW1 3803   3.583   0.432   2.055
  968SOL    HW2 3804   3.492   0.296   2.062
  969SOL     OW 3805   2.464   5.756   6.141
  969SOL    HW1 3806   2.469   5.705   6.227
  969SOL    HW2 3807   2.494   5.696   6.066
  970SOL     OW 3808   5.359   1.116   6.525
  970SOL    HW1 3809   5.365   1.171   6.441
  970SOL    HW2 3810   5.348   1.177   6.603
  971SOL     OW 3811   6.883   2.553   2.947
  971SOL    HW1 3812   6.946   2.619   2.907
  971SOL    HW2 3813   6.934   2.487   3.002
  972SOL     OW 3814   5.580   3.060   2.006
  972SOL    HW1 3815   5.510   3.032   1.940
  972SOL    HW2 3816   5.537   3.076   2.095
  973SOL     OW 3817   0.047   5.418   6.555
  973SOL    HW1 3818   6.978   5.393   6.580
  973SOL    HW2 3819   0.055   5.517   6.549
  974SOL     OW 3820   5.415   5.899   2.123
  974SOL    HW1 3821   5.374   5.951   2.197
  974SOL    HW2 3822   5.514   5.906   2.128
  975SOL     OW 3823   1.653   0.250   6.439
  975SOL    HW1 3824   1.566   0.202   6.441
  975SOL    HW2 3825   1.694   0.241   6.348
  976SOL     OW 3826   6.712   3.664   2.276
  976SOL    HW1 3827   6.806   3.630   2.277
  976SOL    HW2 3828   6.650   3.589   2.300
  977SOL     OW 3829   0.931   6.831   2.279
  977SOL    HW1 3830   0.946   6.791   2.188
  977SOL    HW2 3831   0.925   6.758   2.347
  978SOL     OW 3832   5.173   3.020   5.750
  978SOL    HW1 3833   5.234   2.948   5.781
  978SOL    HW2 3834   5.096   3.028   5.813
  979SOL     OW 3835   0.175   2.229   0.493
  979SOL    HW1 3836   0.120   2.285   0.555
  979SOL    HW2 3837   0.197   2.142   0.537
  980SOL     OW 3838   4.567   2.596   3.477
  980SOL    HW1 3839   4.526   2.507   3.495
  980SOL    HW2 3840   4.628   2.621   3.552
  981SOL     OW 3841   0.477   1.582   4.598
  981SOL    HW1 3842   0.443   1.497   4.640
  981SOL    HW2 3843   0.567   1.604   4.634
  982SOL     OW 3844   2.198   1.771   5.254
  982SOL    HW1 3845   2.240   1.777   5.164
  982SOL    HW2 3846   2.111   1.820   5.253
  983SOL     OW 3847   6.325   3.238   4.046
  983SOL    HW1 3848   6.295   3.269   3.956
  983SOL    HW2 3849   6.363   3.146   4.039
  984SOL     OW 3850   2.701   1.982   4.798
  984SOL    HW1 3851   2.694   2.043   4.878
  984SOL    HW2 3852   2.620   1.992   4.741
  985SOL     OW 3853   6.077   3.286   5.051
  985SOL    HW1 3854   6.017   3.362   5.026
  985SOL    HW2 3855   6.151   3.320   5.109
  986SOL     OW 3856   5.869   4.970   1.000
  986SOL    HW1 3857   5.798   4.995   1.066
  986SOL    HW2 3858   5.883   4.871   1.003
  987SOL     OW 3859   4.835   6.764   2.633
  987SOL    HW1 3860   4.804   6.856   2.656
  987SOL    HW2 3861   4.934   6.758   2.644
  988SOL     OW 3862   3.892   3.082   1.614
  988SOL    HW1 3863   3.991   3.089   1.621
  988SOL    HW2 3864   3.859   3.009   1.674
  989SOL     OW 3865   6.089   1.606   6.348
  989SOL    HW1 3866   6.050   1.521   6.385
  989SOL    HW2 3867   6.097   1.599   6.249
  990SOL     OW 3868   4.507   1.040   2.373
  990SOL    HW1 3869   4.602   1.070   2.371
  990SOL    HW2 3870   4.447   1.119   2.388
  991SOL     OW 3871   0.672   3.776   4.504
  991SOL    HW1 3872   0.575   3.765   4.482
  991SOL    HW2 3873   0.691   3.872   4.526
  992SOL     OW 3874   0.298   3.154   1.504
  992SOL    HW1 3875   0.294   3.158   1.604
  992SOL    HW2 3876   0.268   3.241   1.466
  993SOL     OW 3877   0.348   4.863   0.879
  993SOL    HW1 3878   0.317   4.946   0.833
  993SOL    HW2 3879   0.331   4.871   0.977
  994SOL     OW 3880   4.235   5.341   0.969
  994SOL    HW1 3881   4.283   5.381   1.047
  994SOL    HW2 3882   4.299   5.324   0.894
  995SOL     OW 3883   3.714   2.927   5.514
  995SOL    HW1 3884   3.635   2.946   5.456
  995SOL    HW2 3885   3.788   2.889   5.459
  996SOL     OW 3886   3.578   4.973   4.669
  996SOL    HW1 3887   3.563   4.876   4.648
  996SOL    HW2 3888   3.548   5.029   4.592
  997SOL     OW 3889   1.115   0.176   3.602
  997SOL    HW1 3890   1.205   0.207   3.572
  997SOL    HW2 3891   1.125   0.092   3.656
  998SOL     OW 3892   5.334   0.405   4.909
  998SOL    HW1 3893   5.241   0.370   4.899
  998SOL    HW2 3894   5.399   0.335   4.878
  999SOL     OW 3895   5.130   4.531   2.916
  999SOL    HW1 3896   5.117   4.471   2.837
  999SOL    HW2 3897   5.178   4.613   2.888
 1000SOL     OW 3898   2.679   1.112   1.264
 1000SOL    HW1 3899   2.606   1.051   1.232
 1000SOL    HW2 3900   2.641   1.180   1.326
 1001SOL     OW 3901   5.123   5.491   0.892
 1001SOL    HW1 3902   5.091   5.515   0.801
 1001SOL    HW2 3903   5.071   5.413   0.926
 1002SOL     OW 3904   5.935   1.639   1.452
 1002SOL    HW1 3905   5.971   1.565   1.509
 1002SOL    HW2 3906   5.867   1.691   1.503
 1003SOL     OW 3907   1.966   6.417   2.416
 1003SOL    HW1 3908   1.971   6.487   2.487
 1003SOL    HW2 3909   1.906   6.448   2.343
 1004SOL     OW 3910   0.159   0.824   1.781
 1004SOL    HW1 3911   0.160   0.921   1.805
 1004SOL    HW2 3912   0.244   0.781   1.811
 1005SOL     OW 3913   2.185   2.927   3.824
 1005SOL    HW1 3914   2.111   2.940   3.758
 1005SOL    HW2 3915   2.165   2.850   3.883
 1006SOL     OW 3916   1.211   4.310   1.270
 1006SOL    HW1 3917   1.162   4.233   1.312
 1006SOL    HW2 3918   1.214   4.298   1.171
 1007SOL     OW 3919   4.458   0.442   5.015
 1007SOL    HW1 3920   4.535   0.463   4.954
 1007SOL    HW2 3921   4.423   0.350   4.994
 1008SOL     OW 3922   1.131   3.351   5.851
 1008SOL    HW1 3923   1.081   3.436   5.861
 1008SOL    HW2 3924   1.096   3.300   5.773
 1009SOL     OW 3925   0.750   5.076   5.246
 1009SOL    HW1 3926   0.805   5.021   5.308
 1009SOL    HW2 3927   0.758   5.173   5.270
 1010SOL     OW 3928   3.632   2.037   6.843
 1010SOL    HW1 3929   3.701   1.996   6.902
 1010SOL    HW2 3930   3.573   2.097   6.897
 1011SOL     OW 3931   1.757   4.917   2.462
 1011SOL    HW1 3932   1.803   4.828   2.453
 1011SOL    HW2 3933   1.728   4.929   2.557
 1012SOL     OW 3934   6.701   6.858   2.153
 1012SOL    HW1 3935   6.737   6.937   2.203
 1012SOL    HW2 3936   6.743   6.853   2.063
 1013SOL     OW 3937   1.348   1.195   5.816
 1013SOL    HW1 3938   1.387   1.155   5.899
 1013SOL    HW2 3939   1.265   1.246   5.839
 1014SOL     OW 3940   6.376   4.868   5.547
 1014SOL    HW1 3941   6.389   4.947   5.486
 1014SOL    HW2 3942   6.306   4.808   5.509
 1015SOL     OW 3943   2.597   6.682   6.034
 1015SOL    HW1 3944   2.506   6.703   5.997
 1015SOL    HW2 3945   2.596   6.591   6.075
 1016SOL     OW 3946   4.272   3.646   6.871
 1016SOL    HW1 3947   4.360   3.614   6.837
 1016SOL    HW2 3948   4.210   3.662   6.794
 1017SOL     OW 3949   4.155   2.803   1.348
 1017SOL    HW1 3950   4.141   2.900   1.329
 1017SOL    HW2 3951   4.250   2.789   1.378
 1018SOL     OW 3952   0.371   4.473   4.215
 1018SOL    HW1 3953   0.353   4.533   4.292
 1018SOL    HW2 3954   0.470   4.473   4.195
 1019SOL     OW 3955   6.998   6.698   0.900
 1019SOL    HW1 3956   0.043   6.669   0.833
 1019SOL    HW2 3957   6.948   6.618   0.932
 1020SOL     OW 3958   6.388   1.384   0.925
 1020SOL    HW1 3959   6.454   1.429   0.986
 1020SOL    HW2 3960   6.425   1.296   0.895
 1021SOL     OW 3961   5.686   6.941   1.279
 1021SOL    HW1 3962   5.624   6.974   1.351
 1021SOL    HW2 3963   5.761   7.005   1.267
 1022SOL     OW 3964   3.412   4.332   5.333
 1022SOL    HW1 3965   3.453   4.423   5.339
 1022SOL    HW2 3966   3.314   4.341   5.313
 1023SOL     OW 3967   0.539   0.293   3.285
 1023SOL    HW1 3968   0.602   0.362   3.249
 1023SOL    HW2 3969   0.466   0.277   3.218
 1024SOL     OW 3970   0.587   2.788   4.242
 1024SOL    HW1 3971   0.681   2.753   4.246
 1024SOL    HW2 3972   0.589   2.888   4.247
 1025SOL     OW 3973   3.565   3.558   1.666
 1025SOL    HW1 3974   3.550   3.460   1.677
 1025SOL    HW2 3975   3.644   3.586   1.720
 1026SOL     OW 3976   2.382   2.286   1.441
 1026SOL    HW1 3977   2.383   2.385   1.425
 1026SOL    HW2 3978   2.466   2.246   1.404
 1027SOL     OW 3979   3.357   5.973   1.943
 1027SOL    HW1 3980   3.429   5.970   1.873
 1027SOL    HW2 3981   3.357   6.063   1.987
 1028SOL     OW 3982   2.455   6.407   1.429
 1028SOL    HW1 3983   2.423   6.396   1.524
 1028SOL    HW2 3984   2.448   6.503   1.403
 1029SOL     OW 3985   1.978   0.228   6.173
 1029SOL    HW1 3986   1.898   0.229   6.114
 1029SOL    HW2 3987   1.995   0.135   6.205
 1030SOL     OW 3988   3.266   2.735   1.855
 1030SOL    HW1 3989   3.301   2.661   1.797
 1030SOL    HW2 3990   3.321   2.817   1.842
 1031SOL     OW 3991   4.699   3.952   1.551
 1031SOL    HW1 3992   4.719   4.003   1.635
 1031SOL    HW2 3993   4.703   3.854   1.570
 1032SOL     OW 3994   2.568   2.107   5.960
 1032SOL    HW1 3995   2.476   2.068   5.966
 1032SOL    HW2 3996   2.597   2.108   5.864
 1033SOL     OW 3997   1.417   6.463   2.004
 1033SOL    HW1 3998   1.398   6.446   2.100
 1033SOL    HW2 3999   1.332   6.453   1.951
 1034SOL     OW 4000   0.354   5.293   4.433
 1034SOL    HW1 4001   0.388   5.371   4.486
 1034SOL    HW2 4002   0.423   5.221   4.431
 1035SOL     OW 4003   0.175   1.646   5.168
 1035SOL    HW1 4004   0.146   1.741   5.160
 1035SOL    HW2 4005   0.229   1.621   5.087
 1036SOL     OW 4006   3.967   6.971   1.727
 1036SOL    HW1 4007   3.909   6.914   1.785
 1036SOL    HW2 4008   4.063   6.956   1.750
 1037SOL     OW 4009   1.644   1.117   1.852
 1037SOL    HW1 4010   1.554   1.156   1.834
 1037SOL    HW2 4011   1.699   1.122   1.768
 1038SOL     OW 4012   1.947   1.096   5.194
 1038SOL    HW1 4013   1.856   1.089   5.152
 1038SOL    HW2 4014   1.939   1.080   5.293
 1039SOL     OW 4015   3.562   3.836   4.319
 1039SOL    HW1 4016   3.621   3.885   4.255
 1039SOL    HW2 4017   3.470   3.828   4.281
 1040SOL     OW 4018   4.932   1.170   2.752
 1040SOL    HW1 4019   4.897   1.086   2.795
 1040SOL    HW2 4020   4.859   1.238   2.746
 1041SOL     OW 4021   6.935   6.480   3.639
 1041SOL    HW1 4022   6.935   6.576   3.611
 1041SOL    HW2 4023   6.842   6.449   3.655
 1042SOL     OW 4024   4.390   5.348   2.110
 1042SOL    HW1 4025   4.311   5.286   2.114
 1042SOL    HW2 4026   4.377   5.412   2.034
 1043SOL     OW 4027   3.108   2.185   4.202
 1043SOL    HW1 4028   3.160   2.113   4.156
 1043SOL    HW2 4029   3.120   2.176   4.301
 1044SOL     OW 4030   5.670   5.491   2.625
 1044SOL    HW1 4031   5.711   5.569   2.671
 1044SOL    HW2 4032   5.696   5.491   2.528
 1045SOL     OW 4033   4.146   0.164   2.794
 1045SOL    HW1 4034   4.047   0.152   2.802
 1045SOL    HW2 4035   4.165   0.229   2.720
 1046SOL     OW 4036   1.536   0.770   0.370
 1046SOL    HW1 4037   1.532   0.670   0.378
 1046SOL    HW2 4038   1.552   0.795   0.274
 1047SOL     OW 4039   1.742   0.423   3.759
 1047SOL    HW1 4040   1.820   0.422   3.697
 1047SOL    HW2 4041   1.724   0.329   3.790
 1048SOL     OW 4042   4.236   6.259   3.431
 1048SOL    HW1 4043   4.325   6.254   3.385
 1048SOL    HW2 4044   4.198   6.167   3.441
 1049SOL     OW 4045   6.388   6.722   4.115
 1049SOL    HW1 4046   6.449   6.665   4.170
 1049SOL    HW2 4047   6.373   6.679   4.026
 1050SOL     OW 4048   4.187   4.882   1.151
 1050SOL    HW1 4049   4.131   4.877   1.234
 1050SOL    HW2 4050   4.131   4.914   1.075
 1051SOL     OW 4051   1.067   5.683   0.462
 1051SOL    HW1 4052   1.149   5.629   0.440
 1051SOL    HW2 4053   1.056   5.687   0.561
 1052SOL     OW 4054   4.092   0.689   5.040
 1052SOL    HW1 4055   4.060   0.617   4.979
 1052SOL    HW2 4056   4.075   0.778   4.999
 1053SOL     OW 4057   6.165   4.791   2.550
 1053SOL    HW1 4058   6.118   4.727   2.611
 1053SOL    HW2 4059   6.103   4.864   2.524
 1054SOL     OW 4060   3.383   3.627   0.326
 1054SOL    HW1 4061   3.317   3.701   0.314
 1054SOL    HW2 4062   3.467   3.649   0.276
 1055SOL     OW 4063   3.570   6.118   4.536
 1055SOL    HW1 4064   3.522   6.030   4.541
 1055SOL    HW2 4065   3.669   6.102   4.537
 1056SOL     OW 4066   2.426   4.159   6.799
 1056SOL    HW1 4067   2.357   4.136   6.731
 1056SOL    HW2 4068   2.513   4.178   6.754
 1057SOL     OW 4069   2.986   3.471   1.925
 1057SOL    HW1 4070   3.078   3.458   1.889
 1057SOL    HW2 4071   2.918   3.455   1.854
 1058SOL     OW 4072   4.629   2.350   3.902
 1058SOL    HW1 4073   4.545   2.395   3.871
 1058SOL    HW2 4074   4.614   2.251   3.907
 1059SOL     OW 4075   2.928   0.639   2.184
 1059SOL    HW1 4076   2.947   0.552   2.138
 1059SOL    HW2 4077   2.887   0.621   2.273
 1060SOL     OW 4078   0.068   4.867   4.375
 1060SOL    HW1 4079   7.007   4.915   4.392
 1060SOL    HW2 4080   0.131   4.927   4.326
 1061SOL     OW 4081   6.574   3.016   0.860
 1061SOL    HW1 4082   6.485   2.985   0.892
 1061SOL    HW2 4083   6.562   3.091   0.795
 1062SOL     OW 4084   5.320   4.785   5.725
 1062SOL    HW1 4085   5.347   4.870   5.681
 1062SOL    HW2 4086   5.373   4.709   5.688
 1063SOL     OW 4087   1.447   4.722   1.010
 1063SOL    HW1 4088   1.402   4.806   1.038
 1063SOL    HW2 4089   1.379   4.656   0.978
 1064SOL     OW 4090   1.387   4.029   2.877
 1064SOL    HW1 4091   1.427   3.950   2.831
 1064SOL    HW2 4092   1.438   4.048   2.961
 1065SOL     OW 4093   4.030   0.697   3.656
 1065SOL    HW1 4094   3.975   0.743   3.586
 1065SOL    HW2 4095   4.036   0.599   3.634
 1066SOL     OW 4096   4.864   6.594   2.876
 1066SOL    HW1 4097   4.819   6.613   2.788
 1066SOL    HW2 4098   4.807   6.628   2.951
 1067SOL     OW 4099   0.869   3.159   0.922
 1067SOL    HW1 4100   0.837   3.253   0.915
 1067SOL    HW2 4101   0.969   3.159   0.933
 1068SOL     OW 4102   6.324   5.086   2.946
 1068SOL    HW1 4103   6.226   5.106   2.938
 1068SOL    HW2 4104   6.339   4.988   2.935
 1069SOL     OW 4105   4.430   5.220   0.821
 1069SOL    HW1 4106   4.518   5.268   0.826
 1069SOL    HW2 4107   4.418   5.182   0.730
 1070SOL     OW 4108   6.877   0.681   2.032
 1070SOL    HW1 4109   6.936   0.762   2.021
 1070SOL    HW2 4110   6.783   0.705   2.008
 1071SOL     OW 4111   1.260   0.855   4.448
 1071SOL    HW1 4112   1.350   0.814   4.436
 1071SOL    HW2 4113   1.191   0.782   4.451
 1072SOL     OW 4114   1.925   1.270   0.932
 1072SOL    HW1 4115   1.980   1.351   0.914
 1072SOL    HW2 4116   1.959   1.194   0.877
 1073SOL     OW 4117   4.511   0.129   2.600
 1073SOL    HW1 4118   4.583   0.065   2.623
 1073SOL    HW2 4119   4.477   0.173   2.683
 1074SOL     OW 4120   2.379   5.346   1.388
 1074SOL    HW1 4121   2.423   5.435   1.376
 1074SOL    HW2 4122   2.280   5.357   1.390
 1075SOL     OW 4123   5.281   0.691   3.447
 1075SOL    HW1 4124   5.232   0.624   3.503
 1075SOL    HW2 4125   5.369   0.711   3.490
 1076SOL     OW 4126   0.249   2.140   5.605
 1076SOL    HW1 4127   0.167   2.099   5.566
 1076SOL    HW2 4128   0.322   2.142   5.536
 1077SOL     OW 4129   5.567   6.898   1.020
 1077SOL    HW1 4130   5.598   6.990   1.046
 1077SOL    HW2 4131   5.608   6.873   0.933
 1078SOL     OW 4132   0.822   0.753   2.450
 1078SOL    HW1 4133   0.805   0.697   2.369
 1078SOL    HW2 4134   0.836   0.694   2.529
 1079SOL     OW 4135   1.649   6.693   2.649
 1079SOL    HW1 4136   1.623   6.606   2.691
 1079SOL    HW2 4137   1.577   6.722   2.586
 1080SOL     OW 4138   1.936   5.085   3.327
 1080SOL    HW1 4139   2.027   5.115   3.356
 1080SOL    HW2 4140   1.929   5.093   3.227
 1081SOL     OW 4141   0.278   5.518   5.547
 1081SOL    HW1 4142   0.356   5.510   5.609
 1081SOL    HW2 4143   0.309   5.507   5.453
 1082SOL     OW 4144   5.477   2.185   4.504
 1082SOL    HW1 4145   5.402   2.124   4.479
 1082SOL    HW2 4146   5.542   2.136   4.562
 1083SOL     OW 4147   4.525   3.957   0.732
 1083SOL    HW1 4148   4.554   4.050   0.752
 1083SOL    HW2 4149   4.441   3.959   0.678
 1084SOL     OW 4150   5.948   6.471   6.977
 1084SOL    HW1 4151   6.039   6.430   6.976
 1084SOL    HW2 4152   5.916   6.485   6.884
 1085SOL     OW 4153   2.071   3.259   4.559
 1085SOL    HW1 4154   2.142   3.329   4.561
 1085SOL    HW2 4155   1.989   3.296   4.517
 1086SOL     OW 4156   0.770   5.298   0.473
 1086SOL    HW1 4157   0.788   5.202   0.455
 1086SOL    HW2 4158   0.825   5.354   0.411
 1087SOL     OW 4159   6.150   2.254   5.138
 1087SOL    HW1 4160   6.088   2.202   5.080
 1087SOL    HW2 4161   6.099   2.290   5.217
 1088SOL     OW 4162   0.774   3.746   2.636
 1088SOL    HW1 4163   0.772   3.652   2.601
 1088SOL    HW2 4164   0.784   3.744   2.736
 1089SOL     OW 4165   1.101   6.020   4.372
 1089SOL    HW1 4166   1.131   6.063   4.457
 1089SOL    HW2 4167   1.001   6.008   4.375
 1090SOL     OW 4168   2.752   2.412   3.302
 1090SOL    HW1 4169   2.838   2.406   3.252
 1090SOL    HW2 4170   2.700   2.327   3.291
 1091SOL     OW 4171   3.076   2.223   4.510
 1091SOL    HW1 4172   3.064   2.322   4.502
 1091SOL    HW2 4173   3.125   2.202   4.595
 1092SOL     OW 4174   1.193   4.229   0.960
 1092SOL    HW1 4175   1.275   4.173   0.956
 1092SOL    HW2 4176   1.115   4.172   0.985
 1093SOL     OW 4177   1.917   1.303   1.915
 1093SOL    HW1 4178   1.820   1.306   1.893
 1093SOL    HW2 4179   1.969   1.357   1.849
 1094SOL     OW 4180   0.293   7.016   2.608
 1094SOL    HW1 4181   0.303   0.088   2.633
 1094SOL    HW2 4182   0.380   6.981   2.573
 1095SOL     OW 4183   1.142   3.090   6.301
 1095SOL    HW1 4184   1.120   3.124   6.209
 1095SOL    HW2 4185   1.193   3.159   6.351
 1096SOL     OW 4186   3.677   4.313   1.744
 1096SOL    HW1 4187   3.609   4.383   1.767
 1096SOL    HW2 4188   3.633   4.223   1.745
 1097SOL     OW 4189   2.430   4.425   4.325
 1097SOL    HW1 4190   2.380   4.497   4.276
 1097SOL    HW2 4191   2.487   4.467   4.396
 1098SOL     OW 4192   4.442   3.845   6.643
 1098SOL    HW1 4193   4.370   3.887   6.698
 1098SOL    HW2 4194   4.530   3.858   6.689
 1099SOL     OW 4195   3.609   0.683   5.834
 1099SOL    HW1 4196   3.637   0.665   5.928
 1099SOL    HW2 4197   3.689   0.682   5.774
 1100SOL     OW 4198   3.994   1.897   4.425
 1100SOL    HW1 4199   4.021   1.935   4.514
 1100SOL    HW2 4200   4.076   1.867   4.377
 1101SOL     OW 4201   5.767   2.774   6.306
 1101SOL    HW1 4202   5.744   2.720   6.225
 1101SOL    HW2 4203   5.695   2.763   6.375
 1102SOL     OW 4204   0.704   6.966   4.591
 1102SOL    HW1 4205   0.746   7.001   4.507
 1102SOL    HW2 4206   0.763   6.896   4.630
 1103SOL     OW 4207   4.210   1.614   0.180
 1103SOL    HW1 4208   4.226   1.601   0.082
 1103SOL    HW2 4209   4.216   1.711   0.202
 1104SOL     OW 4210   2.034   3.411   5.950
 1104SOL    HW1 4211   1.960   3.445   5.893
 1104SOL    HW2 4212   1.999   3.336   6.008
 1105SOL     OW 4213   6.338   3.559   4.929
 1105SOL    HW1 4214   6.327   3.473   4.878
 1105SOL    HW2 4215   6.321   3.636   4.868
 1106SOL     OW 4216   6.991   2.315   1.607
 1106SOL    HW1 4217   0.023   2.345   1.684
 1106SOL    HW2 4218   0.010   2.236   1.563
 1107SOL     OW 4219   0.684   0.558   6.872
 1107SOL    HW1 4220   0.612   0.598   6.928
 1107SOL    HW2 4221   0.768   0.549   6.926
 1108SOL     OW 4222   3.295   0.046   5.193
 1108SOL    HW1 4223   3.317   7.016   5.274
 1108SOL    HW2 4224   3.379   0.075   5.148
 1109SOL     OW 4225   4.582   1.151   4.420
 1109SOL    HW1 4226   4.534   1.089   4.358
 1109SOL    HW2 4227   4.524   1.172   4.498
 1110SOL     OW 4228   3.362   1.882   3.453
 1110SOL    HW1 4229   3.341   1.823   3.375
 1110SOL    HW2 4230   3.455   1.919   3.443
 1111SOL     OW 4231   4.845   5.662   6.160
 1111SOL    HW1 4232   4.861   5.574   6.117
 1111SOL    HW2 4233   4.819   5.648   6.256
 1112SOL     OW 4234   5.257   0.876   2.705
 1112SOL    HW1 4235   5.249   0.953   2.640
 1112SOL    HW2 4236   5.209   0.899   2.789
 1113SOL     OW 4237   6.039   4.672   1.650
 1113SOL    HW1 4238   5.973   4.742   1.621
 1113SOL    HW2 4239   6.059   4.684   1.748
 1114SOL     OW 4240   3.692   1.753   5.977
 1114SOL    HW1 4241   3.669   1.686   5.907
 1114SOL    HW2 4242   3.784   1.789   5.960
 1115SOL     OW 4243   4.004   3.161   6.026
 1115SOL    HW1 4244   3.943   3.206   6.091
 1115SOL    HW2 4245   4.061   3.230   5.981
 1116SOL     OW 4246   4.998   0.073   6.358
 1116SOL    HW1 4247   4.955   0.039   6.274
 1116SOL    HW2 4248   4.929   0.084   6.429
 1117SOL     OW 4249   2.397   2.237   2.307
 1117SOL    HW1 4250   2.475   2.276   2.259
 1117SOL    HW2 4251   2.315   2.245   2.250
 1118SOL     OW 4252   2.729   4.372   0.263
 1118SOL    HW1 4253   2.648   4.394   0.319
 1118SOL    HW2 4254   2.701   4.361   0.168
 1119SOL     OW 4255   4.158   4.947   1.944
 1119SOL    HW1 4256   4.205   5.014   2.001
 1119SOL    HW2 4257   4.222   4.907   1.879
 1120SOL     OW 4258   6.225   6.230   0.271
 1120SOL    HW1 4259   6.213   6.329   0.276
 1120SOL    HW2 4260   6.281   6.199   0.348
 1121SOL     OW 4261   6.015   4.265   4.512
 1121SOL    HW1 4262   6.069   4.247   4.430
 1121SOL    HW2 4263   5.932   4.210   4.510
 1122SOL     OW 4264   5.606   2.545   0.949
 1122SOL    HW1 4265   5.655   2.539   0.862
 1122SOL    HW2 4266   5.579   2.640   0.967
 1123SOL     OW 4267   4.925   1.653   3.542
 1123SOL    HW1 4268   4.872   1.669   3.459
 1123SOL    HW2 4269   5.006   1.711   3.541
 1124SOL     OW 4270   0.071   3.395   5.414
 1124SOL    HW1 4271   7.000   3.386   5.443
 1124SOL    HW2 4272   0.092   3.324   5.347
 1125SOL     OW 4273   2.555   2.132   3.957
 1125SOL    HW1 4274   2.578   2.035   3.959
 1125SOL    HW2 4275   2.625   2.182   3.905
 1126SOL     OW 4276   5.301   4.780   0.411
 1126SOL    HW1 4277   5.307   4.693   0.363
 1126SOL    HW2 4278   5.218   4.828   0.383
 1127SOL     OW 4279   5.070   5.210   4.757
 1127SOL    HW1 4280   5.141   5.275   4.731
 1127SOL    HW2 4281   4.981   5.257   4.759
 1128SOL     OW 4282   5.920   1.988   5.414
 1128SOL    HW1 4283   5.849   1.978   5.343
 1128SOL    HW2 4284   5.950   1.897   5.443
 1129SOL     OW 4285   1.438   0.526   0.643
 1129SOL    HW1 4286   1.524   0.544   0.691
 1129SOL    HW2 4287   1.456   0.509   0.546
 1130SOL     OW 4288   2.764   4.950   0.629
 1130SOL    HW1 4289   2.718   4.962   0.541
 1130SOL    HW2 4290   2.779   4.853   0.646
 1131SOL     OW 4291   1.025   5.596   5.775
 1131SOL    HW1 4292   0.998   5.577   5.681
 1131SOL    HW2 4293   1.118   5.563   5.791
 1132SOL     OW 4294   5.393   6.921   2.336
 1132SOL    HW1 4295   5.400   6.821   2.336
 1132SOL    HW2 4296   5.315   6.949   2.279
 1133SOL     OW 4297   0.635   0.984   0.642
 1133SOL    HW1 4298   0.565   1.026   0.584
 1133SOL    HW2 4299   0.641   1.034   0.728
 1134SOL     OW 4300   5.526   0.574   2.593
 1134SOL    HW1 4301   5.428   0.592   2.598
 1134SOL    HW2 4302   5.574   0.659   2.570
 1135SOL     OW 4303   2.196   0.245   3.140
 1135SOL    HW1 4304   2.275   0.269   3.085
 1135SOL    HW2 4305   2.116   0.298   3.110
 1136SOL     OW 4306   4.493   4.527   2.872
 1136SOL    HW1 4307   4.464   4.461   2.803
 1136SOL    HW2 4308   4.423   4.598   2.881
 1137SOL     OW 4309   1.063   6.899   7.019
 1137SOL    HW1 4310   1.001   6.978   7.013
 1137SOL    HW2 4311   1.139   6.922   0.056
 1138SOL     OW 4312   6.810   0.725   5.917
 1138SOL    HW1 4313   6.888   0.691   5.864
 1138SOL    HW2 4314   6.767   0.801   5.869
 1139SOL     OW 4315   3.360   4.928   2.311
 1139SOL    HW1 4316   3.385   4.837   2.346
 1139SOL    HW2 4317   3.403   4.941   2.222
 1140SOL     OW 4318   2.898   0.828   1.977
 1140SOL    HW1 4319   2.947   0.886   1.913
 1140SOL    HW2 4320   2.952   0.815   2.060
 1141SOL     OW 4321   0.576   6.530   6.961
 1141SOL    HW1 4322   0.483   6.555   6.937
 1141SOL    HW2 4323   0.619   6.481   6.885
 1142SOL     OW 4324   3.062   6.733   4.419
 1142SOL    HW1 4325   3.006   6.815   4.415
 1142SOL    HW2 4326   3.136   6.746   4.486
 1143SOL     OW 4327   1.850   2.664   3.287
 1143SOL    HW1 4328   1.796   2.583   3.265
 1143SOL    HW2 4329   1.908   2.688   3.209
 1144SOL     OW 4330   6.127   4.911   4.440
 1144SOL    HW1 4331   6.105   5.008   4.448
 1144SOL    HW2 4332   6.218   4.895   4.476
 1145SOL     OW 4333   6.645   3.952   1.664
 1145SOL    HW1 4334   6.697   3.887   1.609
 1145SOL    HW2 4335   6.701   3.984   1.740
 1146SOL     OW 4336   6.988   0.414   2.898
 1146SOL    HW1 4337   6.950   0.472   2.970
 1146SOL    HW2 4338   7.008   0.323   2.936
 1147SOL     OW 4339   2.837   5.862   1.289
 1147SOL    HW1 4340   2.908   5.909   1.342
 1147SOL    HW2 4341   2.828   5.768   1.322
 1148SOL     OW 4342   4.412   5.997   0.588
 1148SOL    HW1 4343   4.397   6.094   0.606
 1148SOL    HW2 4344   4.417   5.983   0.489
 1149SOL     OW 4345   6.434   3.481   2.710
 1149SOL    HW1 4346   6.391   3.571   2.700
 1149SOL    HW2 4347   6.380   3.413   2.661
 1150SOL     OW 4348   1.538   3.435   0.528
 1150SOL    HW1 4349   1.543   3.358   0.592
 1150SOL    HW2 4350   1.442   3.464   0.519
 1151SOL     OW 4351   4.942   4.377   6.944
 1151SOL    HW1 4352   4.915   4.295   6.993
 1151SOL    HW2 4353   4.936   4.360   6.846
 1152SOL     OW 4354   5.399   5.384   6.767
 1152SOL    HW1 4355   5.492   5.414   6.788
 1152SOL    HW2 4356   5.396   5.347   6.674
 1153SOL     OW 4357   0.894   0.378   1.774
 1153SOL    HW1 4358   0.888   0.293   1.721
 1153SOL    HW2 4359   0.891   0.357   1.872
 1154SOL     OW 4360   6.796   4.137   1.445
 1154SOL    HW1 4361   6.894   4.117   1.445
 1154SOL    HW2 4362   6.776   4.209   1.379
 1155SOL     OW 4363   2.399   4.974   6.103
 1155SOL    HW1 4364   2.335   4.898   6.114
 1155SOL    HW2 4365   2.354   5.049   6.055
 1156SOL     OW 4366   4.646   1.572   4.929
 1156SOL    HW1 4367   4.676   1.515   5.004
 1156SOL    HW2 4368   4.546   1.578   4.928
 1157SOL     OW 4369   5.080   1.781   5.950
 1157SOL    HW1 4370   4.991   1.737   5.962
 1157SOL    HW2 4371   5.068   1.880   5.955
 1158SOL     OW 4372   0.013   5.191   5.433
 1158SOL    HW1 4373   0.007   5.095   5.406
 1158SOL    HW2 4374   0.094   5.205   5.491
 1159SOL     OW 4375   6.523   6.751   3.579
 1159SOL    HW1 4376   6.506   6.850   3.582
 1159SOL    HW2 4377   6.460   6.709   3.515
 1160SOL     OW 4378   4.972   4.681   1.132
 1160SOL    HW1 4379   5.071   4.681   1.120
 1160SOL    HW2 4380   4.949   4.732   1.215
 1161SOL     OW 4381   5.981   6.595   5.706
 1161SOL    HW1 4382   6.006   6.689   5.733
 1161SOL    HW2 4383   6.056   6.533   5.729
 1162SOL     OW 4384   3.705   2.501   6.800
 1162SOL    HW1 4385   3.767   2.576   6.825
 1162SOL    HW2 4386   3.718   2.478   6.704
 1163SOL     OW 4387   7.020   3.999   1.399
 1163SOL    HW1 4388   6.994   3.982   1.304
 1163SOL    HW2 4389   0.095   3.991   1.408
 1164SOL     OW 4390   6.080   3.377   4.339
 1164SOL    HW1 4391   6.072   3.309   4.265
 1164SOL    HW2 4392   6.158   3.354   4.396
 1165SOL     OW 4393   3.631   4.888   3.636
 1165SOL    HW1 4394   3.686   4.948   3.693
 1165SOL    HW2 4395   3.550   4.858   3.687
 1166SOL     OW 4396   3.742   0.071   0.123
 1166SOL    HW1 4397   3.786   0.075   0.034
 1166SOL    HW2 4398   3.643   0.082   0.111
 1167SOL     OW 4399   4.637   6.315   6.895
 1167SOL    HW1 4400   4.647   6.220   6.925
 1167SOL    HW2 4401   4.723   6.364   6.906
 1168SOL     OW 4402   4.927   2.564   2.778
 1168SOL    HW1 4403   4.899   2.513   2.859
 1168SOL    HW2 4404   4.920   2.662   2.795
 1169SOL     OW 4405   4.457   2.791   5.820
 1169SOL    HW1 4406   4.528   2.738   5.865
 1169SOL    HW2 4407   4.474   2.794   5.722
 1170SOL     OW 4408   5.245   0.066   3.160
 1170SOL    HW1 4409   5.335   0.086   3.199
 1170SOL    HW2 4410   5.256   0.034   3.065
 1171SOL     OW 4411   2.387   6.615   0.151
 1171SOL    HW1 4412   2.473   6.615   0.100
 1171SOL    HW2 4413   2.378   6.700   0.202
 1172SOL     OW 4414   3.345   4.232   1.536
 1172SOL    HW1 4415   3.299   4.284   1.607
 1172SOL    HW2 4416   3.290   4.152   1.511
 1173SOL     OW 4417   2.899   0.589   0.236
 1173SOL    HW1 4418   2.906   0.645   0.318
 1173SOL    HW2 4419   2.990   0.574   0.197
 1174SOL     OW 4420   2.727   5.039   1.389
 1174SOL    HW1 4421   2.755   4.987   1.308
 1174SOL    HW2 4422   2.783   5.013   1.467
 1175SOL     OW 4423   4.446   4.467   6.888
 1175SOL    HW1 4424   4.520   4.427   6.833
 1175SOL    HW2 4425   4.377   4.508   6.827
 1176SOL     OW 4426   6.006   4.056   6.609
 1176SOL    HW1 4427   6.095   4.054   6.562
 1176SOL    HW2 4428   5.964   3.966   6.604
 1177SOL     OW 4429   0.392   3.394   5.212
 1177SOL    HW1 4430   0.410   3.397   5.310
 1177SOL    HW2 4431   0.423   3.306   5.175
 1178SOL     OW 4432   3.482   4.389   0.719
 1178SOL    HW1 4433   3.569   4.425   0.686
 1178SOL    HW2 4434   3.427   4.359   0.642
 1179SOL     OW 4435   2.391   6.051   0.927
 1179SOL    HW1 4436   2.361   5.970   0.877
 1179SOL    HW2 4437   2.325   6.125   0.915
 1180SOL     OW 4438   2.487   6.122   4.529
 1180SOL    HW1 4439   2.580   6.089   4.550
 1180SOL    HW2 4440   2.428   6.045   4.508
 1181SOL     OW 4441   6.637   4.265   6.529
 1181SOL    HW1 4442   6.618   4.256   6.626
 1181SOL    HW2 4443   6.605   4.355   6.497
 1182SOL     OW 4444   3.852   5.332   3.094
 1182SOL    HW1 4445   3.831   5.351   2.997
 1182SOL    HW2 4446   3.769   5.300   3.139
 1183SOL     OW 4447   3.133   5.015   1.431
 1183SOL    HW1 4448   3.038   5.007   1.402
 1183SOL    HW2 4449   3.150   5.106   1.468
 1184SOL     OW 4450   6.855   1.322   4.949
 1184SOL    HW1 4451   6.792   1.275   5.011
 1184SOL    HW2 4452   6.926   1.259   4.919
 1185SOL     OW 4453   1.286   0.763   0.070
 1185SOL    HW1 4454   1.249   0.782   7.003
 1185SOL    HW2 4455   1.243   0.681   0.107
 1186SOL     OW 4456   5.231   6.320   5.213
 1186SOL    HW1 4457   5.200   6.224   5.214
 1186SOL    HW2 4458   5.152   6.380   5.227
 1187SOL     OW 4459   5.209   6.981   5.075
 1187SOL    HW1 4460   5.155   6.898   5.079
 1187SOL    HW2 4461   5.175   0.022   5.142
 1188SOL     OW 4462   2.242   5.253   6.351
 1188SOL    HW1 4463   2.331   5.208   6.365
 1188SOL    HW2 4464   2.177   5.187   6.315
 1189SOL     OW 4465   6.537   1.653   1.635
 1189SOL    HW1 4466   6.576   1.684   1.722
 1189SOL    HW2 4467   6.601   1.589   1.591
 1190SOL     OW 4468   2.996   5.636   3.045
 1190SOL    HW1 4469   2.943   5.650   3.128
 1190SOL    HW2 4470   2.978   5.711   2.981
 1191SOL     OW 4471   3.940   5.927   4.267
 1191SOL    HW1 4472   3.941   5.894   4.173
 1191SOL    HW2 4473   4.003   5.872   4.322
 1192SOL     OW 4474   5.222   5.464   3.534
 1192SOL    HW1 4475   5.266   5.378   3.560
 1192SOL    HW2 4476   5.137   5.475   3.585
 1193SOL     OW 4477   6.875   1.821   5.623
 1193SOL    HW1 4478   6.812   1.744   5.616
 1193SOL    HW2 4479   6.852   1.889   5.553
 1194SOL     OW 4480   6.517   1.105   1.694
 1194SOL    HW1 4481   6.613   1.129   1.677
 1194SOL    HW2 4482   6.511   1.041   1.770
 1195SOL     OW 4483   0.355   3.323   0.584
 1195SOL    HW1 4484   0.417   3.393   0.621
 1195SOL    HW2 4485   0.406   3.264   0.521
 1196SOL     OW 4486   6.511   4.988   3.611
 1196SOL    HW1 4487   6.445   4.927   3.653
 1196SOL    HW2 4488   6.569   5.029   3.681
 1197SOL     OW 4489   4.730   5.913   3.817
 1197SOL    HW1 4490   4.637   5.887   3.792
 1197SOL    HW2 4491   4.794   5.848   3.775
 1198SOL     OW 4492   1.599   3.584   1.885
 1198SOL    HW1 4493   1.510   3.547   1.858
 1198SOL    HW2 4494   1.670   3.548   1.824
 1199SOL     OW 4495   3.545   3.998   2.689
 1199SOL    HW1 4496   3.542   3.987   2.589
 1199SOL    HW2 4497   3.584   3.915   2.730
 1200SOL     OW 4498   3.106   3.878   4.677
 1200SOL    HW1 4499   3.059   3.855   4.762
 1200SOL    HW2 4500   3.046   3.859   4.600
 1201SOL     OW 4501   0.269   1.517   4.134
 1201SOL    HW1 4502   0.297   1.593   4.192
 1201SOL    HW2 4503   0.256   1.435   4.190
 1202SOL     OW 4504   0.280   6.142   5.642
 1202SOL    HW1 4505   0.232   6.194   5.571
 1202SOL    HW2 4506   0.340   6.204   5.693
 1203SOL     OW 4507   0.726   5.335   0.726
 1203SOL    HW1 4508   0.630   5.359   0.713
 1203SOL    HW2 4509   0.772   5.329   0.638
 1204SOL     OW 4510   4.383   1.533   1.466
 1204SOL    HW1 4511   4.333   1.468   1.409
 1204SOL    HW2 4512   4.339   1.623   1.458
 1205SOL     OW 4513   3.742   3.889   0.631
 1205SOL    HW1 4514   3.713   3.811   0.687
 1205SOL    HW2 4515   3.732   3.973   0.684
 1206SOL     OW 4516   2.001   2.758   5.666
 1206SOL    HW1 4517   2.040   2.667   5.654
 1206SOL    HW2 4518   2.002   2.806   5.578
 1207SOL     OW 4519   1.072   0.635   0.910
 1207SOL    HW1 4520   1.160   0.682   0.909
 1207SOL    HW2 4521   1.022   0.654   0.826
 1208SOL     OW 4522   3.437   3.276   1.420
 1208SOL    HW1 4523   3.464   3.262   1.515
 1208SOL    HW2 4524   3.505   3.333   1.374
 1209SOL     OW 4525   5.013   0.599   4.000
 1209SOL    HW1 4526   4.964   0.620   4.085
 1209SOL    HW2 4527   5.100   0.555   4.022
 1210SOL     OW 4528   3.953   6.407   3.746
 1210SOL    HW1 4529   3.925   6.343   3.817
 1210SOL    HW2 4530   3.947   6.362   3.657
 1211SOL     OW 4531   1.291   2.849   3.107
 1211SOL    HW1 4532   1.356   2.828   3.034
 1211SOL    HW2 4533   1.323   2.928   3.159
 1212SOL     OW 4534   6.374   6.962   5.876
 1212SOL    HW1 4535   6.372   6.951   5.975
 1212SOL    HW2 4536   6.282   6.979   5.842
 1213SOL     OW 4537   5.877   2.552   1.525
 1213SOL    HW1 4538   5.788   2.591   1.504
 1213SOL    HW2 4539   5.875   2.454   1.507
 1214SOL     OW 4540   1.042   2.871   0.230
 1214SOL    HW1 4541   1.064   2.892   0.135
 1214SOL    HW2 4542   0.956   2.820   0.235
 1215SOL     OW 4543   0.777   5.028   3.195
 1215SOL    HW1 4544   0.873   5.026   3.167
 1215SOL    HW2 4545   0.767   4.986   3.285
 1216SOL     OW 4546   5.432   1.280   0.507
 1216SOL    HW1 4547   5.351   1.324   0.467
 1216SOL    HW2 4548   5.512   1.338   0.492
 1217SOL     OW 4549   2.830   4.664   1.001
 1217SOL    HW1 4550   2.868   4.748   1.038
 1217SOL    HW2 4551   2.768   4.622   1.068
 1218SOL     OW 4552   1.325   3.161   4.928
 1218SOL    HW1 4553   1.424   3.150   4.924
 1218SOL    HW2 4554   1.283   3.075   4.956
 1219SOL     OW 4555   6.037   6.019   1.809
 1219SOL    HW1 4556   6.071   6.065   1.727
 1219SOL    HW2 4557   6.109   6.017   1.878
 1220SOL     OW 4558   0.922   4.617   2.067
 1220SOL    HW1 4559   0.994   4.622   2.136
 1220SOL    HW2 4560   0.921   4.526   2.026
 1221SOL     OW 4561   4.197   3.343   6.350
 1221SOL    HW1 4562   4.163   3.437   6.349
 1221SOL    HW2 4563   4.272   3.336   6.416
 1222SOL     OW 4564   6.826   1.541   6.673
 1222SOL    HW1 4565   6.926   1.544   6.682
 1222SOL    HW2 4566   6.798   1.450   6.643
 1223SOL     OW 4567   4.097   1.447   0.803
 1223SOL    HW1 4568   4.135   1.530   0.846
 1223SOL    HW2 4569   4.099   1.457   0.704
 1224SOL     OW 4570   3.278   5.817   0.308
 1224SOL    HW1 4571   3.229   5.815   0.221
 1224SOL    HW2 4572   3.211   5.822   0.383
 1225SOL     OW 4573   3.484   2.751   6.872
 1225SOL    HW1 4574   3.494   2.662   6.917
 1225SOL    HW2 4575   3.494   2.740   6.773
 1226SOL     OW 4576   3.087   6.810   1.405
 1226SOL    HW1 4577   3.055   6.749   1.478
 1226SOL    HW2 4578   3.182   6.836   1.423
 1227SOL     OW 4579   5.073   4.667   5.694
 1227SOL    HW1 4580   5.086   4.603   5.619
 1227SOL    HW2 4581   5.161   4.687   5.737
 1228SOL     OW 4582   2.855   2.363   6.341
 1228SOL    HW1 4583   2.944   2.318   6.352
 1228SOL    HW2 4584   2.803   2.317   6.270
 1229SOL     OW 4585   3.186   5.805   6.313
 1229SOL    HW1 4586   3.131   5.736   6.267
 1229SOL    HW2 4587   3.275   5.765   6.338
 1230SOL     OW 4588   5.001   6.368   2.000
 1230SOL    HW1 4589   5.085   6.328   2.036
 1230SOL    HW2 4590   5.015   6.465   1.981
 1231SOL     OW 4591   1.948   2.127   5.757
 1231SOL    HW1 4592   1.995   2.039   5.751
 1231SOL    HW2 4593   1.849   2.113   5.755
 1232SOL     OW 4594   0.119   1.817   5.694
 1232SOL    HW1 4595   0.021   1.828   5.678
 1232SOL    HW2 4596   0.152   1.738   5.644
 1233SOL     OW 4597   0.813   5.344   5.305
 1233SOL    HW1 4598   0.853   5.289   5.378
 1233SOL    HW2 4599   0.854   5.436   5.306
 1234SOL     OW 4600   6.544   2.872   6.142
 1234SOL    HW1 4601   6.643   2.887   6.137
 1234SOL    HW2 4602   6.497   2.939   6.085
 1235SOL     OW 4603   6.136   6.009   2.871
 1235SOL    HW1 4604   6.196   5.975   2.943
 1235SOL    HW2 4605   6.129   5.942   2.798
 1236SOL     OW 4606   4.436   0.787   0.132
 1236SOL    HW1 4607   4.522   0.824   0.098
 1236SOL    HW2 4608   4.432   0.796   0.232
 1237SOL     OW 4609   2.101   4.748   5.864
 1237SOL    HW1 4610   2.172   4.696   5.817
 1237SOL    HW2 4611   2.011   4.719   5.832
 1238SOL     OW 4612   1.195   0.724   6.840
 1238SOL    HW1 4613   1.230   0.798   6.781
 1238SOL    HW2 4614   1.197   0.638   6.790
 1239SOL     OW 4615   6.559   6.876   6.501
 1239SOL    HW1 4616   6.540   6.861   6.598
 1239SOL    HW2 4617   6.585   6.790   6.458
 1240SOL     OW 4618   5.296   6.039   0.573
 1240SOL    HW1 4619   5.374   6.029   0.512
 1240SOL    HW2 4620   5.211   6.024   0.522
 1241SOL     OW 4621   5.196   3.828   4.194
 1241SOL    HW1 4622   5.101   3.828   4.162
 1241SOL    HW2 4623   5.232   3.735   4.193
 1242SOL     OW 4624   0.652   3.714   1.251
 1242SOL    HW1 4625   0.674   3.787   1.316
 1242SOL    HW2 4626   0.735   3.664   1.228
 1243SOL     OW 4627   0.525   0.239   5.005
 1243SOL    HW1 4628   0.534   0.335   4.978
 1243SOL    HW2 4629   0.555   0.180   4.930
 1244SOL     OW 4630   5.903   6.530   4.435
 1244SOL    HW1 4631   5.911   6.576   4.346
 1244SOL    HW2 4632   5.994   6.514   4.473
 1245SOL     OW 4633   5.977   4.375   0.776
 1245SOL    HW1 4634   6.018   4.339   0.693
 1245SOL    HW2 4635   5.909   4.445   0.752
 1246SOL     OW 4636   2.896   0.200   1.234
 1246SOL    HW1 4637   2.932   0.273   1.293
 1246SOL    HW2 4638   2.823   0.237   1.176
 1247SOL     OW 4639   0.395   6.682   6.618
 1247SOL    HW1 4640   0.467   6.731   6.570
 1247SOL    HW2 4641   0.309   6.733   6.611
 1248SOL     OW 4642   2.084   0.318   5.105
 1248SOL    HW1 4643   2.014   0.382   5.072
 1248SOL    HW2 4644   2.079   0.233   5.053
 1249SOL     OW 4645   6.502   2.016   2.485
 1249SOL    HW1 4646   6.466   2.074   2.412
 1249SOL    HW2 4647   6.580   1.964   2.451
 1250SOL     OW 4648   6.342   5.666   3.851
 1250SOL    HW1 4649   6.337   5.761   3.818
 1250SOL    HW2 4650   6.383   5.665   3.942
 1251SOL     OW 4651   2.387   0.779   3.452
 1251SOL    HW1 4652   2.459   0.737   3.507
 1251SOL    HW2 4653   2.422   0.862   3.409
 1252SOL     OW 4654   4.726   2.995   6.106
 1252SOL    HW1 4655   4.709   2.944   6.191
 1252SOL    HW2 4656   4.643   2.994   6.050
 1253SOL     OW 4657   3.053   6.049   2.028
 1253SOL    HW1 4658   2.986   5.976   2.038
 1253SOL    HW2 4659   3.114   6.029   1.951
 1254SOL     OW 4660   1.244   2.743   2.698
 1254SOL    HW1 4661   1.286   2.688   2.770
 1254SOL    HW2 4662   1.289   2.724   2.611
 1255SOL     OW 4663   5.584   1.375   6.439
 1255SOL    HW1 4664   5.551   1.408   6.350
 1255SOL    HW2 4665   5.527   1.414   6.512
 1256SOL     OW 4666   6.731   6.651   2.900
 1256SOL    HW1 4667   6.691   6.743   2.903
 1256SOL    HW2 4668   6.700   6.599   2.979
 1257SOL     OW 4669   6.615   5.893   5.177
 1257SOL    HW1 4670   6.713   5.913   5.175
 1257SOL    HW2 4671   6.602   5.795   5.190
 1258SOL     OW 4672   1.721   4.787   3.315
 1258SOL    HW1 4673   1.650   4.856   3.325
 1258SOL    HW2 4674   1.765   4.796   3.226
 1259SOL     OW 4675   3.613   0.805   4.200
 1259SOL    HW1 4676   3.600   0.731   4.134
 1259SOL    HW2 4677   3.544   0.876   4.185
 1260SOL     OW 4678   2.323   1.932   0.229
 1260SOL    HW1 4679   2.393   1.979   0.175
 1260SOL    HW2 4680   2.235   1.979   0.219
 1261SOL     OW 4681   0.103   6.172   6.877
 1261SOL    HW1 4682   0.141   6.080   6.875
 1261SOL    HW2 4683   0.177   6.239   6.877
 1262SOL     OW 4684   5.787   4.642   1.270
 1262SOL    HW1 4685   5.883   4.641   1.297
 1262SOL    HW2 4686   5.739   4.565   1.312
 1263SOL     OW 4687   6.822   2.579   1.889
 1263SOL    HW1 4688   6.725   2.599   1.902
 1263SOL    HW2 4689   6.837   2.544   1.797
 1264SOL     OW 4690   0.239   4.571   1.286
 1264SOL    HW1 4691   0.202   4.521   1.208
 1264SOL    HW2 4692   0.252   4.508   1.363
 1265SOL     OW 4693   5.482   5.393   4.405
 1265SOL    HW1 4694   5.410   5.381   4.336
 1265SOL    HW2 4695   5.488   5.310   4.461
 1266SOL     OW 4696   0.584   1.805   4.137
 1266SOL    HW1 4697   0.630   1.767   4.057
 1266SOL    HW2 4698   0.538   1.731   4.187
 1267SOL     OW 4699   4.686   0.131   1.022
 1267SOL    HW1 4700   4.672   0.166   1.114
 1267SOL    HW2 4701   4.763   0.067   1.022
 1268SOL     OW 4702   2.756   2.326   0.740
 1268SOL    HW1 4703   2.830   2.263   0.716
 1268SOL    HW2 4704   2.669   2.287   0.711
 1269SOL     OW 4705   5.960   4.205   5.310
 1269SOL    HW1 4706   5.885   4.227   5.247
 1269SOL    HW2 4707   6.011   4.126   5.274
 1270SOL     OW 4708   1.321   3.010   3.482
 1270SOL    HW1 4709   1.262   2.930   3.493
 1270SOL    HW2 4710   1.417   2.982   3.489
 1271SOL     OW 4711   2.691   2.026   3.589
 1271SOL    HW1 4712   2.782   2.056   3.560
 1271SOL    HW2 4713   2.626   2.102   3.581
 1272SOL     OW 4714   5.806   4.546   6.899
 1272SOL    HW1 4715   5.885   4.508   6.852
 1272SOL    HW2 4716   5.731   4.558   6.834
 1273SOL     OW 4717   0.539   2.970   0.116
 1273SOL    HW1 4718   0.549   2.881   0.162
 1273SOL    HW2 4719   0.625   3.021   0.123
 1274SOL     OW 4720   6.702   4.483   1.648
 1274SOL    HW1 4721   6.651   4.399   1.632
 1274SOL    HW2 4722   6.675   4.522   1.736
 1275SOL     OW 4723   3.581   1.513   4.205
 1275SOL    HW1 4724   3.572   1.613   4.207
 1275SOL    HW2 4725   3.630   1.486   4.122
 1276SOL     OW 4726   6.360   5.916   5.322
 1276SOL    HW1 4727   6.428   5.945   5.389
 1276SOL    HW2 4728   6.397   5.840   5.268
 1277SOL     OW 4729   1.300   5.573   5.841
 1277SOL    HW1 4730   1.367   5.571   5.766
 1277SOL    HW2 4731   1.300   5.664   5.883
 1278SOL     OW 4732   0.848   6.569   4.709
 1278SOL    HW1 4733   0.792   6.543   4.788
 1278SOL    HW2 4734   0.890   6.487   4.670
 1279SOL     OW 4735   2.106   5.319   0.504
 1279SOL    HW1 4736   2.040   5.248   0.481
 1279SOL    HW2 4737   2.147   5.355   0.421
 1280SOL     OW 4738   3.873   6.186   4.198
 1280SOL    HW1 4739   3.871   6.185   4.098
 1280SOL    HW2 4740   3.914   6.101   4.231
 1281SOL     OW 4741   2.246   6.315   3.175
 1281SOL    HW1 4742   2.251   6.260   3.258
 1281SOL    HW2 4743   2.334   6.358   3.158
 1282SOL     OW 4744   6.558   2.503   0.296
 1282SOL    HW1 4745   6.587   2.581   0.351
 1282SOL    HW2 4746   6.629   2.481   0.229
 1283SOL     OW 4747   6.779   3.507   5.758
 1283SOL    HW1 4748   6.875   3.525   5.779
 1283SOL    HW2 4749   6.726   3.504   5.843
 1284SOL     OW 4750   4.980   2.209   1.404
 1284SOL    HW1 4751   4.948   2.258   1.324
 1284SOL    HW2 4752   4.937   2.247   1.486
 1285SOL     OW 4753   4.397   1.835   5.932
 1285SOL    HW1 4754   4.381   1.921   5.884
 1285SOL    HW2 4755   4.353   1.760   5.881
 1286SOL     OW 4756   4.129   3.874   1.812
 1286SOL    HW1 4757   4.115   3.883   1.911
 1286SOL    HW2 4758   4.192   3.799   1.794
 1287SOL     OW 4759   5.949   5.060   4.991
 1287SOL    HW1 4760   6.017   4.998   5.030
 1287SOL    HW2 4761   5.919   5.124   5.061
 1288SOL     OW 4762   3.870   3.320   6.953
 1288SOL    HW1 4763   3.832   3.281   0.012
 1288SOL    HW2 4764   3.966   3.345   6.969
 1289SOL     OW 4765   6.543   6.863   1.262
 1289SOL    HW1 4766   6.444   6.871   1.266
 1289SOL    HW2 4767   6.574   6.868   1.167
 1290SOL     OW 4768   0.700   6.498   0.182
 1290SOL    HW1 4769   0.779   6.437   0.178
 1290SOL    HW2 4770   0.665   6.512   0.089
 1291SOL     OW 4771   0.200   4.237   4.627
 1291SOL    HW1 4772   0.102   4.237   4.609
 1291SOL    HW2 4773   0.246   4.175   4.564
 1292SOL     OW 4774   0.628   5.726   2.441
 1292SOL    HW1 4775   0.593   5.819   2.453
 1292SOL    HW2 4776   0.697   5.726   2.369
 1293SOL     OW 4777   1.213   1.851   0.323
 1293SOL    HW1 4778   1.240   1.765   0.365
 1293SOL    HW2 4779   1.170   1.910   0.390
 1294SOL     OW 4780   0.473   3.756   6.424
 1294SOL    HW1 4781   0.546   3.698   6.460
 1294SOL    HW2 4782   0.399   3.763   6.492
 1295SOL     OW 4783   0.588   3.912   1.470
 1295SOL    HW1 4784   0.681   3.928   1.505
 1295SOL    HW2 4785   0.525   3.975   1.515
 1296SOL     OW 4786   3.939   6.576   5.553
 1296SOL    HW1 4787   4.012   6.635   5.587
 1296SOL    HW2 4788   3.968   6.480   5.559
 1297SOL     OW 4789   6.803   0.308   1.349
 1297SOL    HW1 4790   6.859   0.271   1.424
 1297SOL    HW2 4791   6.748   0.235   1.310
 1298SOL     OW 4792   5.750   5.278   3.382
 1298SOL    HW1 4793   5.779   5.217   3.456
 1298SOL    HW2 4794   5.703   5.358   3.420
 1299SOL     OW 4795   2.079   3.171   3.271
 1299SOL    HW1 4796   2.100   3.108   3.196
 1299SOL    HW2 4797   1.981   3.165   3.292
 1300SOL     OW 4798   1.993   3.002   0.774
 1300SOL    HW1 4799   2.041   2.947   0.705
 1300SOL    HW2 4800   2.051   3.010   0.856
 1301SOL     OW 4801   0.217   6.742   1.132
 1301SOL    HW1 4802   0.230   6.821   1.073
 1301SOL    HW2 4803   0.255   6.761   1.222
 1302SOL     OW 4804   4.364   0.571   5.819
 1302SOL    HW1 4805   4.401   0.517   5.744
 1302SOL    HW2 4806   4.437   0.591   5.885
 1303SOL     OW 4807   3.843   2.021   1.550
 1303SOL    HW1 4808   3.744   2.024   1.546
 1303SOL    HW2 4809   3.875   2.069   1.632
 1304SOL     OW 4810   2.192   0.724   6.941
 1304SOL    HW1 4811   2.291   0.731   6.947
 1304SOL    HW2 4812   2.166   0.628   6.929
 1305SOL     OW 4813   5.524   3.619   1.264
 1305SOL    HW1 4814   5.592   3.659   1.326
 1305SOL    HW2 4815   5.544   3.521   1.253
 1306SOL     OW 4816   1.147   5.761   3.816
 1306SOL    HW1 4817   1.098   5.845   3.839
 1306SOL    HW2 4818   1.138   5.695   3.890
 1307SOL     OW 4819   1.688   3.930   3.989
 1307SOL    HW1 4820   1.719   4.018   4.025
 1307SOL    HW2 4821   1.604   3.902   4.036
 1308SOL     OW 4822   6.364   0.367   5.263
 1308SOL    HW1 4823   6.309   0.451   5.262
 1308SOL    HW2 4824   6.438   0.377   5.329
 1309SOL     OW 4825   5.833   5.131   5.435
 1309SOL    HW1 4826   5.800   5.224   5.445
 1309SOL    HW2 4827   5.907   5.114   5.500
 1310SOL     OW 4828   6.336   4.084   4.133
 1310SOL    HW1 4829   6.312   3.997   4.090
 1310SOL    HW2 4830   6.387   4.067   4.217
 1311SOL     OW 4831   0.339   5.893   5.659
 1311SOL    HW1 4832   0.386   5.871   5.745
 1311SOL    HW2 4833   0.306   5.987   5.663
 1312SOL     OW 4834   1.204   6.684   6.786
 1312SOL    HW1 4835   1.208   6.784   6.794
 1312SOL    HW2 4836   1.159   6.646   6.867
 1313SOL     OW 4837   0.564   4.946   3.062
 1313SOL    HW1 4838   0.641   4.979   3.116
 1313SOL    HW2 4839   0.579   4.850   3.038
 1314SOL     OW 4840   4.474   1.275   5.451
 1314SOL    HW1 4841   4.534   1.220   5.509
 1314SOL    HW2 4842   4.380   1.269   5.485
 1315SOL     OW 4843   0.199   1.666   2.621
 1315SOL    HW1 4844   0.130   1.731   2.652
 1315SOL    HW2 4845   0.209   1.593   2.690
 1316SOL     OW 4846   3.092   6.609   6.304
 1316SOL    HW1 4847   3.111   6.554   6.223
 1316SOL    HW2 4848   2.995   6.635   6.304
 1317SOL     OW 4849   2.086   4.324   5.940
 1317SOL    HW1 4850   2.093   4.416   5.979
 1317SOL    HW2 4851   2.149   4.316   5.863
 1318SOL     OW 4852   0.908   2.299   1.088
 1318SOL    HW1 4853   0.997   2.291   1.043
 1318SOL    HW2 4854   0.895   2.223   1.151
 1319SOL     OW 4855   6.693   6.496   7.003
 1319SOL    HW1 4856   6.760   6.422   7.005
 1319SOL    HW2 4857   6.658   6.512   0.071
 1320SOL     OW 4858   3.860   4.697   6.748
 1320SOL    HW1 4859   3.760   4.704   6.749
 1320SOL    HW2 4860   3.891   4.652   6.832
 1321SOL     OW 4861   5.721   2.342   6.236
 1321SOL    HW1 4862   5.765   2.252   6.236
 1321SOL    HW2 4863   5.755   2.396   6.314
 1322SOL     OW 4864   3.311   1.521   3.544
 1322SOL    HW1 4865   3.294   1.495   3.639
 1322SOL    HW2 4866   3.410   1.520   3.526
 1323SOL     OW 4867   4.448   7.006   6.159
 1323SOL    HW1 4868   4.406   6.926   6.202
 1323SOL    HW2 4869   4.449   6.994   6.060
 1324SOL     OW 4870   0.547   3.637   6.927
 1324SOL    HW1 4871   0.612   3.708   6.900
 1324SOL    HW2 4872   0.456   3.677   6.934
 1325SOL     OW 4873   2.625   7.009   3.861
 1325SOL    HW1 4874   2.564   0.038   3.920
 1325SOL    HW2 4875   2.622   0.022   3.768
 1326SOL     OW 4876   4.696   3.543   5.496
 1326SOL    HW1 4877   4.691   3.520   5.593
 1326SOL    HW2 4878   4.613   3.592   5.469
 1327SOL     OW 4879   0.977   5.909   1.492
 1327SOL    HW1 4880   0.984   6.009   1.495
 1327SOL    HW2 4881   1.069   5.869   1.485
 1328SOL     OW 4882   2.182   3.327   1.436
 1328SOL    HW1 4883   2.239   3.392   1.485
 1328SOL    HW2 4884   2.105   3.376   1.395
 1329SOL     OW 4885   0.679   2.244   1.860
 1329SOL    HW1 4886   0.615   2.313   1.895
 1329SOL    HW2 4887   0.773   2.271   1.881
 1330SOL     OW 4888   0.926   0.951   2.101
 1330SOL    HW1 4889   0.828   0.970   2.105
 1330SOL    HW2 4890   0.974   1.032   2.069
 1331SOL     OW 4891   4.968   3.390   3.046
 1331SOL    HW1 4892   5.017   3.320   3.097
 1331SOL    HW2 4893   4.916   3.347   2.972
 1332SOL     OW 4894   2.791   0.019   6.989
 1332SOL    HW1 4895   2.759   0.113   6.999
 1332SOL    HW2 4896   2.754   7.004   6.905
 1333SOL     OW 4897   3.373   3.232   3.867
 1333SOL    HW1 4898   3.331   3.168   3.931
 1333SOL    HW2 4899   3.359   3.326   3.900
 1334SOL     OW 4900   6.084   1.690   4.067
 1334SOL    HW1 4901   5.996   1.656   4.101
 1334SOL    HW2 4902   6.142   1.715   4.144
 1335SOL     OW 4903   2.185   1.797   2.544
 1335SOL    HW1 4904   2.156   1.885   2.508
 1335SOL    HW2 4905   2.153   1.724   2.483
 1336SOL     OW 4906   2.400   2.408   5.339
 1336SOL    HW1 4907   2.418   2.311   5.324
 1336SOL    HW2 4908   2.365   2.449   5.254
 1337SOL     OW 4909   1.796   1.912   4.017
 1337SOL    HW1 4910   1.792   1.881   3.922
 1337SOL    HW2 4911   1.878   1.875   4.061
 1338SOL     OW 4912   5.671   2.432   5.212
 1338SOL    HW1 4913   5.609   2.463   5.284
 1338SOL    HW2 4914   5.636   2.460   5.123
 1339SOL     OW 4915   6.276   2.271   6.699
 1339SOL    HW1 4916   6.353   2.327   6.727
 1339SOL    HW2 4917   6.198   2.287   6.760
 1340SOL     OW 4918   6.147   2.250   3.186
 1340SOL    HW1 4919   6.215   2.315   3.154
 1340SOL    HW2 4920   6.125   2.187   3.112
 1341SOL     OW 4921   5.516   6.842   6.651
 1341SOL    HW1 4922   5.564   6.877   6.731
 1341SOL    HW2 4923   5.551   6.886   6.569
 1342SOL     OW 4924   3.087   6.250   5.905
 1342SOL    HW1 4925   3.138   6.177   5.860
 1342SOL    HW2 4926   3.011   6.211   5.958
 1343SOL     OW 4927   5.463   5.703   2.331
 1343SOL    HW1 4928   5.436   5.754   2.249
 1343SOL    HW2 4929   5.411   5.736   2.410
 1344SOL     OW 4930   0.065   5.977   4.600
 1344SOL    HW1 4931   0.089   6.071   4.625
 1344SOL    HW2 4932   6.994   5.974   4.570
 1345SOL     OW 4933   1.252   6.829   3.424
 1345SOL    HW1 4934   1.316   6.754   3.409
 1345SOL    HW2 4935   1.227   6.833   3.521
 1346SOL     OW 4936   0.911   5.113   4.539
 1346SOL    HW1 4937   0.953   5.047   4.601
 1346SOL    HW2 4938   0.853   5.176   4.591
 1347SOL     OW 4939   0.145   6.699   5.675
 1347SOL    HW1 4940   0.102   6.774   5.724
 1347SOL    HW2 4941   0.244   6.700   5.691
 1348SOL     OW 4942   5.916   6.184   3.822
 1348SOL    HW1 4943   5.843   6.141   3.768
 1348SOL    HW2 4944   5.979   6.114   3.854
 1349SOL     OW 4945   4.668   2.509   5.585
 1349SOL    HW1 4946   4.697   2.485   5.492
 1349SOL    HW2 4947   4.612   2.592   5.581
 1350SOL     OW 4948   5.378   5.389   5.501
 1350SOL    HW1 4949   5.421   5.311   5.546
 1350SOL    HW2 4950   5.437   5.470   5.511
 1351SOL     OW 4951   5.575   1.965   2.878
 1351SOL    HW1 4952   5.629   2.049   2.876
 1351SOL    HW2 4953   5.516   1.961   2.798
 1352SOL     OW 4954   0.038   6.371   2.730
 1352SOL    HW1 4955   6.966   6.394   2.718
 1352SOL    HW2 4956   0.095   6.443   2.691
 1353SOL     OW 4957   7.003   2.262   0.707
 1353SOL    HW1 4958   6.951   2.307   0.635
 1353SOL    HW2 4959   7.015   2.325   0.784
 1354SOL     OW 4960   0.933   4.148   1.621
 1354SOL    HW1 4961   1.003   4.216   1.605
 1354SOL    HW2 4962   0.936   4.117   1.716
 1355SOL     OW 4963   5.938   2.569   3.790
 1355SOL    HW1 4964   5.925   2.493   3.854
 1355SOL    HW2 4965   5.868   2.638   3.805
 1356SOL     OW 4966   3.611   3.237   2.369
 1356SOL    HW1 4967   3.638   3.313   2.310
 1356SOL    HW2 4968   3.676   3.228   2.444
 1357SOL     OW 4969   0.620   3.302   6.138
 1357SOL    HW1 4970   0.571   3.293   6.225
 1357SOL    HW2 4971   0.646   3.398   6.124
 1358SOL     OW 4972   4.027   6.484   6.275
 1358SOL    HW1 4973   4.060   6.579   6.278
 1358SOL    HW2 4974   3.958   6.471   6.346
 1359SOL     OW 4975   5.956   5.243   2.159
 1359SOL    HW1 4976   5.997   5.328   2.192
 1359SOL    HW2 4977   5.886   5.212   2.223
 1360SOL     OW 4978   2.929   3.076   0.166
 1360SOL    HW1 4979   2.853   3.140   0.181
 1360SOL    HW2 4980   2.986   3.109   0.091
 1361SOL     OW 4981   6.506   5.306   5.690
 1361SOL    HW1 4982   6.451   5.322   5.772
 1361SOL    HW2 4983   6.506   5.389   5.633
 1362SOL     OW 4984   3.149   4.033   3.453
 1362SOL    HW1 4985   3.126   4.130   3.463
 1362SOL    HW2 4986   3.156   4.011   3.356
 1363SOL     OW 4987   0.043   5.217   3.059
 1363SOL    HW1 4988   0.112   5.145   3.064
 1363SOL    HW2 4989   0.040   5.254   2.966
 1364SOL     OW 4990   6.408   3.891   1.149
 1364SOL    HW1 4991   6.473   3.859   1.219
 1364SOL    HW2 4992   6.440   3.977   1.111
 1365SOL     OW 4993   0.525   3.785   6.166
 1365SOL    HW1 4994   0.476   3.813   6.249
 1365SOL    HW2 4995   0.619   3.818   6.169
 1366SOL     OW 4996   1.026   4.912   0.188
 1366SOL    HW1 4997   0.971   4.974   0.133
 1366SOL    HW2 4998   1.113   4.896   0.142
 1367SOL     OW 4999   1.841   0.255   3.270
 1367SOL    HW1 5000   1.845   0.163   3.231
 1367SOL    HW2 5001   1.818   0.321   3.199
 1368SOL     OW 5002   5.773   0.710   3.297
 1368SOL    HW1 5003   5.712   0.789   3.301
 1368SOL    HW2 5004   5.822   0.710   3.211
 1369SOL     OW 5005   2.453   6.673   1.370
 1369SOL    HW1 5006   2.425   6.710   1.458
 1369SOL    HW2 5007   2.542   6.709   1.345
 1370SOL     OW 5008   3.755   0.576   0.862
 1370SOL    HW1 5009   3.831   0.530   0.908
 1370SOL    HW2 5010   3.750   0.546   0.767
 1371SOL     OW 5011   6.006   1.907   4.402
 1371SOL    HW1 5012   6.087   1.893   4.345
 1371SOL    HW2 5013   5.951   1.824   4.404
 1372SOL     OW 5014   1.612   2.954   0.294
 1372SOL    HW1 5015   1.580   3.047   0.283
 1372SOL    HW2 5016   1.622   2.911   0.204
 1373SOL     OW 5017   5.752   3.229   0.362
 1373SOL    HW1 5018   5.766   3.237   0.461
 1373SOL    HW2 5019   5.811   3.156   0.326
 1374SOL     OW 5020   4.869   2.107   0.162
 1374SOL    HW1 5021   4.837   2.045   0.234
 1374SOL    HW2 5022   4.944   2.063   0.112
 1375SOL     OW 5023   0.178   3.718   6.242
 1375SOL    HW1 5024   0.207   3.696   6.149
 1375SOL    HW2 5025   0.213   3.648   6.305
 1376SOL     OW 5026   4.610   4.394   4.658
 1376SOL    HW1 5027   4.608   4.390   4.758
 1376SOL    HW2 5028   4.679   4.331   4.624
 1377SOL     OW 5029   6.360   4.222   6.281
 1377SOL    HW1 5030   6.458   4.205   6.280
 1377SOL    HW2 5031   6.337   4.295   6.217
 1378SOL     OW 5032   6.270   0.829   4.505
 1378SOL    HW1 5033   6.195   0.819   4.570
 1378SOL    HW2 5034   6.351   0.863   4.553
 1379SOL     OW 5035   3.267   6.659   2.865
 1379SOL    HW1 5036   3.222   6.696   2.784
 1379SOL    HW2 5037   3.355   6.619   2.839
 1380SOL     OW 5038   0.289   0.239   2.738
 1380SOL    HW1 5039   0.328   0.200   2.822
 1380SOL    HW2 5040   0.349   0.312   2.705
 1381SOL     OW 5041   6.020   2.189   0.295
 1381SOL    HW1 5042   6.009   2.184   0.195
 1381SOL    HW2 5043   6.092   2.125   0.323
 1382SOL     OW 5044   4.630   4.637   0.639
 1382SOL    HW1 5045   4.639   4.581   0.556
 1382SOL    HW2 5046   4.660   4.730   0.618
 1383SOL     OW 5047   0.986   6.946   1.278
 1383SOL    HW1 5048   1.057   6.876   1.267
 1383SOL    HW2 5049   0.910   6.910   1.330
 1384SOL     OW 5050   3.918   0.404   2.341
 1384SOL    HW1 5051   3.991   0.464   2.375
 1384SOL    HW2 5052   3.841   0.407   2.405
 1385SOL     OW 5053   1.021   3.407   3.529
 1385SOL    HW1 5054   0.951   3.476   3.509
 1385SOL    HW2 5055   1.039   3.406   3.628
 1386SOL     OW 5056   2.773   1.445   4.713
 1386SOL    HW1 5057   2.842   1.393   4.663
 1386SOL    HW2 5058   2.815   1.527   4.752
 1387SOL     OW 5059   4.153   6.467   2.828
 1387SOL    HW1 5060   4.198   6.382   2.800
 1387SOL    HW2 5061   4.152   6.530   2.750
 1388SOL     OW 5062   0.143   6.521   3.234
 1388SOL    HW1 5063   0.242   6.532   3.230
 1388SOL    HW2 5064   0.119   6.425   3.220
 1389SOL     OW 5065   0.379   0.922   4.082
 1389SOL    HW1 5066   0.370   1.022   4.091
 1389SOL    HW2 5067   0.291   0.883   4.056
 1390SOL     OW 5068   4.709   2.294   6.182
 1390SOL    HW1 5069   4.804   2.324   6.191
 1390SOL    HW2 5070   4.648   2.372   6.202
 1391SOL     OW 5071   6.483   0.822   5.103
 1391SOL    HW1 5072   6.405   0.843   5.045
 1391SOL    HW2 5073   6.521   0.907   5.140
 1392SOL     OW 5074   5.507   6.350   6.376
 1392SOL    HW1 5075   5.479   6.416   6.307
 1392SOL    HW2 5076   5.486   6.385   6.467
 1393SOL     OW 5077   6.223   3.716   6.188
 1393SOL    HW1 5078   6.243   3.632   6.238
 1393SOL    HW2 5079   6.308   3.757   6.155
 1394SOL     OW 5080   4.231   6.458   3.646
 1394SOL    HW1 5081   4.233   6.378   3.586
 1394SOL    HW2 5082   4.137   6.480   3.670
 1395SOL     OW 5083   1.453   4.067   3.717
 1395SOL    HW1 5084   1.502   3.982   3.737
 1395SOL    HW2 5085   1.471   4.095   3.623
 1396SOL     OW 5086   1.417   0.229   3.879
 1396SOL    HW1 5087   1.434   0.317   3.835
 1396SOL    HW2 5088   1.319   0.207   3.872
 1397SOL     OW 5089   0.540   5.905   4.322
 1397SOL    HW1 5090   0.546   5.808   4.347
 1397SOL    HW2 5091   0.471   5.917   4.250
 1398SOL     OW 5092   1.197   1.524   6.489
 1398SOL    HW1 5093   1.178   1.479   6.402
 1398SOL    HW2 5094   1.238   1.458   6.552
 1399SOL     OW 5095   4.214   0.532   6.987
 1399SOL    HW1 5096   4.251   0.514   0.054
 1399SOL    HW2 5097   4.114   0.534   6.990
 1400SOL     OW 5098   6.785   2.106   4.404
 1400SOL    HW1 5099   6.815   2.015   4.434
 1400SOL    HW2 5100   6.688   2.117   4.423
 1401SOL     OW 5101   6.167   6.502   4.577
 1401SOL    HW1 5102   6.152   6.484   4.674
 1401SOL    HW2 5103   6.158   6.601   4.559
 1402SOL     OW 5104   5.691   4.001   6.897
 1402SOL    HW1 5105   5.714   3.904   6.904
 1402SOL    HW2 5106   5.645   4.019   6.810
 1403SOL     OW 5107   2.154   2.097   1.019
 1403SOL    HW1 5108   2.162   2.068   1.114
 1403SOL    HW2 5109   2.232   2.155   0.994
 1404SOL     OW 5110   5.748   6.930   0.145
 1404SOL    HW1 5111   5.807   6.990   0.092
 1404SOL    HW2 5112   5.667   6.980   0.175
 1405SOL     OW 5113   2.720   3.249   0.279
 1405SOL    HW1 5114   2.628   3.274   0.248
 1405SOL    HW2 5115   2.763   3.329   0.321
 1406SOL     OW 5116   2.256   4.878   0.815
 1406SOL    HW1 5117   2.236   4.961   0.866
 1406SOL    HW2 5118   2.331   4.896   0.750
 1407SOL     OW 5119   1.747   3.656   3.538
 1407SOL    HW1 5120   1.798   3.570   3.550
 1407SOL    HW2 5121   1.665   3.638   3.484
 1408SOL     OW 5122   5.330   6.694   6.863
 1408SOL    HW1 5123   5.413   6.734   6.825
 1408SOL    HW2 5124   5.354   6.617   6.922
 1409SOL     OW 5125   7.023   1.110   4.850
 1409SOL    HW1 5126   0.063   1.051   4.801
 1409SOL    HW2 5127   6.942   1.057   4.874
 1410SOL     OW 5128   3.267   3.986   0.385
 1410SOL    HW1 5129   3.335   3.948   0.447
 1410SOL    HW2 5130   3.211   3.913   0.347
 1411SOL     OW 5131   3.752   6.024   6.151
 1411SOL    HW1 5132   3.746   6.112   6.104
 1411SOL    HW2 5133   3.789   6.038   6.243
 1412SOL     OW 5134   0.592   4.396   1.705
 1412SOL    HW1 5135   0.575   4.328   1.635
 1412SOL    HW2 5136   0.673   4.450   1.682
 1413SOL     OW 5137   1.354   1.765   4.377
 1413SOL    HW1 5138   1.432   1.811   4.334
 1413SOL    HW2 5139   1.318   1.696   4.315
 1414SOL     OW 5140   1.722   2.490   1.923
 1414SOL    HW1 5141   1.723   2.481   1.823
 1414SOL    HW2 5142   1.809   2.528   1.953
 1415SOL     OW 5143   3.214   1.914   4.094
 1415SOL    HW1 5144   3.301   1.944   4.055
 1415SOL    HW2 5145   3.162   1.863   4.025
 1416SOL     OW 5146   3.869   0.722   4.388
 1416SOL    HW1 5147   3.965   0.706   4.409
 1416SOL    HW2 5148   3.855   0.818   4.363
 1417SOL     OW 5149   3.416   2.752   6.205
 1417SOL    HW1 5150   3.426   2.750   6.105
 1417SOL    HW2 5151   3.321   2.734   6.230
 1418SOL     OW 5152   3.066   3.523   0.165
 1418SOL    HW1 5153   3.147   3.473   0.194
 1418SOL    HW2 5154   3.042   3.497   0.072
 1419SOL     OW 5155   2.121   5.488   4.247
 1419SOL    HW1 5156   2.140   5.403   4.298
 1419SOL    HW2 5157   2.076   5.465   4.161
 1420SOL     OW 5158   3.406   5.391   2.516
 1420SOL    HW1 5159   3.312   5.386   2.550
 1420SOL    HW2 5160   3.405   5.425   2.421
 1421SOL     OW 5161   1.254   3.963   3.914
 1421SOL    HW1 5162   1.295   3.878   3.946
 1421SOL    HW2 5163   1.323   4.018   3.866
 1422SOL     OW 5164   3.364   4.554   5.936
 1422SOL    HW1 5165   3.375   4.534   6.033
 1422SOL    HW2 5166   3.276   4.517   5.905
 1423SOL     OW 5167   3.650   1.389   5.124
 1423SOL    HW1 5168   3.665   1.485   5.100
 1423SOL    HW2 5169   3.552   1.370   5.127
 1424SOL     OW 5170   6.530   3.748   7.017
 1424SOL    HW1 5171   6.439   3.755   6.976
 1424SOL    HW2 5172   6.561   3.653   7.014
 1425SOL     OW 5173   2.309   5.839   5.317
 1425SOL    HW1 5174   2.356   5.762   5.359
 1425SOL    HW2 5175   2.366   5.877   5.244
 1426SOL     OW 5176   1.886   1.568   6.296
 1426SOL    HW1 5177   1.788   1.582   6.309
 1426SOL    HW2 5178   1.928   1.655   6.270
 1427SOL     OW 5179   0.090   0.555   3.898
 1427SOL    HW1 5180   0.088   0.534   3.996
 1427SOL    HW2 5181   0.015   0.618   3.876
 1428SOL     OW 5182   7.019   1.886   2.099
 1428SOL    HW1 5183   0.046   1.862   2.181
 1428SOL    HW2 5184   0.052   1.938   2.037
 1429SOL     OW 5185   5.967   1.637   6.813
 1429SOL    HW1 5186   5.882   1.588   6.792
 1429SOL    HW2 5187   6.021   1.583   6.878
 1430SOL     OW 5188   2.011   3.962   4.187
 1430SOL    HW1 5189   2.029   3.923   4.097
 1430SOL    HW2 5190   2.072   4.040   4.202
 1431SOL     OW 5191   2.480   2.491   6.659
 1431SOL    HW1 5192   2.539   2.513   6.581
 1431SOL    HW2 5193   2.398   2.443   6.627
 1432SOL     OW 5194   2.187   1.233   1.625
 1432SOL    HW1 5195   2.187   1.318   1.679
 1432SOL    HW2 5196   2.144   1.250   1.537
 1433SOL     OW 5197   4.160   6.637   3.940
 1433SOL    HW1 5198   4.225   6.561   3.933
 1433SOL    HW2 5199   4.098   6.621   4.017
 1434SOL     OW 5200   6.703   1.285   6.579
 1434SOL    HW1 5201   6.633   1.277   6.509
 1434SOL    HW2 5202   6.793   1.291   6.537
 1435SOL     OW 5203   6.658   0.993   3.667
 1435SOL    HW1 5204   6.624   0.918   3.723
 1435SOL    HW2 5205   6.614   0.990   3.577
 1436SOL     OW 5206   5.892   3.868   0.152
 1436SOL    HW1 5207   5.966   3.878   0.219
 1436SOL    HW2 5208   5.874   3.956   0.108
 1437SOL     OW 5209   3.233   0.570   5.617
 1437SOL    HW1 5210   3.221   0.584   5.519
 1437SOL    HW2 5211   3.302   0.634   5.651
 1438SOL     OW 5212   2.939   0.632   1.568
 1438SOL    HW1 5213   2.910   0.723   1.598
 1438SOL    HW2 5214   2.981   0.584   1.645
 1439SOL     OW 5215   0.826   5.145   0.921
 1439SOL    HW1 5216   0.795   5.230   0.880
 1439SOL    HW2 5217   0.916   5.157   0.961
 1440SOL     OW 5218   3.717   3.456   5.026
 1440SOL    HW1 5219   3.704   3.457   5.125
 1440SOL    HW2 5220   3.792   3.394   5.003
 1441SOL     OW 5221   6.575   3.839   4.179
 1441SOL    HW1 5222   6.503   3.882   4.124
 1441SOL    HW2 5223   6.648   3.806   4.119
 1442SOL     OW 5224   6.699   4.681   0.387
 1442SOL    HW1 5225   6.734   4.617   0.320
 1442SOL    HW2 5226   6.600   4.670   0.395
 1443SOL     OW 5227   0.853   2.205   4.607
 1443SOL    HW1 5228   0.914   2.126   4.614
 1443SOL    HW2 5229   0.859   2.243   4.515
 1444SOL     OW 5230   4.420   6.470   1.978
 1444SOL    HW1 5231   4.395   6.499   1.885
 1444SOL    HW2 5232   4.397   6.542   2.043
 1445SOL     OW 5233   0.403   2.503   2.381
 1445SOL    HW1 5234   0.378   2.478   2.288
 1445SOL    HW2 5235   0.488   2.557   2.380
 1446SOL     OW 5236   5.053   2.204   6.378
 1446SOL    HW1 5237   5.012   2.275   6.321
 1446SOL    HW2 5238   5.081   2.244   6.465
 1447SOL     OW 5239   6.577   0.192   4.528
 1447SOL    HW1 5240   6.618   0.273   4.487
 1447SOL    HW2 5241   6.616   0.177   4.619
 1448SOL     OW 5242   6.349   2.417   0.444
 1448SOL    HW1 5243   6.343   2.318   0.438
 1448SOL    HW2 5244   6.436   2.448   0.405
 1449SOL     OW 5245   6.365   0.259   6.807
 1449SOL    HW1 5246   6.336   0.342   6.854
 1449SOL    HW2 5247   6.297   0.236   6.737
 1450SOL     OW 5248   0.399   2.378   2.129
 1450SOL    HW1 5249   0.383   2.422   2.040
 1450SOL    HW2 5250   0.367   2.284   2.125
 1451SOL     OW 5251   3.185   0.510   2.093
 1451SOL    HW1 5252   3.233   0.586   2.136
 1451SOL    HW2 5253   3.172   0.529   1.995
 1452SOL     OW 5254   4.867   2.242   4.512
 1452SOL    HW1 5255   4.834   2.241   4.418
 1452SOL    HW2 5256   4.946   2.181   4.521
 1453SOL     OW 5257   6.852   3.684   5.395
 1453SOL    HW1 5258   6.936   3.634   5.374
 1453SOL    HW2 5259   6.783   3.666   5.324
 1454SOL     OW 5260   6.381   2.687   2.391
 1454SOL    HW1 5261   6.387   2.685   2.491
 1454SOL    HW2 5262   6.439   2.759   2.356
 1455SOL     OW 5263   1.864   0.271   1.940
 1455SOL    HW1 5264   1.910   0.215   1.871
 1455SOL    HW2 5265   1.915   0.357   1.951
 1456SOL     OW 5266   6.221   0.130   5.315
 1456SOL    HW1 5267   6.266   0.208   5.273
 1456SOL    HW2 5268   6.142   0.103   5.260
 1457SOL     OW 5269   1.531   0.077   1.903
 1457SOL    HW1 5270   1.558   0.159   1.953
 1457SOL    HW2 5271   1.436   0.055   1.923
 1458SOL     OW 5272   5.192   6.307   4.014
 1458SOL    HW1 5273   5.257   6.380   3.995
 1458SOL    HW2 5274   5.213   6.266   4.103
 1459SOL     OW 5275   2.881   4.513   6.329
 1459SOL    HW1 5276   2.980   4.523   6.337
 1459SOL    HW2 5277   2.850   4.555   6.243
 1460SOL     OW 5278   0.256   5.277   6.181
 1460SOL    HW1 5279   0.233   5.362   6.133
 1460SOL    HW2 5280   0.272   5.205   6.114
 1461SOL     OW 5281   0.339   4.645   3.671
 1461SOL    HW1 5282   0.407   4.625   3.741
 1461SOL    HW2 5283   0.262   4.583   3.680
 1462SOL     OW 5284   6.779   1.221   6.287
 1462SOL    HW1 5285   6.869   1.203   6.325
 1462SOL    HW2 5286   6.728   1.135   6.282
 1463SOL     OW 5287   0.091   5.922   6.494
 1463SOL    HW1 5288   0.108   5.910   6.396
 1463SOL    HW2 5289   0.174   5.903   6.545
 1464SOL     OW 5290   6.448   6.711   0.859
 1464SOL    HW1 5291   6.480   6.732   0.767
 1464SOL    HW2 5292   6.465   6.614   0.879
 1465SOL     OW 5293   1.288   1.817   2.603
 1465SOL    HW1 5294   1.227   1.872   2.660
 1465SOL    HW2 5295   1.316   1.736   2.653
 1466SOL     OW 5296   1.191   0.636   2.701
 1466SOL    HW1 5297   1.133   0.561   2.669
 1466SOL    HW2 5298   1.143   0.687   2.772
 1467SOL     OW 5299   2.377   1.393   1.982
 1467SOL    HW1 5300   2.467   1.405   2.022
 1467SOL    HW2 5301   2.312   1.367   2.053
 1468SOL     OW 5302   5.209   5.602   2.818
 1468SOL    HW1 5303   5.202   5.569   2.724
 1468SOL    HW2 5304   5.297   5.648   2.831
 1469SOL     OW 5305   1.051   0.450   2.514
 1469SOL    HW1 5306   1.139   0.430   2.472
 1469SOL    HW2 5307   0.996   0.366   2.518
 1470SOL     OW 5308   1.448   1.101   2.817
 1470SOL    HW1 5309   1.498   1.187   2.809
 1470SOL    HW2 5310   1.360   1.109   2.771
 1471SOL     OW 5311   0.511   0.686   0.880
 1471SOL    HW1 5312   0.586   0.750   0.894
 1471SOL    HW2 5313   0.424   0.731   0.899
 1472SOL     OW 5314   4.224   5.541   4.942
 1472SOL    HW1 5315   4.201   5.458   4.891
 1472SOL    HW2 5316   4.291   5.594   4.891
 1473SOL     OW 5317   5.826   5.911   4.043
 1473SOL    HW1 5318   5.762   5.839   4.018
 1473SOL    HW2 5319   5.777   5.997   4.058
 1474SOL     OW 5320   6.475   5.999   4.054
 1474SOL    HW1 5321   6.513   6.024   4.143
 1474SOL    HW2 5322   6.380   5.970   4.066
 1475SOL     OW 5323   6.355   0.060   1.486
 1475SOL    HW1 5324   6.297   0.135   1.516
 1475SOL    HW2 5325   6.323   0.027   1.397
 1476SOL     OW 5326   1.514   1.468   0.955
 1476SOL    HW1 5327   1.528   1.562   0.986
 1476SOL    HW2 5328   1.429   1.432   0.995
 1477SOL     OW 5329   2.256   0.405   6.695
 1477SOL    HW1 5330   2.268   0.503   6.678
 1477SOL    HW2 5331   2.202   0.364   6.621
 1478SOL     OW 5332   5.341   4.274   0.418
 1478SOL    HW1 5333   5.426   4.307   0.460
 1478SOL    HW2 5334   5.346   4.287   0.319
 1479SOL     OW 5335   1.675   3.567   0.117
 1479SOL    HW1 5336   1.644   3.503   0.047
 1479SOL    HW2 5337   1.766   3.541   0.148
 1480SOL     OW 5338   2.632   6.993   6.761
 1480SOL    HW1 5339   2.552   7.023   6.813
 1480SOL    HW2 5340   2.646   0.030   6.683
 1481SOL     OW 5341   0.152   2.261   5.246
 1481SOL    HW1 5342   0.239   2.235   5.289
 1481SOL    HW2 5343   0.158   2.246   5.148
 1482SOL     OW 5344   5.237   2.212   1.292
 1482SOL    HW1 5345   5.268   2.302   1.323
 1482SOL    HW2 5346   5.148   2.192   1.332
 1483SOL     OW 5347   6.892   2.578   6.344
 1483SOL    HW1 5348   6.905   2.619   6.254
 1483SOL    HW2 5349   6.830   2.500   6.336
 1484SOL     OW 5350   6.055   4.513   4.095
 1484SOL    HW1 5351   6.138   4.535   4.044
 1484SOL    HW2 5352   6.012   4.597   4.127
 1485SOL     OW 5353   3.899   2.035   2.509
 1485SOL    HW1 5354   3.956   2.000   2.434
 1485SOL    HW2 5355   3.883   1.962   2.575
 1486SOL     OW 5356   4.671   2.639   2.949
 1486SOL    HW1 5357   4.614   2.626   2.868
 1486SOL    HW2 5358   4.635   2.585   3.025
 1487SOL     OW 5359   6.592   2.631   6.952
 1487SOL    HW1 5360   6.581   2.710   7.013
 1487SOL    HW2 5361   6.680   2.637   6.905
 1488SOL     OW 5362   6.004   2.061   3.034
 1488SOL    HW1 5363   5.918   2.036   3.079
 1488SOL    HW2 5364   5.986   2.128   2.962
 1489SOL     OW 5365   4.091   5.469   4.048
 1489SOL    HW1 5366   4.031   5.519   4.111
 1489SOL    HW2 5367   4.112   5.527   3.970
 1490SOL     OW 5368   1.741   2.811   1.526
 1490SOL    HW1 5369   1.671   2.739   1.517
 1490SOL    HW2 5370   1.751   2.835   1.622
 1491SOL     OW 5371   6.107   3.473   4.008
 1491SOL    HW1 5372   6.171   3.542   4.042
 1491SOL    HW2 5373   6.017   3.486   4.050
 1492SOL     OW 5374   5.663   1.881   2.044
 1492SOL    HW1 5375   5.691   1.859   2.137
 1492SOL    HW2 5376   5.570   1.847   2.028
 1493SOL     OW 5377   5.203   6.967   4.120
 1493SOL    HW1 5378   5.116   6.974   4.071
 1493SOL    HW2 5379   5.193   7.010   4.210
 1494SOL     OW 5380   4.219   2.584   6.215
 1494SOL    HW1 5381   4.205   2.604   6.312
 1494SOL    HW2 5382   4.143   2.621   6.162
 1495SOL     OW 5383   0.410   3.121   4.382
 1495SOL    HW1 5384   0.494   3.124   4.329
 1495SOL    HW2 5385   0.409   3.037   4.437
 1496SOL     OW 5386   1.090   1.444   2.483
 1496SOL    HW1 5387   1.064   1.538   2.507
 1496SOL    HW2 5388   1.083   1.386   2.564
 1497SOL     OW 5389   0.584   3.503   2.662
 1497SOL    HW1 5390   0.636   3.494   2.747
 1497SOL    HW2 5391   0.495   3.545   2.682
 1498SOL     OW 5392   1.525   4.573   6.325
 1498SOL    HW1 5393   1.487   4.611   6.241
 1498SOL    HW2 5394   1.617   4.610   6.339
 1499SOL     OW 5395   1.317   3.523   5.509
 1499SOL    HW1 5396   1.384   3.465   5.464
 1499SOL    HW2 5397   1.225   3.490   5.488
 1500SOL     OW 5398   5.773   6.728   6.877
 1500SOL    HW1 5399   5.699   6.795   6.883
 1500SOL    HW2 5400   5.835   6.739   6.954
 1501SOL     OW 5401   4.572   1.449   6.686
 1501SOL    HW1 5402   4.671   1.432   6.693
 1501SOL    HW2 5403   4.529   1.428   6.774
 1502SOL     OW 5404   5.872   6.802   1.102
 1502SOL    HW1 5405   5.781   6.805   1.144
 1502SOL    HW2 5406   5.905   6.895   1.087
 1503SOL     OW 5407   2.627   1.076   2.262
 1503SOL    HW1 5408   2.637   1.050   2.166
 1503SOL    HW2 5409   2.582   1.001   2.312
 1504SOL     OW 5410   1.414   1.435   4.748
 1504SOL    HW1 5411   1.367   1.346   4.750
 1504SOL    HW2 5412   1.360   1.499   4.693
 1505SOL     OW 5413   5.671   0.943   6.646
 1505SOL    HW1 5414   5.639   0.925   6.553
 1505SOL    HW2 5415   5.757   0.893   6.662
 1506SOL     OW 5416   2.162   5.516   2.013
 1506SOL    HW1 5417   2.085   5.548   1.957
 1506SOL    HW2 5418   2.165   5.417   2.013
 1507SOL     OW 5419   1.085   2.226   5.754
 1507SOL    HW1 5420   0.992   2.209   5.788
 1507SOL    HW2 5421   1.083   2.305   5.692
 1508SOL     OW 5422   5.915   0.912   1.481
 1508SOL    HW1 5423   5.965   0.898   1.396
 1508SOL    HW2 5424   5.818   0.894   1.468
 1509SOL     OW 5425   4.216   2.485   6.665
 1509SOL    HW1 5426   4.290   2.493   6.732
 1509SOL    HW2 5427   4.128   2.490   6.713
 1510SOL     OW 5428   5.653   2.378   3.782
 1510SOL    HW1 5429   5.672   2.314   3.707
 1510SOL    HW2 5430   5.566   2.424   3.765
 1511SOL     OW 5431   3.152   2.676   0.946
 1511SOL    HW1 5432   3.066   2.628   0.928
 1511SOL    HW2 5433   3.154   2.706   1.042
 1512SOL     OW 5434   0.057   6.522   2.031
 1512SOL    HW1 5435   7.012   6.524   1.959
 1512SOL    HW2 5436   0.116   6.602   2.022
 1513SOL     OW 5437   4.093   0.346   3.886
 1513SOL    HW1 5438   4.177   0.368   3.935
 1513SOL    HW2 5439   4.014   0.364   3.945
 1514SOL     OW 5440   5.390   2.961   5.323
 1514SOL    HW1 5441   5.367   3.001   5.234
 1514SOL    HW2 5442   5.307   2.929   5.367
 1515SOL     OW 5443   6.442   3.421   5.532
 1515SOL    HW1 5444   6.490   3.506   5.514
 1515SOL    HW2 5445   6.371   3.436   5.601
 1516SOL     OW 5446   0.714   0.498   0.986
 1516SOL    HW1 5447   0.746   0.550   1.066
 1516SOL    HW2 5448   0.623   0.530   0.961
 1517SOL     OW 5449   4.189   5.804   3.193
 1517SOL    HW1 5450   4.182   5.813   3.093
 1517SOL    HW2 5451   4.242   5.882   3.229
 1518SOL     OW 5452   0.768   3.188   0.160
 1518SOL    HW1 5453   0.691   3.219   0.215
 1518SOL    HW2 5454   0.840   3.153   0.221
 1519SOL     OW 5455   6.734   4.722   2.027
 1519SOL    HW1 5456   6.773   4.720   2.119
 1519SOL    HW2 5457   6.782   4.656   1.969
 1520SOL     OW 5458   1.347   2.960   2.294
 1520SOL    HW1 5459   1.371   2.875   2.341
 1520SOL    HW2 5460   1.393   3.037   2.338
 1521SOL     OW 5461   2.744   3.581   6.921
 1521SOL    HW1 5462   2.649   3.573   6.890
 1521SOL    HW2 5463   2.756   3.668   6.968
 1522SOL     OW 5464   6.456   1.376   5.033
 1522SOL    HW1 5465   6.516   1.415   5.104
 1522SOL    HW2 5466   6.485   1.410   4.943
 1523SOL     OW 5467   5.122   4.065   0.321
 1523SOL    HW1 5468   5.201   4.126   0.332
 1523SOL    HW2 5469   5.067   4.096   0.244
 1524SOL     OW 5470   0.976   1.917   1.694
 1524SOL    HW1 5471   0.894   1.861   1.708
 1524SOL    HW2 5472   1.015   1.941   1.783
 1525SOL     OW 5473   5.853   2.153   6.707
 1525SOL    HW1 5474   5.835   2.060   6.739
 1525SOL    HW2 5475   5.932   2.153   6.647
 1526SOL     OW 5476   1.538   0.717   6.599
 1526SOL    HW1 5477   1.565   0.790   6.662
 1526SOL    HW2 5478   1.488   0.647   6.648
 1527SOL     OW 5479   3.573   0.667   5.512
 1527SOL    HW1 5480   3.530   0.687   5.600
 1527SOL    HW2 5481   3.672   0.666   5.523
 1528SOL     OW 5482   5.114   5.495   2.174
 1528SOL    HW1 5483   5.024   5.539   2.170
 1528SOL    HW2 5484   5.184   5.558   2.142
 1529SOL     OW 5485   4.048   1.165   0.121
 1529SOL    HW1 5486   4.131   1.109   0.129
 1529SOL    HW2 5487   3.988   1.145   0.199
 1530SOL     OW 5488   2.755   0.612   1.914
 1530SOL    HW1 5489   2.803   0.542   1.966
 1530SOL    HW2 5490   2.799   0.701   1.929
 1531SOL     OW 5491   5.887   1.576   4.470
 1531SOL    HW1 5492   5.884   1.476   4.469
 1531SOL    HW2 5493   5.954   1.607   4.538
 1532SOL     OW 5494   2.658   3.091   6.079
 1532SOL    HW1 5495   2.572   3.093   6.130
 1532SOL    HW2 5496   2.645   3.039   5.994
 1533SOL     OW 5497   0.191   3.529   6.491
 1533SOL    HW1 5498   0.159   3.608   6.542
 1533SOL    HW2 5499   0.288   3.513   6.511
 1534SOL     OW 5500   1.206   4.714   6.543
 1534SOL    HW1 5501   1.214   4.618   6.515
 1534SOL    HW2 5502   1.297   4.750   6.563
 1535SOL     OW 5503   5.226   6.176   4.280
 1535SOL    HW1 5504   5.322   6.163   4.304
 1535SOL    HW2 5505   5.172   6.097   4.311
 1536SOL     OW 5506   4.405   4.505   5.746
 1536SOL    HW1 5507   4.314   4.546   5.752
 1536SOL    HW2 5508   4.406   4.418   5.795
 1537SOL     OW 5509   4.085   5.643   2.419
 1537SOL    HW1 5510   4.014   5.574   2.432
 1537SOL    HW2 5511   4.043   5.731   2.401
 1538SOL     OW 5512   2.969   5.686   6.096
 1538SOL    HW1 5513   2.942   5.772   6.051
 1538SOL    HW2 5514   3.061   5.661   6.067
 1539SOL     OW 5515   4.203   4.442   1.414
 1539SOL    HW1 5516   4.294   4.434   1.454
 1539SOL    HW2 5517   4.211   4.446   1.314
 1540SOL     OW 5518   0.794   0.269   5.435
 1540SOL    HW1 5519   0.741   0.206   5.378
 1540SOL    HW2 5520   0.868   0.308   5.380
 1541SOL     OW 5521   3.452   3.176   1.941
 1541SOL    HW1 5522   3.435   3.273   1.960
 1541SOL    HW2 5523   3.449   3.124   2.026
 1542SOL     OW 5524   0.229   5.556   1.383
 1542SOL    HW1 5525   0.246   5.508   1.469
 1542SOL    HW2 5526   0.247   5.654   1.396
 1543SOL     OW 5527   3.034   3.323   4.011
 1543SOL    HW1 5528   2.990   3.398   3.962
 1543SOL    HW2 5529   3.064   3.356   4.101
 1544SOL     OW 5530   3.024   3.769   2.323
 1544SOL    HW1 5531   3.040   3.742   2.418
 1544SOL    HW2 5532   2.966   3.701   2.278
 1545SOL     OW 5533   5.260   1.101   4.831
 1545SOL    HW1 5534   5.339   1.055   4.790
 1545SOL    HW2 5535   5.197   1.131   4.759
 1546SOL     OW 5536   5.469   0.490   6.001
 1546SOL    HW1 5537   5.430   0.475   6.091
 1546SOL    HW2 5538   5.561   0.528   6.010
 1547SOL     OW 5539   2.584   4.714   2.659
 1547SOL    HW1 5540   2.547   4.675   2.743
 1547SOL    HW2 5541   2.677   4.746   2.675
 1548SOL     OW 5542   5.106   3.269   5.993
 1548SOL    HW1 5543   5.008   3.283   5.977
 1548SOL    HW2 5544   5.157   3.298   5.912
 1549SOL     OW 5545   5.127   1.469   2.499
 1549SOL    HW1 5546   5.132   1.532   2.577
 1549SOL    HW2 5547   5.220   1.446   2.470
 1550SOL     OW 5548   3.202   6.041   5.770
 1550SOL    HW1 5549   3.210   5.982   5.690
 1550SOL    HW2 5550   3.197   5.985   5.852
 1551SOL     OW 5551   2.317   3.119   0.639
 1551SOL    HW1 5552   2.295   3.084   0.548
 1551SOL    HW2 5553   2.312   3.044   0.705
 1552SOL     OW 5554   0.152   0.303   1.335
 1552SOL    HW1 5555   0.098   0.368   1.282
 1552SOL    HW2 5556   0.092   0.256   1.400
 1553SOL     OW 5557   6.318   1.978   6.327
 1553SOL    HW1 5558   6.293   1.914   6.400
 1553SOL    HW2 5559   6.320   1.929   6.240
 1554SOL     OW 5560   3.390   2.077   2.422
 1554SOL    HW1 5561   3.316   2.133   2.458
 1554SOL    HW2 5562   3.466   2.076   2.486
 1555SOL     OW 5563   4.848   2.222   5.861
 1555SOL    HW1 5564   4.810   2.208   5.770
 1555SOL    HW2 5565   4.774   2.243   5.925
 1556SOL     OW 5566   3.698   0.943   0.218
 1556SOL    HW1 5567   3.768   0.999   0.262
 1556SOL    HW2 5568   3.715   0.939   0.120
 1557SOL     OW 5569   2.983   1.749   0.408
 1557SOL    HW1 5570   3.036   1.740   0.324
 1557SOL    HW2 5571   3.000   1.839   0.448
 1558SOL     OW 5572   5.702   2.251   4.168
 1558SOL    HW1 5573   5.753   2.230   4.251
 1558SOL    HW2 5574   5.755   2.314   4.111
 1559SOL     OW 5575   0.134   2.592   0.730
 1559SOL    HW1 5576   0.218   2.623   0.773
 1559SOL    HW2 5577   0.151   2.573   0.634
 1560SOL     OW 5578   2.850   1.261   6.622
 1560SOL    HW1 5579   2.774   1.326   6.619
 1560SOL    HW2 5580   2.936   1.310   6.609
 1561SOL     OW 5581   5.330   5.834   3.337
 1561SOL    HW1 5582   5.343   5.836   3.238
 1561SOL    HW2 5583   5.233   5.829   3.358
 1562SOL     OW 5584   3.877   6.317   1.563
 1562SOL    HW1 5585   3.783   6.320   1.528
 1562SOL    HW2 5586   3.926   6.399   1.533
 1563SOL     OW 5587   2.263   1.961   5.968
 1563SOL    HW1 5588   2.237   1.931   5.876
 1563SOL    HW2 5589   2.316   1.889   6.012
 1564SOL     OW 5590   1.303   2.453   2.570
 1564SOL    HW1 5591   1.342   2.480   2.659
 1564SOL    HW2 5592   1.283   2.355   2.571
 1565SOL     OW 5593   3.982   5.162   4.680
 1565SOL    HW1 5594   4.070   5.192   4.718
 1565SOL    HW2 5595   3.972   5.198   4.587
 1566SOL     OW 5596   6.510   5.409   4.801
 1566SOL    HW1 5597   6.609   5.396   4.800
 1566SOL    HW2 5598   6.466   5.334   4.753
 1567SOL     OW 5599   6.381   5.923   0.395
 1567SOL    HW1 5600   6.454   5.867   0.434
 1567SOL    HW2 5601   6.292   5.881   0.413
 1568SOL     OW 5602   2.294   6.573   2.899
 1568SOL    HW1 5603   2.353   6.623   2.836
 1568SOL    HW2 5604   2.204   6.560   2.857
 1569SOL     OW 5605   3.999   6.617   3.414
 1569SOL    HW1 5606   4.025   6.690   3.350
 1569SOL    HW2 5607   3.901   6.599   3.405
 1570SOL     OW 5608   1.368   6.724   0.334
 1570SOL    HW1 5609   1.410   6.769   0.412
 1570SOL    HW2 5610   1.430   6.653   0.299
 1571SOL     OW 5611   6.822   1.651   3.098
 1571SOL    HW1 5612   6.759   1.709   3.148
 1571SOL    HW2 5613   6.777   1.612   3.018
 1572SOL     OW 5614   2.034   5.644   1.324
 1572SOL    HW1 5615   1.946   5.603   1.348
 1572SOL    HW2 5616   2.065   5.702   1.400
 1573SOL     OW 5617   6.097   5.302   1.737
 1573SOL    HW1 5618   6.036   5.378   1.714
 1573SOL    HW2 5619   6.161   5.286   1.662
 1574SOL     OW 5620   6.588   2.392   3.279
 1574SOL    HW1 5621   6.639   2.327   3.223
 1574SOL    HW2 5622   6.650   2.463   3.313
 1575SOL     OW 5623   2.500   1.138   1.883
 1575SOL    HW1 5624   2.589   1.180   1.896
 1575SOL    HW2 5625   2.428   1.199   1.917
 1576SOL     OW 5626   0.628   0.204   3.712
 1576SOL    HW1 5627   0.693   0.128   3.701
 1576SOL    HW2 5628   0.674   0.280   3.757
 1577SOL     OW 5629   2.277   0.862   5.769
 1577SOL    HW1 5630   2.224   0.799   5.825
 1577SOL    HW2 5631   2.346   0.908   5.825
 1578SOL     OW 5632   5.013   1.647   5.548
 1578SOL    HW1 5633   5.067   1.598   5.480
 1578SOL    HW2 5634   4.920   1.661   5.514
 1579SOL     OW 5635   7.000   1.618   2.357
 1579SOL    HW1 5636   0.041   1.693   2.365
 1579SOL    HW2 5637   6.943   1.614   2.439
 1580SOL     OW 5638   3.506   4.183   4.060
 1580SOL    HW1 5639   3.477   4.130   3.980
 1580SOL    HW2 5640   3.484   4.280   4.045
 1581SOL     OW 5641   6.530   4.662   5.534
 1581SOL    HW1 5642   6.622   4.701   5.540
 1581SOL    HW2 5643   6.463   4.736   5.529
 1582SOL     OW 5644   3.041   6.132   4.828
 1582SOL    HW1 5645   3.087   6.067   4.766
 1582SOL    HW2 5646   2.983   6.193   4.774
 1583SOL     OW 5647   0.470   5.773   3.501
 1583SOL    HW1 5648   0.386   5.812   3.539
 1583SOL    HW2 5649   0.549   5.817   3.544
 1584SOL     OW 5650   0.470   5.159   5.589
 1584SOL    HW1 5651   0.557   5.205   5.605
 1584SOL    HW2 5652   0.474   5.110   5.501
 1585SOL     OW 5653   4.321   2.340   2.762
 1585SOL    HW1 5654   4.222   2.344   2.748
 1585SOL    HW2 5655   4.356   2.253   2.727
 1586SOL     OW 5656   3.023   5.215   2.359
 1586SOL    HW1 5657   2.944   5.229   2.299
 1586SOL    HW2 5658   3.056   5.121   2.350
 1587SOL     OW 5659   2.562   5.551   5.156
 1587SOL    HW1 5660   2.510   5.529   5.073
 1587SOL    HW2 5661   2.647   5.598   5.131
 1588SOL     OW 5662   4.678   1.107   1.854
 1588SOL    HW1 5663   4.680   1.026   1.914
 1588SOL    HW2 5664   4.624   1.179   1.898
 1589SOL     OW 5665   0.278   3.266   2.416
 1589SOL    HW1 5666   0.229   3.201   2.474
 1589SOL    HW2 5667   0.371   3.233   2.399
 1590SOL     OW 5668   4.917   0.587   3.747
 1590SOL    HW1 5669   4.928   0.576   3.846
 1590SOL    HW2 5670   4.939   0.681   3.722
 1591SOL     OW 5671   6.961   5.889   1.300
 1591SOL    HW1 5672   6.954   5.895   1.399
 1591SOL    HW2 5673   0.028   5.919   1.271
 1592SOL     OW 5674   2.264   4.073   6.595
 1592SOL    HW1 5675   2.352   4.035   6.567
 1592SOL    HW2 5676   2.213   4.004   6.646
 1593SOL     OW 5677   0.751   6.913   5.234
 1593SOL    HW1 5678   0.836   6.943   5.190
 1593SOL    HW2 5679   0.762   6.818   5.265
 1594SOL     OW 5680   0.593   6.061   1.945
 1594SOL    HW1 5681   0.557   6.154   1.957
 1594SOL    HW2 5682   0.542   6.015   1.873
 1595SOL     OW 5683   0.917   4.860   0.895
 1595SOL    HW1 5684   0.923   4.834   0.992
 1595SOL    HW2 5685   0.877   4.952   0.888
 1596SOL     OW 5686   6.768   3.787   3.527
 1596SOL    HW1 5687   6.674   3.773   3.559
 1596SOL    HW2 5688   6.766   3.823   3.433
 1597SOL     OW 5689   1.495   6.150   1.290
 1597SOL    HW1 5690   1.417   6.101   1.329
 1597SOL    HW2 5691   1.514   6.115   1.198
 1598SOL     OW 5692   0.772   4.357   6.095
 1598SOL    HW1 5693   0.678   4.359   6.129
 1598SOL    HW2 5694   0.835   4.361   6.172
 1599SOL     OW 5695   5.259   5.369   5.078
 1599SOL    HW1 5696   5.312   5.363   4.993
 1599SOL    HW2 5697   5.226   5.277   5.103
 1600SOL     OW 5698   2.716   1.623   3.115
 1600SOL    HW1 5699   2.646   1.685   3.150
 1600SOL    HW2 5700   2.699   1.603   3.019
 1601SOL     OW 5701   6.553   0.182   3.934
 1601SOL    HW1 5702   6.583   0.260   3.988
 1601SOL    HW2 5703   6.478   0.209   3.874
 1602SOL     OW 5704   4.436   4.541   3.887
 1602SOL    HW1 5705   4.470   4.529   3.793
 1602SOL    HW2 5706   4.364   4.610   3.887
 1603SOL     OW 5707   2.480   5.639   2.937
 1603SOL    HW1 5708   2.500   5.650   3.035
 1603SOL    HW2 5709   2.564   5.649   2.885
 1604SOL     OW 5710   5.028   4.809   1.613
 1604SOL    HW1 5711   4.967   4.806   1.534
 1604SOL    HW2 5712   5.000   4.741   1.681
 1605SOL     OW 5713   6.634   5.338   2.313
 1605SOL    HW1 5714   6.646   5.423   2.262
 1605SOL    HW2 5715   6.555   5.288   2.277
 1606SOL     OW 5716   4.113   5.923   5.721
 1606SOL    HW1 5717   4.141   5.991   5.789
 1606SOL    HW2 5718   4.141   5.832   5.752
 1607SOL     OW 5719   3.867   6.934   0.581
 1607SOL    HW1 5720   3.880   6.986   0.497
 1607SOL    HW2 5721   3.777   6.954   0.620
 1608SOL     OW 5722   6.994   1.071   3.308
 1608SOL    HW1 5723   6.965   1.032   3.396
 1608SOL    HW2 5724   6.952   1.161   3.295
 1609SOL     OW 5725   3.634   6.822   0.356
 1609SOL    HW1 5726   3.660   6.725   0.360
 1609SOL    HW2 5727   3.694   6.870   0.292
 1610SOL     OW 5728   5.830   5.783   0.520
 1610SOL    HW1 5729   5.891   5.704   0.521
 1610SOL    HW2 5730   5.872   5.855   0.464
 1611SOL     OW 5731   2.644   2.888   0.344
 1611SOL    HW1 5732   2.701   2.936   0.410
 1611SOL    HW2 5733   2.578   2.831   0.393
 1612SOL     OW 5734   3.172   6.772   0.677
 1612SOL    HW1 5735   3.229   6.823   0.742
 1612SOL    HW2 5736   3.190   6.674   0.687
 1613SOL     OW 5737   1.783   5.369   2.053
 1613SOL    HW1 5738   1.824   5.458   2.036
 1613SOL    HW2 5739   1.831   5.324   2.128
 1614SOL     OW 5740   5.477   1.853   6.240
 1614SOL    HW1 5741   5.378   1.853   6.227
 1614SOL    HW2 5742   5.519   1.790   6.176
 1615SOL     OW 5743   6.326   5.749   6.984
 1615SOL    HW1 5744   6.229   5.772   6.980
 1615SOL    HW2 5745   6.368   5.796   0.038
 1616SOL     OW 5746   3.671   0.900   4.517
 1616SOL    HW1 5747   3.612   0.834   4.470
 1616SOL    HW2 5748   3.715   0.959   4.449
 1617SOL     OW 5749   5.374   6.141   3.235
 1617SOL    HW1 5750   5.366   6.137   3.335
 1617SOL    HW2 5751   5.432   6.066   3.203
 1618SOL     OW 5752   1.866   6.656   3.160
 1618SOL    HW1 5753   1.823   6.718   3.094
 1618SOL    HW2 5754   1.832   6.563   3.147
 1619SOL     OW 5755   0.408   4.806   1.295
 1619SOL    HW1 5756   0.478   4.800   1.224
 1619SOL    HW2 5757   0.359   4.719   1.301
 1620SOL     OW 5758   3.055   4.631   1.407
 1620SOL    HW1 5759   3.085   4.623   1.502
 1620SOL    HW2 5760   3.122   4.685   1.355
 1621SOL     OW 5761   6.062   0.489   0.838
 1621SOL    HW1 5762   6.062   0.389   0.833
 1621SOL    HW2 5763   6.126   0.526   0.769
 1622SOL     OW 5764   0.784   3.631   5.581
 1622SOL    HW1 5765   0.831   3.594   5.501
 1622SOL    HW2 5766   0.709   3.571   5.607
 1623SOL     OW 5767   0.629   2.841   4.981
 1623SOL    HW1 5768   0.603   2.846   5.077
 1623SOL    HW2 5769   0.549   2.856   4.923
 1624SOL     OW 5770   4.057   0.946   4.914
 1624SOL    HW1 5771   3.959   0.965   4.908
 1624SOL    HW2 5772   4.108   1.030   4.896
 1625SOL     OW 5773   1.293   4.833   0.178
 1625SOL    HW1 5774   1.365   4.797   0.118
 1625SOL    HW2 5775   1.334   4.865   0.264
 1626SOL     OW 5776   3.813   0.894   0.910
 1626SOL    HW1 5777   3.793   0.799   0.934
 1626SOL    HW2 5778   3.729   0.940   0.883
 1627SOL     OW 5779   5.835   3.229   3.982
 1627SOL    HW1 5780   5.823   3.301   3.914
 1627SOL    HW2 5781   5.747   3.208   4.025
 1628SOL     OW 5782   4.343   5.123   0.325
 1628SOL    HW1 5783   4.378   5.212   0.296
 1628SOL    HW2 5784   4.306   5.075   0.245
 1629SOL     OW 5785   2.512   0.976   3.690
 1629SOL    HW1 5786   2.481   1.040   3.760
 1629SOL    HW2 5787   2.602   0.939   3.716
 1630SOL     OW 5788   0.366   4.818   6.127
 1630SOL    HW1 5789   0.377   4.915   6.108
 1630SOL    HW2 5790   0.412   4.795   6.213
 1631SOL     OW 5791   0.899   2.630   0.190
 1631SOL    HW1 5792   0.847   2.590   0.265
 1631SOL    HW2 5793   0.842   2.635   0.109
 1632SOL     OW 5794   5.329   2.580   1.707
 1632SOL    HW1 5795   5.280   2.541   1.785
 1632SOL    HW2 5796   5.268   2.643   1.658
 1633SOL     OW 5797   4.826   3.851   4.583
 1633SOL    HW1 5798   4.794   3.822   4.493
 1633SOL    HW2 5799   4.893   3.924   4.573
 1634SOL     OW 5800   4.782   5.921   4.083
 1634SOL    HW1 5801   4.816   6.008   4.118
 1634SOL    HW2 5802   4.777   5.925   3.983
 1635SOL     OW 5803   0.600   4.945   0.083
 1635SOL    HW1 5804   0.594   4.942   7.007
 1635SOL    HW2 5805   0.669   4.880   0.114
 1636SOL     OW 5806   2.962   5.203   0.968
 1636SOL    HW1 5807   3.059   5.200   0.994
 1636SOL    HW2 5808   2.938   5.118   0.921
 1637SOL     OW 5809   6.818   0.376   3.886
 1637SOL    HW1 5810   6.891   0.445   3.895
 1637SOL    HW2 5811   6.856   0.285   3.904
 1638SOL     OW 5812   0.707   3.433   2.912
 1638SOL    HW1 5813   0.696   3.436   3.011
 1638SOL    HW2 5814   0.726   3.339   2.883
 1639SOL     OW 5815   5.530   5.347   1.229
 1639SOL    HW1 5816   5.604   5.286   1.260
 1639SOL    HW2 5817   5.463   5.294   1.178
 1640SOL     OW 5818   5.571   0.442   6.962
 1640SOL    HW1 5819   5.555   0.400   0.027
 1640SOL    HW2 5820   5.527   0.387   6.891
 1641SOL     OW 5821   5.368   1.997   3.200
 1641SOL    HW1 5822   5.430   1.923   3.176
 1641SOL    HW2 5823   5.275   1.972   3.174
 1642SOL     OW 5824   6.549   3.490   0.258
 1642SOL    HW1 5825   6.450   3.489   0.246
 1642SOL    HW2 5826   6.594   3.489   0.168
 1643SOL     OW 5827   2.826   4.785   3.858
 1643SOL    HW1 5828   2.862   4.785   3.765
 1643SOL    HW2 5829   2.726   4.781   3.855
 1644SOL     OW 5830   5.771   4.157   0.083
 1644SOL    HW1 5831   5.723   4.112   0.007
 1644SOL    HW2 5832   5.740   4.252   0.089
 1645SOL     OW 5833   2.162   5.502   6.026
 1645SOL    HW1 5834   2.243   5.550   5.990
 1645SOL    HW2 5835   2.166   5.500   6.126
 1646SOL     OW 5836   2.558   6.843   0.978
 1646SOL    HW1 5837   2.522   6.856   0.886
 1646SOL    HW2 5838   2.482   6.827   1.041
 1647SOL     OW 5839   6.166   2.858   4.266
 1647SOL    HW1 5840   6.109   2.781   4.295
 1647SOL    HW2 5841   6.108   2.933   4.236
 1648SOL     OW 5842   4.993   5.900   0.274
 1648SOL    HW1 5843   4.980   5.812   0.319
 1648SOL    HW2 5844   4.916   5.918   0.212
 1649SOL     OW 5845   3.488   1.703   3.931
 1649SOL    HW1 5846   3.437   1.784   3.959
 1649SOL    HW2 5847   3.585   1.715   3.954
 1650SOL     OW 5848   0.701   5.658   4.770
 1650SOL    HW1 5849   0.732   5.653   4.865
 1650SOL    HW2 5850   0.607   5.691   4.767
 1651SOL     OW 5851   0.413   2.136   1.911
 1651SOL    HW1 5852   0.412   2.084   1.996
 1651SOL    HW2 5853   0.504   2.130   1.869
 1652SOL     OW 5854   1.629   2.797   2.554
 1652SOL    HW1 5855   1.542   2.836   2.583
 1652SOL    HW2 5856   1.704   2.850   2.593
 1653SOL     OW 5857   0.675   6.582   0.425
 1653SOL    HW1 5858   0.601   6.521   0.453
 1653SOL    HW2 5859   0.710   6.553   0.335
 1654SOL     OW 5860   7.015   3.361   1.691
 1654SOL    HW1 5861   6.924   3.358   1.650
 1654SOL    HW2 5862   0.001   3.445   1.743
 1655SOL     OW 5863   0.481   2.551   4.332
 1655SOL    HW1 5864   0.384   2.565   4.355
 1655SOL    HW2 5865   0.522   2.639   4.308
 1656SOL     OW 5866   2.270   5.239   3.093
 1656SOL    HW1 5867   2.219   5.324   3.105
 1656SOL    HW2 5868   2.255   5.204   3.001
 1657SOL     OW 5869   5.699   1.398   3.968
 1657SOL    HW1 5870   5.631   1.435   3.905
 1657SOL    HW2 5871   5.789   1.398   3.923
 1658SOL     OW 5872   6.066   1.368   1.422
 1658SOL    HW1 5873   6.007   1.418   1.360
 1658SOL    HW2 5874   6.014   1.294   1.465
 1659SOL     OW 5875   3.063   0.313   6.905
 1659SOL    HW1 5876   3.066   0.213   6.897
 1659SOL    HW2 5877   2.987   0.348   6.851
 1660SOL     OW 5878   2.005   5.945   2.389
 1660SOL    HW1 5879   2.092   5.910   2.422
 1660SOL    HW2 5880   2.019   5.991   2.301
 1661SOL     OW 5881   2.097   6.401   1.657
 1661SOL    HW1 5882   2.120   6.307   1.632
 1661SOL    HW2 5883   2.022   6.433   1.600
 1662SOL     OW 5884   0.298   1.181   4.148
 1662SOL    HW1 5885   0.203   1.207   4.127
 1662SOL    HW2 5886   0.314   1.193   4.246
 1663SOL     OW 5887   4.397   5.364   3.265
 1663SOL    HW1 5888   4.319   5.418   3.295
 1663SOL    HW2 5889   4.369   5.302   3.192
 1664SOL     OW 5890   2.543   5.872   5.130
 1664SOL    HW1 5891   2.554   5.971   5.140
 1664SOL    HW2 5892   2.633   5.828   5.135
 1665SOL     OW 5893   6.565   3.066   2.549
 1665SOL    HW1 5894   6.628   3.058   2.627
 1665SOL    HW2 5895   6.472   3.049   2.579
 1666SOL     OW 5896   5.215   1.522   6.876
 1666SOL    HW1 5897   5.298   1.549   6.926
 1666SOL    HW2 5898   5.209   1.422   6.874
 1667SOL     OW 5899   0.054   6.517   1.143
 1667SOL    HW1 5900   0.097   6.608   1.141
 1667SOL    HW2 5901   7.003   6.515   1.078
 1668SOL     OW 5902   4.916   5.297   3.983
 1668SOL    HW1 5903   4.824   5.267   3.957
 1668SOL    HW2 5904   4.928   5.291   4.082
 1669SOL     OW 5905   7.010   4.672   5.856
 1669SOL    HW1 5906   7.023   4.607   5.780
 1669SOL    HW2 5907   0.012   4.764   5.826
 1670SOL     OW 5908   6.758   4.749   5.171
 1670SOL    HW1 5909   6.814   4.780   5.247
 1670SOL    HW2 5910   6.665   4.786   5.180
 1671SOL     OW 5911   5.406   1.677   3.285
 1671SOL    HW1 5912   5.385   1.583   3.258
 1671SOL    HW2 5913   5.448   1.725   3.208
 1672SOL     OW 5914   2.091   3.259   1.078
 1672SOL    HW1 5915   2.099   3.164   1.106
 1672SOL    HW2 5916   2.137   3.272   0.990
 1673SOL     OW 5917   1.372   1.621   5.273
 1673SOL    HW1 5918   1.381   1.720   5.260
 1673SOL    HW2 5919   1.389   1.575   5.186
 1674SOL     OW 5920   0.978   3.006   2.435
 1674SOL    HW1 5921   1.050   3.067   2.403
 1674SOL    HW2 5922   0.981   2.921   2.382
 1675SOL     OW 5923   4.829   0.009   0.110
 1675SOL    HW1 5924   4.781   0.029   0.195
 1675SOL    HW2 5925   4.762   7.005   0.040
 1676SOL     OW 5926   2.195   2.114   1.315
 1676SOL    HW1 5927   2.265   2.175   1.352
 1676SOL    HW2 5928   2.152   2.063   1.390
 1677SOL     OW 5929   3.875   3.399   3.964
 1677SOL    HW1 5930   3.833   3.467   4.025
 1677SOL    HW2 5931   3.809   3.372   3.894
 1678SOL     OW 5932   6.809   4.722   2.672
 1678SOL    HW1 5933   6.750   4.676   2.607
 1678SOL    HW2 5934   6.862   4.654   2.724
 1679SOL     OW 5935   2.684   1.673   4.287
 1679SOL    HW1 5936   2.756   1.607   4.267
 1679SOL    HW2 5937   2.601   1.624   4.316
 1680SOL     OW 5938   0.584   3.453   5.610
 1680SOL    HW1 5939   0.488   3.483   5.609
 1680SOL    HW2 5940   0.589   3.355   5.593
 1681SOL     OW 5941   0.601   4.887   6.835
 1681SOL    HW1 5942   0.657   4.911   6.756
 1681SOL    HW2 5943   0.504   4.901   6.813
 1682SOL     OW 5944   1.521   0.663   5.735
 1682SOL    HW1 5945   1.528   0.739   5.671
 1682SOL    HW2 5946   1.502   0.578   5.685
 1683SOL     OW 5947   5.984   5.642   2.511
 1683SOL    HW1 5948   5.950   5.558   2.468
 1683SOL    HW2 5949   5.940   5.721   2.471
 1684SOL     OW 5950   0.876   5.795   2.238
 1684SOL    HW1 5951   0.860   5.704   2.199
 1684SOL    HW2 5952   0.969   5.799   2.276
 1685SOL     OW 5953   1.526   1.304   5.539
 1685SOL    HW1 5954   1.490   1.237   5.603
 1685SOL    HW2 5955   1.509   1.396   5.574
 1686SOL     OW 5956   2.481   6.396   4.556
 1686SOL    HW1 5957   2.477   6.298   4.539
 1686SOL    HW2 5958   2.571   6.420   4.593
 1687SOL     OW 5959   1.502   2.955   1.965
 1687SOL    HW1 5960   1.477   2.933   1.871
 1687SOL    HW2 5961   1.490   3.053   1.981
 1688SOL     OW 5962   2.323   1.823   3.605
 1688SOL    HW1 5963   2.298   1.789   3.696
 1688SOL    HW2 5964   2.417   1.796   3.585
 1689SOL     OW 5965   6.350   0.473   2.965
 1689SOL    HW1 5966   6.397   0.388   2.986
 1689SOL    HW2 5967   6.346   0.530   3.048
 1690SOL     OW 5968   1.624   2.530   4.639
 1690SOL    HW1 5969   1.693   2.461   4.616
 1690SOL    HW2 5970   1.541   2.484   4.671
 1691SOL     OW 5971   5.225   2.831   3.534
 1691SOL    HW1 5972   5.177   2.910   3.572
 1691SOL    HW2 5973   5.197   2.748   3.582
 1692SOL     OW 5974   4.923   6.396   0.857
 1692SOL    HW1 5975   4.970   6.402   0.945
 1692SOL    HW2 5976   4.901   6.301   0.837
 1693SOL     OW 5977   6.355   2.419   3.125
 1693SOL    HW1 5978   6.438   2.407   3.180
 1693SOL    HW2 5979   6.379   2.461   3.037
 1694SOL     OW 5980   6.088   2.009   3.473
 1694SOL    HW1 5981   6.014   2.070   3.445
 1694SOL    HW2 5982   6.165   2.063   3.508
 1695SOL     OW 5983   4.061   0.568   6.131
 1695SOL    HW1 5984   4.142   0.622   6.110
 1695SOL    HW2 5985   4.019   0.603   6.215
 1696SOL     OW 5986   4.168   6.154   1.802
 1696SOL    HW1 5987   4.092   6.213   1.777
 1696SOL    HW2 5988   4.186   6.163   1.900
 1697SOL     OW 5989   6.825   1.313   0.564
 1697SOL    HW1 5990   6.841   1.372   0.485
 1697SOL    HW2 5991   6.756   1.245   0.542
 1698SOL     OW 5992   3.365   6.757   0.432
 1698SOL    HW1 5993   3.446   6.815   0.420
 1698SOL    HW2 5994   3.319   6.781   0.517
 1699SOL     OW 5995   2.587   1.514   6.768
 1699SOL    HW1 5996   2.569   1.509   6.670
 1699SOL    HW2 5997   2.680   1.548   6.784
 1700SOL     OW 5998   6.223   4.584   3.892
 1700SOL    HW1 5999   6.296   4.534   3.847
 1700SOL    HW2 6000   6.236   4.683   3.879
 1701SOL     OW 6001   5.624   5.392   6.077
 1701SOL    HW1 6002   5.665   5.301   6.085
 1701SOL    HW2 6003   5.687   5.460   6.116
 1702SOL     OW 6004   6.651   1.483   0.696
 1702SOL    HW1 6005   6.680   1.518   0.785
 1702SOL    HW2 6006   6.713   1.410   0.667
 1703SOL     OW 6007   3.619   1.663   0.249
 1703SOL    HW1 6008   3.628   1.669   0.150
 1703SOL    HW2 6009   3.646   1.573   0.280
 1704SOL     OW 6010   0.886   2.189   0.186
 1704SOL    HW1 6011   0.933   2.199   0.274
 1704SOL    HW2 6012   0.926   2.112   0.136
 1705SOL     OW 6013   2.934   2.125   1.959
 1705SOL    HW1 6014   2.895   2.211   1.993
 1705SOL    HW2 6015   2.943   2.130   1.860
 1706SOL     OW 6016   4.846   1.415   1.643
 1706SOL    HW1 6017   4.896   1.353   1.582
 1706SOL    HW2 6018   4.751   1.422   1.613
 1707SOL     OW 6019   4.130   1.830   2.955
 1707SOL    HW1 6020   4.126   1.799   2.860
 1707SOL    HW2 6021   4.165   1.757   3.013
 1708SOL     OW 6022   4.908   5.846   2.038
 1708SOL    HW1 6023   4.982   5.875   2.098
 1708SOL    HW2 6024   4.822   5.885   2.069
 1709SOL     OW 6025   3.113   6.479   2.986
 1709SOL    HW1 6026   3.171   6.548   2.943
 1709SOL    HW2 6027   3.162   6.436   3.061
 1710SOL     OW 6028   4.646   4.874   3.182
 1710SOL    HW1 6029   4.659   4.776   3.200
 1710SOL    HW2 6030   4.660   4.892   3.085
 1711SOL     OW 6031   1.835   4.917   4.441
 1711SOL    HW1 6032   1.838   5.010   4.403
 1711SOL    HW2 6033   1.925   4.895   4.481
 1712SOL     OW 6034   6.630   2.581   4.434
 1712SOL    HW1 6035   6.586   2.553   4.519
 1712SOL    HW2 6036   6.699   2.651   4.454
 1713SOL     OW 6037   4.400   2.503   1.830
 1713SOL    HW1 6038   4.451   2.589   1.837
 1713SOL    HW2 6039   4.406   2.453   1.917
 1714SOL     OW 6040   3.458   1.539   6.318
 1714SOL    HW1 6041   3.441   1.465   6.252
 1714SOL    HW2 6042   3.376   1.554   6.373
 1715SOL     OW 6043   2.176   6.026   3.312
 1715SOL    HW1 6044   2.211   5.937   3.342
 1715SOL    HW2 6045   2.220   6.098   3.365
 1716SOL     OW 6046   3.526   0.114   3.521
 1716SOL    HW1 6047   3.597   0.044   3.511
 1716SOL    HW2 6048   3.570   0.202   3.541
 1717SOL     OW 6049   3.139   5.796   4.854
 1717SOL    HW1 6050   3.112   5.705   4.822
 1717SOL    HW2 6051   3.124   5.863   4.781
 1718SOL     OW 6052   3.244   1.085   2.111
 1718SOL    HW1 6053   3.262   1.064   2.207
 1718SOL    HW2 6054   3.160   1.139   2.103
 1719SOL     OW 6055   2.232   2.931   0.923
 1719SOL    HW1 6056   2.307   2.866   0.933
 1719SOL    HW2 6057   2.191   2.950   1.012
 1720SOL     OW 6058   6.849   3.358   6.841
 1720SOL    HW1 6059   6.795   3.273   6.840
 1720SOL    HW2 6060   6.945   3.337   6.823
 1721SOL     OW 6061   1.883   6.466   1.483
 1721SOL    HW1 6062   1.879   6.378   1.436
 1721SOL    HW2 6063   1.914   6.537   1.420
 1722SOL     OW 6064   2.903   1.483   3.685
 1722SOL    HW1 6065   2.830   1.540   3.722
 1722SOL    HW2 6066   2.976   1.541   3.650
 1723SOL     OW 6067   5.893   2.229   7.013
 1723SOL    HW1 6068   5.860   2.223   6.919
 1723SOL    HW2 6069   5.893   2.325   0.018
 1724SOL     OW 6070   0.546   2.951   2.049
 1724SOL    HW1 6071   0.594   2.868   2.075
 1724SOL    HW2 6072   0.566   2.973   1.953
 1725SOL     OW 6073   1.643   5.147   5.948
 1725SOL    HW1 6074   1.696   5.173   5.867
 1725SOL    HW2 6075   1.560   5.099   5.920
 1726SOL     OW 6076   6.053   4.065   4.887
 1726SOL    HW1 6077   6.120   4.136   4.909
 1726SOL    HW2 6078   5.976   4.072   4.950
 1727SOL     OW 6079   3.993   3.152   4.045
 1727SOL    HW1 6080   3.951   3.243   4.048
 1727SOL    HW2 6081   4.044   3.141   3.959
 1728SOL     OW 6082   5.861   5.291   5.178
 1728SOL    HW1 6083   5.933   5.340   5.128
 1728SOL    HW2 6084   5.898   5.260   5.266
 1729SOL     OW 6085   2.100   3.910   2.678
 1729SOL    HW1 6086   2.123   4.007   2.675
 1729SOL    HW2 6087   2.102   3.872   2.586
 1730SOL     OW 6088   2.363   0.519   5.410
 1730SOL    HW1 6089   2.363   0.561   5.501
 1730SOL    HW2 6090   2.269   0.505   5.379
 1731SOL     OW 6091   0.548   3.965   3.921
 1731SOL    HW1 6092   0.543   4.055   3.965
 1731SOL    HW2 6093   0.572   3.977   3.825
 1732SOL     OW 6094   2.494   5.069   5.806
 1732SOL    HW1 6095   2.526   4.979   5.775
 1732SOL    HW2 6096   2.434   5.056   5.885
 1733SOL     OW 6097   1.927   4.059   1.262
 1733SOL    HW1 6098   1.896   4.132   1.201
 1733SOL    HW2 6099   1.938   3.974   1.209
 1734SOL     OW 6100   4.479   2.861   1.188
 1734SOL    HW1 6101   4.420   2.938   1.214
 1734SOL    HW2 6102   4.472   2.845   1.089
 1735SOL     OW 6103   4.505   5.481   6.480
 1735SOL    HW1 6104   4.481   5.411   6.413
 1735SOL    HW2 6105   4.481   5.450   6.572
 1736SOL     OW 6106   3.519   3.695   1.088
 1736SOL    HW1 6107   3.433   3.661   1.050
 1736SOL    HW2 6108   3.514   3.695   1.188
 1737SOL     OW 6109   4.523   0.548   4.655
 1737SOL    HW1 6110   4.430   0.534   4.690
 1737SOL    HW2 6111   4.588   0.499   4.713
 1738SOL     OW 6112   2.218   2.579   4.548
 1738SOL    HW1 6113   2.142   2.644   4.541
 1738SOL    HW2 6114   2.273   2.602   4.628
 1739SOL     OW 6115   6.887   2.298   5.049
 1739SOL    HW1 6116   6.923   2.206   5.034
 1739SOL    HW2 6117   6.796   2.304   5.009
 1740SOL     OW 6118   6.911   2.596   4.800
 1740SOL    HW1 6119   6.972   2.546   4.861
 1740SOL    HW2 6120   6.877   2.534   4.729
 1741SOL     OW 6121   2.627   0.478   4.695
 1741SOL    HW1 6122   2.544   0.529   4.672
 1741SOL    HW2 6123   2.608   0.380   4.692
 1742SOL     OW 6124   5.766   0.526   5.290
 1742SOL    HW1 6125   5.695   0.596   5.298
 1742SOL    HW2 6126   5.771   0.474   5.374
 1743SOL     OW 6127   0.580   1.705   2.122
 1743SOL    HW1 6128   0.632   1.630   2.082
 1743SOL    HW2 6129   0.639   1.784   2.135
 1744SOL     OW 6130   6.419   3.439   3.696
 1744SOL    HW1 6131   6.414   3.513   3.629
 1744SOL    HW2 6132   6.329   3.398   3.707
 1745SOL     OW 6133   5.376   5.797   2.568
 1745SOL    HW1 6134   5.337   5.887   2.584
 1745SOL    HW2 6135   5.415   5.761   2.653
 1746SOL     OW 6136   1.418   4.208   3.963
 1746SOL    HW1 6137   1.320   4.194   3.955
 1746SOL    HW2 6138   1.462   4.187   3.876
 1747SOL     OW 6139   4.549   1.577   2.678
 1747SOL    HW1 6140   4.633   1.530   2.705
 1747SOL    HW2 6141   4.497   1.602   2.760
 1748SOL     OW 6142   0.077   1.905   4.593
 1748SOL    HW1 6143   0.149   1.839   4.612
 1748SOL    HW2 6144   0.009   1.865   4.532
 1749SOL     OW 6145   2.430   6.903   5.771
 1749SOL    HW1 6146   2.401   6.978   5.710
 1749SOL    HW2 6147   2.513   6.931   5.820
 1750SOL     OW 6148   5.310   6.725   3.610
 1750SOL    HW1 6149   5.305   6.757   3.515
 1750SOL    HW2 6150   5.226   6.675   3.633
 1751SOL     OW 6151   4.815   1.996   4.724
 1751SOL    HW1 6152   4.748   2.062   4.692
 1751SOL    HW2 6153   4.774   1.905   4.725
 1752SOL     OW 6154   6.108   0.781   2.026
 1752SOL    HW1 6155   6.027   0.822   1.985
 1752SOL    HW2 6156   6.176   0.852   2.043
 1753SOL     OW 6157   6.586   0.806   1.462
 1753SOL    HW1 6158   6.493   0.823   1.497
 1753SOL    HW2 6159   6.647   0.785   1.538
 1754SOL     OW 6160   1.450   4.803   6.559
 1754SOL    HW1 6161   1.462   4.888   6.612
 1754SOL    HW2 6162   1.498   4.812   6.472
 1755SOL     OW 6163   0.053   5.287   0.259
 1755SOL    HW1 6164   0.092   5.359   0.202
 1755SOL    HW2 6165   7.008   5.238   0.206
 1756SOL     OW 6166   4.294   5.471   5.420
 1756SOL    HW1 6167   4.313   5.373   5.420
 1756SOL    HW2 6168   4.220   5.491   5.485
 1757SOL     OW 6169   3.090   5.216   4.861
 1757SOL    HW1 6170   3.073   5.127   4.904
 1757SOL    HW2 6171   3.085   5.207   4.762
 1758SOL     OW 6172   1.883   1.304   4.632
 1758SOL    HW1 6173   1.946   1.364   4.583
 1758SOL    HW2 6174   1.931   1.222   4.663
 1759SOL     OW 6175   2.919   6.401   5.719
 1759SOL    HW1 6176   2.914   6.357   5.809
 1759SOL    HW2 6177   2.952   6.495   5.730
 1760SOL     OW 6178   5.936   0.828   3.695
 1760SOL    HW1 6179   5.981   0.795   3.612
 1760SOL    HW2 6180   5.862   0.890   3.670
 1761SOL     OW 6181   0.282   1.071   1.859
 1761SOL    HW1 6182   0.282   1.132   1.938
 1761SOL    HW2 6183   0.376   1.045   1.836
 1762SOL     OW 6184   0.287   1.273   4.422
 1762SOL    HW1 6185   0.320   1.273   4.517
 1762SOL    HW2 6186   0.204   1.329   4.415
 1763SOL     OW 6187   0.657   4.546   4.260
 1763SOL    HW1 6188   0.711   4.563   4.343
 1763SOL    HW2 6189   0.680   4.615   4.191
 1764SOL     OW 6190   2.218   2.847   2.037
 1764SOL    HW1 6191   2.247   2.898   1.957
 1764SOL    HW2 6192   2.218   2.908   2.117
 1765SOL     OW 6193   3.706   0.710   1.845
 1765SOL    HW1 6194   3.645   0.788   1.862
 1765SOL    HW2 6195   3.781   0.713   1.911
 1766SOL     OW 6196   5.720   4.755   3.796
 1766SOL    HW1 6197   5.803   4.807   3.818
 1766SOL    HW2 6198   5.705   4.686   3.866
 1767SOL     OW 6199   0.966   4.106   3.337
 1767SOL    HW1 6200   1.035   4.033   3.333
 1767SOL    HW2 6201   0.882   4.070   3.378
 1768SOL     OW 6202   3.183   0.650   6.822
 1768SOL    HW1 6203   3.145   0.585   6.756
 1768SOL    HW2 6204   3.279   0.628   6.838
 1769SOL     OW 6205   5.418   1.228   0.192
 1769SOL    HW1 6206   5.461   1.150   0.237
 1769SOL    HW2 6207   5.484   1.302   0.184
 1770SOL     OW 6208   6.606   5.012   4.882
 1770SOL    HW1 6209   6.689   4.959   4.902
 1770SOL    HW2 6210   6.630   5.092   4.826
 1771SOL     OW 6211   1.481   4.947   0.375
 1771SOL    HW1 6212   1.479   4.926   0.473
 1771SOL    HW2 6213   1.570   4.922   0.337
 1772SOL     OW 6214   3.730   5.976   3.443
 1772SOL    HW1 6215   3.786   5.953   3.363
 1772SOL    HW2 6216   3.633   5.964   3.421
 1773SOL     OW 6217   2.405   2.599   5.873
 1773SOL    HW1 6218   2.319   2.556   5.902
 1773SOL    HW2 6219   2.400   2.621   5.776
 1774SOL     OW 6220   5.368   6.463   1.904
 1774SOL    HW1 6221   5.284   6.446   1.852
 1774SOL    HW2 6222   5.441   6.406   1.867
 1775SOL     OW 6223   1.486   5.458   6.080
 1775SOL    HW1 6224   1.466   5.360   6.085
 1775SOL    HW2 6225   1.418   5.503   6.022
 1776SOL     OW 6226   5.115   0.846   6.359
 1776SOL    HW1 6227   5.026   0.846   6.405
 1776SOL    HW2 6228   5.124   0.763   6.304
 1777SOL     OW 6229   2.782   6.754   6.621
 1777SOL    HW1 6230   2.744   6.806   6.698
 1777SOL    HW2 6231   2.792   6.815   6.542
 1778SOL     OW 6232   5.050   1.920   4.148
 1778SOL    HW1 6233   5.031   2.017   4.163
 1778SOL    HW2 6234   5.147   1.909   4.127
 1779SOL     OW 6235   5.438   1.313   5.435
 1779SOL    HW1 6236   5.385   1.394   5.460
 1779SOL    HW2 6237   5.389   1.231   5.465
 1780SOL     OW 6238   1.852   3.865   5.722
 1780SOL    HW1 6239   1.908   3.789   5.689
 1780SOL    HW2 6240   1.869   3.880   5.819
 1781SOL     OW 6241   5.577   6.238   4.604
 1781SOL    HW1 6242   5.667   6.198   4.588
 1781SOL    HW2 6243   5.510   6.165   4.615
 1782SOL     OW 6244   2.447   0.959   2.828
 1782SOL    HW1 6245   2.479   1.037   2.774
 1782SOL    HW2 6246   2.347   0.954   2.824
 1783SOL     OW 6247   3.039   3.168   6.539
 1783SOL    HW1 6248   2.978   3.158   6.461
 1783SOL    HW2 6249   3.122   3.216   6.512
 1784SOL     OW 6250   2.515   1.506   1.124
 1784SOL    HW1 6251   2.518   1.571   1.048
 1784SOL    HW2 6252   2.501   1.414   1.089
 1785SOL     OW 6253   5.949   6.711   3.858
 1785SOL    HW1 6254   6.001   6.626   3.855
 1785SOL    HW2 6255   5.868   6.703   3.800
 1786SOL     OW 6256   2.073   4.477   0.067
 1786SOL    HW1 6257   2.042   4.392   0.023
 1786SOL    HW2 6258   2.077   4.550   7.023
 1787SOL     OW 6259   2.851   1.986   6.290
 1787SOL    HW1 6260   2.836   2.074   6.245
 1787SOL    HW2 6261   2.937   1.946   6.258
 1788SOL     OW 6262   4.655   4.113   6.878
 1788SOL    HW1 6263   4.657   4.207   6.844
 1788SOL    HW2 6264   4.561   4.082   6.887
 1789SOL     OW 6265   5.832   3.312   1.986
 1789SOL    HW1 6266   5.849   3.342   1.892
 1789SOL    HW2 6267   5.759   3.243   1.986
 1790SOL     OW 6268   2.681   1.195   4.837
 1790SOL    HW1 6269   2.703   1.290   4.815
 1790SOL    HW2 6270   2.609   1.193   4.906
 1791SOL     OW 6271   6.344   1.814   3.578
 1791SOL    HW1 6272   6.328   1.839   3.482
 1791SOL    HW2 6273   6.314   1.720   3.593
 1792SOL     OW 6274   6.760   1.762   4.124
 1792SOL    HW1 6275   6.827   1.695   4.157
 1792SOL    HW2 6276   6.799   1.811   4.046
 1793SOL     OW 6277   6.361   2.046   4.168
 1793SOL    HW1 6278   6.393   2.048   4.263
 1793SOL    HW2 6279   6.440   2.035   4.107
 1794SOL     OW 6280   5.129   6.710   5.086
 1794SOL    HW1 6281   5.220   6.709   5.128
 1794SOL    HW2 6282   5.091   6.617   5.086
 1795SOL     OW 6283   7.019   4.996   2.249
 1795SOL    HW1 6284   0.088   5.027   2.225
 1795SOL    HW2 6285   6.974   5.066   2.304
 1796SOL     OW 6286   2.788   1.778   5.774
 1796SOL    HW1 6287   2.722   1.752   5.845
 1796SOL    HW2 6288   2.827   1.696   5.733
 1797SOL     OW 6289   1.014   6.987   5.521
 1797SOL    HW1 6290   0.954   6.994   5.442
 1797SOL    HW2 6291   1.077   6.911   5.508
 1798SOL     OW 6292   3.631   3.111   5.222
 1798SOL    HW1 6293   3.557   3.063   5.175
 1798SOL    HW2 6294   3.719   3.085   5.181
 1799SOL     OW 6295   4.720   2.906   6.383
 1799SOL    HW1 6296   4.766   2.846   6.449
 1799SOL    HW2 6297   4.752   3.000   6.395
 1800SOL     OW 6298   5.172   5.170   3.363
 1800SOL    HW1 6299   5.111   5.225   3.419
 1800SOL    HW2 6300   5.256   5.151   3.414
 1801SOL     OW 6301   1.050   1.558   2.239
 1801SOL    HW1 6302   0.959   1.594   2.259
 1801SOL    HW2 6303   1.077   1.494   2.312
 1802SOL     OW 6304   6.442   6.408   3.704
 1802SOL    HW1 6305   6.380   6.329   3.703
 1802SOL    HW2 6306   6.456   6.437   3.799
 1803SOL     OW 6307   0.180   0.125   1.874
 1803SOL    HW1 6308   0.119   0.130   1.954
 1803SOL    HW2 6309   0.274   0.115   1.905
 1804SOL     OW 6310   4.032   3.430   5.199
 1804SOL    HW1 6311   4.092   3.510   5.197
 1804SOL    HW2 6312   3.937   3.460   5.210
 1805SOL     OW 6313   0.217   5.233   5.591
 1805SOL    HW1 6314   0.313   5.229   5.564
 1805SOL    HW2 6315   0.191   5.329   5.605
 1806SOL     OW 6316   0.647   2.422   1.611
 1806SOL    HW1 6317   0.681   2.380   1.695
 1806SOL    HW2 6318   0.547   2.415   1.608
 1807SOL     OW 6319   6.307   2.634   6.632
 1807SOL    HW1 6320   6.264   2.595   6.550
 1807SOL    HW2 6321   6.346   2.723   6.610
 1808SOL     OW 6322   5.816   4.061   4.483
 1808SOL    HW1 6323   5.812   4.014   4.571
 1808SOL    HW2 6324   5.857   4.000   4.415
 1809SOL     OW 6325   2.834   2.160   5.578
 1809SOL    HW1 6326   2.754   2.213   5.606
 1809SOL    HW2 6327   2.889   2.213   5.513
 1810SOL     OW 6328   0.819   0.661   4.904
 1810SOL    HW1 6329   0.840   0.583   4.846
 1810SOL    HW2 6330   0.903   0.693   4.949
 1811SOL     OW 6331   5.435   4.716   2.143
 1811SOL    HW1 6332   5.465   4.803   2.183
 1811SOL    HW2 6333   5.515   4.658   2.126
 1812SOL     OW 6334   4.236   6.261   6.681
 1812SOL    HW1 6335   4.197   6.347   6.650
 1812SOL    HW2 6336   4.171   6.214   6.740
 1813SOL     OW 6337   5.364   5.160   2.299
 1813SOL    HW1 6338   5.306   5.217   2.357
 1813SOL    HW2 6339   5.436   5.119   2.354
 1814SOL     OW 6340   5.786   0.402   0.662
 1814SOL    HW1 6341   5.752   0.494   0.682
 1814SOL    HW2 6342   5.885   0.400   0.671
 1815SOL     OW 6343   6.118   0.219   2.918
 1815SOL    HW1 6344   6.020   0.226   2.939
 1815SOL    HW2 6345   6.170   0.209   3.003
 1816SOL     OW 6346   3.290   4.891   6.318
 1816SOL    HW1 6347   3.355   4.820   6.290
 1816SOL    HW2 6348   3.198   4.866   6.288
 1817SOL     OW 6349   3.565   0.809   3.016
 1817SOL    HW1 6350   3.595   0.773   2.928
 1817SOL    HW2 6351   3.617   0.891   3.038
 1818SOL     OW 6352   1.507   0.172   0.442
 1818SOL    HW1 6353   1.502   0.245   0.373
 1818SOL    HW2 6354   1.415   0.155   0.479
 1819SOL     OW 6355   1.558   5.221   2.012
 1819SOL    HW1 6356   1.632   5.284   2.036
 1819SOL    HW2 6357   1.528   5.173   2.094
 1820SOL     OW 6358   3.052   0.346   2.260
 1820SOL    HW1 6359   3.110   0.413   2.214
 1820SOL    HW2 6360   2.966   0.335   2.210
 1821SOL     OW 6361   2.573   0.859   1.934
 1821SOL    HW1 6362   2.671   0.858   1.914
 1821SOL    HW2 6363   2.538   0.952   1.922
 1822SOL     OW 6364   1.235   3.117   1.155
 1822SOL    HW1 6365   1.310   3.054   1.138
 1822SOL    HW2 6366   1.221   3.175   1.074
 1823SOL     OW 6367   2.891   6.102   3.107
 1823SOL    HW1 6368   2.955   6.094   3.030
 1823SOL    HW2 6369   2.937   6.147   3.183
 1824SOL     OW 6370   4.068   4.164   0.068
 1824SOL    HW1 6371   4.068   4.093   7.022
 1824SOL    HW2 6372   4.130   4.238   0.041
 1825SOL     OW 6373   0.650   3.070   4.287
 1825SOL    HW1 6374   0.726   3.093   4.349
 1825SOL    HW2 6375   0.685   3.055   4.195
 1826SOL     OW 6376   3.025   0.768   1.343
 1826SOL    HW1 6377   2.988   0.720   1.422
 1826SOL    HW2 6378   2.992   0.724   1.259
 1827SOL     OW 6379   5.825   5.522   0.849
 1827SOL    HW1 6380   5.789   5.495   0.760
 1827SOL    HW2 6381   5.781   5.466   0.920
 1828SOL     OW 6382   1.598   2.546   6.675
 1828SOL    HW1 6383   1.627   2.490   6.752
 1828SOL    HW2 6384   1.510   2.589   6.696
 1829SOL     OW 6385   3.434   6.794   3.432
 1829SOL    HW1 6386   3.431   6.743   3.518
 1829SOL    HW2 6387   3.344   6.793   3.388
 1830SOL     OW 6388   5.628   6.508   4.326
 1830SOL    HW1 6389   5.637   6.586   4.265
 1830SOL    HW2 6390   5.717   6.487   4.368
 1831SOL     OW 6391   5.118   6.355   3.003
 1831SOL    HW1 6392   5.205   6.401   3.018
 1831SOL    HW2 6393   5.120   6.265   3.047
 1832SOL     OW 6394   3.826   2.172   0.398
 1832SOL    HW1 6395   3.750   2.236   0.393
 1832SOL    HW2 6396   3.858   2.165   0.492
 1833SOL     OW 6397   5.381   0.503   1.353
 1833SOL    HW1 6398   5.461   0.465   1.400
 1833SOL    HW2 6399   5.405   0.591   1.312
 1834SOL     OW 6400   2.223   4.096   1.143
 1834SOL    HW1 6401   2.174   4.052   1.068
 1834SOL    HW2 6402   2.321   4.076   1.135
 1835SOL     OW 6403   0.830   4.513   1.648
 1835SOL    HW1 6404   0.900   4.470   1.706
 1835SOL    HW2 6405   0.816   4.456   1.566
 1836SOL     OW 6406   5.588   2.428   1.815
 1836SOL    HW1 6407   5.575   2.330   1.830
 1836SOL    HW2 6408   5.516   2.463   1.755
 1837SOL     OW 6409   1.559   6.805   6.124
 1837SOL    HW1 6410   1.487   6.872   6.105
 1837SOL    HW2 6411   1.637   6.851   6.167
 1838SOL     OW 6412   5.769   0.740   6.375
 1838SOL    HW1 6413   5.696   0.809   6.366
 1838SOL    HW2 6414   5.783   0.719   6.471
 1839SOL     OW 6415   6.537   0.772   5.635
 1839SOL    HW1 6416   6.636   0.779   5.648
 1839SOL    HW2 6417   6.518   0.728   5.547
 1840SOL     OW 6418   3.786   0.162   2.554
 1840SOL    HW1 6419   3.747   0.098   2.620
 1840SOL    HW2 6420   3.855   0.218   2.598
 1841SOL     OW 6421   2.091   0.150   2.835
 1841SOL    HW1 6422   2.068   0.085   2.908
 1841SOL    HW2 6423   2.073   0.108   2.746
 1842SOL     OW 6424   0.898   5.694   1.303
 1842SOL    HW1 6425   0.956   5.708   1.223
 1842SOL    HW2 6426   0.913   5.769   1.368
 1843SOL     OW 6427   5.514   0.330   4.263
 1843SOL    HW1 6428   5.445   0.341   4.334
 1843SOL    HW2 6429   5.577   0.407   4.264
 1844SOL     OW 6430   4.063   0.866   5.260
 1844SOL    HW1 6431   4.124   0.945   5.264
 1844SOL    HW2 6432   4.090   0.807   5.184
 1845SOL     OW 6433   3.072   0.031   3.836
 1845SOL    HW1 6434   3.132   6.984   3.799
 1845SOL    HW2 6435   3.074   0.111   3.776
 1846SOL     OW 6436   4.222   0.848   3.344
 1846SOL    HW1 6437   4.163   0.901   3.405
 1846SOL    HW2 6438   4.281   0.788   3.398
 1847SOL     OW 6439   1.193   0.143   5.612
 1847SOL    HW1 6440   1.239   0.102   5.691
 1847SOL    HW2 6441   1.125   0.079   5.577
 1848SOL     OW 6442   1.838   6.289   3.816
 1848SOL    HW1 6443   1.881   6.232   3.746
 1848SOL    HW2 6444   1.906   6.318   3.883
 1849SOL     OW 6445   4.108   2.166   1.193
 1849SOL    HW1 6446   4.067   2.097   1.134
 1849SOL    HW2 6447   4.038   2.205   1.253
 1850SOL     OW 6448   5.997   2.079   2.683
 1850SOL    HW1 6449   5.994   2.111   2.588
 1850SOL    HW2 6450   5.971   2.154   2.744
 1851SOL     OW 6451   1.384   3.411   0.012
 1851SOL    HW1 6452   1.346   3.501   0.034
 1851SOL    HW2 6453   1.463   3.422   6.976
 1852SOL     OW 6454   0.351   4.839   2.673
 1852SOL    HW1 6455   0.360   4.748   2.633
 1852SOL    HW2 6456   0.310   4.901   2.606
 1853SOL     OW 6457   6.825   2.895   2.968
 1853SOL    HW1 6458   6.902   2.866   3.023
 1853SOL    HW2 6459   6.828   2.847   2.879
 1854SOL     OW 6460   1.660   4.934   2.724
 1854SOL    HW1 6461   1.567   4.967   2.715
 1854SOL    HW2 6462   1.661   4.851   2.781
 1855SOL     OW 6463   5.013   2.971   5.525
 1855SOL    HW1 6464   5.066   2.900   5.478
 1855SOL    HW2 6465   5.060   2.997   5.610
 1856SOL     OW 6466   4.199   3.001   6.394
 1856SOL    HW1 6467   4.187   3.086   6.341
 1856SOL    HW2 6468   4.215   2.925   6.331
 1857SOL     OW 6469   4.314   1.361   0.320
 1857SOL    HW1 6470   4.382   1.311   0.267
 1857SOL    HW2 6471   4.264   1.424   0.260
 1858SOL     OW 6472   5.107   2.420   3.438
 1858SOL    HW1 6473   5.092   2.388   3.531
 1858SOL    HW2 6474   5.044   2.496   3.418
 1859SOL     OW 6475   4.631   1.696   3.645
 1859SOL    HW1 6476   4.638   1.626   3.717
 1859SOL    HW2 6477   4.637   1.651   3.555
 1860SOL     OW 6478   0.249   1.358   5.489
 1860SOL    HW1 6479   0.222   1.276   5.440
 1860SOL    HW2 6480   0.225   1.349   5.586
 1861SOL     OW 6481   4.785   0.888   3.238
 1861SOL    HW1 6482   4.735   0.934   3.165
 1861SOL    HW2 6483   4.775   0.789   3.227
 1862SOL     OW 6484   1.610   6.708   6.765
 1862SOL    HW1 6485   1.587   6.623   6.717
 1862SOL    HW2 6486   1.539   6.729   6.832
 1863SOL     OW 6487   6.570   2.571   1.985
 1863SOL    HW1 6488   6.481   2.533   2.011
 1863SOL    HW2 6489   6.563   2.671   1.981
 1864SOL     OW 6490   3.661   5.676   4.481
 1864SOL    HW1 6491   3.746   5.712   4.520
 1864SOL    HW2 6492   3.652   5.706   4.386
 1865SOL     OW 6493   3.249   1.079   1.137
 1865SOL    HW1 6494   3.349   1.075   1.131
 1865SOL    HW2 6495   3.209   1.035   1.057
 1866SOL     OW 6496   6.267   5.169   3.855
 1866SOL    HW1 6497   6.326   5.102   3.900
 1866SOL    HW2 6498   6.323   5.245   3.822
 1867SOL     OW 6499   2.342   3.478   1.590
 1867SOL    HW1 6500   2.381   3.570   1.576
 1867SOL    HW2 6501   2.369   3.444   1.680
 1868SOL     OW 6502   5.326   3.564   6.438
 1868SOL    HW1 6503   5.252   3.610   6.389
 1868SOL    HW2 6504   5.301   3.469   6.455
 1869SOL     OW 6505   6.542   3.662   4.375
 1869SOL    HW1 6506   6.546   3.567   4.343
 1869SOL    HW2 6507   6.548   3.724   4.297
 1870SOL     OW 6508   1.208   2.899   5.019
 1870SOL    HW1 6509   1.143   2.948   5.078
 1870SOL    HW2 6510   1.259   2.833   5.073
 1871SOL     OW 6511   6.151   7.000   0.513
 1871SOL    HW1 6512   6.245   0.008   0.507
 1871SOL    HW2 6513   6.089   0.049   0.483
 1872SOL     OW 6514   4.445   2.061   0.107
 1872SOL    HW1 6515   4.393   2.062   0.021
 1872SOL    HW2 6516   4.479   2.154   0.126
 1873SOL     OW 6517   6.598   0.693   5.323
 1873SOL    HW1 6518   6.683   0.743   5.343
 1873SOL    HW2 6519   6.558   0.729   5.239
 1874SOL     OW 6520   0.922   1.148   6.539
 1874SOL    HW1 6521   0.913   1.127   6.636
 1874SOL    HW2 6522   1.018   1.141   6.512
 1875SOL     OW 6523   6.558   6.719   0.604
 1875SOL    HW1 6524   6.545   6.620   0.605
 1875SOL    HW2 6525   6.656   6.740   0.607
 1876SOL     OW 6526   4.632   6.104   6.528
 1876SOL    HW1 6527   4.533   6.103   6.515
 1876SOL    HW2 6528   4.674   6.040   6.464
 1877SOL     OW 6529   0.626   1.570   3.305
 1877SOL    HW1 6530   0.597   1.551   3.212
 1877SOL    HW2 6531   0.724   1.589   3.306
 1878SOL     OW 6532   0.135   4.180   4.007
 1878SOL    HW1 6533   0.144   4.099   4.063
 1878SOL    HW2 6534   0.128   4.261   4.065
 1879SOL     OW 6535   2.841   5.803   3.897
 1879SOL    HW1 6536   2.918   5.790   3.959
 1879SOL    HW2 6537   2.758   5.819   3.950
 1880SOL     OW 6538   0.529   2.245   3.315
 1880SOL    HW1 6539   0.523   2.328   3.260
 1880SOL    HW2 6540   0.501   2.166   3.260
 1881SOL     OW 6541   0.891   1.715   3.411
 1881SOL    HW1 6542   0.863   1.762   3.495
 1881SOL    HW2 6543   0.926   1.624   3.433
 1882SOL     OW 6544   0.715   4.959   6.585
 1882SOL    HW1 6545   0.711   5.046   6.633
 1882SOL    HW2 6546   0.748   4.973   6.491
 1883SOL     OW 6547   0.656   3.291   3.696
 1883SOL    HW1 6548   0.602   3.265   3.777
 1883SOL    HW2 6549   0.741   3.335   3.726
 1884SOL     OW 6550   5.794   1.835   0.814
 1884SOL    HW1 6551   5.827   1.800   0.902
 1884SOL    HW2 6552   5.868   1.830   0.747
 1885SOL     OW 6553   6.872   2.258   1.063
 1885SOL    HW1 6554   6.902   2.340   1.014
 1885SOL    HW2 6555   6.777   2.269   1.090
 1886SOL     OW 6556   1.905   2.146   0.275
 1886SOL    HW1 6557   1.886   2.239   0.243
 1886SOL    HW2 6558   1.857   2.130   0.361
 1887SOL     OW 6559   0.168   4.407   5.730
 1887SOL    HW1 6560   0.229   4.398   5.808
 1887SOL    HW2 6561   0.086   4.352   5.745
 1888SOL     OW 6562   2.262   1.947   6.495
 1888SOL    HW1 6563   2.344   1.894   6.514
 1888SOL    HW2 6564   2.208   1.958   6.578
 1889SOL     OW 6565   4.762   3.507   6.644
 1889SOL    HW1 6566   4.722   3.522   6.554
 1889SOL    HW2 6567   4.760   3.409   6.666
 1890SOL     OW 6568   1.420   5.938   5.746
 1890SOL    HW1 6569   1.346   5.979   5.692
 1890SOL    HW2 6570   1.500   5.924   5.689
 1891SOL     OW 6571   5.290   3.573   4.176
 1891SOL    HW1 6572   5.369   3.538   4.226
 1891SOL    HW2 6573   5.213   3.511   4.187
 1892SOL     OW 6574   3.548   6.733   1.128
 1892SOL    HW1 6575   3.643   6.703   1.140
 1892SOL    HW2 6576   3.491   6.690   1.198
 1893SOL     OW 6577   3.778   2.078   5.076
 1893SOL    HW1 6578   3.730   2.134   5.144
 1893SOL    HW2 6579   3.718   2.005   5.044
 1894SOL     OW 6580   4.382   3.735   1.535
 1894SOL    HW1 6581   4.349   3.726   1.629
 1894SOL    HW2 6582   4.399   3.644   1.496
 1895SOL     OW 6583   5.800   0.992   2.819
 1895SOL    HW1 6584   5.835   0.928   2.887
 1895SOL    HW2 6585   5.758   1.071   2.864
 1896SOL     OW 6586   0.158   0.826   3.485
 1896SOL    HW1 6587   0.078   0.828   3.544
 1896SOL    HW2 6588   0.138   0.875   3.400
 1897SOL     OW 6589   7.000   5.272   3.325
 1897SOL    HW1 6590   0.021   5.203   3.383
 1897SOL    HW2 6591   7.021   5.253   3.229
 1898SOL     OW 6592   3.187   5.763   1.928
 1898SOL    HW1 6593   3.141   5.732   2.011
 1898SOL    HW2 6594   3.254   5.833   1.951
 1899SOL     OW 6595   1.003   2.475   2.820
 1899SOL    HW1 6596   0.975   2.410   2.890
 1899SOL    HW2 6597   1.056   2.548   2.862
 1900SOL     OW 6598   0.807   0.285   5.732
 1900SOL    HW1 6599   0.789   0.283   5.634
 1900SOL    HW2 6600   0.786   0.196   5.773
 1901SOL     OW 6601   2.320   1.432   1.334
 1901SOL    HW1 6602   2.233   1.396   1.301
 1901SOL    HW2 6603   2.381   1.449   1.257
 1902SOL     OW 6604   2.473   2.064   4.656
 1902SOL    HW1 6605   2.523   2.095   4.575
 1902SOL    HW2 6606   2.414   2.138   4.689
 1903SOL     OW 6607   6.963   4.320   3.846
 1903SOL    HW1 6608   6.884   4.325   3.908
 1903SOL    HW2 6609   0.013   4.271   3.892
 1904SOL     OW 6610   6.354   0.296   3.822
 1904SOL    HW1 6611   6.362   0.358   3.744
 1904SOL    HW2 6612   6.277   0.234   3.807
 1905SOL     OW 6613   0.750   2.141   4.142
 1905SOL    HW1 6614   0.684   2.188   4.200
 1905SOL    HW2 6615   0.830   2.116   4.196
 1906SOL     OW 6616   2.522   0.025   5.334
 1906SOL    HW1 6617   2.482   0.027   5.242
 1906SOL    HW2 6618   2.601   0.086   5.338
 1907SOL     OW 6619   3.090   6.500   3.389
 1907SOL    HW1 6620   3.006   6.495   3.443
 1907SOL    HW2 6621   3.165   6.458   3.440
 1908SOL     OW 6622   4.598   0.800   5.023
 1908SOL    HW1 6623   4.663   0.786   4.949
 1908SOL    HW2 6624   4.515   0.747   5.004
 1909SOL     OW 6625   1.970   4.257   2.934
 1909SOL    HW1 6626   1.882   4.285   2.895
 1909SOL    HW2 6627   1.957   4.232   3.030
 1910SOL     OW 6628   6.228   2.253   6.992
 1910SOL    HW1 6629   6.277   2.328   0.011
 1910SOL    HW2 6630   6.133   2.251   0.000
 1911SOL     OW 6631   5.890   2.254   5.543
 1911SOL    HW1 6632   5.985   2.273   5.569
 1911SOL    HW2 6633   5.884   2.161   5.506
 1912SOL     OW 6634   4.049   6.795   2.038
 1912SOL    HW1 6635   4.124   6.741   2.000
 1912SOL    HW2 6636   4.077   6.890   2.049
 1913SOL     OW 6637   1.952   6.348   5.554
 1913SOL    HW1 6638   2.010   6.271   5.527
 1913SOL    HW2 6639   1.911   6.328   5.643
 1914SOL     OW 6640   3.148   2.666   6.955
 1914SOL    HW1 6641   3.071   2.729   6.941
 1914SOL    HW2 6642   3.233   2.712   6.932
 1915SOL     OW 6643   3.874   1.133   5.431
 1915SOL    HW1 6644   3.909   1.195   5.360
 1915SOL    HW2 6645   3.941   1.061   5.447
 1916SOL     OW 6646   3.040   5.512   0.932
 1916SOL    HW1 6647   3.049   5.606   0.902
 1916SOL    HW2 6648   3.101   5.494   1.008
 1917SOL     OW 6649   3.607   3.232   4.661
 1917SOL    HW1 6650   3.577   3.254   4.568
 1917SOL    HW2 6651   3.699   3.269   4.677
 1918SOL     OW 6652   6.823   0.091   6.691
 1918SOL    HW1 6653   6.731   0.076   6.728
 1918SOL    HW2 6654   6.822   0.169   6.629
 1919SOL     OW 6655   1.745   6.784   2.340
 1919SOL    HW1 6656   1.757   6.696   2.294
 1919SOL    HW2 6657   1.696   6.847   2.280
 1920SOL     OW 6658   0.667   4.868   3.657
 1920SOL    HW1 6659   0.611   4.882   3.575
 1920SOL    HW2 6660   0.737   4.799   3.637
 1921SOL     OW 6661   1.236   4.054   7.001
 1921SOL    HW1 6662   1.332   4.059   6.975
 1921SOL    HW2 6663   1.192   3.979   6.951
 1922SOL     OW 6664   3.689   4.434   1.051
 1922SOL    HW1 6665   3.737   4.404   0.969
 1922SOL    HW2 6666   3.748   4.495   1.104
 1923SOL     OW 6667   3.452   0.622   6.860
 1923SOL    HW1 6668   3.473   0.572   6.777
 1923SOL    HW2 6669   3.507   0.587   6.936
 1924SOL     OW 6670   5.795   5.492   2.065
 1924SOL    HW1 6671   5.695   5.494   2.067
 1924SOL    HW2 6672   5.825   5.404   2.027
 1925SOL     OW 6673   3.139   3.916   2.087
 1925SOL    HW1 6674   3.143   3.824   2.048
 1925SOL    HW2 6675   3.075   3.917   2.164
 1926SOL     OW 6676   0.823   7.023   3.940
 1926SOL    HW1 6677   0.774   6.991   4.022
 1926SOL    HW2 6678   0.921   0.004   3.960
 1927SOL     OW 6679   3.559   4.926   6.505
 1927SOL    HW1 6680   3.462   4.919   6.479
 1927SOL    HW2 6681   3.611   4.853   6.461
 1928SOL     OW 6682   6.973   3.348   6.171
 1928SOL    HW1 6683   6.966   3.344   6.271
 1928SOL    HW2 6684   7.008   3.438   6.144
 1929SOL     OW 6685   0.842   6.070   1.274
 1929SOL    HW1 6686   0.842   6.034   1.180
 1929SOL    HW2 6687   0.899   6.151   1.279
 1930SOL     OW 6688   4.153   3.837   0.000
 1930SOL    HW1 6689   4.072   3.879   6.986
 1930SOL    HW2 6690   4.199   3.782   6.954
 1931SOL     OW 6691   0.078   3.181   3.450
 1931SOL    HW1 6692   0.015   3.110   3.421
 1931SOL    HW2 6693   0.141   3.144   3.519
 1932SOL     OW 6694   5.219   4.533   2.242
 1932SOL    HW1 6695   5.261   4.484   2.319
 1932SOL    HW2 6696   5.278   4.609   2.215
 1933SOL     OW 6697   3.162   4.240   0.287
 1933SOL    HW1 6698   3.096   4.225   0.215
 1933SOL    HW2 6699   3.205   4.153   0.311
 1934SOL     OW 6700   0.193   0.629   4.796
 1934SOL    HW1 6701   0.197   0.722   4.760
 1934SOL    HW2 6702   0.110   0.584   4.764
 1935SOL     OW 6703   3.418   0.518   4.820
 1935SOL    HW1 6704   3.419   0.585   4.894
 1935SOL    HW2 6705   3.323   0.495   4.797
 1936SOL     OW 6706   6.312   3.857   3.979
 1936SOL    HW1 6707   6.395   3.824   3.933
 1936SOL    HW2 6708   6.270   3.781   4.028
 1937SOL     OW 6709   4.841   6.610   0.712
 1937SOL    HW1 6710   4.860   6.527   0.765
 1937SOL    HW2 6711   4.851   6.690   0.771
 1938SOL     OW 6712   3.755   1.392   2.171
 1938SOL    HW1 6713   3.768   1.392   2.072
 1938SOL    HW2 6714   3.842   1.411   2.216
 1939SOL     OW 6715   0.327   6.797   4.906
 1939SOL    HW1 6716   0.276   6.880   4.882
 1939SOL    HW2 6717   0.307   6.725   4.839
 1940SOL     OW 6718   4.791   5.046   6.487
 1940SOL    HW1 6719   4.788   5.124   6.550
 1940SOL    HW2 6720   4.878   4.997   6.497
 1941SOL     OW 6721   0.294   4.232   2.695
 1941SOL    HW1 6722   0.209   4.282   2.709
 1941SOL    HW2 6723   0.328   4.198   2.782
 1942SOL     OW 6724   5.684   0.770   2.653
 1942SOL    HW1 6725   5.753   0.698   2.654
 1942SOL    HW2 6726   5.726   0.858   2.673
 1943SOL     OW 6727   2.510   6.409   2.141
 1943SOL    HW1 6728   2.545   6.343   2.208
 1943SOL    HW2 6729   2.528   6.502   2.174
 1944SOL     OW 6730   5.369   2.143   6.886
 1944SOL    HW1 6731   5.293   2.090   6.848
 1944SOL    HW2 6732   5.411   2.092   6.961
 1945SOL     OW 6733   4.052   6.072   2.469
 1945SOL    HW1 6734   4.009   5.999   2.417
 1945SOL    HW2 6735   4.025   6.160   2.430
 1946SOL     OW 6736   5.566   0.768   1.048
 1946SOL    HW1 6737   5.530   0.800   0.960
 1946SOL    HW2 6738   5.549   0.670   1.057
 1947SOL     OW 6739   4.827   6.443   3.868
 1947SOL    HW1 6740   4.895   6.370   3.876
 1947SOL    HW2 6741   4.803   6.476   3.960
 1948SOL     OW 6742   6.175   5.986   4.011
 1948SOL    HW1 6743   6.153   6.026   4.100
 1948SOL    HW2 6744   6.139   5.893   4.006
 1949SOL     OW 6745   4.375   4.289   5.911
 1949SOL    HW1 6746   4.303   4.352   5.942
 1949SOL    HW2 6747   4.349   4.196   5.935
 1950SOL     OW 6748   3.591   4.874   1.309
 1950SOL    HW1 6749   3.632   4.884   1.218
 1950SOL    HW2 6750   3.572   4.965   1.346
 1951SOL     OW 6751   6.089   3.993   0.669
 1951SOL    HW1 6752   6.104   4.064   0.737
 1951SOL    HW2 6753   6.025   4.026   0.599
 1952SOL     OW 6754   3.831   1.939   0.018
 1952SOL    HW1 6755   3.904   1.946   6.975
 1952SOL    HW2 6756   3.809   2.030   0.053
 1953SOL     OW 6757   6.468   3.170   0.040
 1953SOL    HW1 6758   6.543   3.195   7.004
 1953SOL    HW2 6759   6.504   3.149   0.131
 1954SOL     OW 6760   5.647   0.963   3.927
 1954SOL    HW1 6761   5.740   0.982   3.957
 1954SOL    HW2 6762   5.628   1.014   3.842
 1955SOL     OW 6763   1.339   1.108   2.498
 1955SOL    HW1 6764   1.317   1.063   2.412
 1955SOL    HW2 6765   1.275   1.079   2.569
 1956SOL     OW 6766   5.342   0.170   2.272
 1956SOL    HW1 6767   5.257   0.145   2.318
 1956SOL    HW2 6768   5.412   0.102   2.294
 1957SOL     OW 6769   6.517   5.992   4.953
 1957SOL    HW1 6770   6.448   6.062   4.971
 1957SOL    HW2 6771   6.540   5.945   5.038
 1958SOL     OW 6772   5.662   2.821   2.459
 1958SOL    HW1 6773   5.581   2.876   2.480
 1958SOL    HW2 6774   5.632   2.729   2.432
 1959SOL     OW 6775   0.481   1.321   5.689
 1959SOL    HW1 6776   0.431   1.305   5.774
 1959SOL    HW2 6777   0.517   1.415   5.689
 1960SOL     OW 6778   7.008   4.326   1.307
 1960SOL    HW1 6779   7.015   4.399   1.239
 1960SOL    HW2 6780   0.024   4.243   1.271
 1961SOL     OW 6781   5.654   4.922   4.592
 1961SOL    HW1 6782   5.678   4.834   4.550
 1961SOL    HW2 6783   5.686   4.923   4.687
 1962SOL     OW 6784   2.446   6.786   3.538
 1962SOL    HW1 6785   2.389   6.868   3.548
 1962SOL    HW2 6786   2.475   6.777   3.443
 1963SOL     OW 6787   1.111   1.105   1.467
 1963SOL    HW1 6788   1.157   1.016   1.459
 1963SOL    HW2 6789   1.063   1.125   1.382
 1964SOL     OW 6790   4.817   3.293   1.554
 1964SOL    HW1 6791   4.799   3.351   1.633
 1964SOL    HW2 6792   4.885   3.337   1.495
 1965SOL     OW 6793   1.313   3.257   3.956
 1965SOL    HW1 6794   1.278   3.318   4.026
 1965SOL    HW2 6795   1.350   3.311   3.880
 1966SOL     OW 6796   6.822   6.153   6.228
 1966SOL    HW1 6797   6.749   6.088   6.246
 1966SOL    HW2 6798   6.787   6.227   6.170
 1967SOL     OW 6799   4.687   2.287   4.896
 1967SOL    HW1 6800   4.752   2.358   4.923
 1967SOL    HW2 6801   4.596   2.309   4.932
 1968SOL     OW 6802   3.735   6.465   0.560
 1968SOL    HW1 6803   3.645   6.500   0.587
 1968SOL    HW2 6804   3.734   6.365   0.566
 1969SOL     OW 6805   0.806   1.803   1.882
 1969SOL    HW1 6806   0.785   1.862   1.959
 1969SOL    HW2 6807   0.884   1.744   1.905
 1970SOL     OW 6808   2.333   0.182   6.128
 1970SOL    HW1 6809   2.327   0.271   6.174
 1970SOL    HW2 6810   2.376   0.116   6.190
 1971SOL     OW 6811   0.003   0.535   5.978
 1971SOL    HW1 6812   0.099   0.558   5.991
 1971SOL    HW2 6813   7.016   0.435   5.977
 1972SOL     OW 6814   5.497   2.798   2.879
 1972SOL    HW1 6815   5.567   2.762   2.817
 1972SOL    HW2 6816   5.407   2.764   2.850
 1973SOL     OW 6817   2.649   3.051   0.742
 1973SOL    HW1 6818   2.715   3.042   0.667
 1973SOL    HW2 6819   2.611   3.144   0.742
 1974SOL     OW 6820   5.915   6.223   4.319
 1974SOL    HW1 6821   5.899   6.322   4.329
 1974SOL    HW2 6822   5.895   6.196   4.225
 1975SOL     OW 6823   2.468   1.662   3.326
 1975SOL    HW1 6824   2.425   1.572   3.328
 1975SOL    HW2 6825   2.497   1.687   3.419
 1976SOL     OW 6826   0.250   5.803   0.481
 1976SOL    HW1 6827   0.218   5.845   0.397
 1976SOL    HW2 6828   0.230   5.863   0.559
 1977SOL     OW 6829   0.919   3.204   3.770
 1977SOL    HW1 6830   0.981   3.141   3.815
 1977SOL    HW2 6831   0.906   3.175   3.675
 1978SOL     OW 6832   0.545   0.952   3.372
 1978SOL    HW1 6833   0.451   0.935   3.342
 1978SOL    HW2 6834   0.589   1.015   3.309
 1979SOL     OW 6835   6.490   4.215   5.321
 1979SOL    HW1 6836   6.563   4.166   5.368
 1979SOL    HW2 6837   6.451   4.157   5.249
 1980SOL     OW 6838   2.989   1.045   5.994
 1980SOL    HW1 6839   3.039   0.964   5.962
 1980SOL    HW2 6840   2.933   1.081   5.920
 1981SOL     OW 6841   6.235   2.269   2.721
 1981SOL    HW1 6842   6.180   2.189   2.745
 1981SOL    HW2 6843   6.227   2.287   2.622
 1982SOL     OW 6844   0.228   3.771   5.403
 1982SOL    HW1 6845   0.167   3.761   5.324
 1982SOL    HW2 6846   0.321   3.743   5.377
 1983SOL     OW 6847   0.538   0.931   2.935
 1983SOL    HW1 6848   0.483   0.971   2.861
 1983SOL    HW2 6849   0.490   0.852   2.973
 1984SOL     OW 6850   6.115   2.085   4.742
 1984SOL    HW1 6851   6.141   1.995   4.706
 1984SOL    HW2 6852   6.070   2.073   4.830
 1985SOL     OW 6853   1.055   6.605   2.845
 1985SOL    HW1 6854   1.095   6.599   2.937
 1985SOL    HW2 6855   1.128   6.618   2.778
 1986SOL     OW 6856   1.675   0.532   0.016
 1986SOL    HW1 6857   1.599   0.521   6.977
 1986SOL    HW2 6858   1.683   0.628   0.042
 1987SOL     OW 6859   1.125   2.664   0.960
 1987SOL    HW1 6860   1.098   2.720   0.882
 1987SOL    HW2 6861   1.044   2.626   1.003
 1988SOL     OW 6862   5.638   4.682   0.957
 1988SOL    HW1 6863   5.616   4.669   0.860
 1988SOL    HW2 6864   5.575   4.749   0.997
 1989SOL     OW 6865   2.732   6.552   4.625
 1989SOL    HW1 6866   2.815   6.600   4.651
 1989SOL    HW2 6867   2.675   6.613   4.570
 1990SOL     OW 6868   3.440   6.021   0.411
 1990SOL    HW1 6869   3.499   5.971   0.474
 1990SOL    HW2 6870   3.369   5.959   0.376
 1991SOL     OW 6871   4.584   4.870   6.576
 1991SOL    HW1 6872   4.645   4.941   6.540
 1991SOL    HW2 6873   4.639   4.791   6.605
 1992SOL     OW 6874   0.650   0.342   6.705
 1992SOL    HW1 6875   0.674   0.414   6.770
 1992SOL    HW2 6876   0.564   0.299   6.734
 1993SOL     OW 6877   3.922   3.249   4.724
 1993SOL    HW1 6878   3.951   3.167   4.674
 1993SOL    HW2 6879   3.970   3.329   4.686
 1994SOL     OW 6880   1.139   1.323   0.243
 1994SOL    HW1 6881   1.043   1.294   0.232
 1994SOL    HW2 6882   1.187   1.256   0.300
 1995SOL     OW 6883   5.870   2.431   2.338
 1995SOL    HW1 6884   5.901   2.430   2.243
 1995SOL    HW2 6885   5.805   2.507   2.351
 1996SOL     OW 6886   2.269   3.821   0.662
 1996SOL    HW1 6887   2.197   3.756   0.685
 1996SOL    HW2 6888   2.231   3.895   0.607
 1997SOL     OW 6889   4.345   0.685   4.996
 1997SOL    HW1 6890   4.365   0.594   5.033
 1997SOL    HW2 6891   4.259   0.718   5.037
 1998SOL     OW 6892   3.468   3.687   6.129
 1998SOL    HW1 6893   3.555   3.663   6.173
 1998SOL    HW2 6894   3.396   3.691   6.199
 1999SOL     OW 6895   3.681   6.610   1.718
 1999SOL    HW1 6896   3.729   6.522   1.716
 1999SOL    HW2 6897   3.736   6.677   1.768
 2000SOL     OW 6898   4.330   2.126   5.157
 2000SOL    HW1 6899   4.388   2.142   5.077
 2000SOL    HW2 6900   4.338   2.030   5.184
 2001SOL     OW 6901   3.143   1.331   1.761
 2001SOL    HW1 6902   3.243   1.320   1.760
 2001SOL    HW2 6903   3.110   1.338   1.667
 2002SOL     OW 6904   0.707   4.733   5.530
 2002SOL    HW1 6905   0.660   4.645   5.523
 2002SOL    HW2 6906   0.690   4.773   5.620
 2003SOL     OW 6907   5.926   6.399   3.601
 2003SOL    HW1 6908   5.835   6.375   3.637
 2003SOL    HW2 6909   5.916   6.465   3.527
 2004SOL     OW 6910   4.385   1.305   5.184
 2004SOL    HW1 6911   4.391   1.269   5.278
 2004SOL    HW2 6912   4.357   1.231   5.122
 2005SOL     OW 6913   1.226   4.391   6.984
 2005SOL    HW1 6914   1.320   4.370   6.958
 2005SOL    HW2 6915   1.164   4.360   6.912
 2006SOL     OW 6916   5.154   5.127   4.275
 2006SOL    HW1 6917   5.128   5.064   4.202
 2006SOL    HW2 6918   5.149   5.081   4.363
 2007SOL     OW 6919   4.453   4.942   0.858
 2007SOL    HW1 6920   4.507   4.933   0.774
 2007SOL    HW2 6921   4.442   5.039   0.879
 2008SOL     OW 6922   1.422   5.188   2.911
 2008SOL    HW1 6923   1.349   5.121   2.926
 2008SOL    HW2 6924   1.478   5.159   2.833
 2009SOL     OW 6925   6.037   6.977   1.843
 2009SOL    HW1 6926   6.048   6.939   1.935
 2009SOL    HW2 6927   5.984   6.913   1.787
 2010SOL     OW 6928   2.165   1.905   0.583
 2010SOL    HW1 6929   2.246   1.960   0.561
 2010SOL    HW2 6930   2.151   1.905   0.682
 2011SOL     OW 6931   6.468   1.447   4.778
 2011SOL    HW1 6932   6.409   1.410   4.706
 2011SOL    HW2 6933   6.448   1.544   4.789
 2012SOL     OW 6934   1.790   2.879   1.798
 2012SOL    HW1 6935   1.879   2.834   1.808
 2012SOL    HW2 6936   1.737   2.867   1.882
 2013SOL     OW 6937   6.530   1.288   3.206
 2013SOL    HW1 6938   6.545   1.192   3.184
 2013SOL    HW2 6939   6.479   1.331   3.132
 2014SOL     OW 6940   2.016   5.018   2.511
 2014SOL    HW1 6941   1.919   5.003   2.489
 2014SOL    HW2 6942   2.044   5.109   2.479
 2015SOL     OW 6943   2.187   1.421   0.471
 2015SOL    HW1 6944   2.114   1.382   0.415
 2015SOL    HW2 6945   2.154   1.506   0.513
 2016SOL     OW 6946   0.849   5.653   5.036
 2016SOL    HW1 6947   0.948   5.644   5.043
 2016SOL    HW2 6948   0.805   5.572   5.074
 2017SOL     OW 6949   2.196   6.899   4.470
 2017SOL    HW1 6950   2.257   6.820   4.468
 2017SOL    HW2 6951   2.162   6.917   4.378
 2018SOL     OW 6952   5.783   6.903   5.597
 2018SOL    HW1 6953   5.721   6.826   5.580
 2018SOL    HW2 6954   5.764   6.941   5.688
 2019SOL     OW 6955   4.888   2.290   2.067
 2019SOL    HW1 6956   4.889   2.372   2.125
 2019SOL    HW2 6957   4.970   2.288   2.011
 2020SOL     OW 6958   0.425   5.716   4.789
 2020SOL    HW1 6959   0.370   5.734   4.871
 2020SOL    HW2 6960   0.411   5.790   4.723
 2021SOL     OW 6961   2.115   5.469   3.094
 2021SOL    HW1 6962   2.027   5.442   3.132
 2021SOL    HW2 6963   2.102   5.545   3.030
 2022SOL     OW 6964   2.023   3.583   3.122
 2022SOL    HW1 6965   1.924   3.593   3.127
 2022SOL    HW2 6966   2.046   3.515   3.052
 2023SOL     OW 6967   6.314   1.088   6.215
 2023SOL    HW1 6968   6.345   1.145   6.139
 2023SOL    HW2 6969   6.345   0.994   6.201
 2024SOL     OW 6970   0.096   6.936   3.260
 2024SOL    HW1 6971   0.065   6.924   3.166
 2024SOL    HW2 6972   0.052   7.017   3.299
 2025SOL     OW 6973   2.863   2.268   2.555
 2025SOL    HW1 6974   2.887   2.174   2.529
 2025SOL    HW2 6975   2.798   2.305   2.489
 2026SOL     OW 6976   0.760   2.957   6.451
 2026SOL    HW1 6977   0.756   3.005   6.364
 2026SOL    HW2 6978   0.844   2.982   6.499
 2027SOL     OW 6979   0.872   0.903   0.364
 2027SOL    HW1 6980   0.830   0.826   0.414
 2027SOL    HW2 6981   0.960   0.925   0.406
 2028SOL     OW 6982   3.121   1.251   6.139
 2028SOL    HW1 6983   3.076   1.334   6.108
 2028SOL    HW2 6984   3.101   1.176   6.075
 2029SOL     OW 6985   6.154   0.661   1.060
 2029SOL    HW1 6986   6.246   0.625   1.076
 2029SOL    HW2 6987   6.108   0.606   0.990
 2030SOL     OW 6988   2.290   0.574   3.055
 2030SOL    HW1 6989   2.272   0.646   2.988
 2030SOL    HW2 6990   2.204   0.527   3.077
 2031SOL     OW 6991   5.839   6.414   2.272
 2031SOL    HW1 6992   5.875   6.397   2.180
 2031SOL    HW2 6993   5.769   6.485   2.267
 2032SOL     OW 6994   5.111   6.604   1.883
 2032SOL    HW1 6995   5.173   6.630   1.809
 2032SOL    HW2 6996   5.063   6.685   1.917
 2033SOL     OW 6997   3.216   4.370   6.944
 2033SOL    HW1 6998   3.262   4.437   7.002
 2033SOL    HW2 6999   3.254   4.373   6.852
 2034SOL     OW 7000   3.354   6.546   4.811
 2034SOL    HW1 7001   3.389   6.477   4.874
 2034SOL    HW2 7002   3.293   6.503   4.745
 2035SOL     OW 7003   6.711   0.702   1.695
 2035SOL    HW1 7004   6.717   0.613   1.651
 2035SOL    HW2 7005   6.664   0.693   1.783
 2036SOL     OW 7006   1.006   5.330   3.037
 2036SOL    HW1 7007   1.012   5.318   2.938
 2036SOL    HW2 7008   1.089   5.293   3.080
 2037SOL     OW 7009   0.461   2.929   5.638
 2037SOL    HW1 7010   0.492   2.835   5.649
 2037SOL    HW2 7011   0.387   2.932   5.571
 2038SOL     OW 7012   1.357   2.165   6.680
 2038SOL    HW1 7013   1.267   2.204   6.701
 2038SOL    HW2 7014   1.411   2.157   6.764
 2039SOL     OW 7015   0.887   5.253   3.456
 2039SOL    HW1 7016   0.922   5.339   3.492
 2039SOL    HW2 7017   0.818   5.272   3.386
 2040SOL     OW 7018   3.931   3.050   5.098
 2040SOL    HW1 7019   3.893   2.993   5.026
 2040SOL    HW2 7020   3.935   3.145   5.068
 2041SOL     OW 7021   0.063   5.787   5.914
 2041SOL    HW1 7022   0.114   5.760   5.832
 2041SOL    HW2 7023   7.022   5.715   5.937
 2042SOL     OW 7024   5.289   4.640   6.822
 2042SOL    HW1 7025   5.250   4.549   6.806
 2042SOL    HW2 7026   5.341   4.639   6.908
 2043SOL     OW 7027   6.250   4.077   3.181
 2043SOL    HW1 7028   6.266   4.098   3.084
 2043SOL    HW2 7029   6.194   3.994   3.188
 2044SOL     OW 7030   5.196   6.735   1.099
 2044SOL    HW1 7031   5.230   6.730   1.006
 2044SOL    HW2 7032   5.267   6.771   1.160
 2045SOL     OW 7033   3.092   4.864   3.857
 2045SOL    HW1 7034   3.135   4.817   3.934
 2045SOL    HW2 7035   2.993   4.865   3.871
 2046SOL     OW 7036   6.900   1.573   3.789
 2046SOL    HW1 7037   6.992   1.608   3.775
 2046SOL    HW2 7038   6.885   1.494   3.730
 2047SOL     OW 7039   5.607   2.313   0.132
 2047SOL    HW1 7040   5.625   2.411   0.117
 2047SOL    HW2 7041   5.663   2.281   0.208
 2048SOL     OW 7042   1.295   6.028   0.493
 2048SOL    HW1 7043   1.378   6.040   0.546
 2048SOL    HW2 7044   1.219   6.074   0.538
 2049SOL     OW 7045   5.055   1.736   6.518
 2049SOL    HW1 7046   5.010   1.800   6.456
 2049SOL    HW2 7047   5.082   1.654   6.468
 2050SOL     OW 7048   0.575   2.971   2.783
 2050SOL    HW1 7049   0.591   2.889   2.728
 2050SOL    HW2 7050   0.480   2.972   2.815
 2051SOL     OW 7051   1.010   5.824   0.710
 2051SOL    HW1 7052   1.004   5.924   0.702
 2051SOL    HW2 7053   1.106   5.797   0.714
 2052SOL     OW 7054   0.986   4.034   0.926
 2052SOL    HW1 7055   0.994   3.954   0.867
 2052SOL    HW2 7056   0.915   4.019   0.994
 2053SOL     OW 7057   5.763   6.784   4.766
 2053SOL    HW1 7058   5.827   6.715   4.801
 2053SOL    HW2 7059   5.760   6.779   4.667
 2054SOL     OW 7060   3.840   3.196   2.023
 2054SOL    HW1 7061   3.782   3.115   2.032
 2054SOL    HW2 7062   3.803   3.256   1.952
 2055SOL     OW 7063   6.115   3.658   3.616
 2055SOL    HW1 7064   6.060   3.665   3.699
 2055SOL    HW2 7065   6.141   3.750   3.586
 2056SOL     OW 7066   2.394   0.164   2.684
 2056SOL    HW1 7067   2.339   0.182   2.765
 2056SOL    HW2 7068   2.387   0.067   2.660
 2057SOL     OW 7069   5.561   3.112   4.040
 2057SOL    HW1 7070   5.634   3.045   4.033
 2057SOL    HW2 7071   5.502   3.090   4.117
 2058SOL     OW 7072   0.660   1.866   3.134
 2058SOL    HW1 7073   0.718   1.915   3.199
 2058SOL    HW2 7074   0.709   1.785   3.101
 2059SOL     OW 7075   2.396   5.999   6.383
 2059SOL    HW1 7076   2.485   5.954   6.384
 2059SOL    HW2 7077   2.357   5.996   6.475
 2060SOL     OW 7078   6.403   4.897   0.458
 2060SOL    HW1 7079   6.305   4.896   0.477
 2060SOL    HW2 7080   6.427   4.816   0.405
 2061SOL     OW 7081   0.058   1.729   3.593
 2061SOL    HW1 7082   0.076   1.631   3.601
 2061SOL    HW2 7083   0.144   1.778   3.578
 2062SOL     OW 7084   6.098   0.354   3.663
 2062SOL    HW1 7085   6.179   0.414   3.665
 2062SOL    HW2 7086   6.119   0.269   3.710
 2063SOL     OW 7087   1.716   6.934   6.328
 2063SOL    HW1 7088   1.734   6.889   6.415
 2063SOL    HW2 7089   1.796   6.988   6.301
 2064SOL     OW 7090   0.511   2.672   5.412
 2064SOL    HW1 7091   0.467   2.663   5.501
 2064SOL    HW2 7092   0.551   2.584   5.385
 2065SOL     OW 7093   6.812   2.420   4.615
 2065SOL    HW1 7094   6.763   2.354   4.671
 2065SOL    HW2 7095   6.759   2.439   4.532
 2066SOL     OW 7096   1.088   4.809   3.681
 2066SOL    HW1 7097   1.131   4.895   3.652
 2066SOL    HW2 7098   1.101   4.798   3.779
 2067SOL     OW 7099   6.528   5.381   0.711
 2067SOL    HW1 7100   6.547   5.311   0.780
 2067SOL    HW2 7101   6.615   5.415   0.675
 2068SOL     OW 7102   1.771   1.288   5.067
 2068SOL    HW1 7103   1.776   1.330   4.977
 2068SOL    HW2 7104   1.852   1.313   5.120
 2069SOL     OW 7105   0.896   3.159   2.939
 2069SOL    HW1 7106   0.978   3.105   2.923
 2069SOL    HW2 7107   0.825   3.100   2.978
 2070SOL     OW 7108   1.398   1.230   1.889
 2070SOL    HW1 7109   1.302   1.247   1.867
 2070SOL    HW2 7110   1.415   1.252   1.985
 2071SOL     OW 7111   5.966   5.685   5.330
 2071SOL    HW1 7112   6.033   5.611   5.329
 2071SOL    HW2 7113   6.008   5.768   5.369
 2072SOL     OW 7114   4.448   6.755   3.251
 2072SOL    HW1 7115   4.544   6.730   3.237
 2072SOL    HW2 7116   4.436   6.790   3.344
 2073SOL     OW 7117   3.966   0.003   4.744
 2073SOL    HW1 7118   3.879   7.024   4.695
 2073SOL    HW2 7119   4.015   6.941   4.730
 2074SOL     OW 7120   1.682   2.842   0.516
 2074SOL    HW1 7121   1.662   2.916   0.452
 2074SOL    HW2 7122   1.685   2.755   0.466
 2075SOL     OW 7123   5.367   3.244   1.585
 2075SOL    HW1 7124   5.459   3.208   1.599
 2075SOL    HW2 7125   5.350   3.318   1.650
 2076SOL     OW 7126   5.466   0.274   6.369
 2076SOL    HW1 7127   5.396   0.207   6.393
 2076SOL    HW2 7128   5.423   0.352   6.324
 2077SOL     OW 7129   5.319   2.545   2.658
 2077SOL    HW1 7130   5.276   2.591   2.736
 2077SOL    HW2 7131   5.248   2.505   2.600
 2078SOL     OW 7132   1.121   5.616   5.446
 2078SOL    HW1 7133   1.045   5.681   5.440
 2078SOL    HW2 7134   1.208   5.664   5.431
 2079SOL     OW 7135   5.161   2.105   3.921
 2079SOL    HW1 7136   5.097   2.053   3.866
 2079SOL    HW2 7137   5.224   2.043   3.968
 2080SOL     OW 7138   1.786   0.359   5.281
 2080SOL    HW1 7139   1.765   0.393   5.373
 2080SOL    HW2 7140   1.785   0.259   5.282
 2081SOL     OW 7141   1.529   5.143   4.222
 2081SOL    HW1 7142   1.457   5.203   4.257
 2081SOL    HW2 7143   1.493   5.051   4.208
 2082SOL     OW 7144   0.214   6.788   3.455
 2082SOL    HW1 7145   0.276   6.735   3.398
 2082SOL    HW2 7146   0.164   6.853   3.397
 2083SOL     OW 7147   6.337   5.041   6.108
 2083SOL    HW1 7148   6.434   5.045   6.130
 2083SOL    HW2 7149   6.289   5.118   6.150
 2084SOL     OW 7150   1.544   3.361   3.664
 2084SOL    HW1 7151   1.640   3.389   3.667
 2084SOL    HW2 7152   1.486   3.443   3.659
 2085SOL     OW 7153   4.198   0.230   6.889
 2085SOL    HW1 7154   4.185   0.248   6.792
 2085SOL    HW2 7155   4.203   0.317   6.939
 2086SOL     OW 7156   4.094   6.804   5.606
 2086SOL    HW1 7157   4.059   6.874   5.668
 2086SOL    HW2 7158   4.096   6.840   5.513
 2087SOL     OW 7159   5.025   0.065   1.285
 2087SOL    HW1 7160   5.062   0.028   1.370
 2087SOL    HW2 7161   5.097   0.116   1.237
 2088SOL     OW 7162   1.891   5.846   0.297
 2088SOL    HW1 7163   1.987   5.847   0.270
 2088SOL    HW2 7164   1.882   5.806   0.388
 2089SOL     OW 7165   5.320   2.195   6.271
 2089SOL    HW1 7166   5.289   2.111   6.226
 2089SOL    HW2 7167   5.241   2.243   6.310
 2090SOL     OW 7168   3.788   2.807   6.244
 2090SOL    HW1 7169   3.839   2.777   6.324
 2090SOL    HW2 7170   3.773   2.906   6.249
 2091SOL     OW 7171   0.059   5.233   0.518
 2091SOL    HW1 7172   7.009   5.168   0.536
 2091SOL    HW2 7173   0.057   5.261   0.422
 2092SOL     OW 7174   5.424   3.976   0.115
 2092SOL    HW1 7175   5.482   3.927   0.180
 2092SOL    HW2 7176   5.453   3.954   0.022
 2093SOL     OW 7177   2.795   2.353   1.472
 2093SOL    HW1 7178   2.867   2.321   1.411
 2093SOL    HW2 7179   2.706   2.342   1.428
 2094SOL     OW 7180   6.047   1.458   1.795
 2094SOL    HW1 7181   5.953   1.456   1.763
 2094SOL    HW2 7182   6.048   1.446   1.895
 2095SOL     OW 7183   5.475   0.055   5.103
 2095SOL    HW1 7184   5.491   0.087   5.196
 2095SOL    HW2 7185   5.384   0.014   5.096
 2096SOL     OW 7186   4.969   3.869   2.800
 2096SOL    HW1 7187   5.009   3.960   2.796
 2096SOL    HW2 7188   4.935   3.852   2.892
 2097SOL     OW 7189   3.094   2.911   6.600
 2097SOL    HW1 7190   2.997   2.891   6.613
 2097SOL    HW2 7191   3.105   2.977   6.525
 2098SOL     OW 7192   4.001   5.758   1.934
 2098SOL    HW1 7193   3.929   5.750   1.865
 2098SOL    HW2 7194   3.984   5.694   2.008
 2099SOL     OW 7195   2.956   2.814   6.087
 2099SOL    HW1 7196   2.941   2.901   6.039
 2099SOL    HW2 7197   2.874   2.789   6.138
 2100SOL     OW 7198   4.576   2.511   6.302
 2100SOL    HW1 7199   4.541   2.603   6.316
 2100SOL    HW2 7200   4.608   2.474   6.390
 2101SOL     OW 7201   1.248   6.533   2.580
 2101SOL    HW1 7202   1.342   6.565   2.574
 2101SOL    HW2 7203   1.246   6.439   2.616
 2102SOL     OW 7204   6.290   4.817   2.870
 2102SOL    HW1 7205   6.267   4.836   2.775
 2102SOL    HW2 7206   6.288   4.718   2.886
 2103SOL     OW 7207   4.147   4.356   5.623
 2103SOL    HW1 7208   4.111   4.445   5.648
 2103SOL    HW2 7209   4.160   4.352   5.523
 2104SOL     OW 7210   2.198   4.364   1.182
 2104SOL    HW1 7211   2.200   4.265   1.167
 2104SOL    HW2 7212   2.199   4.412   1.094
 2105SOL     OW 7213   5.043   6.219   4.904
 2105SOL    HW1 7214   4.994   6.291   4.952
 2105SOL    HW2 7215   4.977   6.150   4.872
 2106SOL     OW 7216   4.758   4.584   1.441
 2106SOL    HW1 7217   4.677   4.540   1.482
 2106SOL    HW2 7218   4.839   4.528   1.459
 2107SOL     OW 7219   5.118   2.423   5.486
 2107SOL    HW1 7220   5.118   2.499   5.551
 2107SOL    HW2 7221   5.101   2.337   5.534
 2108SOL     OW 7222   6.212   5.730   5.102
 2108SOL    HW1 7223   6.212   5.647   5.159
 2108SOL    HW2 7224   6.151   5.798   5.142
 2109SOL     OW 7225   4.339   5.976   2.487
 2109SOL    HW1 7226   4.252   6.016   2.459
 2109SOL    HW2 7227   4.322   5.898   2.547
 2110SOL     OW 7228   2.423   1.422   0.335
 2110SOL    HW1 7229   2.326   1.421   0.361
 2110SOL    HW2 7230   2.454   1.517   0.325
 2111SOL     OW 7231   1.695   2.345   6.868
 2111SOL    HW1 7232   1.630   2.278   6.904
 2111SOL    HW2 7233   1.765   2.298   6.815
 2112SOL     OW 7234   5.638   3.680   0.606
 2112SOL    HW1 7235   5.602   3.771   0.626
 2112SOL    HW2 7236   5.727   3.687   0.562
 2113SOL     OW 7237   2.377   2.238   5.703
 2113SOL    HW1 7238   2.310   2.305   5.734
 2113SOL    HW2 7239   2.470   2.274   5.715
 2114SOL     OW 7240   1.468   1.767   6.606
 2114SOL    HW1 7241   1.376   1.808   6.612
 2114SOL    HW2 7242   1.532   1.837   6.574
 2115SOL     OW 7243   2.013   3.465   2.545
 2115SOL    HW1 7244   2.102   3.425   2.565
 2115SOL    HW2 7245   1.946   3.392   2.529
 2116SOL     OW 7246   0.541   5.288   3.463
 2116SOL    HW1 7247   0.506   5.260   3.553
 2116SOL    HW2 7248   0.477   5.256   3.392
 2117SOL     OW 7249   7.006   5.333   1.643
 2117SOL    HW1 7250   7.007   5.313   1.741
 2117SOL    HW2 7251   6.942   5.273   1.596
 2118SOL     OW 7252   6.421   3.551   2.382
 2118SOL    HW1 7253   6.428   3.454   2.404
 2118SOL    HW2 7254   6.338   3.588   2.424
 2119SOL     OW 7255   1.407   6.932   1.126
 2119SOL    HW1 7256   1.486   6.932   1.187
 2119SOL    HW2 7257   1.352   7.013   1.144
 2120SOL     OW 7258   6.898   5.258   4.095
 2120SOL    HW1 7259   6.968   5.304   4.040
 2120SOL    HW2 7260   6.942   5.211   4.172
 2121SOL     OW 7261   1.596   4.364   5.976
 2121SOL    HW1 7262   1.622   4.325   6.064
 2121SOL    HW2 7263   1.673   4.356   5.912
 2122SOL     OW 7264   5.692   3.682   5.848
 2122SOL    HW1 7265   5.745   3.597   5.848
 2122SOL    HW2 7266   5.747   3.756   5.811
 2123SOL     OW 7267   6.946   5.828   2.534
 2123SOL    HW1 7268   0.012   5.862   2.506
 2123SOL    HW2 7269   6.879   5.901   2.523
 2124SOL     OW 7270   3.184   1.926   1.230
 2124SOL    HW1 7271   3.280   1.924   1.202
 2124SOL    HW2 7272   3.179   1.927   1.330
 2125SOL     OW 7273   2.049   0.974   2.134
 2125SOL    HW1 7274   1.950   0.989   2.134
 2125SOL    HW2 7275   2.089   1.020   2.055
 2126SOL     OW 7276   3.578   1.772   6.231
 2126SOL    HW1 7277   3.564   1.681   6.268
 2126SOL    HW2 7278   3.598   1.765   6.133
 2127SOL     OW 7279   0.330   3.547   4.997
 2127SOL    HW1 7280   0.326   3.490   5.079
 2127SOL    HW2 7281   0.420   3.538   4.955
 2128SOL     OW 7282   6.568   3.208   3.653
 2128SOL    HW1 7283   6.514   3.290   3.670
 2128SOL    HW2 7284   6.526   3.156   3.578
 2129SOL     OW 7285   4.341   3.457   5.510
 2129SOL    HW1 7286   4.364   3.525   5.579
 2129SOL    HW2 7287   4.329   3.368   5.553
 2130SOL     OW 7288   3.472   0.786   2.732
 2130SOL    HW1 7289   3.481   0.778   2.633
 2130SOL    HW2 7290   3.489   0.881   2.760
 2131SOL     OW 7291   5.517   1.260   0.866
 2131SOL    HW1 7292   5.454   1.186   0.843
 2131SOL    HW2 7293   5.466   1.337   0.903
 2132SOL     OW 7294   3.291   0.281   1.661
 2132SOL    HW1 7295   3.291   0.379   1.640
 2132SOL    HW2 7296   3.384   0.244   1.649
 2133SOL     OW 7297   3.317   3.063   0.497
 2133SOL    HW1 7298   3.244   3.084   0.562
 2133SOL    HW2 7299   3.280   3.011   0.421
 2134SOL     OW 7300   6.913   1.596   5.962
 2134SOL    HW1 7301   6.928   1.562   6.055
 2134SOL    HW2 7302   6.822   1.569   5.932
 2135SOL     OW 7303   1.192   3.358   4.796
 2135SOL    HW1 7304   1.197   3.322   4.702
 2135SOL    HW2 7305   1.257   3.308   4.853
 2136SOL     OW 7306   1.404   3.625   3.770
 2136SOL    HW1 7307   1.455   3.709   3.753
 2136SOL    HW2 7308   1.307   3.639   3.747
 2137SOL     OW 7309   2.927   5.436   5.028
 2137SOL    HW1 7310   2.941   5.530   4.997
 2137SOL    HW2 7311   2.986   5.374   4.975
 2138SOL     OW 7312   6.422   0.540   2.711
 2138SOL    HW1 7313   6.504   0.593   2.733
 2138SOL    HW2 7314   6.362   0.537   2.791
 2139SOL     OW 7315   3.892   0.844   3.470
 2139SOL    HW1 7316   3.797   0.860   3.497
 2139SOL    HW2 7317   3.894   0.812   3.375
 2140SOL     OW 7318   3.981   6.670   3.740
 2140SOL    HW1 7319   4.057   6.680   3.805
 2140SOL    HW2 7320   3.960   6.573   3.730
 2141SOL     OW 7321   0.004   3.692   2.217
 2141SOL    HW1 7322   7.015   3.607   2.166
 2141SOL    HW2 7323   0.071   3.677   2.289
 2142SOL     OW 7324   1.930   2.034   3.114
 2142SOL    HW1 7325   1.926   2.123   3.068
 2142SOL    HW2 7326   1.948   1.963   3.046
 2143SOL     OW 7327   2.800   4.585   1.630
 2143SOL    HW1 7328   2.875   4.618   1.573
 2143SOL    HW2 7329   2.836   4.556   1.718
 2144SOL     OW 7330   1.298   5.320   4.215
 2144SOL    HW1 7331   1.217   5.264   4.236
 2144SOL    HW2 7332   1.294   5.350   4.120
 2145SOL     OW 7333   4.504   5.813   4.132
 2145SOL    HW1 7334   4.592   5.834   4.089
 2145SOL    HW2 7335   4.500   5.855   4.222
 2146SOL     OW 7336   2.815   3.581   1.633
 2146SOL    HW1 7337   2.844   3.670   1.669
 2146SOL    HW2 7338   2.894   3.532   1.597
 2147SOL     OW 7339   6.267   1.870   6.091
 2147SOL    HW1 7340   6.169   1.858   6.075
 2147SOL    HW2 7341   6.312   1.891   6.005
 2148SOL     OW 7342   6.002   2.869   5.529
 2148SOL    HW1 7343   5.969   2.918   5.449
 2148SOL    HW2 7344   6.026   2.935   5.601
 2149SOL     OW 7345   3.492   2.019   1.187
 2149SOL    HW1 7346   3.581   2.015   1.143
 2149SOL    HW2 7347   3.482   1.942   1.250
 2150SOL     OW 7348   2.441   1.766   2.468
 2150SOL    HW1 7349   2.365   1.773   2.532
 2150SOL    HW2 7350   2.482   1.856   2.454
 2151SOL     OW 7351   1.037   0.549   5.585
 2151SOL    HW1 7352   1.135   0.571   5.591
 2151SOL    HW2 7353   1.017   0.470   5.643
 2152SOL     OW 7354   3.538   5.929   1.742
 2152SOL    HW1 7355   3.583   5.990   1.678
 2152SOL    HW2 7356   3.481   5.864   1.692
 2153SOL     OW 7357   3.863   1.100   2.681
 2153SOL    HW1 7358   3.952   1.076   2.719
 2153SOL    HW2 7359   3.839   1.034   2.609
 2154SOL     OW 7360   5.041   0.621   4.973
 2154SOL    HW1 7361   4.969   0.661   4.916
 2154SOL    HW2 7362   5.124   0.610   4.917
 2155SOL     OW 7363   2.688   5.989   0.481
 2155SOL    HW1 7364   2.667   5.900   0.521
 2155SOL    HW2 7365   2.673   6.060   0.550
 2156SOL     OW 7366   1.759   1.680   5.091
 2156SOL    HW1 7367   1.829   1.620   5.130
 2156SOL    HW2 7368   1.731   1.644   5.001
 2157SOL     OW 7369   6.053   0.780   3.438
 2157SOL    HW1 7370   6.097   0.867   3.417
 2157SOL    HW2 7371   5.958   0.782   3.408
 2158SOL     OW 7372   3.763   6.126   1.274
 2158SOL    HW1 7373   3.862   6.111   1.282
 2158SOL    HW2 7374   3.715   6.063   1.335
 2159SOL     OW 7375   1.009   6.334   5.190
 2159SOL    HW1 7376   1.022   6.310   5.286
 2159SOL    HW2 7377   1.076   6.284   5.135
 2160SOL     OW 7378   4.257   3.991   0.297
 2160SOL    HW1 7379   4.189   4.023   0.230
 2160SOL    HW2 7380   4.349   4.010   0.263
 2161SOL     OW 7381   5.686   5.086   2.842
 2161SOL    HW1 7382   5.694   5.109   2.939
 2161SOL    HW2 7383   5.616   5.143   2.799
 2162SOL     OW 7384   2.130   1.101   1.893
 2162SOL    HW1 7385   2.173   1.119   1.805
 2162SOL    HW2 7386   2.058   1.169   1.909
 2163SOL     OW 7387   1.425   4.579   6.049
 2163SOL    HW1 7388   1.479   4.503   6.013
 2163SOL    HW2 7389   1.427   4.655   5.984
 2164SOL     OW 7390   1.390   2.511   0.317
 2164SOL    HW1 7391   1.325   2.537   0.246
 2164SOL    HW2 7392   1.377   2.569   0.398
 2165SOL     OW 7393   0.483   1.906   2.554
 2165SOL    HW1 7394   0.420   1.844   2.507
 2165SOL    HW2 7395   0.476   1.891   2.653
 2166SOL     OW 7396   1.672   2.489   5.513
 2166SOL    HW1 7397   1.690   2.559   5.582
 2166SOL    HW2 7398   1.759   2.454   5.478
 2167SOL     OW 7399   1.674   1.730   3.357
 2167SOL    HW1 7400   1.668   1.668   3.279
 2167SOL    HW2 7401   1.765   1.773   3.359
 2168SOL     OW 7402   0.707   2.010   3.915
 2168SOL    HW1 7403   0.663   1.921   3.923
 2168SOL    HW2 7404   0.723   2.047   4.007
 2169SOL     OW 7405   5.203   1.232   7.014
 2169SOL    HW1 7406   5.287   1.248   0.041
 2169SOL    HW2 7407   5.224   1.198   6.923
 2170SOL     OW 7408   6.368   4.463   5.638
 2170SOL    HW1 7409   6.437   4.516   5.589
 2170SOL    HW2 7410   6.402   4.440   5.729
 2171SOL     OW 7411   0.561   5.174   1.565
 2171SOL    HW1 7412   0.477   5.124   1.542
 2171SOL    HW2 7413   0.633   5.151   1.500
 2172SOL     OW 7414   1.900   2.439   0.480
 2172SOL    HW1 7415   1.939   2.522   0.439
 2172SOL    HW2 7416   1.974   2.377   0.506
 2173SOL     OW 7417   3.380   0.774   5.318
 2173SOL    HW1 7418   3.460   0.755   5.375
 2173SOL    HW2 7419   3.365   0.873   5.314
 2174SOL     OW 7420   5.443   6.449   5.020
 2174SOL    HW1 7421   5.451   6.544   5.052
 2174SOL    HW2 7422   5.461   6.387   5.096
 2175SOL     OW 7423   2.152   2.783   4.275
 2175SOL    HW1 7424   2.186   2.831   4.356
 2175SOL    HW2 7425   2.052   2.784   4.274
 2176SOL     OW 7426   6.549   2.190   0.599
 2176SOL    HW1 7427   6.582   2.098   0.619
 2176SOL    HW2 7428   6.478   2.186   0.529
 2177SOL     OW 7429   6.755   2.045   3.645
 2177SOL    HW1 7430   6.724   2.133   3.611
 2177SOL    HW2 7431   6.751   1.977   3.571
 2178SOL     OW 7432   1.999   2.315   1.066
 2178SOL    HW1 7433   1.962   2.302   1.157
 2178SOL    HW2 7434   2.061   2.239   1.044
 2179SOL     OW 7435   2.063   5.130   4.849
 2179SOL    HW1 7436   2.161   5.147   4.843
 2179SOL    HW2 7437   2.029   5.165   4.936
 2180SOL     OW 7438   1.914   2.326   1.558
 2180SOL    HW1 7439   2.008   2.332   1.593
 2180SOL    HW2 7440   1.858   2.396   1.603
 2181SOL     OW 7441   4.636   5.117   4.507
 2181SOL    HW1 7442   4.726   5.095   4.545
 2181SOL    HW2 7443   4.640   5.115   4.407
 2182SOL     OW 7444   1.509   3.532   4.011
 2182SOL    HW1 7445   1.462   3.537   3.923
 2182SOL    HW2 7446   1.604   3.563   4.000
 2183SOL     OW 7447   2.853   3.782   5.977
 2183SOL    HW1 7448   2.925   3.835   5.932
 2183SOL    HW2 7449   2.803   3.729   5.909
 2184SOL     OW 7450   4.223   1.820   6.346
 2184SOL    HW1 7451   4.161   1.866   6.411
 2184SOL    HW2 7452   4.302   1.879   6.329
 2185SOL     OW 7453   0.711   1.296   1.114
 2185SOL    HW1 7454   0.655   1.379   1.114
 2185SOL    HW2 7455   0.725   1.265   1.019
 2186SOL     OW 7456   0.416   5.959   1.751
 2186SOL    HW1 7457   0.461   5.980   1.664
 2186SOL    HW2 7458   0.335   6.018   1.761
 2187SOL     OW 7459   6.411   0.039   2.943
 2187SOL    HW1 7460   6.431   6.978   2.990
 2187SOL    HW2 7461   6.345   0.093   2.997
 2188SOL     OW 7462   6.963   6.307   5.006
 2188SOL    HW1 7463   6.932   6.293   4.912
 2188SOL    HW2 7464   0.039   6.306   5.009
 2189SOL     OW 7465   1.695   6.678   0.627
 2189SOL    HW1 7466   1.779   6.627   0.607
 2189SOL    HW2 7467   1.656   6.646   0.713
 2190SOL     OW 7468   0.334   3.219   1.763
 2190SOL    HW1 7469   0.398   3.291   1.737
 2190SOL    HW2 7470   0.264   3.256   1.823
 2191SOL     OW 7471   3.302   1.988   6.705
 2191SOL    HW1 7472   3.349   2.050   6.643
 2191SOL    HW2 7473   3.364   1.961   6.779
 2192SOL     OW 7474   4.327   1.124   2.588
 2192SOL    HW1 7475   4.379   1.053   2.540
 2192SOL    HW2 7476   4.255   1.158   2.529
 2193SOL     OW 7477   5.561   5.661   6.712
 2193SOL    HW1 7478   5.658   5.640   6.705
 2193SOL    HW2 7479   5.510   5.608   6.644
 2194SOL     OW 7480   2.793   3.937   5.547
 2194SOL    HW1 7481   2.745   3.951   5.460
 2194SOL    HW2 7482   2.891   3.939   5.532
 2195SOL     OW 7483   0.405   0.775   4.602
 2195SOL    HW1 7484   0.406   0.778   4.502
 2195SOL    HW2 7485   0.496   0.799   4.636
 2196SOL     OW 7486   2.881   6.942   5.546
 2196SOL    HW1 7487   2.889   0.017   5.536
 2196SOL    HW2 7488   2.937   6.897   5.477
 2197SOL     OW 7489   3.324   3.702   0.840
 2197SOL    HW1 7490   3.289   3.671   0.928
 2197SOL    HW2 7491   3.303   3.799   0.829
 2198SOL     OW 7492   5.630   1.397   0.133
 2198SOL    HW1 7493   5.652   1.485   0.175
 2198SOL    HW2 7494   5.709   1.364   0.082
 2199SOL     OW 7495   5.022   0.907   3.379
 2199SOL    HW1 7496   5.096   0.926   3.315
 2199SOL    HW2 7497   4.937   0.891   3.327
 2200SOL     OW 7498   2.676   1.355   5.682
 2200SOL    HW1 7499   2.595   1.350   5.624
 2200SOL    HW2 7500   2.755   1.320   5.631
 2201SOL     OW 7501   6.471   2.976   3.202
 2201SOL    HW1 7502   6.454   2.986   3.301
 2201SOL    HW2 7503   6.445   2.884   3.173
 2202SOL     OW 7504   2.847   5.539   2.193
 2202SOL    HW1 7505   2.817   5.481   2.268
 2202SOL    HW2 7506   2.774   5.602   2.168
 2203SOL     OW 7507   1.743   2.005   1.299
 2203SOL    HW1 7508   1.760   1.933   1.232
 2203SOL    HW2 7509   1.814   2.075   1.291
 2204SOL     OW 7510   3.588   0.952   1.414
 2204SOL    HW1 7511   3.533   0.934   1.333
 2204SOL    HW2 7512   3.684   0.964   1.388
 2205SOL     OW 7513   0.809   0.436   6.492
 2205SOL    HW1 7514   0.739   0.387   6.545
 2205SOL    HW2 7515   0.848   0.374   6.425
 2206SOL     OW 7516   3.208   4.487   6.375
 2206SOL    HW1 7517   3.284   4.553   6.377
 2206SOL    HW2 7518   3.195   4.449   6.467
 2207SOL     OW 7519   2.721   4.569   6.563
 2207SOL    HW1 7520   2.780   4.584   6.483
 2207SOL    HW2 7521   2.646   4.508   6.539
 2208SOL     OW 7522   1.817   6.375   3.129
 2208SOL    HW1 7523   1.899   6.330   3.093
 2208SOL    HW2 7524   1.789   6.330   3.213
 2209SOL     OW 7525   1.437   6.305   5.535
 2209SOL    HW1 7526   1.411   6.255   5.452
 2209SOL    HW2 7527   1.523   6.267   5.571
 2210SOL     OW 7528   6.245   4.565   4.333
 2210SOL    HW1 7529   6.173   4.622   4.292
 2210SOL    HW2 7530   6.215   4.470   4.334
 2211SOL     OW 7531   5.606   0.180   0.675
 2211SOL    HW1 7532   5.660   0.099   0.653
 2211SOL    HW2 7533   5.665   0.261   0.673
 2212SOL     OW 7534   1.561   5.867   6.934
 2212SOL    HW1 7535   1.600   5.785   6.892
 2212SOL    HW2 7536   1.613   5.889   7.017
 2213SOL     OW 7537   3.574   2.437   5.480
 2213SOL    HW1 7538   3.654   2.497   5.485
 2213SOL    HW2 7539   3.601   2.343   5.503
 2214SOL     OW 7540   3.407   3.027   5.133
 2214SOL    HW1 7541   3.358   2.961   5.076
 2214SOL    HW2 7542   3.376   3.120   5.111
 2215SOL     OW 7543   6.333   0.928   0.307
 2215SOL    HW1 7544   6.302   0.951   0.400
 2215SOL    HW2 7545   6.399   0.853   0.311
 2216SOL     OW 7546   1.731   0.538   6.000
 2216SOL    HW1 7547   1.800   0.472   5.972
 2216SOL    HW2 7548   1.728   0.542   6.100
 2217SOL     OW 7549   3.997   6.788   1.504
 2217SOL    HW1 7550   3.911   6.765   1.458
 2217SOL    HW2 7551   3.984   6.872   1.557
 2218SOL     OW 7552   0.323   6.105   0.280
 2218SOL    HW1 7553   0.296   6.155   0.363
 2218SOL    HW2 7554   0.242   6.069   0.235
 2219SOL     OW 7555   5.583   1.693   1.797
 2219SOL    HW1 7556   5.596   1.719   1.701
 2219SOL    HW2 7557   5.500   1.738   1.832
 2220SOL     OW 7558   1.573   0.439   4.763
 2220SOL    HW1 7559   1.604   0.414   4.672
 2220SOL    HW2 7560   1.583   0.538   4.776
 2221SOL     OW 7561   6.004   1.057   5.352
 2221SOL    HW1 7562   5.907   1.045   5.375
 2221SOL    HW2 7563   6.013   1.071   5.253
 2222SOL     OW 7564   4.766   0.648   0.548
 2222SOL    HW1 7565   4.771   0.690   0.457
 2222SOL    HW2 7566   4.858   0.619   0.575
 2223SOL     OW 7567   5.988   1.209   5.074
 2223SOL    HW1 7568   6.079   1.185   5.038
 2223SOL    HW2 7569   5.954   1.289   5.026
 2224SOL     OW 7570   0.861   3.808   0.337
 2224SOL    HW1 7571   0.882   3.900   0.305
 2224SOL    HW2 7572   0.764   3.789   0.322
 2225SOL     OW 7573   6.405   6.678   3.051
 2225SOL    HW1 7574   6.353   6.691   3.135
 2225SOL    HW2 7575   6.493   6.635   3.072
 2226SOL     OW 7576   3.631   4.981   1.055
 2226SOL    HW1 7577   3.536   4.949   1.053
 2226SOL    HW2 7578   3.663   4.995   0.962
 2227SOL     OW 7579   5.423   3.549   0.261
 2227SOL    HW1 7580   5.371   3.463   0.256
 2227SOL    HW2 7581   5.381   3.617   0.201
 2228SOL     OW 7582   2.754   4.910   1.154
 2228SOL    HW1 7583   2.685   4.844   1.184
 2228SOL    HW2 7584   2.759   4.910   1.054
 2229SOL     OW 7585   4.400   2.456   4.614
 2229SOL    HW1 7586   4.323   2.474   4.675
 2229SOL    HW2 7587   4.474   2.520   4.634
 2230SOL     OW 7588   6.075   6.019   6.552
 2230SOL    HW1 7589   6.035   5.963   6.625
 2230SOL    HW2 7590   6.006   6.037   6.482
 2231SOL     OW 7591   0.464   0.767   2.162
 2231SOL    HW1 7592   0.428   0.744   2.071
 2231SOL    HW2 7593   0.388   0.778   2.226
 2232SOL     OW 7594   0.271   2.881   5.083
 2232SOL    HW1 7595   0.300   2.835   5.167
 2232SOL    HW2 7596   0.270   2.816   5.008
 2233SOL     OW 7597   2.140   3.405   0.180
 2233SOL    HW1 7598   2.145   3.503   0.159
 2233SOL    HW2 7599   2.046   3.373   0.169
 2234SOL     OW 7600   3.850   1.606   1.732
 2234SOL    HW1 7601   3.788   1.627   1.657
 2234SOL    HW2 7602   3.866   1.689   1.786
 2235SOL     OW 7603   2.871   6.972   1.370
 2235SOL    HW1 7604   2.932   6.897   1.344
 2235SOL    HW2 7605   2.884   0.025   1.308
 2236SOL     OW 7606   1.817   4.599   6.012
 2236SOL    HW1 7607   1.860   4.509   6.007
 2236SOL    HW2 7608   1.772   4.619   5.925
 2237SOL     OW 7609   5.921   5.100   4.441
 2237SOL    HW1 7610   5.857   5.172   4.414
 2237SOL    HW2 7611   5.870   5.016   4.461
 2238SOL     OW 7612   5.235   4.775   1.120
 2238SOL    HW1 7613   5.309   4.800   1.182
 2238SOL    HW2 7614   5.263   4.793   1.025
 2239SOL     OW 7615   4.065   4.762   3.221
 2239SOL    HW1 7616   3.991   4.715   3.269
 2239SOL    HW2 7617   4.035   4.786   3.128
 2240SOL     OW 7618   5.414   5.429   3.956
 2240SOL    HW1 7619   5.384   5.399   4.046
 2240SOL    HW2 7620   5.351   5.498   3.921
 2241SOL     OW 7621   0.496   6.186   3.293
 2241SOL    HW1 7622   0.409   6.211   3.336
 2241SOL    HW2 7623   0.541   6.269   3.261
 2242SOL     OW 7624   4.790   2.393   2.629
 2242SOL    HW1 7625   4.856   2.434   2.691
 2242SOL    HW2 7626   4.832   2.315   2.582
 2243SOL     OW 7627   1.949   6.471   6.096
 2243SOL    HW1 7628   1.944   6.397   6.029
 2243SOL    HW2 7629   1.880   6.456   6.167
 2244SOL     OW 7630   1.788   6.631   1.767
 2244SOL    HW1 7631   1.711   6.578   1.731
 2244SOL    HW2 7632   1.787   6.723   1.727
 2245SOL     OW 7633   0.575   1.791   1.136
 2245SOL    HW1 7634   0.672   1.811   1.141
 2245SOL    HW2 7635   0.539   1.824   1.048
 2246SOL     OW 7636   1.069   2.347   5.289
 2246SOL    HW1 7637   1.070   2.259   5.337
 2246SOL    HW2 7638   0.982   2.393   5.305
 2247SOL     OW 7639   3.383   3.257   4.268
 2247SOL    HW1 7640   3.473   3.255   4.225
 2247SOL    HW2 7641   3.385   3.204   4.353
 2248SOL     OW 7642   4.981   3.996   5.589
 2248SOL    HW1 7643   5.008   3.900   5.594
 2248SOL    HW2 7644   4.985   4.027   5.494
 2249SOL     OW 7645   6.307   6.273   3.304
 2249SOL    HW1 7646   6.334   6.187   3.348
 2249SOL    HW2 7647   6.240   6.255   3.232
 2250SOL     OW 7648   4.400   3.615   6.523
 2250SOL    HW1 7649   4.421   3.702   6.567
 2250SOL    HW2 7650   4.475   3.589   6.463
 2251SOL     OW 7651   5.267   0.840   0.151
 2251SOL    HW1 7652   5.188   0.894   0.122
 2251SOL    HW2 7653   5.306   0.792   0.072
 2252SOL     OW 7654   4.980   3.028   2.628
 2252SOL    HW1 7655   4.989   3.006   2.531
 2252SOL    HW2 7656   4.928   2.956   2.674
 2253SOL     OW 7657   1.082   3.541   6.686
 2253SOL    HW1 7658   1.180   3.528   6.668
 2253SOL    HW2 7659   1.029   3.473   6.636
 2254SOL     OW 7660   4.064   2.929   5.335
 2254SOL    HW1 7661   4.021   2.934   5.245
 2254SOL    HW2 7662   4.088   3.022   5.365
 2255SOL     OW 7663   4.652   2.473   6.554
 2255SOL    HW1 7664   4.664   2.384   6.598
 2255SOL    HW2 7665   4.599   2.533   6.613
 2256SOL     OW 7666   5.746   5.952   1.383
 2256SOL    HW1 7667   5.802   5.877   1.349
 2256SOL    HW2 7668   5.712   6.006   1.306
 2257SOL     OW 7669   7.010   2.264   3.953
 2257SOL    HW1 7670   6.992   2.211   4.036
 2257SOL    HW2 7671   0.022   2.354   3.978
 2258SOL     OW 7672   1.155   5.291   5.613
 2258SOL    HW1 7673   1.238   5.282   5.668
 2258SOL    HW2 7674   1.162   5.373   5.556
 2259SOL     OW 7675   5.574   3.722   7.024
 2259SOL    HW1 7676   5.584   3.748   0.096
 2259SOL    HW2 7677   5.664   3.716   6.982
 2260SOL     OW 7678   6.237   4.345   2.387
 2260SOL    HW1 7679   6.238   4.377   2.292
 2260SOL    HW2 7680   6.316   4.287   2.404
 2261SOL     OW 7681   6.528   6.420   6.770
 2261SOL    HW1 7682   6.538   6.452   6.676
 2261SOL    HW2 7683   6.605   6.452   6.825
 2262SOL     OW 7684   5.460   1.590   2.654
 2262SOL    HW1 7685   5.405   1.670   2.630
 2262SOL    HW2 7686   5.420   1.545   2.734
 2263SOL     OW 7687   3.638   5.664   6.648
 2263SOL    HW1 7688   3.645   5.572   6.609
 2263SOL    HW2 7689   3.558   5.670   6.708
 2264SOL     OW 7690   2.715   3.878   0.327
 2264SOL    HW1 7691   2.659   3.797   0.345
 2264SOL    HW2 7692   2.712   3.938   0.407
 2265SOL     OW 7693   0.719   1.273   4.843
 2265SOL    HW1 7694   0.770   1.193   4.874
 2265SOL    HW2 7695   0.768   1.316   4.768
 2266SOL     OW 7696   5.609   1.927   0.376
 2266SOL    HW1 7697   5.605   1.835   0.337
 2266SOL    HW2 7698   5.533   1.981   0.341
 2267SOL     OW 7699   5.069   2.667   5.182
 2267SOL    HW1 7700   4.980   2.699   5.149
 2267SOL    HW2 7701   5.133   2.661   5.105
 2268SOL     OW 7702   6.635   3.757   6.529
 2268SOL    HW1 7703   6.664   3.808   6.449
 2268SOL    HW2 7704   6.697   3.680   6.544
 2269SOL     OW 7705   5.741   5.526   4.869
 2269SOL    HW1 7706   5.662   5.587   4.861
 2269SOL    HW2 7707   5.802   5.560   4.941
 2270SOL     OW 7708   3.327   2.335   6.352
 2270SOL    HW1 7709   3.324   2.406   6.422
 2270SOL    HW2 7710   3.337   2.378   6.262
 2271SOL     OW 7711   5.960   4.109   0.442
 2271SOL    HW1 7712   6.014   4.192   0.456
 2271SOL    HW2 7713   5.878   4.132   0.389
 2272SOL     OW 7714   6.451   2.340   6.068
 2272SOL    HW1 7715   6.493   2.297   5.988
 2272SOL    HW2 7716   6.499   2.426   6.088
 2273SOL     OW 7717   1.886   0.619   2.179
 2273SOL    HW1 7718   1.789   0.632   2.157
 2273SOL    HW2 7719   1.940   0.690   2.133
 2274SOL     OW 7720   0.098   2.854   6.526
 2274SOL    HW1 7721   0.097   2.950   6.556
 2274SOL    HW2 7722   0.069   2.849   6.430
 2275SOL     OW 7723   5.878   0.695   4.423
 2275SOL    HW1 7724   5.946   0.623   4.431
 2275SOL    HW2 7725   5.910   0.764   4.358
 2276SOL     OW 7726   2.347   5.044   1.301
 2276SOL    HW1 7727   2.277   5.108   1.333
 2276SOL    HW2 7728   2.383   5.074   1.213
 2277SOL     OW 7729   4.178   3.712   5.124
 2277SOL    HW1 7730   4.278   3.715   5.120
 2277SOL    HW2 7731   4.145   3.783   5.186
 2278SOL     OW 7732   6.457   4.998   3.980
 2278SOL    HW1 7733   6.482   4.980   4.075
 2278SOL    HW2 7734   6.530   5.049   3.935
 2279SOL     OW 7735   5.419   6.021   4.666
 2279SOL    HW1 7736   5.435   6.055   4.759
 2279SOL    HW2 7737   5.355   5.944   4.669
 2280SOL     OW 7738   6.993   6.583   4.461
 2280SOL    HW1 7739   6.994   6.683   4.467
 2280SOL    HW2 7740   6.966   6.555   4.369
 2281SOL     OW 7741   3.315   1.763   2.072
 2281SOL    HW1 7742   3.339   1.701   1.997
 2281SOL    HW2 7743   3.385   1.834   2.080
 2282SOL     OW 7744   4.862   6.986   4.889
 2282SOL    HW1 7745   4.926   6.993   4.812
 2282SOL    HW2 7746   4.846   6.889   4.910
 2283SOL     OW 7747   0.470   4.410   2.090
 2283SOL    HW1 7748   0.498   4.318   2.063
 2283SOL    HW2 7749   0.421   4.405   2.177
 2284SOL     OW 7750   1.845   2.166   6.722
 2284SOL    HW1 7751   1.781   2.093   6.697
 2284SOL    HW2 7752   1.893   2.140   6.806
 2285SOL     OW 7753   2.400   2.217   0.936
 2285SOL    HW1 7754   2.408   2.289   1.004
 2285SOL    HW2 7755   2.485   2.164   0.933
 2286SOL     OW 7756   6.907   0.326   4.177
 2286SOL    HW1 7757   6.811   0.296   4.175
 2286SOL    HW2 7758   6.956   0.286   4.100
 2287SOL     OW 7759   1.190   1.289   3.224
 2287SOL    HW1 7760   1.138   1.343   3.158
 2287SOL    HW2 7761   1.245   1.221   3.176
 2288SOL     OW 7762   6.351   5.194   4.682
 2288SOL    HW1 7763   6.317   5.117   4.737
 2288SOL    HW2 7764   6.291   5.205   4.602
 2289SOL     OW 7765   0.632   4.601   2.225
 2289SOL    HW1 7766   0.612   4.503   2.213
 2289SOL    HW2 7767   0.648   4.642   2.136
 2290SOL     OW 7768   1.473   4.509   1.881
 2290SOL    HW1 7769   1.543   4.461   1.828
 2290SOL    HW2 7770   1.508   4.599   1.907
 2291SOL     OW 7771   2.586   2.142   6.730
 2291SOL    HW1 7772   2.680   2.123   6.702
 2291SOL    HW2 7773   2.528   2.153   6.650
 2292SOL     OW 7774   5.821   2.128   4.443
 2292SOL    HW1 7775   5.768   2.096   4.522
 2292SOL    HW2 7776   5.900   2.069   4.429
 2293SOL     OW 7777   5.406   6.840   1.263
 2293SOL    HW1 7778   5.479   6.850   1.195
 2293SOL    HW2 7779   5.408   6.917   1.327
 2294SOL     OW 7780   3.244   1.132   6.394
 2294SOL    HW1 7781   3.272   1.200   6.326
 2294SOL    HW2 7782   3.307   1.054   6.393
 2295SOL     OW 7783   0.388   1.852   2.835
 2295SOL    HW1 7784   0.312   1.798   2.800
 2295SOL    HW2 7785   0.373   1.871   2.932
 2296SOL     OW 7786   3.755   5.975   1.923
 2296SOL    HW1 7787   3.662   5.989   1.891
 2296SOL    HW2 7788   3.816   5.963   1.845
 2297SOL     OW 7789   4.705   4.360   5.413
 2297SOL    HW1 7790   4.799   4.375   5.383
 2297SOL    HW2 7791   4.705   4.338   5.511
 2298SOL     OW 7792   4.085   3.293   2.105
 2298SOL    HW1 7793   4.024   3.217   2.081
 2298SOL    HW2 7794   4.069   3.320   2.200
 2299SOL     OW 7795   4.492   4.870   4.823
 2299SOL    HW1 7796   4.395   4.846   4.815
 2299SOL    HW2 7797   4.537   4.807   4.886
 2300SOL     OW 7798   2.372   5.887   2.010
 2300SOL    HW1 7799   2.406   5.978   1.984
 2300SOL    HW2 7800   2.355   5.885   2.109
 2301SOL     OW 7801   3.529   3.006   2.680
 2301SOL    HW1 7802   3.619   3.019   2.723
 2301SOL    HW2 7803   3.468   2.959   2.743
 2302SOL     OW 7804   3.390   6.848   0.920
 2302SOL    HW1 7805   3.437   6.792   0.988
 2302SOL    HW2 7806   3.443   6.848   0.835
 2303SOL     OW 7807   2.291   3.586   6.388
 2303SOL    HW1 7808   2.269   3.594   6.486
 2303SOL    HW2 7809   2.214   3.545   6.340
 2304SOL     OW 7810   5.113   6.679   3.924
 2304SOL    HW1 7811   5.203   6.635   3.920
 2304SOL    HW2 7812   5.082   6.681   4.019
 2305SOL     OW 7813   2.098   0.346   2.616
 2305SOL    HW1 7814   2.131   0.287   2.543
 2305SOL    HW2 7815   2.074   0.291   2.696
 2306SOL     OW 7816   2.465   4.844   1.853
 2306SOL    HW1 7817   2.427   4.787   1.780
 2306SOL    HW2 7818   2.403   4.920   1.872
 2307SOL     OW 7819   6.683   4.088   3.520
 2307SOL    HW1 7820   6.608   4.025   3.504
 2307SOL    HW2 7821   6.665   4.175   3.474
 2308SOL     OW 7822   1.619   5.249   1.478
 2308SOL    HW1 7823   1.602   5.344   1.506
 2308SOL    HW2 7824   1.542   5.192   1.508
 2309SOL     OW 7825   1.563   0.833   6.338
 2309SOL    HW1 7826   1.639   0.896   6.321
 2309SOL    HW2 7827   1.566   0.804   6.434
 2310SOL     OW 7828   5.495   6.232   0.172
 2310SOL    HW1 7829   5.514   6.166   0.245
 2310SOL    HW2 7830   5.540   6.201   0.088
 2311SOL     OW 7831   1.946   6.688   1.304
 2311SOL    HW1 7832   1.882   6.660   1.231
 2311SOL    HW2 7833   1.968   6.785   1.293
 2312SOL     OW 7834   3.860   6.155   2.667
 2312SOL    HW1 7835   3.921   6.117   2.597
 2312SOL    HW2 7836   3.861   6.255   2.661
 2313SOL     OW 7837   5.982   6.093   1.476
 2313SOL    HW1 7838   5.996   6.151   1.397
 2313SOL    HW2 7839   5.900   6.037   1.464
 2314SOL     OW 7840   5.899   0.049   3.977
 2314SOL    HW1 7841   5.958   0.022   3.901
 2314SOL    HW2 7842   5.828   0.112   3.944
 2315SOL     OW 7843   4.786   3.172   6.407
 2315SOL    HW1 7844   4.859   3.147   6.344
 2315SOL    HW2 7845   4.814   3.250   6.463
 2316SOL     OW 7846   3.667   1.233   4.140
 2316SOL    HW1 7847   3.587   1.254   4.196
 2316SOL    HW2 7848   3.710   1.149   4.173
 2317SOL     OW 7849   0.812   6.657   2.944
 2317SOL    HW1 7850   0.888   6.623   2.889
 2317SOL    HW2 7851   0.771   6.581   2.994
 2318SOL     OW 7852   1.946   3.002   4.134
 2318SOL    HW1 7853   1.916   2.977   4.226
 2318SOL    HW2 7854   2.046   3.006   4.131
 2319SOL     OW 7855   2.310   4.608   4.185
 2319SOL    HW1 7856   2.279   4.590   4.092
 2319SOL    HW2 7857   2.239   4.657   4.235
 2320SOL     OW 7858   0.707   2.248   4.821
 2320SOL    HW1 7859   0.766   2.249   4.740
 2320SOL    HW2 7860   0.720   2.163   4.870
 2321SOL     OW 7861   2.334   0.471   0.149
 2321SOL    HW1 7862   2.275   0.457   0.229
 2321SOL    HW2 7863   2.278   0.467   0.066
 2322SOL     OW 7864   3.293   1.496   4.452
 2322SOL    HW1 7865   3.309   1.562   4.525
 2322SOL    HW2 7866   3.210   1.444   4.472
 2323SOL     OW 7867   2.832   5.187   1.825
 2323SOL    HW1 7868   2.763   5.158   1.759
 2323SOL    HW2 7869   2.788   5.233   1.901
 2324SOL     OW 7870   6.566   6.990   1.782
 2324SOL    HW1 7871   6.596   6.995   1.687
 2324SOL    HW2 7872   6.479   6.941   1.787
 2325SOL     OW 7873   1.556   4.866   2.246
 2325SOL    HW1 7874   1.632   4.864   2.311
 2325SOL    HW2 7875   1.474   4.903   2.291
 2326SOL     OW 7876   3.147   6.242   5.585
 2326SOL    HW1 7877   3.073   6.298   5.621
 2326SOL    HW2 7878   3.159   6.162   5.642
 2327SOL     OW 7879   6.511   2.940   4.397
 2327SOL    HW1 7880   6.481   2.966   4.305
 2327SOL    HW2 7881   6.463   2.858   4.425
 2328SOL     OW 7882   3.248   1.952   2.647
 2328SOL    HW1 7883   3.229   2.040   2.604
 2328SOL    HW2 7884   3.172   1.925   2.706
 2329SOL     OW 7885   1.344   3.557   5.180
 2329SOL    HW1 7886   1.411   3.628   5.200
 2329SOL    HW2 7887   1.391   3.470   5.164
 2330SOL     OW 7888   1.104   3.860   1.691
 2330SOL    HW1 7889   1.189   3.894   1.651
 2330SOL    HW2 7890   1.069   3.926   1.757
 2331SOL     OW 7891   5.926   4.697   1.016
 2331SOL    HW1 7892   5.829   4.674   1.027
 2331SOL    HW2 7893   5.981   4.617   1.037
 2332SOL     OW 7894   4.740   1.480   5.170
 2332SOL    HW1 7895   4.826   1.439   5.139
 2332SOL    HW2 7896   4.710   1.434   5.254
 2333SOL     OW 7897   0.532   5.423   3.128
 2333SOL    HW1 7898   0.611   5.363   3.141
 2333SOL    HW2 7899   0.548   5.483   3.050
 2334SOL     OW 7900   2.429   0.087   6.903
 2334SOL    HW1 7901   2.424   0.125   6.996
 2334SOL    HW2 7902   2.344   0.108   6.855
 2335SOL     OW 7903   5.751   1.624   2.620
 2335SOL    HW1 7904   5.774   1.720   2.633
 2335SOL    HW2 7905   5.658   1.607   2.654
 2336SOL     OW 7906   4.368   2.054   4.721
 2336SOL    HW1 7907   4.454   2.101   4.702
 2336SOL    HW2 7908   4.304   2.118   4.764
 2337SOL     OW 7909   4.242   0.949   3.080
 2337SOL    HW1 7910   4.145   0.956   3.055
 2337SOL    HW2 7911   4.250   0.903   3.168
 2338SOL     OW 7912   1.170   1.784   5.974
 2338SOL    HW1 7913   1.251   1.809   6.028
 2338SOL    HW2 7914   1.158   1.850   5.900
 2339SOL     OW 7915   3.916   4.034   5.069
 2339SOL    HW1 7916   3.943   3.939   5.053
 2339SOL    HW2 7917   3.898   4.078   4.981
 2340SOL     OW 7918   5.194   4.868   0.100
 2340SOL    HW1 7919   5.099   4.879   0.073
 2340SOL    HW2 7920   5.236   4.958   0.111
 2341SOL     OW 7921   5.394   3.936   1.260
 2341SOL    HW1 7922   5.352   3.845   1.264
 2341SOL    HW2 7923   5.483   3.933   1.305
 2342SOL     OW 7924   0.323   6.443   4.983
 2342SOL    HW1 7925   0.339   6.481   4.892
 2342SOL    HW2 7926   0.405   6.453   5.038
 2343SOL     OW 7927   1.687   6.219   2.764
 2343SOL    HW1 7928   1.757   6.242   2.696
 2343SOL    HW2 7929   1.698   6.123   2.792
 2344SOL     OW 7930   1.651   1.049   1.233
 2344SOL    HW1 7931   1.724   1.115   1.217
 2344SOL    HW2 7932   1.589   1.047   1.155
 2345SOL     OW 7933   3.243   5.396   5.725
 2345SOL    HW1 7934   3.185   5.322   5.758
 2345SOL    HW2 7935   3.284   5.443   5.802
 2346SOL     OW 7936   4.616   2.840   5.106
 2346SOL    HW1 7937   4.677   2.903   5.154
 2346SOL    HW2 7938   4.645   2.832   5.011
 2347SOL     OW 7939   2.689   3.402   1.794
 2347SOL    HW1 7940   2.730   3.473   1.737
 2347SOL    HW2 7941   2.590   3.415   1.799
 2348SOL     OW 7942   3.788   6.245   3.229
 2348SOL    HW1 7943   3.836   6.271   3.313
 2348SOL    HW2 7944   3.796   6.318   3.161
 2349SOL     OW 7945   0.365   4.694   5.761
 2349SOL    HW1 7946   0.360   4.701   5.661
 2349SOL    HW2 7947   0.279   4.725   5.800
 2350SOL     OW 7948   5.637   6.980   6.419
 2350SOL    HW1 7949   5.625   0.042   6.371
 2350SOL    HW2 7950   5.723   6.982   6.471
 2351SOL     OW 7951   3.312   5.101   2.537
 2351SOL    HW1 7952   3.373   5.181   2.528
 2351SOL    HW2 7953   3.312   5.050   2.451
 2352SOL     OW 7954   0.985   3.617   2.067
 2352SOL    HW1 7955   0.934   3.557   2.005
 2352SOL    HW2 7956   1.028   3.690   2.015
 2353SOL     OW 7957   3.239   4.573   5.443
 2353SOL    HW1 7958   3.179   4.512   5.391
 2353SOL    HW2 7959   3.199   4.590   5.533
 2354SOL     OW 7960   3.090   1.902   6.224
 2354SOL    HW1 7961   3.165   1.901   6.290
 2354SOL    HW2 7962   3.099   1.823   6.162
 2355SOL     OW 7963   1.298   5.582   6.667
 2355SOL    HW1 7964   1.296   5.617   6.761
 2355SOL    HW2 7965   1.212   5.536   6.646
 2356SOL     OW 7966   2.093   3.667   0.185
 2356SOL    HW1 7967   2.043   3.709   0.261
 2356SOL    HW2 7968   2.181   3.714   0.173
 2357SOL     OW 7969   4.239   5.196   3.545
 2357SOL    HW1 7970   4.206   5.169   3.454
 2357SOL    HW2 7971   4.267   5.114   3.596
 2358SOL     OW 7972   2.750   5.416   5.389
 2358SOL    HW1 7973   2.784   5.460   5.472
 2358SOL    HW2 7974   2.716   5.487   5.326
 2359SOL     OW 7975   7.009   0.700   5.736
 2359SOL    HW1 7976   6.966   0.718   5.647
 2359SOL    HW2 7977   0.083   0.715   5.729
 2360SOL     OW 7978   5.222   6.262   5.699
 2360SOL    HW1 7979   5.263   6.253   5.790
 2360SOL    HW2 7980   5.221   6.173   5.654
 2361SOL     OW 7981   2.749   0.919   5.510
 2361SOL    HW1 7982   2.845   0.947   5.507
 2361SOL    HW2 7983   2.710   0.945   5.598
 2362SOL     OW 7984   2.798   0.736   5.295
 2362SOL    HW1 7985   2.763   0.776   5.211
 2362SOL    HW2 7986   2.791   0.802   5.369
 2363SOL     OW 7987   3.824   2.532   5.782
 2363SOL    HW1 7988   3.920   2.513   5.805
 2363SOL    HW2 7989   3.767   2.457   5.814
 2364SOL     OW 7990   0.447   2.503   3.155
 2364SOL    HW1 7991   0.348   2.501   3.143
 2364SOL    HW2 7992   0.474   2.591   3.195
 2365SOL     OW 7993   6.221   2.496   6.121
 2365SOL    HW1 7994   6.301   2.444   6.091
 2365SOL    HW2 7995   6.197   2.563   6.051
 2366SOL     OW 7996   1.566   4.734   5.791
 2366SOL    HW1 7997   1.649   4.787   5.806
 2366SOL    HW2 7998   1.514   4.773   5.714
 2367SOL     OW 7999   3.712   3.983   6.936
 2367SOL    HW1 8000   3.688   4.055   6.871
 2367SOL    HW2 8001   3.643   3.978   7.008
 2368SOL     OW 8002   5.041   0.224   3.250
 2368SOL    HW1 8003   4.975   0.154   3.276
 2368SOL    HW2 8004   5.118   0.182   3.202
 2369SOL     OW 8005   1.950   2.741   5.065
 2369SOL    HW1 8006   1.888   2.696   5.129
 2369SOL    HW2 8007   1.979   2.676   4.995
 2370SOL     OW 8008   5.029   3.950   6.671
 2370SOL    HW1 8009   5.089   4.010   6.618
 2370SOL    HW2 8010   5.000   3.998   6.754
 2371SOL     OW 8011   1.301   6.152   1.915
 2371SOL    HW1 8012   1.224   6.090   1.926
 2371SOL    HW2 8013   1.377   6.104   1.870
 2372SOL     OW 8014   0.460   2.101   1.535
 2372SOL    HW1 8015   0.530   2.053   1.588
 2372SOL    HW2 8016   0.423   2.040   1.465
 2373SOL     OW 8017   6.593   6.902   0.142
 2373SOL    HW1 8018   6.568   6.992   0.106
 2373SOL    HW2 8019   6.648   6.914   0.225
 2374SOL     OW 8020   5.960   0.857   4.239
 2374SOL    HW1 8021   6.060   0.866   4.241
 2374SOL    HW2 8022   5.930   0.839   4.146
 2375SOL     OW 8023   2.173   6.581   4.905
 2375SOL    HW1 8024   2.075   6.585   4.882
 2375SOL    HW2 8025   2.221   6.656   4.859
 2376SOL     OW 8026   5.877   1.968   3.704
 2376SOL    HW1 8027   5.972   1.991   3.725
 2376SOL    HW2 8028   5.847   1.893   3.764
 2377SOL     OW 8029   3.505   4.168   2.921
 2377SOL    HW1 8030   3.534   4.251   2.873
 2377SOL    HW2 8031   3.516   4.089   2.861
 2378SOL     OW 8032   5.145   2.511   6.787
 2378SOL    HW1 8033   5.216   2.474   6.846
 2378SOL    HW2 8034   5.055   2.478   6.817
 2379SOL     OW 8035   6.546   1.624   6.495
 2379SOL    HW1 8036   6.461   1.675   6.484
 2379SOL    HW2 8037   6.577   1.630   6.590
 2380SOL     OW 8038   6.833   6.684   5.932
 2380SOL    HW1 8039   6.755   6.740   5.904
 2380SOL    HW2 8040   6.832   6.598   5.881
 2381SOL     OW 8041   2.277   4.079   4.151
 2381SOL    HW1 8042   2.315   4.159   4.106
 2381SOL    HW2 8043   2.307   3.996   4.103
 2382SOL     OW 8044   2.457   5.079   3.208
 2382SOL    HW1 8045   2.443   5.067   3.307
 2382SOL    HW2 8046   2.371   5.106   3.165
 2383SOL     OW 8047   5.563   6.153   6.963
 2383SOL    HW1 8048   5.487   6.106   6.917
 2383SOL    HW2 8049   5.631   6.180   6.896
 2384SOL     OW 8050   0.234   6.845   2.203
 2384SOL    HW1 8051   0.235   6.936   2.245
 2384SOL    HW2 8052   0.167   6.843   2.129
 2385SOL     OW 8053   5.963   6.752   1.682
 2385SOL    HW1 8054   5.870   6.741   1.717
 2385SOL    HW2 8055   6.012   6.665   1.692
 2386SOL     OW 8056   5.246   4.734   4.430
 2386SOL    HW1 8057   5.340   4.724   4.398
 2386SOL    HW2 8058   5.211   4.646   4.461
 2387SOL     OW 8059   0.291   1.876   3.547
 2387SOL    HW1 8060   0.360   1.889   3.618
 2387SOL    HW2 8061   0.239   1.961   3.535
 2388SOL     OW 8062   1.161   1.910   4.034
 2388SOL    HW1 8063   1.121   1.901   3.943
 2388SOL    HW2 8064   1.183   2.005   4.052
 2389SOL     OW 8065   5.500   3.359   3.807
 2389SOL    HW1 8066   5.540   3.402   3.888
 2389SOL    HW2 8067   5.403   3.385   3.800
 2390SOL     OW 8068   3.344   3.687   4.250
 2390SOL    HW1 8069   3.429   3.639   4.226
 2390SOL    HW2 8070   3.296   3.635   4.321
 2391SOL     OW 8071   4.637   4.156   5.888
 2391SOL    HW1 8072   4.665   4.141   5.983
 2391SOL    HW2 8073   4.578   4.081   5.858
 2392SOL     OW 8074   3.449   6.695   5.316
 2392SOL    HW1 8075   3.419   6.706   5.221
 2392SOL    HW2 8076   3.543   6.661   5.317
 2393SOL     OW 8077   4.130   4.924   0.699
 2393SOL    HW1 8078   4.183   4.889   0.621
 2393SOL    HW2 8079   4.137   4.860   0.775
 2394SOL     OW 8080   1.723   2.925   4.940
 2394SOL    HW1 8081   1.682   2.997   4.885
 2394SOL    HW2 8082   1.794   2.963   4.999
 2395SOL     OW 8083   6.115   2.908   0.138
 2395SOL    HW1 8084   6.110   2.818   0.096
 2395SOL    HW2 8085   6.145   2.975   0.070
 2396SOL     OW 8086   4.377   5.761   0.242
 2396SOL    HW1 8087   4.316   5.682   0.234
 2396SOL    HW2 8088   4.326   5.839   0.279
 2397SOL     OW 8089   0.325   3.532   0.365
 2397SOL    HW1 8090   0.303   3.465   0.436
 2397SOL    HW2 8091   0.341   3.485   0.278
 2398SOL     OW 8092   3.175   4.376   6.117
 2398SOL    HW1 8093   3.186   4.426   6.203
 2398SOL    HW2 8094   3.155   4.280   6.137
 2399SOL     OW 8095   4.868   1.236   2.475
 2399SOL    HW1 8096   4.909   1.197   2.557
 2399SOL    HW2 8097   4.866   1.167   2.402
 2400SOL     OW 8098   4.215   4.848   0.429
 2400SOL    HW1 8099   4.197   4.902   0.348
 2400SOL    HW2 8100   4.269   4.767   0.404
 2401SOL     OW 8101   4.014   0.699   6.364
 2401SOL    HW1 8102   4.060   0.787   6.373
 2401SOL    HW2 8103   3.920   0.706   6.398
 2402SOL     OW 8104   0.372   2.180   4.453
 2402SOL    HW1 8105   0.459   2.211   4.491
 2402SOL    HW2 8106   0.389   2.127   4.370
 2403SOL     OW 8107   2.941   2.827   0.002
 2403SOL    HW1 8108   2.925   2.755   0.069
 2403SOL    HW2 8109   2.985   2.905   0.047
 2404SOL     OW 8110   5.830   1.104   2.063
 2404SOL    HW1 8111   5.883   1.086   1.980
 2404SOL    HW2 8112   5.864   1.047   2.137
 2405SOL     OW 8113   3.410   3.452   3.497
 2405SOL    HW1 8114   3.491   3.395   3.491
 2405SOL    HW2 8115   3.421   3.531   3.437
 2406SOL     OW 8116   1.662   0.158   3.813
 2406SOL    HW1 8117   1.635   0.086   3.749
 2406SOL    HW2 8118   1.581   0.205   3.847
 2407SOL     OW 8119   4.792   2.839   2.720
 2407SOL    HW1 8120   4.702   2.825   2.680
 2407SOL    HW2 8121   4.782   2.856   2.818
 2408SOL     OW 8122   3.089   4.935   2.248
 2408SOL    HW1 8123   3.188   4.947   2.256
 2408SOL    HW2 8124   3.064   4.930   2.151
 2409SOL     OW 8125   2.021   2.757   1.847
 2409SOL    HW1 8126   2.119   2.753   1.866
 2409SOL    HW2 8127   1.981   2.666   1.857
 2410SOL     OW 8128   5.159   2.643   6.165
 2410SOL    HW1 8129   5.237   2.704   6.172
 2410SOL    HW2 8130   5.128   2.618   6.257
 2411SOL     OW 8131   4.719   5.383   5.437
 2411SOL    HW1 8132   4.663   5.455   5.397
 2411SOL    HW2 8133   4.792   5.423   5.492
 2412SOL     OW 8134   2.804   4.061   6.909
 2412SOL    HW1 8135   2.858   4.138   6.941
 2412SOL    HW2 8136   2.865   3.991   6.872
 2413SOL     OW 8137   6.494   2.434   6.727
 2413SOL    HW1 8138   6.449   2.521   6.711
 2413SOL    HW2 8139   6.561   2.444   6.801
 2414SOL     OW 8140   5.862   4.409   2.552
 2414SOL    HW1 8141   5.911   4.329   2.586
 2414SOL    HW2 8142   5.768   4.408   2.587
 2415SOL     OW 8143   0.863   6.644   1.146
 2415SOL    HW1 8144   0.822   6.554   1.132
 2415SOL    HW2 8145   0.799   6.715   1.117
 2416SOL     OW 8146   3.020   2.133   5.214
 2416SOL    HW1 8147   3.011   2.171   5.306
 2416SOL    HW2 8148   3.077   2.194   5.159
 2417SOL     OW 8149   4.203   2.693   6.487
 2417SOL    HW1 8150   4.264   2.765   6.520
 2417SOL    HW2 8151   4.222   2.608   6.535
 2418SOL     OW 8152   2.933   3.549   3.087
 2418SOL    HW1 8153   2.867   3.480   3.117
 2418SOL    HW2 8154   3.019   3.537   3.136
 2419SOL     OW 8155   0.882   6.603   3.284
 2419SOL    HW1 8156   0.935   6.686   3.299
 2419SOL    HW2 8157   0.939   6.534   3.240
 2420SOL     OW 8158   3.359   1.055   2.377
 2420SOL    HW1 8159   3.429   1.127   2.377
 2420SOL    HW2 8160   3.277   1.089   2.423
 2421SOL     OW 8161   2.614   1.222   5.273
 2421SOL    HW1 8162   2.684   1.179   5.217
 2421SOL    HW2 8163   2.585   1.159   5.345
 2422SOL     OW 8164   5.475   0.369   1.805
 2422SOL    HW1 8165   5.527   0.441   1.759
 2422SOL    HW2 8166   5.520   0.346   1.892
 2423SOL     OW 8167   1.765   5.740   3.624
 2423SOL    HW1 8168   1.856   5.773   3.650
 2423SOL    HW2 8169   1.772   5.646   3.591
 2424SOL     OW 8170   5.778   6.253   6.083
 2424SOL    HW1 8171   5.847   6.325   6.096
 2424SOL    HW2 8172   5.756   6.246   5.986
 2425SOL     OW 8173   5.981   0.298   4.224
 2425SOL    HW1 8174   6.070   0.264   4.254
 2425SOL    HW2 8175   5.991   0.392   4.192
 2426SOL     OW 8176   0.694   4.419   3.756
 2426SOL    HW1 8177   0.686   4.510   3.795
 2426SOL    HW2 8178   0.749   4.423   3.672
 2427SOL     OW 8179   6.115   5.601   6.727
 2427SOL    HW1 8180   6.052   5.676   6.707
 2427SOL    HW2 8181   6.069   5.533   6.785
 2428SOL     OW 8182   7.002   0.087   3.605
 2428SOL    HW1 8183   6.918   0.039   3.577
 2428SOL    HW2 8184   0.013   0.046   3.689
 2429SOL     OW 8185   6.575   6.112   4.260
 2429SOL    HW1 8186   6.650   6.173   4.285
 2429SOL    HW2 8187   6.543   6.063   4.342
 2430SOL     OW 8188   6.283   2.364   1.724
 2430SOL    HW1 8189   6.283   2.431   1.650
 2430SOL    HW2 8190   6.370   2.315   1.725
 2431SOL     OW 8191   3.746   0.233   1.797
 2431SOL    HW1 8192   3.684   0.296   1.844
 2431SOL    HW2 8193   3.759   0.151   1.853
 2432SOL     OW 8194   3.750   6.533   3.380
 2432SOL    HW1 8195   3.711   6.621   3.352
 2432SOL    HW2 8196   3.762   6.475   3.299
 2433SOL     OW 8197   3.209   6.506   0.715
 2433SOL    HW1 8198   3.203   6.510   0.815
 2433SOL    HW2 8199   3.141   6.442   0.680
 2434SOL     OW 8200   4.193   1.387   3.310
 2434SOL    HW1 8201   4.105   1.412   3.270
 2434SOL    HW2 8202   4.210   1.289   3.296
 2435SOL     OW 8203   4.919   5.545   5.550
 2435SOL    HW1 8204   4.956   5.599   5.626
 2435SOL    HW2 8205   4.991   5.530   5.482
 2436SOL     OW 8206   1.652   0.089   1.010
 2436SOL    HW1 8207   1.609   0.177   0.990
 2436SOL    HW2 8208   1.605   0.017   0.959
 2437SOL     OW 8209   3.631   5.616   0.700
 2437SOL    HW1 8210   3.690   5.567   0.764
 2437SOL    HW2 8211   3.538   5.621   0.737
 2438SOL     OW 8212   3.843   1.684   5.433
 2438SOL    HW1 8213   3.746   1.688   5.410
 2438SOL    HW2 8214   3.858   1.725   5.524
 2439SOL     OW 8215   1.492   4.311   6.972
 2439SOL    HW1 8216   1.487   4.215   6.943
 2439SOL    HW2 8217   1.550   4.319   0.029
 2440SOL     OW 8218   3.666   6.548   5.079
 2440SOL    HW1 8219   3.606   6.617   5.039
 2440SOL    HW2 8220   3.684   6.476   5.011
 2441SOL     OW 8221   6.360   0.507   0.212
 2441SOL    HW1 8222   6.434   0.500   0.279
 2441SOL    HW2 8223   6.398   0.514   0.120
 2442SOL     OW 8224   6.874   5.990   3.996
 2442SOL    HW1 8225   6.922   5.990   3.909
 2442SOL    HW2 8226   6.902   6.069   4.050
 2443SOL     OW 8227   3.401   6.688   6.329
 2443SOL    HW1 8228   3.316   6.655   6.371
 2443SOL    HW2 8229   3.447   6.750   6.392
 2444SOL     OW 8230   3.837   4.375   6.291
 2444SOL    HW1 8231   3.922   4.325   6.272
 2444SOL    HW2 8232   3.839   4.409   6.385
 2445SOL     OW 8233   6.767   1.012   2.184
 2445SOL    HW1 8234   6.832   1.024   2.109
 2445SOL    HW2 8235   6.685   0.966   2.150
 2446SOL     OW 8236   0.294   3.366   4.330
 2446SOL    HW1 8237   0.221   3.394   4.393
 2446SOL    HW2 8238   0.329   3.276   4.357
 2447SOL     OW 8239   2.462   1.234   1.030
 2447SOL    HW1 8240   2.405   1.198   1.103
 2447SOL    HW2 8241   2.502   1.159   0.978
 2448SOL     OW 8242   0.822   0.361   4.569
 2448SOL    HW1 8243   0.812   0.379   4.667
 2448SOL    HW2 8244   0.755   0.293   4.541
 2449SOL     OW 8245   0.219   3.996   2.425
 2449SOL    HW1 8246   0.124   3.978   2.449
 2449SOL    HW2 8247   0.225   4.021   2.329
 2450SOL     OW 8248   2.756   4.845   4.311
 2450SOL    HW1 8249   2.700   4.805   4.239
 2450SOL    HW2 8250   2.741   4.944   4.315
 2451SOL     OW 8251   6.861   0.062   4.287
 2451SOL    HW1 8252   6.802   0.141   4.301
 2451SOL    HW2 8253   6.890   0.058   4.192
 2452SOL     OW 8254   3.029   2.217   3.330
 2452SOL    HW1 8255   2.990   2.146   3.272
 2452SOL    HW2 8256   2.979   2.221   3.416
 2453SOL     OW 8257   0.106   3.430   0.625
 2453SOL    HW1 8258   0.038   3.413   0.697
 2453SOL    HW2 8259   0.182   3.365   0.635
 2454SOL     OW 8260   3.425   0.759   0.101
 2454SOL    HW1 8261   3.381   0.716   0.023
 2454SOL    HW2 8262   3.517   0.720   0.113
 2455SOL     OW 8263   5.331   6.951   0.742
 2455SOL    HW1 8264   5.331   6.865   0.794
 2455SOL    HW2 8265   5.381   7.021   0.793
 2456SOL     OW 8266   5.487   0.978   6.855
 2456SOL    HW1 8267   5.408   1.039   6.861
 2456SOL    HW2 8268   5.537   0.995   6.770
 2457SOL     OW 8269   5.902   6.316   6.481
 2457SOL    HW1 8270   5.873   6.224   6.457
 2457SOL    HW2 8271   5.854   6.383   6.424
 2458SOL     OW 8272   2.339   5.907   4.098
 2458SOL    HW1 8273   2.307   5.860   4.180
 2458SOL    HW2 8274   2.294   5.996   4.091
 2459SOL     OW 8275   2.760   6.251   0.207
 2459SOL    HW1 8276   2.751   6.152   0.213
 2459SOL    HW2 8277   2.844   6.280   0.252
 2460SOL     OW 8278   1.738   1.502   1.395
 2460SOL    HW1 8279   1.682   1.478   1.473
 2460SOL    HW2 8280   1.830   1.527   1.426
 2461SOL     OW 8281   4.089   0.164   3.102
 2461SOL    HW1 8282   4.159   0.163   3.173
 2461SOL    HW2 8283   4.128   0.197   3.016
 2462SOL     OW 8284   2.618   5.379   6.945
 2462SOL    HW1 8285   2.543   5.442   6.964
 2462SOL    HW2 8286   2.656   5.397   6.855
 2463SOL     OW 8287   6.321   2.613   3.951
 2463SOL    HW1 8288   6.421   2.612   3.946
 2463SOL    HW2 8289   6.284   2.612   3.858
 2464SOL     OW 8290   1.721   3.979   1.628
 2464SOL    HW1 8291   1.666   3.967   1.711
 2464SOL    HW2 8292   1.808   3.931   1.638
 2465SOL     OW 8293   0.472   6.854   1.595
 2465SOL    HW1 8294   0.533   6.781   1.627
 2465SOL    HW2 8295   0.483   6.935   1.654
 2466SOL     OW 8296   3.095   1.636   1.717
 2466SOL    HW1 8297   3.087   1.554   1.774
 2466SOL    HW2 8298   3.028   1.631   1.642
 2467SOL     OW 8299   5.882   1.441   4.991
 2467SOL    HW1 8300   5.829   1.496   5.054
 2467SOL    HW2 8301   5.976   1.477   4.986
 2468SOL     OW 8302   5.832   6.032   2.548
 2468SOL    HW1 8303   5.901   6.067   2.484
 2468SOL    HW2 8304   5.844   6.076   2.637
 2469SOL     OW 8305   4.042   4.612   5.514
 2469SOL    HW1 8306   4.024   4.525   5.468
 2469SOL    HW2 8307   4.074   4.679   5.447
 2470SOL     OW 8308   3.769   4.544   6.070
 2470SOL    HW1 8309   3.756   4.515   6.165
 2470SOL    HW2 8310   3.746   4.469   6.008
 2471SOL     OW 8311   2.304   6.510   0.824
 2471SOL    HW1 8312   2.352   6.537   0.907
 2471SOL    HW2 8313   2.243   6.585   0.796
 2472SOL     OW 8314   4.479   2.075   3.743
 2472SOL    HW1 8315   4.518   2.081   3.835
 2472SOL    HW2 8316   4.545   2.034   3.681
 2473SOL     OW 8317   2.017   4.108   5.213
 2473SOL    HW1 8318   2.032   4.009   5.204
 2473SOL    HW2 8319   2.083   4.157   5.157
 2474SOL     OW 8320   0.470   5.679   0.408
 2474SOL    HW1 8321   0.389   5.725   0.442
 2474SOL    HW2 8322   0.548   5.742   0.412
 2475SOL     OW 8323   5.001   1.315   1.046
 2475SOL    HW1 8324   4.978   1.235   0.990
 2475SOL    HW2 8325   4.918   1.352   1.087
 2476SOL     OW 8326   0.802   2.808   3.798
 2476SOL    HW1 8327   0.738   2.833   3.726
 2476SOL    HW2 8328   0.826   2.889   3.852
 2477SOL     OW 8329   5.362   1.146   2.549
 2477SOL    HW1 8330   5.288   1.180   2.492
 2477SOL    HW2 8331   5.429   1.096   2.493
 2478SOL     OW 8332   5.425   0.629   2.169
 2478SOL    HW1 8333   5.412   0.700   2.100
 2478SOL    HW2 8334   5.380   0.545   2.140
 2479SOL     OW 8335   1.610   3.822   1.193
 2479SOL    HW1 8336   1.636   3.890   1.262
 2479SOL    HW2 8337   1.557   3.750   1.237
 2480SOL     OW 8338   6.075   4.673   0.780
 2480SOL    HW1 8339   6.020   4.702   0.858
 2480SOL    HW2 8340   6.020   4.616   0.719
 2481SOL     OW 8341   2.535   6.871   0.557
 2481SOL    HW1 8342   2.585   6.817   0.488
 2481SOL    HW2 8343   2.585   6.956   0.574
 2482SOL     OW 8344   4.848   2.655   5.751
 2482SOL    HW1 8345   4.845   2.654   5.851
 2482SOL    HW2 8346   4.771   2.603   5.715
 2483SOL     OW 8347   2.429   1.332   6.897
 2483SOL    HW1 8348   2.424   1.248   6.844
 2483SOL    HW2 8349   2.481   1.401   6.847
 2484SOL     OW 8350   2.081   0.708   0.433
 2484SOL    HW1 8351   2.052   0.662   0.349
 2484SOL    HW2 8352   2.125   0.642   0.494
 2485SOL     OW 8353   4.805   4.671   2.214
 2485SOL    HW1 8354   4.769   4.759   2.245
 2485SOL    HW2 8355   4.730   4.604   2.210
 2486SOL     OW 8356   3.473   5.285   3.412
 2486SOL    HW1 8357   3.378   5.289   3.382
 2486SOL    HW2 8358   3.477   5.257   3.508
 2487SOL     OW 8359   4.200   5.244   6.832
 2487SOL    HW1 8360   4.138   5.310   6.789
 2487SOL    HW2 8361   4.166   5.151   6.816
 2488SOL     OW 8362   2.096   4.184   2.671
 2488SOL    HW1 8363   2.028   4.183   2.745
 2488SOL    HW2 8364   2.063   4.243   2.597
 2489SOL     OW 8365   2.516   6.023   3.715
 2489SOL    HW1 8366   2.491   5.926   3.725
 2489SOL    HW2 8367   2.613   6.030   3.695
 2490SOL     OW 8368   6.526   5.559   0.931
 2490SOL    HW1 8369   6.625   5.564   0.950
 2490SOL    HW2 8370   6.509   5.490   0.861
 2491SOL     OW 8371   2.940   6.173   1.605
 2491SOL    HW1 8372   2.842   6.170   1.584
 2491SOL    HW2 8373   2.973   6.267   1.601
 2492SOL     OW 8374   4.564   3.303   0.030
 2492SOL    HW1 8375   4.561   3.280   6.957
 2492SOL    HW2 8376   4.476   3.282   0.072
 2493SOL     OW 8377   5.660   0.023   2.694
 2493SOL    HW1 8378   5.573   0.032   2.645
 2493SOL    HW2 8379   5.726   0.090   2.660
 2494SOL     OW 8380   6.018   3.540   2.760
 2494SOL    HW1 8381   5.964   3.456   2.761
 2494SOL    HW2 8382   6.077   3.541   2.679
 2495SOL     OW 8383   4.957   0.054   4.556
 2495SOL    HW1 8384   4.899   0.131   4.584
 2495SOL    HW2 8385   4.937   0.031   4.461
 2496SOL     OW 8386   0.707   4.775   6.251
 2496SOL    HW1 8387   0.763   4.704   6.294
 2496SOL    HW2 8388   0.709   4.763   6.151
 2497SOL     OW 8389   0.452   1.072   0.890
 2497SOL    HW1 8390   0.469   1.115   0.979
 2497SOL    HW2 8391   0.375   1.008   0.898
 2498SOL     OW 8392   3.193   2.115   3.542
 2498SOL    HW1 8393   3.136   2.181   3.494
 2498SOL    HW2 8394   3.162   2.022   3.521
 2499SOL     OW 8395   5.260   1.727   4.352
 2499SOL    HW1 8396   5.346   1.680   4.329
 2499SOL    HW2 8397   5.187   1.693   4.292
 2500SOL     OW 8398   4.192   3.327   5.875
 2500SOL    HW1 8399   4.209   3.281   5.787
 2500SOL    HW2 8400   4.279   3.355   5.915
 2501SOL     OW 8401   0.256   5.901   6.856
 2501SOL    HW1 8402   0.324   5.888   6.928
 2501SOL    HW2 8403   0.299   5.891   6.766
 2502SOL     OW 8404   2.611   6.201   3.427
 2502SOL    HW1 8405   2.633   6.225   3.333
 2502SOL    HW2 8406   2.588   6.284   3.478
 2503SOL     OW 8407   3.626   5.631   6.151
 2503SOL    HW1 8408   3.614   5.536   6.123
 2503SOL    HW2 8409   3.596   5.692   6.078
 2504SOL     OW 8410   3.357   5.509   5.517
 2504SOL    HW1 8411   3.413   5.440   5.471
 2504SOL    HW2 8412   3.307   5.467   5.592
 2505SOL     OW 8413   1.903   6.200   4.226
 2505SOL    HW1 8414   1.840   6.140   4.178
 2505SOL    HW2 8415   1.897   6.183   4.324
 2506SOL     OW 8416   6.071   3.147   6.048
 2506SOL    HW1 8417   6.139   3.156   6.121
 2506SOL    HW2 8418   6.015   3.229   6.043
 2507SOL     OW 8419   6.863   4.097   0.278
 2507SOL    HW1 8420   6.875   4.007   0.236
 2507SOL    HW2 8421   6.868   4.167   0.206
 2508SOL     OW 8422   2.877   1.236   2.346
 2508SOL    HW1 8423   2.891   1.318   2.291
 2508SOL    HW2 8424   2.792   1.192   2.318
 2509SOL     OW 8425   5.824   2.921   2.963
 2509SOL    HW1 8426   5.787   2.878   2.881
 2509SOL    HW2 8427   5.782   3.012   2.974
 2510SOL     OW 8428   3.497   4.612   1.259
 2510SOL    HW1 8429   3.435   4.627   1.182
 2510SOL    HW2 8430   3.550   4.694   1.275
 2511SOL     OW 8431   2.407   2.341   4.479
 2511SOL    HW1 8432   2.353   2.421   4.504
 2511SOL    HW2 8433   2.346   2.266   4.454
 2512SOL     OW 8434   5.130   5.168   5.469
 2512SOL    HW1 8435   5.187   5.210   5.399
 2512SOL    HW2 8436   5.046   5.133   5.426
 2513SOL     OW 8437   1.025   3.235   5.622
 2513SOL    HW1 8438   1.029   3.323   5.574
 2513SOL    HW2 8439   0.940   3.189   5.599
 2514SOL     OW 8440   6.697   3.764   4.579
 2514SOL    HW1 8441   6.652   3.772   4.668
 2514SOL    HW2 8442   6.629   3.745   4.509
 2515SOL     OW 8443   1.469   6.941   0.863
 2515SOL    HW1 8444   1.431   0.003   0.831
 2515SOL    HW2 8445   1.432   6.919   0.953
 2516SOL     OW 8446   5.860   6.524   3.349
 2516SOL    HW1 8447   5.787   6.463   3.320
 2516SOL    HW2 8448   5.822   6.613   3.373
 2517SOL     OW 8449   1.485   5.591   5.647
 2517SOL    HW1 8450   1.585   5.589   5.646
 2517SOL    HW2 8451   1.451   5.651   5.574
 2518SOL     OW 8452   2.246   2.815   0.078
 2518SOL    HW1 8453   2.330   2.852   0.036
 2518SOL    HW2 8454   2.270   2.740   0.139
 2519SOL     OW 8455   5.079   5.545   4.308
 2519SOL    HW1 8456   5.137   5.585   4.379
 2519SOL    HW2 8457   5.005   5.608   4.287
 2520SOL     OW 8458   1.346   3.015   0.837
 2520SOL    HW1 8459   1.427   2.966   0.806
 2520SOL    HW2 8460   1.323   2.986   0.930
 2521SOL     OW 8461   0.997   6.556   5.619
 2521SOL    HW1 8462   0.914   6.507   5.594
 2521SOL    HW2 8463   1.073   6.491   5.628
 2522SOL     OW 8464   1.055   3.091   6.037
 2522SOL    HW1 8465   1.074   3.161   5.968
 2522SOL    HW2 8466   1.067   3.000   5.997
 2523SOL     OW 8467   0.432   3.225   1.070
 2523SOL    HW1 8468   0.511   3.165   1.079
 2523SOL    HW2 8469   0.461   3.314   1.035
 2524SOL     OW 8470   0.598   5.878   3.970
 2524SOL    HW1 8471   0.510   5.905   4.008
 2524SOL    HW2 8472   0.588   5.858   3.872
 2525SOL     OW 8473   1.390   2.378   4.771
 2525SOL    HW1 8474   1.391   2.358   4.869
 2525SOL    HW2 8475   1.321   2.447   4.752
 2526SOL     OW 8476   1.347   3.921   5.709
 2526SOL    HW1 8477   1.362   3.987   5.636
 2526SOL    HW2 8478   1.423   3.925   5.774
 2527SOL     OW 8479   4.645   6.835   4.608
 2527SOL    HW1 8480   4.709   6.761   4.629
 2527SOL    HW2 8481   4.572   6.836   4.677
 2528SOL     OW 8482   6.216   4.148   1.149
 2528SOL    HW1 8483   6.309   4.124   1.121
 2528SOL    HW2 8484   6.202   4.123   1.245
 2529SOL     OW 8485   5.726   5.805   5.926
 2529SOL    HW1 8486   5.789   5.841   5.996
 2529SOL    HW2 8487   5.633   5.831   5.950
 2530SOL     OW 8488   1.072   5.783   4.761
 2530SOL    HW1 8489   1.087   5.688   4.733
 2530SOL    HW2 8490   0.997   5.822   4.707
 2531SOL     OW 8491   5.598   5.613   4.526
 2531SOL    HW1 8492   5.521   5.566   4.484
 2531SOL    HW2 8493   5.574   5.640   4.620
 2532SOL     OW 8494   0.693   5.873   0.737
 2532SOL    HW1 8495   0.783   5.842   0.709
 2532SOL    HW2 8496   0.650   5.924   0.662
 2533SOL     OW 8497   5.069   6.195   3.592
 2533SOL    HW1 8498   5.058   6.231   3.685
 2533SOL    HW2 8499   5.051   6.268   3.526
 2534SOL     OW 8500   2.061   0.201   3.672
 2534SOL    HW1 8501   2.062   0.128   3.603
 2534SOL    HW2 8502   1.988   0.265   3.652
 2535SOL     OW 8503   2.611   2.521   6.919
 2535SOL    HW1 8504   2.563   2.533   6.832
 2535SOL    HW2 8505   2.709   2.512   6.901
 2536SOL     OW 8506   0.351   1.711   3.310
 2536SOL    HW1 8507   0.424   1.657   3.351
 2536SOL    HW2 8508   0.319   1.780   3.376
 2537SOL     OW 8509   5.740   5.644   0.049
 2537SOL    HW1 8510   5.731   5.622   0.146
 2537SOL    HW2 8511   5.652   5.675   0.013
 2538SOL     OW 8512   1.361   4.226   4.628
 2538SOL    HW1 8513   1.303   4.306   4.617
 2538SOL    HW2 8514   1.416   4.213   4.545
 2539SOL     OW 8515   4.471   6.939   5.847
 2539SOL    HW1 8516   4.441   7.023   5.804
 2539SOL    HW2 8517   4.394   6.875   5.853
 2540SOL     OW 8518   4.757   0.862   0.947
 2540SOL    HW1 8519   4.764   0.764   0.928
 2540SOL    HW2 8520   4.672   0.898   0.909
 2541SOL     OW 8521   1.554   0.366   5.854
 2541SOL    HW1 8522   1.559   0.353   5.755
 2541SOL    HW2 8523   1.599   0.452   5.879
 2542SOL     OW 8524   4.091   1.440   5.057
 2542SOL    HW1 8525   4.120   1.446   4.962
 2542SOL    HW2 8526   4.037   1.521   5.081
 2543SOL     OW 8527   1.807   0.978   2.766
 2543SOL    HW1 8528   1.792   1.062   2.818
 2543SOL    HW2 8529   1.723   0.924   2.762
 2544SOL     OW 8530   0.524   5.034   2.779
 2544SOL    HW1 8531   0.543   5.032   2.877
 2544SOL    HW2 8532   0.473   4.952   2.753
 2545SOL     OW 8533   1.494   0.605   1.406
 2545SOL    HW1 8534   1.454   0.666   1.337
 2545SOL    HW2 8535   1.472   0.510   1.384
 2546SOL     OW 8536   6.208   3.306   1.884
 2546SOL    HW1 8537   6.152   3.382   1.852
 2546SOL    HW2 8538   6.303   3.335   1.894
 2547SOL     OW 8539   5.213   5.507   6.550
 2547SOL    HW1 8540   5.221   5.482   6.647
 2547SOL    HW2 8541   5.186   5.426   6.497
 2548SOL     OW 8542   2.463   0.848   5.370
 2548SOL    HW1 8543   2.533   0.842   5.299
 2548SOL    HW2 8544   2.430   0.757   5.393
 2549SOL     OW 8545   2.163   1.858   2.050
 2549SOL    HW1 8546   2.209   1.778   2.090
 2549SOL    HW2 8547   2.215   1.940   2.070
 2550SOL     OW 8548   6.536   0.876   6.621
 2550SOL    HW1 8549   6.508   0.962   6.577
 2550SOL    HW2 8550   6.455   0.819   6.637
 2551SOL     OW 8551   3.170   5.510   0.048
 2551SOL    HW1 8552   3.162   5.473   6.980
 2551SOL    HW2 8553   3.267   5.512   0.074
 2552SOL     OW 8554   1.751   5.456   6.048
 2552SOL    HW1 8555   1.795   5.460   6.138
 2552SOL    HW2 8556   1.651   5.452   6.060
 2553SOL     OW 8557   2.826   3.234   6.715
 2553SOL    HW1 8558   2.752   3.281   6.667
 2553SOL    HW2 8559   2.901   3.215   6.651
 2554SOL     OW 8560   1.354   5.823   6.523
 2554SOL    HW1 8561   1.378   5.739   6.572
 2554SOL    HW2 8562   1.397   5.822   6.433
 2555SOL     OW 8563   6.259   6.432   6.832
 2555SOL    HW1 8564   6.353   6.465   6.817
 2555SOL    HW2 8565   6.252   6.337   6.801
 2556SOL     OW 8566   4.293   6.213   1.117
 2556SOL    HW1 8567   4.317   6.280   1.047
 2556SOL    HW2 8568   4.199   6.228   1.147
 2557SOL     OW 8569   2.413   1.564   6.550
 2557SOL    HW1 8570   2.315   1.568   6.529
 2557SOL    HW2 8571   2.447   1.656   6.570
 2558SOL     OW 8572   4.049   3.909   5.475
 2558SOL    HW1 8573   4.102   3.978   5.524
 2558SOL    HW2 8574   4.088   3.818   5.493
 2559SOL     OW 8575   6.510   3.485   4.080
 2559SOL    HW1 8576   6.461   3.403   4.050
 2559SOL    HW2 8577   6.562   3.522   4.003
 2560SOL     OW 8578   4.877   3.566   3.943
 2560SOL    HW1 8579   4.886   3.510   4.025
 2560SOL    HW2 8580   4.913   3.516   3.864
 2561SOL     OW 8581   3.601   0.874   3.494
 2561SOL    HW1 8582   3.540   0.856   3.571
 2561SOL    HW2 8583   3.573   0.817   3.417
 2562SOL     OW 8584   2.301   5.440   2.477
 2562SOL    HW1 8585   2.378   5.462   2.417
 2562SOL    HW2 8586   2.239   5.519   2.481
 2563SOL     OW 8587   4.488   1.645   6.417
 2563SOL    HW1 8588   4.576   1.597   6.414
 2563SOL    HW2 8589   4.489   1.709   6.494
 2564SOL     OW 8590   1.241   6.363   6.433
 2564SOL    HW1 8591   1.264   6.458   6.456
 2564SOL    HW2 8592   1.257   6.304   6.511
 2565SOL     OW 8593   7.000   0.799   1.027
 2565SOL    HW1 8594   6.981   0.778   1.123
 2565SOL    HW2 8595   6.916   0.796   0.974
 2566SOL     OW 8596   1.239   6.940   0.560
 2566SOL    HW1 8597   1.311   6.885   0.601
 2566SOL    HW2 8598   1.258   6.955   0.463
 2567SOL     OW 8599   1.422   1.322   2.159
 2567SOL    HW1 8600   1.372   1.277   2.233
 2567SOL    HW2 8601   1.457   1.410   2.191
 2568SOL     OW 8602   2.858   0.301   0.235
 2568SOL    HW1 8603   2.797   0.286   0.157
 2568SOL    HW2 8604   2.889   0.396   0.235
 2569SOL     OW 8605   2.043   1.278   2.757
 2569SOL    HW1 8606   2.000   1.271   2.668
 2569SOL    HW2 8607   1.982   1.241   2.827
 2570SOL     OW 8608   5.678   0.043   6.101
 2570SOL    HW1 8609   5.738   0.119   6.125
 2570SOL    HW2 8610   5.583   0.075   6.097
 2571SOL     OW 8611   3.154   3.419   4.230
 2571SOL    HW1 8612   3.161   3.486   4.304
 2571SOL    HW2 8613   3.237   3.365   4.225
 2572SOL     OW 8614   1.505   6.699   1.586
 2572SOL    HW1 8615   1.440   6.750   1.643
 2572SOL    HW2 8616   1.594   6.745   1.587
 2573SOL     OW 8617   6.273   1.232   1.931
 2573SOL    HW1 8618   6.203   1.193   1.871
 2573SOL    HW2 8619   6.308   1.316   1.890
 2574SOL     OW 8620   6.860   3.194   0.067
 2574SOL    HW1 8621   6.902   3.147   0.144
 2574SOL    HW2 8622   6.859   3.292   0.084
 2575SOL     OW 8623   4.744   4.083   1.257
 2575SOL    HW1 8624   4.656   4.108   1.217
 2575SOL    HW2 8625   4.734   4.070   1.355
 2576SOL     OW 8626   3.722   0.011   3.866
 2576SOL    HW1 8627   3.762   0.053   3.785
 2576SOL    HW2 8628   3.752   6.940   3.874
 2577SOL     OW 8629   4.437   0.464   2.778
 2577SOL    HW1 8630   4.477   0.539   2.726
 2577SOL    HW2 8631   4.511   0.406   2.814
 2578SOL     OW 8632   4.317   3.192   5.656
 2578SOL    HW1 8633   4.406   3.148   5.653
 2578SOL    HW2 8634   4.245   3.121   5.656
 2579SOL     OW 8635   0.988   1.253   4.441
 2579SOL    HW1 8636   0.988   1.283   4.346
 2579SOL    HW2 8637   0.985   1.153   4.445
 2580SOL     OW 8638   1.508   3.111   6.416
 2580SOL    HW1 8639   1.500   3.210   6.424
 2580SOL    HW2 8640   1.417   3.071   6.405
 2581SOL     OW 8641   6.141   5.052   1.608
 2581SOL    HW1 8642   6.212   5.005   1.555
 2581SOL    HW2 8643   6.178   5.079   1.696
 2582SOL     OW 8644   1.454   4.280   2.796
 2582SOL    HW1 8645   1.449   4.313   2.702
 2582SOL    HW2 8646   1.413   4.189   2.802
 2583SOL     OW 8647   1.334   1.172   1.311
 2583SOL    HW1 8648   1.429   1.154   1.336
 2583SOL    HW2 8649   1.275   1.155   1.390
 2584SOL     OW 8650   3.473   5.496   0.080
 2584SOL    HW1 8651   3.547   5.470   0.017
 2584SOL    HW2 8652   3.512   5.516   0.170
 2585SOL     OW 8653   3.112   0.537   0.076
 2585SOL    HW1 8654   3.195   0.572   0.032
 2585SOL    HW2 8655   3.075   0.462   0.023
 2586SOL     OW 8656   4.827   1.924   3.995
 2586SOL    HW1 8657   4.897   1.909   4.065
 2586SOL    HW2 8658   4.838   1.856   3.922
 2587SOL     OW 8659   6.810   1.296   4.157
 2587SOL    HW1 8660   6.762   1.209   4.169
 2587SOL    HW2 8661   6.767   1.348   4.083
 2588SOL     OW 8662   4.775   0.128   0.679
 2588SOL    HW1 8663   4.692   0.081   0.648
 2588SOL    HW2 8664   4.852   0.064   0.675
 2589SOL     OW 8665   0.096   6.538   5.476
 2589SOL    HW1 8666   0.096   6.593   5.560
 2589SOL    HW2 8667   0.010   6.552   5.427
 2590SOL     OW 8668   3.453   6.571   1.943
 2590SOL    HW1 8669   3.527   6.622   1.987
 2590SOL    HW2 8670   3.490   6.488   1.901
 2591SOL     OW 8671   6.333   6.056   2.628
 2591SOL    HW1 8672   6.349   6.101   2.716
 2591SOL    HW2 8673   6.355   5.959   2.636
 2592SOL     OW 8674   2.088   6.988   1.292
 2592SOL    HW1 8675   2.074   0.061   1.272
 2592SOL    HW2 8676   2.130   6.979   1.382
 2593SOL     OW 8677   3.188   6.662   1.924
 2593SOL    HW1 8678   3.287   6.652   1.922
 2593SOL    HW2 8679   3.155   6.643   2.017
 2594SOL     OW 8680   0.138   6.537   5.891
 2594SOL    HW1 8681   0.131   6.591   5.807
 2594SOL    HW2 8682   0.194   6.587   5.958
 2595SOL     OW 8683   6.330   1.876   5.289
 2595SOL    HW1 8684   6.376   1.807   5.345
 2595SOL    HW2 8685   6.310   1.956   5.345
 2596SOL     OW 8686   3.898   2.228   1.769
 2596SOL    HW1 8687   3.919   2.197   1.861
 2596SOL    HW2 8688   3.808   2.271   1.767
 2597SOL     OW 8689   1.972   3.826   0.349
 2597SOL    HW1 8690   1.919   3.768   0.411
 2597SOL    HW2 8691   2.019   3.897   0.402
 2598SOL     OW 8692   6.730   1.541   4.529
 2598SOL    HW1 8693   6.797   1.494   4.586
 2598SOL    HW2 8694   6.676   1.474   4.477
 2599SOL     OW 8695   2.683   0.367   0.758
 2599SOL    HW1 8696   2.716   0.347   0.666
 2599SOL    HW2 8697   2.629   0.452   0.757
 2600SOL     OW 8698   4.908   3.623   4.710
 2600SOL    HW1 8699   4.875   3.706   4.663
 2600SOL    HW2 8700   4.868   3.619   4.802
 2601SOL     OW 8701   3.103   1.518   6.974
 2601SOL    HW1 8702   3.099   1.422   6.944
 2601SOL    HW2 8703   3.186   1.561   6.938
 2602SOL     OW 8704   6.650   5.111   3.786
 2602SOL    HW1 8705   6.741   5.090   3.822
 2602SOL    HW2 8706   6.650   5.204   3.747
 2603SOL     OW 8707   2.217   2.534   1.704
 2603SOL    HW1 8708   2.281   2.583   1.763
 2603SOL    HW2 8709   2.247   2.439   1.694
 2604SOL     OW 8710   5.096   1.354   2.879
 2604SOL    HW1 8711   5.037   1.305   2.814
 2604SOL    HW2 8712   5.041   1.381   2.959
 2605SOL     OW 8713   3.072   5.062   3.332
 2605SOL    HW1 8714   3.051   5.039   3.427
 2605SOL    HW2 8715   3.111   5.154   3.328
 2606SOL     OW 8716   0.164   4.721   0.741
 2606SOL    HW1 8717   0.071   4.748   0.767
 2606SOL    HW2 8718   0.229   4.768   0.800
 2607SOL     OW 8719   0.647   1.545   5.615
 2607SOL    HW1 8720   0.669   1.559   5.711
 2607SOL    HW2 8721   0.710   1.478   5.576
 2608SOL     OW 8722   3.865   5.513   2.419
 2608SOL    HW1 8723   3.783   5.569   2.431
 2608SOL    HW2 8724   3.853   5.426   2.468
 2609SOL     OW 8725   0.727   2.278   1.383
 2609SOL    HW1 8726   0.701   2.322   1.297
 2609SOL    HW2 8727   0.690   2.331   1.460
 2610SOL     OW 8728   6.784   4.765   4.454
 2610SOL    HW1 8729   6.770   4.777   4.552
 2610SOL    HW2 8730   6.870   4.716   4.439
 2611SOL     OW 8731   5.427   6.634   1.437
 2611SOL    HW1 8732   5.402   6.705   1.372
 2611SOL    HW2 8733   5.527   6.624   1.438
 2612SOL     OW 8734   6.956   6.991   5.732
 2612SOL    HW1 8735   6.956   6.958   5.826
 2612SOL    HW2 8736   6.949   0.067   5.732
 2613SOL     OW 8737   2.877   6.649   1.151
 2613SOL    HW1 8738   2.933   6.713   1.099
 2613SOL    HW2 8739   2.800   6.618   1.095
 2614SOL     OW 8740   6.859   0.157   5.964
 2614SOL    HW1 8741   6.796   0.099   6.014
 2614SOL    HW2 8742   6.949   0.156   6.008
 2615SOL     OW 8743   6.336   3.740   2.775
 2615SOL    HW1 8744   6.274   3.747   2.853
 2615SOL    HW2 8745   6.403   3.814   2.779
 2616SOL     OW 8746   3.683   3.363   3.574
 2616SOL    HW1 8747   3.642   3.454   3.567
 2616SOL    HW2 8748   3.693   3.339   3.671
 2617SOL     OW 8749   4.079   6.398   0.998
 2617SOL    HW1 8750   4.177   6.404   0.984
 2617SOL    HW2 8751   4.032   6.398   0.909
 2618SOL     OW 8752   0.084   6.746   4.060
 2618SOL    HW1 8753   0.163   6.760   4.120
 2618SOL    HW2 8754   0.096   6.802   3.978
 2619SOL     OW 8755   2.947   1.411   3.181
 2619SOL    HW1 8756   3.022   1.460   3.225
 2619SOL    HW2 8757   2.870   1.474   3.167
 2620SOL     OW 8758   0.659   6.404   2.941
 2620SOL    HW1 8759   0.723   6.331   2.918
 2620SOL    HW2 8760   0.587   6.409   2.871
 2621SOL     OW 8761   1.979   5.531   2.553
 2621SOL    HW1 8762   1.925   5.488   2.480
 2621SOL    HW2 8763   1.993   5.465   2.627
 2622SOL     OW 8764   2.795   1.819   6.793
 2622SOL    HW1 8765   2.766   1.865   6.709
 2622SOL    HW2 8766   2.726   1.831   6.864
 2623SOL     OW 8767   3.468   2.122   4.511
 2623SOL    HW1 8768   3.393   2.180   4.480
 2623SOL    HW2 8769   3.431   2.039   4.553
 2624SOL     OW 8770   6.626   2.820   5.346
 2624SOL    HW1 8771   6.595   2.796   5.254
 2624SOL    HW2 8772   6.725   2.809   5.351
 2625SOL     OW 8773   3.074   2.358   5.975
 2625SOL    HW1 8774   3.103   2.262   5.973
 2625SOL    HW2 8775   2.995   2.368   6.035
 2626SOL     OW 8776   0.363   0.538   4.996
 2626SOL    HW1 8777   0.300   0.570   4.926
 2626SOL    HW2 8778   0.351   0.439   5.010
 2627SOL     OW 8779   0.744   0.386   4.832
 2627SOL    HW1 8780   0.644   0.390   4.840
 2627SOL    HW2 8781   0.781   0.328   4.904
 2628SOL     OW 8782   2.147   4.557   6.559
 2628SOL    HW1 8783   2.171   4.647   6.596
 2628SOL    HW2 8784   2.165   4.487   6.628
 2629SOL     OW 8785   3.482   4.074   1.736
 2629SOL    HW1 8786   3.435   4.104   1.654
 2629SOL    HW2 8787   3.420   4.079   1.814
 2630SOL     OW 8788   3.068   1.668   3.562
 2630SOL    HW1 8789   3.074   1.720   3.647
 2630SOL    HW2 8790   3.158   1.634   3.536
 2631SOL     OW 8791   4.891   0.235   4.071
 2631SOL    HW1 8792   4.922   0.251   3.977
 2631SOL    HW2 8793   4.970   0.242   4.133
 2632SOL     OW 8794   3.064   1.825   6.655
 2632SOL    HW1 8795   2.985   1.845   6.713
 2632SOL    HW2 8796   3.141   1.882   6.683
 2633SOL     OW 8797   6.338   1.915   5.826
 2633SOL    HW1 8798   6.411   1.855   5.858
 2633SOL    HW2 8799   6.378   1.998   5.787
 2634SOL     OW 8800   1.683   4.208   3.077
 2634SOL    HW1 8801   1.689   4.239   2.983
 2634SOL    HW2 8802   1.593   4.166   3.093
 2635SOL     OW 8803   5.747   6.070   5.158
 2635SOL    HW1 8804   5.837   6.084   5.200
 2635SOL    HW2 8805   5.697   6.157   5.158
 2636SOL     OW 8806   4.837   0.424   5.072
 2636SOL    HW1 8807   4.813   0.472   5.156
 2636SOL    HW2 8808   4.918   0.467   5.031
 2637SOL     OW 8809   5.577   1.842   3.794
 2637SOL    HW1 8810   5.515   1.794   3.856
 2637SOL    HW2 8811   5.547   1.828   3.699
 2638SOL     OW 8812   6.915   0.041   2.781
 2638SOL    HW1 8813   6.990   0.088   2.828
 2638SOL    HW2 8814   6.828   0.083   2.807
 2639SOL     OW 8815   0.958   0.057   1.905
 2639SOL    HW1 8816   1.018   0.084   1.829
 2639SOL    HW2 8817   0.989   6.995   1.944
 2640SOL     OW 8818   0.102   6.246   4.687
 2640SOL    HW1 8819   0.156   6.249   4.771
 2640SOL    HW2 8820   0.004   6.245   4.709
 2641SOL     OW 8821   4.888   3.256   1.893
 2641SOL    HW1 8822   4.844   3.176   1.934
 2641SOL    HW2 8823   4.900   3.240   1.795
 2642SOL     OW 8824   4.444   6.938   4.104
 2642SOL    HW1 8825   4.470   6.847   4.137
 2642SOL    HW2 8826   4.404   6.991   4.179
 2643SOL     OW 8827   1.038   4.228   2.546
 2643SOL    HW1 8828   0.946   4.255   2.519
 2643SOL    HW2 8829   1.038   4.132   2.572
 2644SOL     OW 8830   6.262   5.632   5.858
 2644SOL    HW1 8831   6.334   5.563   5.861
 2644SOL    HW2 8832   6.195   5.607   5.788
 2645SOL     OW 8833   4.650   5.228   3.812
 2645SOL    HW1 8834   4.658   5.280   3.727
 2645SOL    HW2 8835   4.573   5.164   3.804
 2646SOL     OW 8836   5.895   0.338   6.621
 2646SOL    HW1 8837   5.831   0.412   6.638
 2646SOL    HW2 8838   5.874   0.261   6.681
 2647SOL     OW 8839   6.220   0.328   2.162
 2647SOL    HW1 8840   6.291   0.257   2.165
 2647SOL    HW2 8841   6.145   0.304   2.223
 2648SOL     OW 8842   0.199   0.258   3.593
 2648SOL    HW1 8843   0.133   0.183   3.594
 2648SOL    HW2 8844   0.151   0.344   3.578
 2649SOL     OW 8845   5.731   3.392   6.295
 2649SOL    HW1 8846   5.636   3.366   6.312
 2649SOL    HW2 8847   5.761   3.455   6.367
 2650SOL     OW 8848   0.558   3.877   4.207
 2650SOL    HW1 8849   0.577   3.800   4.268
 2650SOL    HW2 8850   0.462   3.901   4.213
 2651SOL     OW 8851   0.184   2.312   6.831
 2651SOL    HW1 8852   0.226   2.375   6.896
 2651SOL    HW2 8853   0.127   2.247   6.879
 2652SOL     OW 8854   3.312   3.641   3.718
 2652SOL    HW1 8855   3.214   3.625   3.705
 2652SOL    HW2 8856   3.363   3.578   3.660
 2653SOL     OW 8857   5.082   0.149   5.776
 2653SOL    HW1 8858   5.059   0.055   5.803
 2653SOL    HW2 8859   5.160   0.181   5.829
 2654SOL     OW 8860   5.196   5.072   0.888
 2654SOL    HW1 8861   5.105   5.067   0.929
 2654SOL    HW2 8862   5.226   4.980   0.860
 2655SOL     OW 8863   4.862   4.758   4.270
 2655SOL    HW1 8864   4.873   4.662   4.294
 2655SOL    HW2 8865   4.788   4.798   4.324
 2656SOL     OW 8866   3.604   4.958   4.038
 2656SOL    HW1 8867   3.526   4.907   4.073
 2656SOL    HW2 8868   3.689   4.913   4.067
 2657SOL     OW 8869   1.910   4.484   6.326
 2657SOL    HW1 8870   1.950   4.492   6.418
 2657SOL    HW2 8871   1.983   4.486   6.258
 2658SOL     OW 8872   4.989   4.398   0.680
 2658SOL    HW1 8873   4.970   4.386   0.778
 2658SOL    HW2 8874   5.075   4.448   0.670
 2659SOL     OW 8875   6.062   2.943   4.776
 2659SOL    HW1 8876   6.159   2.922   4.769
 2659SOL    HW2 8877   6.008   2.859   4.762
 2660SOL     OW 8878   0.535   1.509   1.106
 2660SOL    HW1 8879   0.543   1.603   1.140
 2660SOL    HW2 8880   0.442   1.475   1.123
 2661SOL     OW 8881   2.163   6.216   0.871
 2661SOL    HW1 8882   2.207   6.285   0.927
 2661SOL    HW2 8883   2.127   6.259   0.787
 2662SOL     OW 8884   4.473   0.184   5.180
 2662SOL    HW1 8885   4.381   0.208   5.148
 2662SOL    HW2 8886   4.526   0.147   5.104
 2663SOL     OW 8887   2.683   4.229   1.006
 2663SOL    HW1 8888   2.756   4.180   1.054
 2663SOL    HW2 8889   2.601   4.171   1.003
 2664SOL     OW 8890   3.971   3.780   4.940
 2664SOL    HW1 8891   3.888   3.725   4.944
 2664SOL    HW2 8892   4.049   3.726   4.972
 2665SOL     OW 8893   2.692   2.423   5.145
 2665SOL    HW1 8894   2.603   2.445   5.184
 2665SOL    HW2 8895   2.763   2.472   5.195
 2666SOL     OW 8896   4.996   3.943   1.742
 2666SOL    HW1 8897   5.033   3.958   1.833
 2666SOL    HW2 8898   5.069   3.908   1.683
 2667SOL     OW 8899   1.646   6.090   4.190
 2667SOL    HW1 8900   1.558   6.084   4.236
 2667SOL    HW2 8901   1.640   6.044   4.101
 2668SOL     OW 8902   6.070   3.150   4.142
 2668SOL    HW1 8903   6.026   3.156   4.053
 2668SOL    HW2 8904   6.161   3.192   4.137
 2669SOL     OW 8905   3.088   4.852   5.325
 2669SOL    HW1 8906   3.105   4.833   5.422
 2669SOL    HW2 8907   3.173   4.841   5.273
 2670SOL     OW 8908   5.433   2.248   6.648
 2670SOL    HW1 8909   5.454   2.174   6.585
 2670SOL    HW2 8910   5.399   2.210   6.735
 2671SOL     OW 8911   3.597   5.191   6.794
 2671SOL    HW1 8912   3.552   5.104   6.770
 2671SOL    HW2 8913   3.617   5.191   6.892
 2672SOL     OW 8914   0.159   4.798   0.409
 2672SOL    HW1 8915   0.137   4.750   0.494
 2672SOL    HW2 8916   0.236   4.859   0.423
 2673SOL     OW 8917   6.359   1.827   3.977
 2673SOL    HW1 8918   6.266   1.864   3.978
 2673SOL    HW2 8919   6.418   1.887   3.923
 2674SOL     OW 8920   1.598   3.830   3.720
 2674SOL    HW1 8921   1.626   3.745   3.676
 2674SOL    HW2 8922   1.680   3.881   3.749
 2675SOL     OW 8923   6.398   4.889   4.514
 2675SOL    HW1 8924   6.415   4.799   4.554
 2675SOL    HW2 8925   6.465   4.954   4.548
 2676SOL     OW 8926   4.471   1.526   2.013
 2676SOL    HW1 8927   4.409   1.520   2.091
 2676SOL    HW2 8928   4.479   1.622   1.984
 2677SOL     OW 8929   2.993   4.260   0.054
 2677SOL    HW1 8930   3.077   4.295   0.013
 2677SOL    HW2 8931   2.918   4.325   0.040
 2678SOL     OW 8932   6.599   3.967   1.352
 2678SOL    HW1 8933   6.533   3.937   1.420
 2678SOL    HW2 8934   6.657   4.039   1.391
 2679SOL     OW 8935   3.235   5.235   1.114
 2679SOL    HW1 8936   3.285   5.311   1.072
 2679SOL    HW2 8937   3.193   5.267   1.199
 2680SOL     OW 8938   0.731   1.747   0.469
 2680SOL    HW1 8939   0.637   1.750   0.435
 2680SOL    HW2 8940   0.769   1.839   0.471
 2681SOL     OW 8941   1.812   2.361   4.574
 2681SOL    HW1 8942   1.796   2.279   4.628
 2681SOL    HW2 8943   1.769   2.351   4.484
 2682SOL     OW 8944   5.567   4.018   2.638
 2682SOL    HW1 8945   5.655   4.049   2.675
 2682SOL    HW2 8946   5.579   3.929   2.594
 2683SOL     OW 8947   2.321   3.519   0.409
 2683SOL    HW1 8948   2.387   3.446   0.427
 2683SOL    HW2 8949   2.245   3.484   0.355
 2684SOL     OW 8950   4.424   5.956   1.451
 2684SOL    HW1 8951   4.456   5.915   1.536
 2684SOL    HW2 8952   4.385   5.885   1.392
 2685SOL     OW 8953   6.262   6.170   6.746
 2685SOL    HW1 8954   6.225   6.089   6.702
 2685SOL    HW2 8955   6.334   6.143   6.810
 2686SOL     OW 8956   1.529   1.865   5.382
 2686SOL    HW1 8957   1.526   1.956   5.423
 2686SOL    HW2 8958   1.510   1.796   5.453
 2687SOL     OW 8959   4.429   4.559   2.331
 2687SOL    HW1 8960   4.481   4.505   2.266
 2687SOL    HW2 8961   4.479   4.565   2.417
 2688SOL     OW 8962   5.068   5.282   0.122
 2688SOL    HW1 8963   5.045   5.377   0.141
 2688SOL    HW2 8964   4.985   5.226   0.126
 2689SOL     OW 8965   1.633   3.010   3.496
 2689SOL    HW1 8966   1.703   3.045   3.434
 2689SOL    HW2 8967   1.625   3.071   3.575
 2690SOL     OW 8968   3.551   3.555   4.150
 2690SOL    HW1 8969   3.636   3.512   4.181
 2690SOL    HW2 8970   3.568   3.605   4.066
 2691SOL     OW 8971   1.190   5.326   2.164
 2691SOL    HW1 8972   1.183   5.413   2.115
 2691SOL    HW2 8973   1.115   5.318   2.229
 2692SOL     OW 8974   3.543   4.911   2.970
 2692SOL    HW1 8975   3.479   4.872   2.904
 2692SOL    HW2 8976   3.637   4.899   2.937
 2693SOL     OW 8977   1.437   4.110   3.157
 2693SOL    HW1 8978   1.420   4.205   3.182
 2693SOL    HW2 8979   1.366   4.052   3.196
 2694SOL     OW 8980   4.526   6.738   2.738
 2694SOL    HW1 8981   4.620   6.768   2.726
 2694SOL    HW2 8982   4.520   6.675   2.815
 2695SOL     OW 8983   4.894   0.687   2.940
 2695SOL    HW1 8984   4.846   0.657   2.857
 2695SOL    HW2 8985   4.859   0.636   3.019
 2696SOL     OW 8986   3.765   3.505   5.292
 2696SOL    HW1 8987   3.742   3.602   5.295
 2696SOL    HW2 8988   3.745   3.463   5.381
 2697SOL     OW 8989   3.333   1.374   2.424
 2697SOL    HW1 8990   3.373   1.369   2.332
 2697SOL    HW2 8991   3.239   1.409   2.417
 2698SOL     OW 8992   1.536   6.022   0.653
 2698SOL    HW1 8993   1.620   5.996   0.605
 2698SOL    HW2 8994   1.533   6.121   0.663
 2699SOL     OW 8995   3.418   6.377   0.326
 2699SOL    HW1 8996   3.432   6.465   0.373
 2699SOL    HW2 8997   3.372   6.314   0.388
 2700SOL     OW 8998   1.946   3.970   0.727
 2700SOL    HW1 8999   1.939   4.009   0.819
 2700SOL    HW2 9000   1.871   3.906   0.712
 2701SOL     OW 9001   3.828   0.568   6.785
 2701SOL    HW1 9002   3.832   0.588   6.687
 2701SOL    HW2 9003   3.862   0.647   6.836
 2702SOL     OW 9004   0.586   2.838   3.638
 2702SOL    HW1 9005   0.534   2.883   3.711
 2702SOL    HW2 9006   0.551   2.745   3.625
 2703SOL     OW 9007   1.998   0.792   2.514
 2703SOL    HW1 9008   1.986   0.692   2.512
 2703SOL    HW2 9009   2.085   0.816   2.472
 2704SOL     OW 9010   0.023   6.190   0.955
 2704SOL    HW1 9011   0.085   6.262   0.986
 2704SOL    HW2 9012   0.072   6.103   0.953
 2705SOL     OW 9013   1.044   4.837   4.075
 2705SOL    HW1 9014   1.124   4.834   4.015
 2705SOL    HW2 9015   1.033   4.930   4.110
 2706SOL     OW 9016   0.521   0.685   1.555
 2706SOL    HW1 9017   0.593   0.617   1.559
 2706SOL    HW2 9018   0.433   0.641   1.538
 2707SOL     OW 9019   2.538   0.921   4.903
 2707SOL    HW1 9020   2.504   1.009   4.935
 2707SOL    HW2 9021   2.463   0.855   4.902
 2708SOL     OW 9022   0.767   2.025   0.489
 2708SOL    HW1 9023   0.673   2.057   0.488
 2708SOL    HW2 9024   0.821   2.078   0.554
 2709SOL     OW 9025   5.584   6.219   0.495
 2709SOL    HW1 9026   5.551   6.305   0.457
 2709SOL    HW2 9027   5.638   6.171   0.426
 2710SOL     OW 9028   0.470   3.213   3.505
 2710SOL    HW1 9029   0.551   3.223   3.562
 2710SOL    HW2 9030   0.434   3.304   3.482
 2711SOL     OW 9031   2.135   1.149   3.517
 2711SOL    HW1 9032   2.152   1.056   3.549
 2711SOL    HW2 9033   2.222   1.193   3.493
 2712SOL     OW 9034   3.235   4.868   0.823
 2712SOL    HW1 9035   3.290   4.890   0.904
 2712SOL    HW2 9036   3.200   4.775   0.832
 2713SOL     OW 9037   2.172   2.185   5.291
 2713SOL    HW1 9038   2.115   2.104   5.278
 2713SOL    HW2 9039   2.162   2.246   5.213
 2714SOL     OW 9040   4.678   2.338   0.554
 2714SOL    HW1 9041   4.734   2.389   0.489
 2714SOL    HW2 9042   4.737   2.286   0.615
 2715SOL     OW 9043   5.024   1.303   0.645
 2715SOL    HW1 9044   5.060   1.258   0.563
 2715SOL    HW2 9045   4.975   1.235   0.701
 2716SOL     OW 9046   5.269   4.712   2.764
 2716SOL    HW1 9047   5.252   4.752   2.674
 2716SOL    HW2 9048   5.361   4.673   2.767
 2717SOL     OW 9049   2.297   4.837   2.081
 2717SOL    HW1 9050   2.386   4.792   2.083
 2717SOL    HW2 9051   2.237   4.791   2.015
 2718SOL     OW 9052   1.447   3.148   5.998
 2718SOL    HW1 9053   1.404   3.214   5.936
 2718SOL    HW2 9054   1.525   3.190   6.043
 2719SOL     OW 9055   6.577   5.731   1.225
 2719SOL    HW1 9056   6.602   5.825   1.202
 2719SOL    HW2 9057   6.659   5.682   1.258
 2720SOL     OW 9058   2.258   6.173   2.441
 2720SOL    HW1 9059   2.357   6.188   2.450
 2720SOL    HW2 9060   2.226   6.212   2.355
 2721SOL     OW 9061   2.931   0.942   4.381
 2721SOL    HW1 9062   2.834   0.950   4.402
 2721SOL    HW2 9063   2.972   0.872   4.439
 2722SOL     OW 9064   6.935   5.603   1.686
 2722SOL    HW1 9065   6.971   5.518   1.648
 2722SOL    HW2 9066   7.007   5.673   1.685
 2723SOL     OW 9067   0.699   6.518   5.508
 2723SOL    HW1 9068   0.661   6.432   5.473
 2723SOL    HW2 9069   0.639   6.554   5.579
 2724SOL     OW 9070   2.302   6.810   6.447
 2724SOL    HW1 9071   2.258   6.748   6.382
 2724SOL    HW2 9072   2.371   6.759   6.499
 2725SOL     OW 9073   5.999   4.754   4.265
 2725SOL    HW1 9074   5.916   4.793   4.225
 2725SOL    HW2 9075   6.041   4.820   4.327
 2726SOL     OW 9076   0.018   3.514   0.994
 2726SOL    HW1 9077   0.018   3.582   0.920
 2726SOL    HW2 9078   6.976   3.540   1.064
 2727SOL     OW 9079   0.396   5.555   3.794
 2727SOL    HW1 9080   0.487   5.579   3.760
 2727SOL    HW2 9081   0.357   5.483   3.737
 2728SOL     OW 9082   3.898   6.829   6.074
 2728SOL    HW1 9083   3.984   6.866   6.038
 2728SOL    HW2 9084   3.875   6.744   6.027
 2729SOL     OW 9085   6.627   5.495   1.443
 2729SOL    HW1 9086   6.636   5.398   1.420
 2729SOL    HW2 9087   6.687   5.549   1.385
 2730SOL     OW 9088   1.883   5.212   1.483
 2730SOL    HW1 9089   1.906   5.146   1.555
 2730SOL    HW2 9090   1.784   5.230   1.485
 2731SOL     OW 9091   4.132   3.552   1.993
 2731SOL    HW1 9092   4.127   3.455   2.016
 2731SOL    HW2 9093   4.121   3.607   2.076
 2732SOL     OW 9094   5.160   2.797   2.374
 2732SOL    HW1 9095   5.088   2.864   2.356
 2732SOL    HW2 9096   5.209   2.776   2.290
 2733SOL     OW 9097   0.320   0.067   5.158
 2733SOL    HW1 9098   0.388   0.088   5.087
 2733SOL    HW2 9099   0.268   7.010   5.131
 2734SOL     OW 9100   2.324   5.798   1.763
 2734SOL    HW1 9101   2.323   5.836   1.855
 2734SOL    HW2 9102   2.377   5.858   1.703
 2735SOL     OW 9103   1.189   3.004   2.618
 2735SOL    HW1 9104   1.205   2.912   2.652
 2735SOL    HW2 9105   1.103   3.006   2.567
 2736SOL     OW 9106   4.149   6.783   4.614
 2736SOL    HW1 9107   4.183   6.753   4.524
 2736SOL    HW2 9108   4.160   6.708   4.680
 2737SOL     OW 9109   3.767   3.778   5.843
 2737SOL    HW1 9110   3.709   3.708   5.885
 2737SOL    HW2 9111   3.751   3.866   5.887
 2738SOL     OW 9112   5.576   5.049   4.231
 2738SOL    HW1 9113   5.567   5.060   4.330
 2738SOL    HW2 9114   5.495   5.002   4.195
 2739SOL     OW 9115   6.597   5.049   0.672
 2739SOL    HW1 9116   6.582   5.009   0.582
 2739SOL    HW2 9117   6.694   5.072   0.683
 2740SOL     OW 9118   6.211   3.655   2.519
 2740SOL    HW1 9119   6.243   3.725   2.582
 2740SOL    HW2 9120   6.111   3.658   2.513
 2741SOL     OW 9121   6.267   0.944   5.385
 2741SOL    HW1 9122   6.255   0.850   5.417
 2741SOL    HW2 9123   6.178   0.989   5.383
 2742SOL     OW 9124   2.093   4.934   6.872
 2742SOL    HW1 9125   2.177   4.965   6.917
 2742SOL    HW2 9126   2.062   5.004   6.808
 2743SOL     OW 9127   6.991   5.458   2.506
 2743SOL    HW1 9128   0.016   5.459   2.420
 2743SOL    HW2 9129   0.017   5.511   2.574
 2744SOL     OW 9130   4.951   1.587   0.095
 2744SOL    HW1 9131   4.979   1.671   0.142
 2744SOL    HW2 9132   5.031   1.543   0.054
 2745SOL     OW 9133   0.873   6.833   6.706
 2745SOL    HW1 9134   0.812   6.908   6.680
 2745SOL    HW2 9135   0.844   6.795   6.794
 2746SOL     OW 9136   1.988   2.036   3.707
 2746SOL    HW1 9137   1.901   2.081   3.728
 2746SOL    HW2 9138   2.042   2.096   3.648
 2747SOL     OW 9139   5.858   3.462   5.811
 2747SOL    HW1 9140   5.907   3.463   5.724
 2747SOL    HW2 9141   5.825   3.369   5.829
 2748SOL     OW 9142   4.424   2.286   0.795
 2748SOL    HW1 9143   4.524   2.286   0.783
 2748SOL    HW2 9144   4.399   2.224   0.869
 2749SOL     OW 9145   6.368   4.767   3.742
 2749SOL    HW1 9146   6.378   4.691   3.677
 2749SOL    HW2 9147   6.297   4.829   3.709
 2750SOL     OW 9148   0.904   4.729   1.138
 2750SOL    HW1 9149   0.829   4.741   1.203
 2750SOL    HW2 9150   0.930   4.633   1.134
 2751SOL     OW 9151   0.346   6.093   0.818
 2751SOL    HW1 9152   0.285   6.027   0.772
 2751SOL    HW2 9153   0.384   6.050   0.900
 2752SOL     OW 9154   4.875   4.648   5.325
 2752SOL    HW1 9155   4.939   4.619   5.396
 2752SOL    HW2 9156   4.926   4.680   5.246
 2753SOL     OW 9157   0.968   6.663   5.907
 2753SOL    HW1 9158   0.922   6.748   5.930
 2753SOL    HW2 9159   0.975   6.654   5.808
 2754SOL     OW 9160   6.319   0.796   3.606
 2754SOL    HW1 9161   6.292   0.872   3.547
 2754SOL    HW2 9162   6.291   0.816   3.700
 2755SOL     OW 9163   2.730   6.818   3.680
 2755SOL    HW1 9164   2.653   6.814   3.615
 2755SOL    HW2 9165   2.699   6.859   3.765
 2756SOL     OW 9166   5.829   4.316   5.716
 2756SOL    HW1 9167   5.871   4.297   5.805
 2756SOL    HW2 9168   5.892   4.368   5.659
 2757SOL     OW 9169   2.220   1.593   6.211
 2757SOL    HW1 9170   2.152   1.657   6.174
 2757SOL    HW2 9171   2.188   1.558   6.299
 2758SOL     OW 9172   5.244   6.446   3.356
 2758SOL    HW1 9173   5.205   6.435   3.265
 2758SOL    HW2 9174   5.209   6.530   3.398
 2759SOL     OW 9175   4.323   5.743   5.842
 2759SOL    HW1 9176   4.382   5.674   5.883
 2759SOL    HW2 9177   4.377   5.800   5.781
 2760SOL     OW 9178   0.218   5.427   2.736
 2760SOL    HW1 9179   0.243   5.393   2.827
 2760SOL    HW2 9180   0.264   5.514   2.720
 2761SOL     OW 9181   2.117   4.250   4.592
 2761SOL    HW1 9182   2.186   4.212   4.531
 2761SOL    HW2 9183   2.125   4.208   4.682
 2762SOL     OW 9184   2.077   1.941   6.688
 2762SOL    HW1 9185   1.995   1.883   6.679
 2762SOL    HW2 9186   2.089   1.966   6.784
 2763SOL     OW 9187   4.916   2.035   4.984
 2763SOL    HW1 9188   4.871   2.110   5.031
 2763SOL    HW2 9189   4.854   1.995   4.916
 2764SOL     OW 9190   6.987   0.147   2.088
 2764SOL    HW1 9191   6.921   0.219   2.066
 2764SOL    HW2 9192   7.023   0.162   2.180
 2765SOL     OW 9193   6.594   6.909   1.005
 2765SOL    HW1 9194   6.585   6.830   0.944
 2765SOL    HW2 9195   6.684   6.908   1.047
 2766SOL     OW 9196   4.444   2.326   6.972
 2766SOL    HW1 9197   4.437   2.250   6.907
 2766SOL    HW2 9198   4.539   2.335   7.002
 2767SOL     OW 9199   6.404   5.535   6.647
 2767SOL    HW1 9200   6.306   5.532   6.667
 2767SOL    HW2 9201   6.455   5.519   6.731
 2768SOL     OW 9202   4.733   0.451   1.231
 2768SOL    HW1 9203   4.797   0.463   1.308
 2768SOL    HW2 9204   4.642   0.481   1.258
 2769SOL     OW 9205   2.466   3.967   6.455
 2769SOL    HW1 9206   2.549   3.966   6.401
 2769SOL    HW2 9207   2.394   3.917   6.407
 2770SOL     OW 9208   4.638   5.768   5.085
 2770SOL    HW1 9209   4.661   5.809   5.173
 2770SOL    HW2 9210   4.617   5.671   5.097
 2771SOL     OW 9211   5.555   1.230   4.129
 2771SOL    HW1 9212   5.546   1.264   4.223
 2771SOL    HW2 9213   5.623   1.285   4.080
 2772SOL     OW 9214   3.244   0.901   1.353
 2772SOL    HW1 9215   3.158   0.850   1.356
 2772SOL    HW2 9216   3.241   0.966   1.277
 2773SOL     OW 9217   6.528   2.880   3.912
 2773SOL    HW1 9218   6.607   2.939   3.900
 2773SOL    HW2 9219   6.540   2.795   3.861
 2774SOL     OW 9220   5.096   3.130   3.069
 2774SOL    HW1 9221   5.153   3.081   3.135
 2774SOL    HW2 9222   5.116   3.098   2.976
 2775SOL     OW 9223   6.449   3.366   5.071
 2775SOL    HW1 9224   6.398   3.452   5.062
 2775SOL    HW2 9225   6.497   3.346   4.985
 2776SOL     OW 9226   5.171   4.147   6.110
 2776SOL    HW1 9227   5.140   4.225   6.164
 2776SOL    HW2 9228   5.195   4.178   6.018
 2777SOL     OW 9229   2.883   2.197   1.046
 2777SOL    HW1 9230   2.900   2.268   1.115
 2777SOL    HW2 9231   2.967   2.147   1.028
 2778SOL     OW 9232   0.904   6.227   6.665
 2778SOL    HW1 9233   0.857   6.239   6.578
 2778SOL    HW2 9234   0.868   6.146   6.712
 2779SOL     OW 9235   5.412   6.628   2.100
 2779SOL    HW1 9236   5.392   6.558   2.032
 2779SOL    HW2 9237   5.328   6.655   2.148
 2780SOL     OW 9238   0.126   0.244   5.653
 2780SOL    HW1 9239   0.045   0.302   5.658
 2780SOL    HW2 9240   0.131   0.202   5.562
 2781SOL     OW 9241   5.946   0.788   3.031
 2781SOL    HW1 9242   6.000   0.708   3.005
 2781SOL    HW2 9243   6.000   0.847   3.091
 2782SOL     OW 9244   4.517   1.259   4.927
 2782SOL    HW1 9245   4.481   1.333   4.984
 2782SOL    HW2 9246   4.486   1.171   4.963
 2783SOL     OW 9247   6.572   4.049   2.144
 2783SOL    HW1 9248   6.636   4.121   2.118
 2783SOL    HW2 9249   6.483   4.089   2.166
 2784SOL     OW 9250   3.188   1.569   2.222
 2784SOL    HW1 9251   3.231   1.649   2.180
 2784SOL    HW2 9252   3.255   1.495   2.229
 2785SOL     OW 9253   5.179   2.481   0.666
 2785SOL    HW1 9254   5.181   2.449   0.572
 2785SOL    HW2 9255   5.270   2.515   0.692
 2786SOL     OW 9256   6.369   6.617   1.868
 2786SOL    HW1 9257   6.311   6.547   1.827
 2786SOL    HW2 9258   6.422   6.577   1.942
 2787SOL     OW 9259   6.051   6.907   5.607
 2787SOL    HW1 9260   6.111   6.848   5.553
 2787SOL    HW2 9261   5.960   6.906   5.567
 2788SOL     OW 9262   2.644   6.416   5.723
 2788SOL    HW1 9263   2.741   6.433   5.710
 2788SOL    HW2 9264   2.594   6.445   5.642
 2789SOL     OW 9265   1.702   1.883   3.625
 2789SOL    HW1 9266   1.700   1.976   3.662
 2789SOL    HW2 9267   1.660   1.883   3.534
 2790SOL     OW 9268   3.685   5.379   1.342
 2790SOL    HW1 9269   3.689   5.335   1.432
 2790SOL    HW2 9270   3.607   5.443   1.340
 2791SOL     OW 9271   0.595   3.609   1.962
 2791SOL    HW1 9272   0.648   3.687   1.995
 2791SOL    HW2 9273   0.595   3.537   2.032
 2792SOL     OW 9274   2.493   0.716   4.344
 2792SOL    HW1 9275   2.506   0.786   4.415
 2792SOL    HW2 9276   2.414   0.660   4.367
 2793SOL     OW 9277   5.295   3.409   1.799
 2793SOL    HW1 9278   5.201   3.424   1.769
 2793SOL    HW2 9279   5.299   3.413   1.899
 2794SOL     OW 9280   6.750   2.183   5.732
 2794SOL    HW1 9281   6.833   2.142   5.769
 2794SOL    HW2 9282   6.737   2.152   5.637
 2795SOL     OW 9283   0.720   3.697   0.895
 2795SOL    HW1 9284   0.648   3.752   0.938
 2795SOL    HW2 9285   0.809   3.737   0.916
 2796SOL     OW 9286   6.939   6.012   3.525
 2796SOL    HW1 9287   6.843   6.011   3.553
 2796SOL    HW2 9288   6.968   6.106   3.508
 2797SOL     OW 9289   5.335   4.997   5.532
 2797SOL    HW1 9290   5.416   5.053   5.543
 2797SOL    HW2 9291   5.253   5.055   5.536
 2798SOL     OW 9292   6.426   5.783   2.728
 2798SOL    HW1 9293   6.449   5.687   2.737
 2798SOL    HW2 9294   6.510   5.836   2.713
 2799SOL     OW 9295   5.439   6.074   6.078
 2799SOL    HW1 9296   5.511   6.119   6.129
 2799SOL    HW2 9297   5.366   6.139   6.057
 2800SOL     OW 9298   5.771   6.260   5.790
 2800SOL    HW1 9299   5.776   6.202   5.708
 2800SOL    HW2 9300   5.775   6.356   5.762
 2801SOL     OW 9301   0.402   5.592   5.980
 2801SOL    HW1 9302   0.442   5.684   5.978
 2801SOL    HW2 9303   0.306   5.598   6.009
 2802SOL     OW 9304   5.631   6.691   5.512
 2802SOL    HW1 9305   5.534   6.703   5.532
 2802SOL    HW2 9306   5.652   6.726   5.421
 2803SOL     OW 9307   4.101   5.115   5.950
 2803SOL    HW1 9308   4.080   5.170   5.869
 2803SOL    HW2 9309   4.038   5.037   5.954
 2804SOL     OW 9310   0.624   3.831   5.153
 2804SOL    HW1 9311   0.668   3.802   5.068
 2804SOL    HW2 9312   0.675   3.907   5.193
 2805SOL     OW 9313   5.881   3.319   3.110
 2805SOL    HW1 9314   5.809   3.277   3.055
 2805SOL    HW2 9315   5.941   3.248   3.146
 2806SOL     OW 9316   2.356   4.074   5.809
 2806SOL    HW1 9317   2.291   4.001   5.791
 2806SOL    HW2 9318   2.447   4.036   5.821
 2807SOL     OW 9319   4.402   7.019   3.175
 2807SOL    HW1 9320   4.415   6.919   3.174
 2807SOL    HW2 9321   4.341   0.020   3.250
 2808SOL     OW 9322   6.481   5.226   1.140
 2808SOL    HW1 9323   6.415   5.284   1.092
 2808SOL    HW2 9324   6.442   5.196   1.226
 2809SOL     OW 9325   4.901   2.606   1.514
 2809SOL    HW1 9326   4.853   2.693   1.521
 2809SOL    HW2 9327   4.986   2.610   1.566
 2810SOL     OW 9328   2.698   5.974   2.749
 2810SOL    HW1 9329   2.709   5.999   2.845
 2810SOL    HW2 9330   2.602   5.953   2.731
 2811SOL     OW 9331   0.717   1.662   2.878
 2811SOL    HW1 9332   0.811   1.688   2.897
 2811SOL    HW2 9333   0.696   1.678   2.782
 2812SOL     OW 9334   6.113   3.596   0.580
 2812SOL    HW1 9335   6.078   3.612   0.672
 2812SOL    HW2 9336   6.079   3.509   0.545
 2813SOL     OW 9337   0.602   1.895   6.931
 2813SOL    HW1 9338   0.629   1.979   6.885
 2813SOL    HW2 9339   0.522   1.912   6.987
 2814SOL     OW 9340   3.257   4.308   5.793
 2814SOL    HW1 9341   3.322   4.297   5.717
 2814SOL    HW2 9342   3.252   4.222   5.844
 2815SOL     OW 9343   6.592   5.021   6.272
 2815SOL    HW1 9344   6.616   5.118   6.267
 2815SOL    HW2 9345   6.541   5.004   6.357
 2816SOL     OW 9346   6.425   6.355   4.178
 2816SOL    HW1 9347   6.394   6.396   4.263
 2816SOL    HW2 9348   6.486   6.278   4.198
 2817SOL     OW 9349   3.190   0.585   3.108
 2817SOL    HW1 9350   3.109   0.547   3.064
 2817SOL    HW2 9351   3.210   0.676   3.070
 2818SOL     OW 9352   0.055   1.141   2.240
 2818SOL    HW1 9353   0.012   1.231   2.248
 2818SOL    HW2 9354   0.061   1.099   2.331
 2819SOL     OW 9355   1.638   0.261   2.071
 2819SOL    HW1 9356   1.720   0.267   2.013
 2819SOL    HW2 9357   1.581   0.342   2.056
 2820SOL     OW 9358   1.536   1.793   2.449
 2820SOL    HW1 9359   1.459   1.798   2.513
 2820SOL    HW2 9360   1.507   1.827   2.359
 2821SOL     OW 9361   2.855   5.045   6.115
 2821SOL    HW1 9362   2.829   4.948   6.113
 2821SOL    HW2 9363   2.829   5.088   6.028
 2822SOL     OW 9364   4.589   1.851   0.224
 2822SOL    HW1 9365   4.561   1.929   0.168
 2822SOL    HW2 9366   4.576   1.766   0.173
 2823SOL     OW 9367   6.054   0.827   0.301
 2823SOL    HW1 9368   6.043   0.799   0.396
 2823SOL    HW2 9369   6.132   0.889   0.294
 2824SOL     OW 9370   2.236   2.065   5.542
 2824SOL    HW1 9371   2.276   2.124   5.612
 2824SOL    HW2 9372   2.215   2.119   5.460
 2825SOL     OW 9373   5.535   0.311   5.615
 2825SOL    HW1 9374   5.512   0.243   5.685
 2825SOL    HW2 9375   5.635   0.320   5.609
 2826SOL     OW 9376   3.879   2.503   6.552
 2826SOL    HW1 9377   3.789   2.477   6.519
 2826SOL    HW2 9378   3.899   2.597   6.525
 2827SOL     OW 9379   0.262   0.510   6.411
 2827SOL    HW1 9380   0.338   0.533   6.472
 2827SOL    HW2 9381   0.212   0.593   6.387
 2828SOL     OW 9382   2.225   2.974   0.410
 2828SOL    HW1 9383   2.134   2.937   0.389
 2828SOL    HW2 9384   2.284   2.901   0.443
 2829SOL     OW 9385   3.121   3.006   3.318
 2829SOL    HW1 9386   3.136   2.991   3.220
 2829SOL    HW2 9387   3.196   3.059   3.355
 2830SOL     OW 9388   3.312   3.978   5.426
 2830SOL    HW1 9389   3.327   3.901   5.364
 2830SOL    HW2 9390   3.396   4.000   5.474
 2831SOL     OW 9391   1.298   3.219   2.763
 2831SOL    HW1 9392   1.260   3.308   2.737
 2831SOL    HW2 9393   1.252   3.147   2.710
 2832SOL     OW 9394   0.736   2.664   1.521
 2832SOL    HW1 9395   0.716   2.572   1.555
 2832SOL    HW2 9396   0.831   2.686   1.542
 2833SOL     OW 9397   2.933   1.467   2.143
 2833SOL    HW1 9398   2.886   1.528   2.079
 2833SOL    HW2 9399   3.026   1.500   2.159
 2834SOL     OW 9400   4.078   6.583   4.210
 2834SOL    HW1 9401   4.144   6.645   4.253
 2834SOL    HW2 9402   4.072   6.498   4.263
 2835SOL     OW 9403   0.549   6.785   0.830
 2835SOL    HW1 9404   0.535   6.838   0.746
 2835SOL    HW2 9405   0.472   6.722   0.843
 2836SOL     OW 9406   1.256   6.404   1.564
 2836SOL    HW1 9407   1.214   6.441   1.481
 2836SOL    HW2 9408   1.223   6.455   1.643
 2837SOL     OW 9409   5.512   4.640   2.460
 2837SOL    HW1 9410   5.568   4.666   2.381
 2837SOL    HW2 9411   5.450   4.716   2.483
 2838SOL     OW 9412   4.763   3.507   1.266
 2838SOL    HW1 9413   4.843   3.484   1.321
 2838SOL    HW2 9414   4.757   3.606   1.256
 2839SOL     OW 9415   0.220   2.720   2.421
 2839SOL    HW1 9416   0.296   2.659   2.398
 2839SOL    HW2 9417   0.223   2.801   2.362
 2840SOL     OW 9418   1.793   6.136   2.146
 2840SOL    HW1 9419   1.757   6.150   2.239
 2840SOL    HW2 9420   1.767   6.214   2.088
 2841SOL     OW 9421   6.602   2.334   6.499
 2841SOL    HW1 9422   6.532   2.310   6.432
 2841SOL    HW2 9423   6.559   2.352   6.587
 2842SOL     OW 9424   0.705   5.375   4.532
 2842SOL    HW1 9425   0.782   5.385   4.595
 2842SOL    HW2 9426   0.621   5.407   4.575
 2843SOL     OW 9427   2.702   1.643   2.389
 2843SOL    HW1 9428   2.685   1.550   2.422
 2843SOL    HW2 9429   2.626   1.702   2.415
 2844SOL     OW 9430   6.253   5.350   0.662
 2844SOL    HW1 9431   6.347   5.382   0.673
 2844SOL    HW2 9432   6.192   5.409   0.714
 2845SOL     OW 9433   5.246   3.032   2.749
 2845SOL    HW1 9434   5.281   2.954   2.697
 2845SOL    HW2 9435   5.153   3.053   2.720
 2846SOL     OW 9436   3.456   0.273   0.664
 2846SOL    HW1 9437   3.447   0.210   0.740
 2846SOL    HW2 9438   3.434   0.227   0.578
 2847SOL     OW 9439   5.091   4.171   3.136
 2847SOL    HW1 9440   5.107   4.084   3.183
 2847SOL    HW2 9441   5.177   4.219   3.123
 2848SOL     OW 9442   2.494   2.840   5.611
 2848SOL    HW1 9443   2.442   2.757   5.591
 2848SOL    HW2 9444   2.437   2.920   5.594
 2849SOL     OW 9445   3.382   0.538   1.686
 2849SOL    HW1 9446   3.459   0.564   1.744
 2849SOL    HW2 9447   3.388   0.586   1.599
 2850SOL     OW 9448   2.247   6.999   3.255
 2850SOL    HW1 9449   2.217   6.929   3.191
 2850SOL    HW2 9450   2.269   0.059   3.205
 2851SOL     OW 9451   4.595   3.094   6.777
 2851SOL    HW1 9452   4.683   3.139   6.792
 2851SOL    HW2 9453   4.578   3.085   6.679
 2852SOL     OW 9454   6.175   4.490   6.380
 2852SOL    HW1 9455   6.190   4.470   6.477
 2852SOL    HW2 9456   6.262   4.513   6.336
 2853SOL     OW 9457   1.316   2.481   6.876
 2853SOL    HW1 9458   1.222   2.502   6.905
 2853SOL    HW2 9459   1.319   2.390   6.835
 2854SOL     OW 9460   3.874   0.388   5.766
 2854SOL    HW1 9461   3.816   0.340   5.833
 2854SOL    HW2 9462   3.959   0.414   5.810
 2855SOL     OW 9463   1.387   2.453   5.596
 2855SOL    HW1 9464   1.388   2.390   5.674
 2855SOL    HW2 9465   1.480   2.486   5.580
 2856SOL     OW 9466   1.344   2.849   4.251
 2856SOL    HW1 9467   1.433   2.855   4.297
 2856SOL    HW2 9468   1.332   2.929   4.192
 2857SOL     OW 9469   0.273   2.731   1.513
 2857SOL    HW1 9470   0.313   2.691   1.430
 2857SOL    HW2 9471   0.333   2.802   1.548
 2858SOL     OW 9472   5.071   5.288   1.984
 2858SOL    HW1 9473   5.080   5.326   2.076
 2858SOL    HW2 9474   5.021   5.352   1.926
 2859SOL     OW 9475   6.349   6.541   0.356
 2859SOL    HW1 9476   6.351   6.553   0.455
 2859SOL    HW2 9477   6.378   6.626   0.311
 2860SOL     OW 9478   2.470   0.613   2.633
 2860SOL    HW1 9479   2.463   0.687   2.566
 2860SOL    HW2 9480   2.494   0.528   2.586
 2861SOL     OW 9481   3.696   5.592   5.745
 2861SOL    HW1 9482   3.748   5.676   5.760
 2861SOL    HW2 9483   3.605   5.601   5.784
 2862SOL     OW 9484   4.242   2.201   1.909
 2862SOL    HW1 9485   4.294   2.251   1.840
 2862SOL    HW2 9486   4.194   2.266   1.969
 2863SOL     OW 9487   4.998   1.509   6.330
 2863SOL    HW1 9488   5.072   1.454   6.368
 2863SOL    HW2 9489   4.992   1.493   6.231
 2864SOL     OW 9490   4.415   2.569   0.930
 2864SOL    HW1 9491   4.421   2.558   1.030
 2864SOL    HW2 9492   4.453   2.488   0.886
 2865SOL     OW 9493   4.259   6.700   3.518
 2865SOL    HW1 9494   4.188   6.694   3.448
 2865SOL    HW2 9495   4.247   6.628   3.586
 2866SOL     OW 9496   5.657   4.131   0.362
 2866SOL    HW1 9497   5.652   4.137   0.262
 2866SOL    HW2 9498   5.612   4.047   0.392
 2867SOL     OW 9499   6.151   6.258   3.082
 2867SOL    HW1 9500   6.068   6.205   3.071
 2867SOL    HW2 9501   6.145   6.342   3.027
 2868SOL     OW 9502   1.295   1.285   5.394
 2868SOL    HW1 9503   1.380   1.283   5.446
 2868SOL    HW2 9504   1.237   1.208   5.421
 2869SOL     OW 9505   6.210   1.038   3.499
 2869SOL    HW1 9506   6.277   1.111   3.512
 2869SOL    HW2 9507   6.185   1.033   3.402
 2870SOL     OW 9508   0.710   1.520   6.214
 2870SOL    HW1 9509   0.784   1.528   6.280
 2870SOL    HW2 9510   0.662   1.607   6.207
 2871SOL     OW 9511   6.281   0.616   0.658
 2871SOL    HW1 9512   6.235   0.561   0.589
 2871SOL    HW2 9513   6.268   0.713   0.637
 2872SOL     OW 9514   2.653   2.058   1.015
 2872SOL    HW1 9515   2.689   1.968   1.036
 2872SOL    HW2 9516   2.726   2.126   1.023
 2873SOL     OW 9517   6.890   6.897   2.561
 2873SOL    HW1 9518   6.884   6.947   2.647
 2873SOL    HW2 9519   6.981   6.912   2.520
 2874SOL     OW 9520   3.894   6.409   2.760
 2874SOL    HW1 9521   3.835   6.488   2.776
 2874SOL    HW2 9522   3.988   6.433   2.784
 2875SOL     OW 9523   4.443   0.252   2.196
 2875SOL    HW1 9524   4.514   0.225   2.131
 2875SOL    HW2 9525   4.355   0.255   2.149
 2876SOL     OW 9526   1.648   0.289   2.874
 2876SOL    HW1 9527   1.694   0.284   2.786
 2876SOL    HW2 9528   1.556   0.326   2.862
 2877SOL     OW 9529   2.603   0.936   6.382
 2877SOL    HW1 9530   2.678   0.998   6.359
 2877SOL    HW2 9531   2.594   0.930   6.481
 2878SOL     OW 9532   2.889   3.553   5.017
 2878SOL    HW1 9533   2.931   3.626   4.964
 2878SOL    HW2 9534   2.912   3.464   4.977
 2879SOL     OW 9535   5.582   5.616   5.469
 2879SOL    HW1 9536   5.626   5.665   5.394
 2879SOL    HW2 9537   5.512   5.674   5.511
 2880SOL     OW 9538   0.430   1.262   3.546
 2880SOL    HW1 9539   0.354   1.232   3.487
 2880SOL    HW2 9540   0.479   1.182   3.580
 2881SOL     OW 9541   3.580   5.763   0.200
 2881SOL    HW1 9542   3.566   5.756   0.102
 2881SOL    HW2 9543   3.500   5.728   0.248
 2882SOL     OW 9544   0.016   5.410   1.258
 2882SOL    HW1 9545   0.092   5.476   1.254
 2882SOL    HW2 9546   6.954   5.458   1.241
 2883SOL     OW 9547   5.674   0.124   3.523
 2883SOL    HW1 9548   5.685   0.030   3.555
 2883SOL    HW2 9549   5.760   0.156   3.482
 2884SOL     OW 9550   0.295   6.094   2.638
 2884SOL    HW1 9551   0.197   6.084   2.657
 2884SOL    HW2 9552   0.340   6.134   2.718
 2885SOL     OW 9553   1.794   2.135   4.753
 2885SOL    HW1 9554   1.848   2.052   4.739
 2885SOL    HW2 9555   1.697   2.111   4.757
 2886SOL     OW 9556   1.967   3.775   6.527
 2886SOL    HW1 9557   1.966   3.712   6.450
 2886SOL    HW2 9558   1.929   3.863   6.499
 2887SOL     OW 9559   0.588   6.113   4.703
 2887SOL    HW1 9560   0.531   6.037   4.672
 2887SOL    HW2 9561   0.628   6.090   4.792
 2888SOL     OW 9562   0.139   4.440   0.100
 2888SOL    HW1 9563   0.080   4.438   0.020
 2888SOL    HW2 9564   0.112   4.515   0.160
 2889SOL     OW 9565   3.279   5.996   2.619
 2889SOL    HW1 9566   3.210   6.064   2.645
 2889SOL    HW2 9567   3.348   5.989   2.691
 2890SOL     OW 9568   1.291   6.193   0.785
 2890SOL    HW1 9569   1.361   6.122   0.792
 2890SOL    HW2 9570   1.335   6.282   0.777
 2891SOL     OW 9571   0.855   3.612   3.450
 2891SOL    HW1 9572   0.757   3.591   3.453
 2891SOL    HW2 9573   0.875   3.685   3.516
 2892SOL     OW 9574   6.056   2.811   1.492
 2892SOL    HW1 9575   5.971   2.768   1.522
 2892SOL    HW2 9576   6.112   2.744   1.444
 2893SOL     OW 9577   0.730   4.794   4.123
 2893SOL    HW1 9578   0.824   4.814   4.150
 2893SOL    HW2 9579   0.667   4.841   4.184
 2894SOL     OW 9580   1.469   3.640   1.356
 2894SOL    HW1 9581   1.544   3.657   1.421
 2894SOL    HW2 9582   1.455   3.542   1.347
 2895SOL     OW 9583   5.169   0.621   5.885
 2895SOL    HW1 9584   5.236   0.690   5.856
 2895SOL    HW2 9585   5.208   0.530   5.872
 2896SOL     OW 9586   3.922   0.032   5.449
 2896SOL    HW1 9587   3.839   7.004   5.426
 2896SOL    HW2 9588   3.922   0.118   5.399
 2897SOL     OW 9589   4.021   4.818   2.327
 2897SOL    HW1 9590   3.937   4.861   2.295
 2897SOL    HW2 9591   4.007   4.784   2.421
 2898SOL     OW 9592   4.467   4.806   4.159
 2898SOL    HW1 9593   4.521   4.827   4.240
 2898SOL    HW2 9594   4.401   4.880   4.143
 2899SOL     OW 9595   0.024   1.663   0.366
 2899SOL    HW1 9596   6.997   1.645   0.450
 2899SOL    HW2 9597   0.097   1.594   0.357
 2900SOL     OW 9598   3.603   4.438   6.837
 2900SOL    HW1 9599   3.586   4.533   6.812
 2900SOL    HW2 9600   3.625   4.433   6.935
 2901SOL     OW 9601   1.978   4.805   3.421
 2901SOL    HW1 9602   1.901   4.830   3.362
 2901SOL    HW2 9603   1.946   4.797   3.515
 2902SOL     OW 9604   6.344   5.283   3.163
 2902SOL    HW1 9605   6.338   5.197   3.112
 2902SOL    HW2 9606   6.374   5.265   3.257
 2903SOL     OW 9607   4.201   6.465   0.607
 2903SOL    HW1 9608   4.122   6.451   0.667
 2903SOL    HW2 9609   4.241   6.555   0.626
 2904SOL     OW 9610   2.955   5.083   5.241
 2904SOL    HW1 9611   2.878   5.114   5.296
 2904SOL    HW2 9612   2.991   4.998   5.279
 2905SOL     OW 9613   1.312   3.725   4.314
 2905SOL    HW1 9614   1.316   3.811   4.367
 2905SOL    HW2 9615   1.218   3.709   4.284
 2906SOL     OW 9616   5.027   5.885   2.859
 2906SOL    HW1 9617   5.001   5.897   2.763
 2906SOL    HW2 9618   5.123   5.909   2.871
 2907SOL     OW 9619   0.451   1.743   3.760
 2907SOL    HW1 9620   0.428   1.646   3.769
 2907SOL    HW2 9621   0.502   1.758   3.676
 2908SOL     OW 9622   5.339   6.473   3.080
 2908SOL    HW1 9623   5.430   6.432   3.078
 2908SOL    HW2 9624   5.347   6.572   3.068
 2909SOL     OW 9625   2.470   5.528   4.027
 2909SOL    HW1 9626   2.391   5.532   4.088
 2909SOL    HW2 9627   2.468   5.442   3.976
 2910SOL     OW 9628   6.107   0.245   3.947
 2910SOL    HW1 9629   6.045   0.192   4.004
 2910SOL    HW2 9630   6.160   0.307   4.005
 2911SOL     OW 9631   1.652   5.038   3.611
 2911SOL    HW1 9632   1.711   5.112   3.579
 2911SOL    HW2 9633   1.623   5.057   3.705
 2912SOL     OW 9634   6.634   6.548   0.249
 2912SOL    HW1 9635   6.700   6.588   0.312
 2912SOL    HW2 9636   6.541   6.562   0.284
 2913SOL     OW 9637   3.729   5.143   1.957
 2913SOL    HW1 9638   3.657   5.197   1.914
 2913SOL    HW2 9639   3.781   5.094   1.886
 2914SOL     OW 9640   6.065   5.926   0.170
 2914SOL    HW1 9641   6.090   6.013   0.127
 2914SOL    HW2 9642   6.065   5.853   0.101
 2915SOL     OW 9643   3.006   1.921   3.456
 2915SOL    HW1 9644   2.958   1.903   3.370
 2915SOL    HW2 9645   3.053   1.838   3.486
 2916SOL     OW 9646   0.921   5.472   0.294
 2916SOL    HW1 9647   0.960   5.541   0.355
 2916SOL    HW2 9648   0.995   5.416   0.256
 2917SOL     OW 9649   2.854   0.259   4.655
 2917SOL    HW1 9650   2.776   0.198   4.643
 2917SOL    HW2 9651   2.869   0.311   4.571
 2918SOL     OW 9652   6.232   4.011   5.435
 2918SOL    HW1 9653   6.253   4.075   5.509
 2918SOL    HW2 9654   6.275   3.923   5.455
 2919SOL     OW 9655   6.330   0.655   3.167
 2919SOL    HW1 9656   6.402   0.664   3.237
 2919SOL    HW2 9657   6.241   0.667   3.210
 2920SOL     OW 9658   3.587   0.400   1.452
 2920SOL    HW1 9659   3.641   0.375   1.372
 2920SOL    HW2 9660   3.531   0.323   1.480
 2921SOL     OW 9661   0.447   0.388   5.367
 2921SOL    HW1 9662   0.520   0.456   5.371
 2921SOL    HW2 9663   0.484   0.302   5.331
 2922SOL     OW 9664   4.751   6.531   1.675
 2922SOL    HW1 9665   4.751   6.558   1.772
 2922SOL    HW2 9666   4.810   6.594   1.624
 2923SOL     OW 9667   6.956   5.668   4.228
 2923SOL    HW1 9668   6.973   5.657   4.130
 2923SOL    HW2 9669   0.012   5.707   4.273
 2924SOL     OW 9670   7.004   2.483   5.214
 2924SOL    HW1 9671   0.034   2.401   5.230
 2924SOL    HW2 9672   6.925   2.460   5.157
 2925SOL     OW 9673   5.722   2.514   0.699
 2925SOL    HW1 9674   5.689   2.440   0.642
 2925SOL    HW2 9675   5.800   2.558   0.655
 2926SOL     OW 9676   5.442   2.055   6.450
 2926SOL    HW1 9677   5.420   2.129   6.386
 2926SOL    HW2 9678   5.446   1.968   6.400
 2927SOL     OW 9679   1.874   3.834   1.102
 2927SOL    HW1 9680   1.927   3.782   1.169
 2927SOL    HW2 9681   1.777   3.831   1.127
 2928SOL     OW 9682   0.228   0.523   0.153
 2928SOL    HW1 9683   0.144   0.563   0.119
 2928SOL    HW2 9684   0.307   0.564   0.106
 2929SOL     OW 9685   1.360   2.916   5.900
 2929SOL    HW1 9686   1.262   2.915   5.917
 2929SOL    HW2 9687   1.403   2.990   5.952
 2930SOL     OW 9688   5.419   6.675   5.169
 2930SOL    HW1 9689   5.395   6.606   5.237
 2930SOL    HW2 9690   5.489   6.736   5.206
 2931SOL     OW 9691   5.155   5.356   6.884
 2931SOL    HW1 9692   5.250   5.363   6.854
 2931SOL    HW2 9693   5.152   5.338   6.982
 2932SOL     OW 9694   0.754   5.685   1.833
 2932SOL    HW1 9695   0.845   5.711   1.865
 2932SOL    HW2 9696   0.692   5.676   1.911
 2933SOL     OW 9697   1.831   6.527   2.219
 2933SOL    HW1 9698   1.769   6.469   2.167
 2933SOL    HW2 9699   1.905   6.559   2.160
 2934SOL     OW 9700   5.695   2.634   0.220
 2934SOL    HW1 9701   5.712   2.727   0.188
 2934SOL    HW2 9702   5.636   2.636   0.300
 2935SOL     OW 9703   6.795   2.411   5.916
 2935SOL    HW1 9704   6.738   2.373   5.843
 2935SOL    HW2 9705   6.888   2.375   5.908
 2936SOL     OW 9706   4.652   6.027   0.380
 2936SOL    HW1 9707   4.672   6.023   0.282
 2936SOL    HW2 9708   4.715   6.092   0.424
 2937SOL     OW 9709   5.413   4.954   1.240
 2937SOL    HW1 9710   5.509   4.931   1.259
 2937SOL    HW2 9711   5.409   5.045   1.199
 2938SOL     OW 9712   5.888   4.483   0.251
 2938SOL    HW1 9713   5.845   4.499   0.162
 2938SOL    HW2 9714   5.962   4.417   0.241
 2939SOL     OW 9715   1.999   0.604   1.614
 2939SOL    HW1 9716   1.957   0.648   1.534
 2939SOL    HW2 9717   2.094   0.635   1.622
 2940SOL     OW 9718   5.478   5.228   5.280
 2940SOL    HW1 9719   5.474   5.324   5.309
 2940SOL    HW2 9720   5.415   5.214   5.203
 2941SOL     OW 9721   1.581   2.162   4.103
 2941SOL    HW1 9722   1.631   2.083   4.068
 2941SOL    HW2 9723   1.605   2.243   4.050
 2942SOL     OW 9724   3.878   1.532   1.132
 2942SOL    HW1 9725   3.887   1.470   1.054
 2942SOL    HW2 9726   3.899   1.626   1.103
 2943SOL     OW 9727   5.589   3.967   3.819
 2943SOL    HW1 9728   5.531   3.944   3.897
 2943SOL    HW2 9729   5.533   3.973   3.737
 2944SOL     OW 9730   2.891   6.413   3.978
 2944SOL    HW1 9731   2.829   6.399   3.902
 2944SOL    HW2 9732   2.980   6.372   3.957
 2945SOL     OW 9733   4.392   2.726   1.502
 2945SOL    HW1 9734   4.445   2.758   1.580
 2945SOL    HW2 9735   4.400   2.626   1.495
 2946SOL     OW 9736   1.980   4.793   6.142
 2946SOL    HW1 9737   1.918   4.715   6.135
 2946SOL    HW2 9738   2.001   4.826   6.050
 2947SOL     OW 9739   1.208   5.782   1.552
 2947SOL    HW1 9740   1.171   5.689   1.556
 2947SOL    HW2 9741   1.306   5.780   1.576
 2948SOL     OW 9742   6.965   4.423   4.777
 2948SOL    HW1 9743   6.948   4.404   4.874
 2948SOL    HW2 9744   6.946   4.341   4.724
 2949SOL     OW 9745   0.911   5.574   0.854
 2949SOL    HW1 9746   0.828   5.518   0.868
 2949SOL    HW2 9747   0.903   5.623   0.767
 2950SOL     OW 9748   6.035   5.978   4.587
 2950SOL    HW1 9749   5.951   6.014   4.545
 2950SOL    HW2 9750   6.049   5.884   4.556
 2951SOL     OW 9751   5.647   2.151   1.813
 2951SOL    HW1 9752   5.701   2.200   1.744
 2951SOL    HW2 9753   5.678   2.057   1.819
 2952SOL     OW 9754   7.010   6.312   5.941
 2952SOL    HW1 9755   0.013   6.232   5.888
 2952SOL    HW2 9756   0.055   6.384   5.929
 2953SOL     OW 9757   6.424   4.370   2.935
 2953SOL    HW1 9758   6.462   4.430   2.865
 2953SOL    HW2 9759   6.337   4.408   2.968
 2954SOL     OW 9760   0.970   4.974   1.462
 2954SOL    HW1 9761   0.965   4.954   1.560
 2954SOL    HW2 9762   0.881   5.009   1.431
 2955SOL     OW 9763   0.939   4.242   0.756
 2955SOL    HW1 9764   0.892   4.303   0.820
 2955SOL    HW2 9765   0.951   4.152   0.798
 2956SOL     OW 9766   6.066   5.393   3.042
 2956SOL    HW1 9767   6.129   5.450   2.988
 2956SOL    HW2 9768   6.059   5.303   3.000
 2957SOL     OW 9769   4.945   4.400   1.557
 2957SOL    HW1 9770   4.970   4.448   1.641
 2957SOL    HW2 9771   4.988   4.310   1.557
 2958SOL     OW 9772   1.970   4.402   3.278
 2958SOL    HW1 9773   1.936   4.422   3.370
 2958SOL    HW2 9774   1.931   4.315   3.247
 2959SOL     OW 9775   5.229   3.435   2.096
 2959SOL    HW1 9776   5.300   3.422   2.164
 2959SOL    HW2 9777   5.178   3.349   2.084
 2960SOL     OW 9778   3.350   0.199   6.727
 2960SOL    HW1 9779   3.276   0.139   6.757
 2960SOL    HW2 9780   3.355   0.199   6.627
 2961SOL     OW 9781   5.744   4.904   3.273
 2961SOL    HW1 9782   5.763   4.806   3.274
 2961SOL    HW2 9783   5.738   4.938   3.367
 2962SOL     OW 9784   4.564   5.973   3.403
 2962SOL    HW1 9785   4.562   5.890   3.460
 2962SOL    HW2 9786   4.642   5.968   3.341
 2963SOL     OW 9787   0.612   0.892   0.142
 2963SOL    HW1 9788   0.578   0.974   0.096
 2963SOL    HW2 9789   0.708   0.905   0.167
 2964SOL     OW 9790   0.507   1.769   5.512
 2964SOL    HW1 9791   0.572   1.696   5.531
 2964SOL    HW2 9792   0.429   1.732   5.462
 2965SOL     OW 9793   0.399   1.057   4.919
 2965SOL    HW1 9794   0.489   1.016   4.933
 2965SOL    HW2 9795   0.373   1.048   4.823
 2966SOL     OW 9796   4.990   5.207   2.791
 2966SOL    HW1 9797   4.959   5.145   2.864
 2966SOL    HW2 9798   4.997   5.300   2.827
 2967SOL     OW 9799   6.036   1.099   5.971
 2967SOL    HW1 9800   6.066   1.094   6.066
 2967SOL    HW2 9801   5.939   1.125   5.968
 2968SOL     OW 9802   0.803   2.588   0.626
 2968SOL    HW1 9803   0.852   2.531   0.692
 2968SOL    HW2 9804   0.869   2.634   0.566
 2969SOL     OW 9805   4.768   2.717   4.270
 2969SOL    HW1 9806   4.682   2.667   4.273
 2969SOL    HW2 9807   4.833   2.669   4.211
 2970SOL     OW 9808   2.709   3.049   5.389
 2970SOL    HW1 9809   2.626   3.104   5.379
 2970SOL    HW2 9810   2.686   2.962   5.432
 2971SOL     OW 9811   4.926   3.800   0.834
 2971SOL    HW1 9812   5.021   3.773   0.849
 2971SOL    HW2 9813   4.876   3.724   0.792
 2972SOL     OW 9814   6.339   5.230   6.773
 2972SOL    HW1 9815   6.284   5.193   6.848
 2972SOL    HW2 9816   6.435   5.236   6.803
 2973SOL     OW 9817   5.111   6.034   2.131
 2973SOL    HW1 9818   5.177   5.996   2.197
 2973SOL    HW2 9819   5.138   6.127   2.107
 2974SOL     OW 9820   0.100   4.516   3.799
 2974SOL    HW1 9821   0.058   4.428   3.823
 2974SOL    HW2 9822   0.079   4.539   3.704
 2975SOL     OW 9823   4.822   4.480   4.202
 2975SOL    HW1 9824   4.779   4.490   4.113
 2975SOL    HW2 9825   4.767   4.421   4.260
 2976SOL     OW 9826   4.598   2.011   2.490
 2976SOL    HW1 9827   4.633   1.917   2.482
 2976SOL    HW2 9828   4.651   2.071   2.429
 2977SOL     OW 9829   0.867   0.584   2.662
 2977SOL    HW1 9830   0.915   0.645   2.725
 2977SOL    HW2 9831   0.933   0.530   2.610
 2978SOL     OW 9832   3.613   4.350   0.094
 2978SOL    HW1 9833   3.615   4.421   0.165
 2978SOL    HW2 9834   3.680   4.279   0.117
 2979SOL     OW 9835   3.335   1.481   3.817
 2979SOL    HW1 9836   3.384   1.562   3.850
 2979SOL    HW2 9837   3.297   1.431   3.895
 2980SOL     OW 9838   2.072   5.543   5.621
 2980SOL    HW1 9839   2.023   5.494   5.693
 2980SOL    HW2 9840   2.091   5.637   5.652
 2981SOL     OW 9841   2.451   0.700   0.016
 2981SOL    HW1 9842   2.454   0.605   0.048
 2981SOL    HW2 9843   2.496   0.706   6.952
 2982SOL     OW 9844   2.845   6.207   1.220
 2982SOL    HW1 9845   2.787   6.230   1.298
 2982SOL    HW2 9846   2.891   6.120   1.237
 2983SOL     OW 9847   6.456   2.207   1.966
 2983SOL    HW1 9848   6.415   2.277   2.024
 2983SOL    HW2 9849   6.554   2.224   1.956
 2984SOL     OW 9850   5.929   5.025   0.224
 2984SOL    HW1 9851   5.909   4.992   0.132
 2984SOL    HW2 9852   5.985   5.108   0.219
 2985SOL     OW 9853   2.191   1.822   4.678
 2985SOL    HW1 9854   2.173   1.725   4.668
 2985SOL    HW2 9855   2.287   1.836   4.702
 2986SOL     OW 9856   3.638   4.113   2.396
 2986SOL    HW1 9857   3.599   4.021   2.407
 2986SOL    HW2 9858   3.674   4.145   2.483
 2987SOL     OW 9859   1.504   1.109   4.730
 2987SOL    HW1 9860   1.415   1.071   4.754
 2987SOL    HW2 9861   1.513   1.113   4.631
 2988SOL     OW 9862   1.642   7.012   2.471
 2988SOL    HW1 9863   1.604   6.986   2.561
 2988SOL    HW2 9864   1.670   6.929   2.423
 2989SOL     OW 9865   4.989   4.936   5.624
 2989SOL    HW1 9866   5.028   5.023   5.656
 2989SOL    HW2 9867   5.043   4.860   5.661
 2990SOL     OW 9868   4.332   2.023   4.237
 2990SOL    HW1 9869   4.296   2.003   4.146
 2990SOL    HW2 9870   4.311   2.118   4.261
 2991SOL     OW 9871   6.400   3.126   6.130
 2991SOL    HW1 9872   6.397   3.148   6.032
 2991SOL    HW2 9873   6.476   3.175   6.172
 2992SOL     OW 9874   1.229   4.972   4.342
 2992SOL    HW1 9875   1.282   4.979   4.426
 2992SOL    HW2 9876   1.153   5.037   4.345
 2993SOL     OW 9877   1.151   5.190   1.353
 2993SOL    HW1 9878   1.101   5.121   1.405
 2993SOL    HW2 9879   1.126   5.183   1.256
 2994SOL     OW 9880   4.278   6.566   0.343
 2994SOL    HW1 9881   4.313   6.474   0.329
 2994SOL    HW2 9882   4.199   6.563   0.405
 2995SOL     OW 9883   3.961   1.068   6.667
 2995SOL    HW1 9884   4.042   1.013   6.690
 2995SOL    HW2 9885   3.989   1.161   6.646
 2996SOL     OW 9886   0.486   1.339   5.363
 2996SOL    HW1 9887   0.401   1.350   5.414
 2996SOL    HW2 9888   0.552   1.409   5.394
 2997SOL     OW 9889   4.891   0.244   2.989
 2997SOL    HW1 9890   4.922   0.266   3.082
 2997SOL    HW2 9891   4.960   0.187   2.945
 2998SOL     OW 9892   4.982   6.673   3.440
 2998SOL    HW1 9893   4.938   6.746   3.493
 2998SOL    HW2 9894   5.025   6.713   3.359
 2999SOL     OW 9895   2.441   4.971   5.225
 2999SOL    HW1 9896   2.534   4.991   5.193
 2999SOL    HW2 9897   2.441   4.963   5.325
 3000SOL     OW 9898   3.212   4.090   6.211
 3000SOL    HW1 9899   3.264   4.079   6.126
 3000SOL    HW2 9900   3.118   4.059   6.197
 3001SOL     OW 9901   6.463   1.709   6.799
 3001SOL    HW1 9902   6.404   1.661   6.734
 3001SOL    HW2 9903   6.406   1.752   6.870
 3002SOL     OW 9904   3.810   2.529   0.204
 3002SOL    HW1 9905   3.764   2.461   0.260
 3002SOL    HW2 9906   3.743   2.596   0.171
 3003SOL     OW 9907   0.802   6.602   0.680
 3003SOL    HW1 9908   0.760   6.602   0.589
 3003SOL    HW2 9909   0.731   6.612   0.749
 3004SOL     OW 9910   1.307   4.245   2.452
 3004SOL    HW1 9911   1.363   4.320   2.486
 3004SOL    HW2 9912   1.218   4.247   2.498
 3005SOL     OW 9913   1.478   2.271   0.243
 3005SOL    HW1 9914   1.569   2.307   0.218
 3005SOL    HW2 9915   1.418   2.347   0.266
 3006SOL     OW 9916   5.591   2.339   4.758
 3006SOL    HW1 9917   5.678   2.340   4.707
 3006SOL    HW2 9918   5.526   2.400   4.714
 3007SOL     OW 9919   5.263   4.477   0.996
 3007SOL    HW1 9920   5.274   4.529   1.081
 3007SOL    HW2 9921   5.276   4.380   1.015
 3008SOL     OW 9922   3.309   2.543   6.567
 3008SOL    HW1 9923   3.347   2.634   6.585
 3008SOL    HW2 9924   3.220   2.552   6.522
 3009SOL     OW 9925   6.390   2.700   2.648
 3009SOL    HW1 9926   6.442   2.631   2.700
 3009SOL    HW2 9927   6.387   2.785   2.699
 3010SOL     OW 9928   2.989   5.778   4.144
 3010SOL    HW1 9929   3.046   5.719   4.088
 3010SOL    HW2 9930   3.041   5.811   4.223
 3011SOL     OW 9931   5.774   0.886   2.264
 3011SOL    HW1 9932   5.759   0.793   2.230
 3011SOL    HW2 9933   5.831   0.883   2.346
 3012SOL     OW 9934   2.392   3.039   6.964
 3012SOL    HW1 9935   2.374   2.996   6.875
 3012SOL    HW2 9936   2.479   3.087   6.961
 3013SOL     OW 9937   5.689   5.397   3.969
 3013SOL    HW1 9938   5.687   5.298   3.957
 3013SOL    HW2 9939   5.595   5.431   3.979
 3014SOL     OW 9940   4.549   2.155   5.522
 3014SOL    HW1 9941   4.546   2.217   5.444
 3014SOL    HW2 9942   4.495   2.074   5.503
 3015SOL     OW 9943   1.689   1.810   0.163
 3015SOL    HW1 9944   1.777   1.796   0.208
 3015SOL    HW2 9945   1.618   1.821   0.232
 3016SOL     OW 9946   3.476   6.495   4.425
 3016SOL    HW1 9947   3.541   6.477   4.499
 3016SOL    HW2 9948   3.520   6.481   4.337
 3017SOL     OW 9949   6.432   5.834   2.323
 3017SOL    HW1 9950   6.525   5.798   2.334
 3017SOL    HW2 9951   6.383   5.779   2.255
 3018SOL     OW 9952   2.962   0.269   6.482
 3018SOL    HW1 9953   2.945   0.235   6.575
 3018SOL    HW2 9954   2.951   0.194   6.417
 3019SOL     OW 9955   0.397   0.007   6.657
 3019SOL    HW1 9956   0.305   0.015   6.619
 3019SOL    HW2 9957   0.457   6.985   6.591
 3020SOL     OW 9958   4.052   3.152   0.756
 3020SOL    HW1 9959   4.131   3.168   0.698
 3020SOL    HW2 9960   4.070   3.076   0.818
 3021SOL     OW 9961   2.979   0.341   5.084
 3021SOL    HW1 9962   2.889   0.385   5.073
 3021SOL    HW2 9963   3.023   0.334   4.995
 3022SOL     OW 9964   4.230   4.969   4.388
 3022SOL    HW1 9965   4.314   5.007   4.426
 3022SOL    HW2 9966   4.162   4.958   4.461
 3023SOL     OW 9967   4.322   6.301   3.078
 3023SOL    HW1 9968   4.282   6.348   3.156
 3023SOL    HW2 9969   4.329   6.203   3.097
 3024SOL     OW 9970   5.863   6.499   4.729
 3024SOL    HW1 9971   5.846   6.544   4.642
 3024SOL    HW2 9972   5.776   6.473   4.771
 3025SOL     OW 9973   4.471   6.124   1.878
 3025SOL    HW1 9974   4.535   6.196   1.850
 3025SOL    HW2 9975   4.378   6.150   1.851
 3026SOL     OW 9976   0.185   1.242   5.762
 3026SOL    HW1 9977   0.150   1.200   5.845
 3026SOL    HW2 9978   0.165   1.183   5.683
 3027SOL     OW 9979   3.847   1.878   2.747
 3027SOL    HW1 9980   3.910   1.801   2.738
 3027SOL    HW2 9981   3.808   1.878   2.839
 3028SOL     OW 9982   1.690   3.396   5.417
 3028SOL    HW1 9983   1.656   3.391   5.323
 3028SOL    HW2 9984   1.618   3.369   5.480
 3029SOL     OW 9985   1.239   3.133   4.605
 3029SOL    HW1 9986   1.241   3.047   4.655
 3029SOL    HW2 9987   1.332   3.163   4.586
 3030SOL     OW 9988   1.224   3.263   0.912
 3030SOL    HW1 9989   1.217   3.319   0.829
 3030SOL    HW2 9990   1.283   3.184   0.893
 3031SOL     OW 9991   0.283   5.010   1.144
 3031SOL    HW1 9992   0.231   5.084   1.100
 3031SOL    HW2 9993   0.380   5.031   1.141
 3032SOL     OW 9994   2.187   6.996   1.565
 3032SOL    HW1 9995   2.113   0.025   1.607
 3032SOL    HW2 9996   2.274   0.018   1.581
 3033SOL     OW 9997   5.491   0.973   2.348
 3033SOL    HW1 9998   5.569   0.911   2.342
 3033SOL    HW2 9999   5.515   1.060   2.304
 3034SOL     OW10000   0.838   7.010   3.474
 3034SOL    HW110001   0.838   0.086   3.472
 3034SOL    HW210002   0.746   6.978   3.498
 3035SOL     OW10003   0.793   3.075   6.204
 3035SOL    HW110004   0.750   3.158   6.169
 3035SOL    HW210005   0.879   3.059   6.156
 3036SOL     OW10006   1.591   2.151   5.236
 3036SOL    HW110007   1.636   2.080   5.182
 3036SOL    HW210008   1.600   2.131   5.333
 3037SOL     OW10009   6.238   5.124   5.849
 3037SOL    HW110010   6.226   5.033   5.809
 3037SOL    HW210011   6.296   5.117   5.931
 3038SOL     OW10012   4.831   4.927   5.414
 3038SOL    HW110013   4.881   4.930   5.500
 3038SOL    HW210014   4.829   4.833   5.380
 3039SOL     OW10015   0.805   2.947   0.757
 3039SOL    HW110016   0.844   3.023   0.809
 3039SOL    HW210017   0.733   2.903   0.810
 3040SOL     OW10018   3.574   4.490   5.774
 3040SOL    HW110019   3.509   4.528   5.840
 3040SOL    HW210020   3.533   4.487   5.683
 3041SOL     OW10021   2.199   4.416   5.341
 3041SOL    HW110022   2.198   4.381   5.247
 3041SOL    HW210023   2.292   4.416   5.376
 3042SOL     OW10024   6.043   6.474   2.908
 3042SOL    HW110025   6.037   6.559   2.857
 3042SOL    HW210026   5.951   6.446   2.937
 3043SOL     OW10027   3.043   4.053   1.858
 3043SOL    HW110028   3.054   4.063   1.957
 3043SOL    HW210029   3.074   4.136   1.812
 3044SOL     OW10030   3.177   5.906   5.549
 3044SOL    HW110031   3.111   5.900   5.474
 3044SOL    HW210032   3.267   5.875   5.517
 3045SOL     OW10033   5.106   6.722   3.212
 3045SOL    HW110034   5.198   6.706   3.175
 3045SOL    HW210035   5.066   6.802   3.166
 3046SOL     OW10036   3.687   0.320   6.558
 3046SOL    HW110037   3.711   0.328   6.462
 3046SOL    HW210038   3.765   0.282   6.609
 3047SOL     OW10039   5.911   0.535   1.866
 3047SOL    HW110040   6.010   0.517   1.869
 3047SOL    HW210041   5.896   0.630   1.837
 3048SOL     OW10042   4.201   2.420   0.716
 3048SOL    HW110043   4.278   2.359   0.732
 3048SOL    HW210044   4.177   2.419   0.619
 3049SOL     OW10045   1.387   0.365   3.158
 3049SOL    HW110046   1.305   0.313   3.181
 3049SOL    HW210047   1.467   0.322   3.201
 3050SOL     OW10048   3.243   1.877   1.756
 3050SOL    HW110049   3.201   1.794   1.794
 3050SOL    HW210050   3.242   1.949   1.826
 3051SOL     OW10051   1.828   6.836   6.882
 3051SOL    HW110052   1.779   6.777   6.818
 3051SOL    HW210053   1.925   6.809   6.883
 3052SOL     OW10054   5.308   5.660   2.021
 3052SOL    HW110055   5.399   5.618   2.021
 3052SOL    HW210056   5.316   5.757   2.046
 3053SOL     OW10057   6.856   3.663   1.147
 3053SOL    HW110058   6.955   3.658   1.164
 3053SOL    HW210059   6.807   3.658   1.234
 3054SOL     OW10060   5.894   2.171   1.677
 3054SOL    HW110061   5.961   2.098   1.688
 3054SOL    HW210062   5.926   2.253   1.725
 3055SOL     OW10063   5.066   0.113   5.278
 3055SOL    HW110064   5.134   0.185   5.272
 3055SOL    HW210065   4.978   0.147   5.244
 3056SOL     OW10066   6.283   1.143   5.864
 3056SOL    HW110067   6.189   1.121   5.890
 3056SOL    HW210068   6.342   1.065   5.885
 3057SOL     OW10069   4.320   4.974   4.023
 3057SOL    HW110070   4.358   5.001   3.935
 3057SOL    HW210071   4.244   5.035   4.046
 3058SOL     OW10072   6.604   4.438   0.953
 3058SOL    HW110073   6.579   4.530   0.923
 3058SOL    HW210074   6.616   4.379   0.873
 3059SOL     OW10075   2.785   1.253   3.884
 3059SOL    HW110076   2.826   1.173   3.929
 3059SOL    HW210077   2.853   1.297   3.826
 3060SOL     OW10078   1.842   5.568   0.438
 3060SOL    HW110079   1.827   5.550   0.341
 3060SOL    HW210080   1.932   5.533   0.465
 3061SOL     OW10081   6.189   5.952   5.693
 3061SOL    HW110082   6.147   6.026   5.746
 3061SOL    HW210083   6.275   5.925   5.736
 3062SOL     OW10084   1.780   6.952   1.175
 3062SOL    HW110085   1.734   7.017   1.115
 3062SOL    HW210086   1.755   6.859   1.148
 3063SOL     OW10087   2.277   4.578   1.350
 3063SOL    HW110088   2.332   4.541   1.425
 3063SOL    HW210089   2.257   4.505   1.285
 3064SOL     OW10090   5.205   3.520   0.699
 3064SOL    HW110091   5.151   3.451   0.649
 3064SOL    HW210092   5.291   3.535   0.651
 3065SOL     OW10093   1.561   2.576   6.412
 3065SOL    HW110094   1.587   2.669   6.389
 3065SOL    HW210095   1.577   2.560   6.510
 3066SOL     OW10096   5.296   5.266   0.677
 3066SOL    HW110097   5.350   5.341   0.716
 3066SOL    HW210098   5.242   5.223   0.749
 3067SOL     OW10099   3.752   0.880   6.667
 3067SOL    HW110100   3.838   0.930   6.676
 3067SOL    HW210101   3.766   0.799   6.610
 3068SOL     OW10102   6.919   6.201   1.598
 3068SOL    HW110103   6.920   6.264   1.520
 3068SOL    HW210104   6.893   6.251   1.681
 3069SOL     OW10105   6.900   6.621   2.447
 3069SOL    HW110106   6.877   6.714   2.477
 3069SOL    HW210107   6.999   6.608   2.452
 3070SOL     OW10108   2.772   0.575   6.580
 3070SOL    HW110109   2.840   0.627   6.530
 3070SOL    HW210110   2.721   0.516   6.517
 3071SOL     OW10111   6.767   6.518   4.265
 3071SOL    HW110112   6.740   6.442   4.206
 3071SOL    HW210113   6.688   6.547   4.320
 3072SOL     OW10114   1.974   5.383   5.867
 3072SOL    HW110115   1.899   5.374   5.933
 3072SOL    HW210116   2.055   5.418   5.914
 3073SOL     OW10117   6.900   3.630   3.216
 3073SOL    HW110118   6.948   3.699   3.270
 3073SOL    HW210119   6.950   3.544   3.219
 3074SOL     OW10120   0.147   4.150   1.168
 3074SOL    HW110121   0.130   4.082   1.096
 3074SOL    HW210122   0.227   4.122   1.221
 3075SOL     OW10123   2.708   5.696   2.738
 3075SOL    HW110124   2.717   5.790   2.770
 3075SOL    HW210125   2.776   5.677   2.667
 3076SOL     OW10126   6.556   1.498   3.552
 3076SOL    HW110127   6.591   1.584   3.591
 3076SOL    HW210128   6.463   1.482   3.586
 3077SOL     OW10129   5.887   4.650   2.012
 3077SOL    HW110130   5.810   4.616   1.959
 3077SOL    HW210131   5.891   4.603   2.100
 3078SOL     OW10132   0.114   3.436   2.525
 3078SOL    HW110133   0.191   3.394   2.478
 3078SOL    HW210134   0.114   3.534   2.508
 3079SOL     OW10135   2.697   2.300   2.808
 3079SOL    HW110136   2.681   2.393   2.841
 3079SOL    HW210137   2.738   2.303   2.717
 3080SOL     OW10138   6.155   5.385   2.313
 3080SOL    HW110139   6.180   5.473   2.273
 3080SOL    HW210140   6.206   5.312   2.267
 3081SOL     OW10141   0.996   4.043   5.895
 3081SOL    HW110142   0.980   4.038   5.797
 3081SOL    HW210143   1.034   3.957   5.928
 3082SOL     OW10144   1.858   5.879   3.996
 3082SOL    HW110145   1.931   5.919   3.941
 3082SOL    HW210146   1.894   5.855   4.086
 3083SOL     OW10147   3.214   6.365   3.780
 3083SOL    HW110148   3.270   6.358   3.697
 3083SOL    HW210149   3.233   6.453   3.825
 3084SOL     OW10150   6.191   4.530   3.274
 3084SOL    HW110151   6.278   4.481   3.284
 3084SOL    HW210152   6.167   4.534   3.177
 3085SOL     OW10153   6.412   4.376   0.528
 3085SOL    HW110154   6.492   4.341   0.479
 3085SOL    HW210155   6.414   4.345   0.623
 3086SOL     OW10156   5.090   1.546   0.731
 3086SOL    HW110157   5.067   1.461   0.684
 3086SOL    HW210158   5.009   1.583   0.776
 3087SOL     OW10159   2.224   6.965   3.645
 3087SOL    HW110160   2.159   7.006   3.580
 3087SOL    HW210161   2.204   6.868   3.655
 3088SOL     OW10162   2.012   3.730   4.965
 3088SOL    HW110163   2.018   3.743   4.866
 3088SOL    HW210164   1.920   3.701   4.989
 3089SOL     OW10165   4.104   2.019   4.638
 3089SOL    HW110166   4.056   2.053   4.719
 3089SOL    HW210167   4.197   1.994   4.662
 3090SOL     OW10168   2.433   1.537   1.560
 3090SOL    HW110169   2.359   1.523   1.626
 3090SOL    HW210170   2.407   1.496   1.473
 3091SOL     OW10171   1.471   1.362   0.526
 3091SOL    HW110172   1.373   1.374   0.511
 3091SOL    HW210173   1.507   1.293   0.463
 3092SOL     OW10174   5.536   6.791   0.557
 3092SOL    HW110175   5.439   6.809   0.574
 3092SOL    HW210176   5.548   6.764   0.461
 3093SOL     OW10177   5.465   5.890   6.547
 3093SOL    HW110178   5.374   5.909   6.583
 3093SOL    HW210179   5.464   5.803   6.498
 3094SOL     OW10180   2.410   0.071   4.042
 3094SOL    HW110181   2.382   0.101   3.950
 3094SOL    HW210182   2.366   7.009   4.064
 3095SOL     OW10183   2.208   4.280   5.096
 3095SOL    HW110184   2.250   4.337   5.025
 3095SOL    HW210185   2.257   4.193   5.103
 3096SOL     OW10186   0.944   5.177   5.502
 3096SOL    HW110187   1.025   5.223   5.539
 3096SOL    HW210188   0.961   5.079   5.496
 3097SOL     OW10189   6.060   3.548   6.758
 3097SOL    HW110190   6.128   3.544   6.831
 3097SOL    HW210191   5.974   3.507   6.791
 3098SOL     OW10192   1.787   3.086   1.491
 3098SOL    HW110193   1.736   3.000   1.492
 3098SOL    HW210194   1.874   3.074   1.537
 3099SOL     OW10195   1.074   6.235   3.843
 3099SOL    HW110196   1.097   6.176   3.921
 3099SOL    HW210197   1.039   6.322   3.877
 3100SOL     OW10198   6.621   6.157   3.854
 3100SOL    HW110199   6.692   6.227   3.863
 3100SOL    HW210200   6.577   6.143   3.943
 3101SOL     OW10201   5.454   5.822   5.985
 3101SOL    HW110202   5.440   5.914   6.021
 3101SOL    HW210203   5.406   5.756   6.043
 3102SOL     OW10204   6.273   6.895   1.274
 3102SOL    HW110205   6.243   6.840   1.197
 3102SOL    HW210206   6.220   6.872   1.355
 3103SOL     OW10207   4.442   1.424   1.755
 3103SOL    HW110208   4.351   1.435   1.713
 3103SOL    HW210209   4.435   1.434   1.854
 3104SOL     OW10210   4.516   0.501   6.314
 3104SOL    HW110211   4.474   0.473   6.400
 3104SOL    HW210212   4.524   0.422   6.253
 3105SOL     OW10213   5.706   3.910   1.300
 3105SOL    HW110214   5.778   3.967   1.340
 3105SOL    HW210215   5.709   3.919   1.200
 3106SOL     OW10216   4.865   6.689   4.640
 3106SOL    HW110217   4.925   6.613   4.616
 3106SOL    HW210218   4.921   6.769   4.665
 3107SOL     OW10219   3.472   0.983   4.697
 3107SOL    HW110220   3.564   1.019   4.680
 3107SOL    HW210221   3.447   0.918   4.625
 3108SOL     OW10222   2.205   5.448   4.628
 3108SOL    HW110223   2.260   5.404   4.557
 3108SOL    HW210224   2.115   5.404   4.634
 3109SOL     OW10225   5.746   0.238   3.850
 3109SOL    HW110226   5.792   0.321   3.816
 3109SOL    HW210227   5.728   0.177   3.773
 3110SOL     OW10228   1.478   3.637   3.090
 3110SOL    HW110229   1.505   3.729   3.062
 3110SOL    HW210230   1.378   3.632   3.093
 3111SOL     OW10231   0.153   5.060   3.404
 3111SOL    HW110232   0.220   5.061   3.479
 3111SOL    HW210233   0.081   4.995   3.424
 3112SOL     OW10234   3.281   3.340   0.278
 3112SOL    HW110235   3.262   3.276   0.352
 3112SOL    HW210236   3.318   3.425   0.316
 3113SOL     OW10237   3.517   5.438   2.795
 3113SOL    HW110238   3.468   5.376   2.857
 3113SOL    HW210239   3.495   5.415   2.700
 3114SOL     OW10240   3.647   1.896   0.423
 3114SOL    HW110241   3.547   1.906   0.430
 3114SOL    HW210242   3.670   1.844   0.341
 3115SOL     OW10243   4.075   4.703   6.341
 3115SOL    HW110244   4.165   4.667   6.317
 3115SOL    HW210245   4.051   4.778   6.278
 3116SOL     OW10246   6.663   2.000   6.842
 3116SOL    HW110247   6.582   2.021   6.788
 3116SOL    HW210248   6.734   1.964   6.782
 3117SOL     OW10249   4.692   3.949   5.473
 3117SOL    HW110250   4.714   3.878   5.405
 3117SOL    HW210251   4.775   3.974   5.523
 3118SOL     OW10252   1.122   4.988   2.569
 3118SOL    HW110253   1.040   4.998   2.512
 3118SOL    HW210254   1.162   5.078   2.585
 3119SOL     OW10255   2.329   2.410   0.090
 3119SOL    HW110256   2.347   2.354   0.009
 3119SOL    HW210257   2.262   2.364   0.148
 3120SOL     OW10258   2.667   0.493   5.685
 3120SOL    HW110259   2.708   0.485   5.594
 3120SOL    HW210260   2.663   0.590   5.711
 3121SOL     OW10261   6.288   1.396   4.550
 3121SOL    HW110262   6.345   1.465   4.505
 3121SOL    HW210263   6.210   1.373   4.491
 3122SOL     OW10264   4.653   5.878   5.350
 3122SOL    HW110265   4.613   5.967   5.373
 3122SOL    HW210266   4.678   5.830   5.434
 3123SOL     OW10267   2.232   1.421   2.490
 3123SOL    HW110268   2.170   1.345   2.510
 3123SOL    HW210269   2.182   1.508   2.498
 3124SOL     OW10270   4.950   7.008   4.285
 3124SOL    HW110271   4.982   6.916   4.265
 3124SOL    HW210272   4.900   0.020   4.206
 3125SOL     OW10273   1.072   3.090   5.160
 3125SOL    HW110274   1.056   3.143   5.077
 3125SOL    HW210275   0.987   3.083   5.212
 3126SOL     OW10276   5.287   4.378   5.565
 3126SOL    HW110277   5.301   4.315   5.489
 3126SOL    HW210278   5.196   4.364   5.604
 3127SOL     OW10279   2.188   2.190   6.351
 3127SOL    HW110280   2.226   2.266   6.402
 3127SOL    HW210281   2.207   2.104   6.399
 3128SOL     OW10282   3.516   1.054   6.515
 3128SOL    HW110283   3.487   1.136   6.564
 3128SOL    HW210284   3.483   0.973   6.564
 3129SOL     OW10285   6.458   3.851   0.272
 3129SOL    HW110286   6.419   3.778   0.327
 3129SOL    HW210287   6.448   3.830   0.175
 3130SOL     OW10288   2.100   4.384   2.161
 3130SOL    HW110289   2.042   4.313   2.119
 3130SOL    HW210290   2.055   4.420   2.242
 3131SOL     OW10291   0.925   3.437   1.863
 3131SOL    HW110292   1.017   3.397   1.861
 3131SOL    HW210293   0.857   3.365   1.877
 3132SOL     OW10294   5.081   5.211   6.582
 3132SOL    HW110295   5.016   5.236   6.654
 3132SOL    HW210296   5.066   5.269   6.502
 3133SOL     OW10297   3.064   1.135   3.259
 3133SOL    HW110298   3.041   1.232   3.267
 3133SOL    HW210299   2.987   1.079   3.291
 3134SOL     OW10300   4.076   4.402   1.140
 3134SOL    HW110301   4.104   4.361   1.053
 3134SOL    HW210302   4.065   4.329   1.208
 3135SOL     OW10303   4.674   0.271   5.432
 3135SOL    HW110304   4.691   0.367   5.453
 3135SOL    HW210305   4.643   0.263   5.337
 3136SOL     OW10306   5.417   0.085   2.534
 3136SOL    HW110307   5.390   0.014   2.468
 3136SOL    HW210308   5.345   0.154   2.538
 3137SOL     OW10309   6.629   6.549   3.132
 3137SOL    HW110310   6.596   6.458   3.155
 3137SOL    HW210311   6.650   6.600   3.215
 3138SOL     OW10312   6.658   5.981   3.653
 3138SOL    HW110313   6.640   6.021   3.742
 3138SOL    HW210314   6.660   5.881   3.661
 3139SOL     OW10315   3.532   5.080   0.482
 3139SOL    HW110316   3.511   5.170   0.444
 3139SOL    HW210317   3.601   5.089   0.554
 3140SOL     OW10318   6.408   6.683   6.087
 3140SOL    HW110319   6.345   6.624   6.139
 3140SOL    HW210320   6.458   6.628   6.020
 3141SOL     OW10321   1.042   0.349   6.770
 3141SOL    HW110322   0.954   0.382   6.804
 3141SOL    HW210323   1.026   0.284   6.695
 3142SOL     OW10324   2.990   6.995   2.709
 3142SOL    HW110325   2.900   7.006   2.668
 3142SOL    HW210326   2.981   6.990   2.808
 3143SOL     OW10327   6.555   1.693   0.114
 3143SOL    HW110328   6.636   1.744   0.086
 3143SOL    HW210329   6.580   1.627   0.186
 3144SOL     OW10330   4.656   3.841   0.946
 3144SOL    HW110331   4.740   3.800   0.911
 3144SOL    HW210332   4.607   3.886   0.871
 3145SOL     OW10333   2.151   6.338   2.244
 3145SOL    HW110334   2.151   6.381   2.154
 3145SOL    HW210335   2.069   6.366   2.294
 3146SOL     OW10336   0.754   1.447   4.291
 3146SOL    HW110337   0.844   1.462   4.332
 3146SOL    HW210338   0.749   1.352   4.258
 3147SOL     OW10339   2.981   5.421   0.228
 3147SOL    HW110340   3.036   5.484   0.174
 3147SOL    HW210341   3.036   5.383   0.302
 3148SOL     OW10342   6.920   6.744   3.801
 3148SOL    HW110343   6.995   6.811   3.802
 3148SOL    HW210344   6.927   6.684   3.880
 3149SOL     OW10345   3.324   0.856   6.367
 3149SOL    HW110346   3.293   0.847   6.272
 3149SOL    HW210347   3.366   0.770   6.396
 3150SOL     OW10348   6.733   5.778   5.441
 3150SOL    HW110349   6.807   5.717   5.470
 3150SOL    HW210350   6.712   5.762   5.344
 3151SOL     OW10351   0.625   1.229   5.140
 3151SOL    HW110352   0.563   1.285   5.195
 3151SOL    HW210353   0.659   1.282   5.062
 3152SOL     OW10354   0.836   5.027   0.446
 3152SOL    HW110355   0.788   4.959   0.393
 3152SOL    HW210356   0.918   4.986   0.487
 3153SOL     OW10357   6.290   5.530   0.176
 3153SOL    HW110358   6.230   5.508   0.099
 3153SOL    HW210359   6.254   5.489   0.260
 3154SOL     OW10360   6.993   2.467   6.674
 3154SOL    HW110361   0.025   2.424   6.744
 3154SOL    HW210362   0.027   2.524   6.615
 3155SOL     OW10363   6.394   5.158   0.499
 3155SOL    HW110364   6.399   5.058   0.492
 3155SOL    HW210365   6.439   5.188   0.583
 3156SOL     OW10366   2.883   3.194   1.953
 3156SOL    HW110367   2.794   3.207   1.907
 3156SOL    HW210368   2.916   3.282   1.986
 3157SOL     OW10369   2.402   1.772   6.110
 3157SOL    HW110370   2.351   1.705   6.164
 3157SOL    HW210371   2.469   1.818   6.168
 3158SOL     OW10372   3.255   1.518   4.155
 3158SOL    HW110373   3.306   1.585   4.102
 3158SOL    HW210374   3.307   1.491   4.236
 3159SOL     OW10375   5.599   0.494   6.555
 3159SOL    HW110376   5.568   0.433   6.482
 3159SOL    HW210377   5.578   0.588   6.530
 3160SOL     OW10378   1.218   6.001   5.553
 3160SOL    HW110379   1.173   6.027   5.639
 3160SOL    HW210380   1.210   6.076   5.487
 3161SOL     OW10381   2.269   2.799   3.111
 3161SOL    HW110382   2.256   2.897   3.093
 3161SOL    HW210383   2.308   2.787   3.202
 3162SOL     OW10384   1.825   5.314   1.747
 3162SOL    HW110385   1.732   5.296   1.779
 3162SOL    HW210386   1.829   5.299   1.648
 3163SOL     OW10387   4.384   4.160   6.516
 3163SOL    HW110388   4.357   4.196   6.605
 3163SOL    HW210389   4.431   4.072   6.529
 3164SOL     OW10390   3.835   5.851   0.889
 3164SOL    HW110391   3.784   5.879   0.970
 3164SOL    HW210392   3.798   5.765   0.853
 3165SOL     OW10393   1.228   6.917   1.605
 3165SOL    HW110394   1.263   6.885   1.694
 3165SOL    HW210395   1.211   7.015   1.610
 3166SOL     OW10396   4.187   1.866   3.322
 3166SOL    HW110397   4.174   1.947   3.264
 3166SOL    HW210398   4.239   1.893   3.403
 3167SOL     OW10399   5.535   4.294   1.197
 3167SOL    HW110400   5.512   4.216   1.139
 3167SOL    HW210401   5.571   4.368   1.140
 3168SOL     OW10402   5.333   2.515   0.257
 3168SOL    HW110403   5.430   2.494   0.252
 3168SOL    HW210404   5.310   2.585   0.189
 3169SOL     OW10405   2.406   4.302   4.061
 3169SOL    HW110406   2.411   4.336   4.155
 3169SOL    HW210407   2.441   4.372   3.999
 3170SOL     OW10408   4.211   5.901   1.737
 3170SOL    HW110409   4.197   5.999   1.745
 3170SOL    HW210410   4.166   5.854   1.813
 3171SOL     OW10411   0.029   1.418   2.177
 3171SOL    HW110412   0.004   1.484   2.248
 3171SOL    HW210413   6.972   1.390   2.127
 3172SOL     OW10414   0.020   5.803   6.974
 3172SOL    HW110415   0.098   5.834   6.920
 3172SOL    HW210416   6.963   5.855   6.947
 3173SOL     OW10417   3.562   2.701   0.209
 3173SOL    HW110418   3.551   2.684   0.307
 3173SOL    HW210419   3.484   2.663   0.160
 3174SOL     OW10420   3.250   2.900   0.298
 3174SOL    HW110421   3.151   2.890   0.299
 3174SOL    HW210422   3.292   2.818   0.261
 3175SOL     OW10423   5.904   1.177   1.573
 3175SOL    HW110424   5.937   1.095   1.527
 3175SOL    HW210425   5.828   1.154   1.633
 3176SOL     OW10426   1.084   3.940   5.626
 3176SOL    HW110427   1.177   3.955   5.661
 3176SOL    HW210428   1.089   3.913   5.530
 3177SOL     OW10429   4.688   4.623   3.698
 3177SOL    HW110430   4.648   4.691   3.759
 3177SOL    HW210431   4.756   4.569   3.748
 3178SOL     OW10432   6.417   2.271   0.849
 3178SOL    HW110433   6.463   2.260   0.761
 3178SOL    HW210434   6.375   2.361   0.854
 3179SOL     OW10435   0.940   2.283   1.904
 3179SOL    HW110436   1.018   2.251   1.851
 3179SOL    HW210437   0.954   2.260   2.001
 3180SOL     OW10438   5.792   0.692   0.329
 3180SOL    HW110439   5.858   0.618   0.310
 3180SOL    HW210440   5.700   0.654   0.332
 3181SOL     OW10441   6.446   1.969   2.992
 3181SOL    HW110442   6.440   2.025   2.909
 3181SOL    HW210443   6.362   1.914   3.001
 3182SOL     OW10444   2.489   0.418   6.865
 3182SOL    HW110445   2.532   0.499   6.824
 3182SOL    HW210446   2.421   0.381   6.802
 3183SOL     OW10447   4.800   4.125   2.097
 3183SOL    HW110448   4.722   4.088   2.046
 3183SOL    HW210449   4.815   4.069   2.178
 3184SOL     OW10450   0.960   2.702   2.678
 3184SOL    HW110451   0.979   2.612   2.715
 3184SOL    HW210452   1.041   2.760   2.685
 3185SOL     OW10453   4.932   5.618   6.577
 3185SOL    HW110454   5.022   5.585   6.549
 3185SOL    HW210455   4.912   5.585   6.670
 3186SOL     OW10456   3.163   1.858   0.748
 3186SOL    HW110457   3.227   1.878   0.822
 3186SOL    HW210458   3.208   1.802   0.679
 3187SOL     OW10459   4.803   5.335   0.512
 3187SOL    HW110460   4.848   5.416   0.548
 3187SOL    HW210461   4.748   5.293   0.584
 3188SOL     OW10462   1.067   6.990   4.349
 3188SOL    HW110463   1.108   0.013   4.427
 3188SOL    HW210464   1.048   6.895   4.375
 3189SOL     OW10465   1.187   1.960   1.179
 3189SOL    HW110466   1.104   1.965   1.124
 3189SOL    HW210467   1.264   1.935   1.121
 3190SOL     OW10468   0.511   5.415   0.374
 3190SOL    HW110469   0.497   5.511   0.401
 3190SOL    HW210470   0.585   5.376   0.427
 3191SOL     OW10471   5.229   5.682   1.034
 3191SOL    HW110472   5.181   5.624   0.969
 3191SOL    HW210473   5.301   5.629   1.079
 3192SOL     OW10474   0.395   3.514   1.294
 3192SOL    HW110475   0.329   3.440   1.294
 3192SOL    HW210476   0.420   3.537   1.200
 3193SOL     OW10477   4.426   0.763   6.291
 3193SOL    HW110478   4.425   0.667   6.319
 3193SOL    HW210479   4.351   0.811   6.336
 3194SOL     OW10480   1.208   1.846   6.599
 3194SOL    HW110481   1.184   1.752   6.574
 3194SOL    HW210482   1.174   1.909   6.529
 3195SOL     OW10483   1.909   1.197   3.331
 3195SOL    HW110484   1.971   1.213   3.408
 3195SOL    HW210485   1.825   1.155   3.364
 3196SOL     OW10486   0.704   0.958   6.734
 3196SOL    HW110487   0.755   0.904   6.801
 3196SOL    HW210488   0.743   0.942   6.643
 3197SOL     OW10489   3.017   6.504   4.261
 3197SOL    HW110490   3.040   6.531   4.168
 3197SOL    HW210491   3.019   6.584   4.322
 3198SOL     OW10492   6.016   3.117   3.795
 3198SOL    HW110493   5.925   3.151   3.820
 3198SOL    HW210494   6.026   3.023   3.827
 3199SOL     OW10495   5.094   4.106   2.844
 3199SOL    HW110496   5.187   4.075   2.826
 3199SOL    HW210497   5.093   4.166   2.923
 3200SOL     OW10498   5.712   3.204   2.935
 3200SOL    HW110499   5.622   3.170   2.910
 3200SOL    HW210500   5.758   3.241   2.854
 3201SOL     OW10501   6.498   4.428   3.796
 3201SOL    HW110502   6.510   4.517   3.840
 3201SOL    HW210503   6.463   4.441   3.703
 3202SOL     OW10504   1.336   4.594   1.451
 3202SOL    HW110505   1.237   4.589   1.440
 3202SOL    HW210506   1.374   4.502   1.459
 3203SOL     OW10507   6.084   2.491   0.478
 3203SOL    HW110508   6.073   2.391   0.481
 3203SOL    HW210509   6.182   2.513   0.473
 3204SOL     OW10510   4.776   6.156   3.058
 3204SOL    HW110511   4.853   6.196   3.008
 3204SOL    HW210512   4.697   6.147   2.997
 3205SOL     OW10513   5.274   2.762   5.860
 3205SOL    HW110514   5.268   2.789   5.956
 3205SOL    HW210515   5.347   2.694   5.850
 3206SOL     OW10516   2.246   4.706   0.299
 3206SOL    HW110517   2.254   4.608   0.314
 3206SOL    HW210518   2.337   4.746   0.290
 3207SOL     OW10519   1.177   1.132   6.488
 3207SOL    HW110520   1.243   1.089   6.426
 3207SOL    HW210521   1.214   1.220   6.519
 3208SOL     OW10522   4.563   6.653   5.963
 3208SOL    HW110523   4.532   6.575   6.018
 3208SOL    HW210524   4.622   6.620   5.890
 3209SOL     OW10525   3.979   5.416   3.606
 3209SOL    HW110526   4.061   5.418   3.550
 3209SOL    HW210527   3.935   5.326   3.598
 3210SOL     OW10528   1.204   3.938   0.486
 3210SOL    HW110529   1.158   3.855   0.518
 3210SOL    HW210530   1.137   4.012   0.478
 3211SOL     OW10531   1.730   3.526   0.794
 3211SOL    HW110532   1.696   3.547   0.885
 3211SOL    HW210533   1.694   3.437   0.764
 3212SOL     OW10534   3.053   6.987   1.675
 3212SOL    HW110535   3.002   7.017   1.594
 3212SOL    HW210536   3.143   0.007   1.675
 3213SOL     OW10537   1.259   0.210   0.570
 3213SOL    HW110538   1.222   0.117   0.581
 3213SOL    HW210539   1.185   0.276   0.573
 3214SOL     OW10540   4.226   5.602   0.696
 3214SOL    HW110541   4.165   5.638   0.626
 3214SOL    HW210542   4.268   5.517   0.664
 3215SOL     OW10543   0.434   3.527   1.021
 3215SOL    HW110544   0.508   3.587   0.991
 3215SOL    HW210545   0.346   3.564   0.990
 3216SOL     OW10546   6.057   5.734   7.015
 3216SOL    HW110547   6.070   5.637   6.995
 3216SOL    HW210548   5.973   5.766   6.973
 3217SOL     OW10549   0.231   5.110   2.150
 3217SOL    HW110550   0.295   5.184   2.172
 3217SOL    HW210551   0.281   5.038   2.101
 3218SOL     OW10552   4.727   2.688   3.697
 3218SOL    HW110553   4.728   2.654   3.791
 3218SOL    HW210554   4.767   2.780   3.694
 3219SOL     OW10555   0.583   1.745   3.527
 3219SOL    HW110556   0.600   1.684   3.450
 3219SOL    HW210557   0.633   1.831   3.514
 3220SOL     OW10558   7.014   5.647   6.214
 3220SOL    HW110559   6.929   5.652   6.162
 3220SOL    HW210560   6.994   5.640   6.311
 3221SOL     OW10561   4.218   0.293   2.020
 3221SOL    HW110562   4.186   0.377   1.976
 3221SOL    HW210563   4.218   0.218   1.953
 3222SOL     OW10564   3.261   0.850   2.985
 3222SOL    HW110565   3.359   0.836   2.976
 3222SOL    HW210566   3.242   0.946   3.004
 3223SOL     OW10567   2.270   6.645   6.232
 3223SOL    HW110568   2.304   6.655   6.139
 3223SOL    HW210569   2.292   6.553   6.266
 3224SOL     OW10570   4.970   3.525   5.873
 3224SOL    HW110571   4.915   3.444   5.898
 3224SOL    HW210572   5.056   3.495   5.832
 3225SOL     OW10573   5.101   2.670   5.638
 3225SOL    HW110574   5.015   2.678   5.688
 3225SOL    HW210575   5.176   2.700   5.696
 3226SOL     OW10576   2.695   1.554   2.862
 3226SOL    HW110577   2.703   1.491   2.784
 3226SOL    HW210578   2.661   1.642   2.831
 3227SOL     OW10579   3.301   2.926   6.974
 3227SOL    HW110580   3.318   2.911   0.048
 3227SOL    HW210581   3.367   2.874   6.920
 3228SOL     OW10582   0.251   4.004   1.388
 3228SOL    HW110583   0.309   4.073   1.432
 3228SOL    HW210584   0.293   3.914   1.397
 3229SOL     OW10585   4.010   0.521   4.801
 3229SOL    HW110586   3.943   0.568   4.744
 3229SOL    HW210587   3.976   0.429   4.823
 3230SOL     OW10588   2.784   4.215   5.341
 3230SOL    HW110589   2.867   4.265   5.366
 3230SOL    HW210590   2.725   4.273   5.286
 3231SOL     OW10591   2.702   6.757   1.313
 3231SOL    HW110592   2.743   6.848   1.307
 3231SOL    HW210593   2.760   6.691   1.265
 3232SOL     OW10594   5.016   6.375   4.274
 3232SOL    HW110595   5.089   6.310   4.296
 3232SOL    HW210596   4.970   6.403   4.359
 3233SOL     OW10597   0.375   2.763   1.152
 3233SOL    HW110598   0.447   2.722   1.208
 3233SOL    HW210599   0.330   2.837   1.202
 3234SOL     OW10600   0.560   2.281   6.699
 3234SOL    HW110601   0.624   2.215   6.737
 3234SOL    HW210602   0.531   2.344   6.771
 3235SOL     OW10603   6.425   0.427   2.456
 3235SOL    HW110604   6.344   0.371   2.439
 3235SOL    HW210605   6.403   0.499   2.522
 3236SOL     OW10606   1.587   3.187   0.679
 3236SOL    HW110607   1.682   3.194   0.712
 3236SOL    HW210608   1.565   3.091   0.663
 3237SOL     OW10609   5.510   1.515   3.572
 3237SOL    HW110610   5.481   1.488   3.664
 3237SOL    HW210611   5.452   1.590   3.540
 3238SOL     OW10612   0.323   5.293   0.611
 3238SOL    HW110613   0.229   5.292   0.577
 3238SOL    HW210614   0.382   5.245   0.546
 3239SOL     OW10615   6.511   1.516   2.137
 3239SOL    HW110616   6.434   1.523   2.074
 3239SOL    HW210617   6.561   1.431   2.118
 3240SOL     OW10618   0.007   6.867   5.961
 3240SOL    HW110619   6.971   6.787   5.965
 3240SOL    HW210620   0.060   6.873   6.045
 3241SOL     OW10621   4.796   1.018   4.665
 3241SOL    HW110622   4.823   1.049   4.756
 3241SOL    HW210623   4.710   0.968   4.671
 3242SOL     OW10624   4.435   3.869   0.122
 3242SOL    HW110625   4.340   3.849   0.098
 3242SOL    HW210626   4.488   3.784   0.122
 3243SOL     OW10627   4.624   4.519   0.388
 3243SOL    HW110628   4.707   4.543   0.338
 3243SOL    HW210629   4.587   4.433   0.352
 3244SOL     OW10630   4.617   5.749   0.388
 3244SOL    HW110631   4.647   5.843   0.404
 3244SOL    HW210632   4.537   5.749   0.328
 3245SOL     OW10633   5.266   3.579   4.666
 3245SOL    HW110634   5.226   3.654   4.718
 3245SOL    HW210635   5.220   3.494   4.689
 3246SOL     OW10636   5.770   0.557   2.994
 3246SOL    HW110637   5.802   0.638   2.945
 3246SOL    HW210638   5.718   0.499   2.932
 3247SOL     OW10639   6.241   4.358   2.664
 3247SOL    HW110640   6.339   4.372   2.671
 3247SOL    HW210641   6.206   4.401   2.581
 3248SOL     OW10642   5.809   3.827   1.687
 3248SOL    HW110643   5.908   3.829   1.681
 3248SOL    HW210644   5.780   3.866   1.774
 3249SOL     OW10645   3.924   3.963   4.336
 3249SOL    HW110646   3.861   4.031   4.300
 3249SOL    HW210647   3.947   3.986   4.431
 3250SOL     OW10648   5.756   6.967   2.310
 3250SOL    HW110649   5.793   0.004   2.380
 3250SOL    HW210650   5.696   6.899   2.354
 3251SOL     OW10651   2.950   0.907   4.106
 3251SOL    HW110652   2.925   0.923   4.201
 3251SOL    HW210653   2.887   0.841   4.066
 3252SOL     OW10654   2.299   1.285   2.859
 3252SOL    HW110655   2.354   1.216   2.812
 3252SOL    HW210656   2.202   1.265   2.847
 3253SOL     OW10657   4.699   4.072   1.812
 3253SOL    HW110658   4.610   4.117   1.823
 3253SOL    HW210659   4.765   4.138   1.775
 3254SOL     OW10660   5.753   6.147   5.485
 3254SOL    HW110661   5.730   6.236   5.447
 3254SOL    HW210662   5.690   6.078   5.450
 3255SOL     OW10663   5.207   6.451   0.518
 3255SOL    HW110664   5.235   6.394   0.596
 3255SOL    HW210665   5.201   6.395   0.436
 3256SOL     OW10666   3.577   1.021   0.824
 3256SOL    HW110667   3.486   0.996   0.858
 3256SOL    HW210668   3.585   0.996   0.727
 3257SOL     OW10669   1.710   1.912   1.752
 3257SOL    HW110670   1.766   1.855   1.812
 3257SOL    HW210671   1.615   1.911   1.784
 3258SOL     OW10672   4.906   5.506   2.559
 3258SOL    HW110673   4.917   5.600   2.528
 3258SOL    HW210674   4.891   5.504   2.658
 3259SOL     OW10675   4.647   5.108   4.913
 3259SOL    HW110676   4.590   5.037   4.872
 3259SOL    HW210677   4.592   5.166   4.973
 3260SOL     OW10678   1.103   2.218   0.919
 3260SOL    HW110679   1.202   2.216   0.910
 3260SOL    HW210680   1.063   2.144   0.865
 3261SOL     OW10681   5.664   0.545   1.742
 3261SOL    HW110682   5.646   0.627   1.796
 3261SOL    HW210683   5.742   0.496   1.781
 3262SOL     OW10684   3.150   2.176   2.499
 3262SOL    HW110685   3.125   2.273   2.509
 3262SOL    HW210686   3.073   2.126   2.460
 3263SOL     OW10687   2.344   1.070   3.169
 3263SOL    HW110688   2.427   1.075   3.113
 3263SOL    HW210689   2.369   1.054   3.264
 3264SOL     OW10690   1.239   4.508   0.957
 3264SOL    HW110691   1.183   4.426   0.969
 3264SOL    HW210692   1.332   4.482   0.932
 3265SOL     OW10693   5.256   0.885   6.597
 3265SOL    HW110694   5.298   0.972   6.570
 3265SOL    HW210695   5.183   0.862   6.533
 3266SOL     OW10696   1.791   4.102   0.007
 3266SOL    HW110697   1.741   4.176   0.052
 3266SOL    HW210698   1.763   4.015   0.045
 3267SOL     OW10699   3.395   6.643   1.333
 3267SOL    HW110700   3.408   6.656   1.431
 3267SOL    HW210701   3.363   6.550   1.316
 3268SOL     OW10702   1.663   3.674   1.547
 3268SOL    HW110703   1.655   3.649   1.644
 3268SOL    HW210704   1.753   3.715   1.531
 3269SOL     OW10705   4.911   5.406   1.759
 3269SOL    HW110706   4.881   5.476   1.695
 3269SOL    HW210707   4.871   5.318   1.733
 3270SOL     OW10708   1.390   4.129   6.079
 3270SOL    HW110709   1.301   4.173   6.066
 3270SOL    HW210710   1.460   4.183   6.033
 3271SOL     OW10711   5.929   3.638   2.484
 3271SOL    HW110712   5.837   3.661   2.453
 3271SOL    HW210713   5.932   3.542   2.513
 3272SOL     OW10714   3.069   4.535   5.922
 3272SOL    HW110715   3.087   4.473   5.998
 3272SOL    HW210716   3.008   4.491   5.857
 3273SOL     OW10717   6.830   5.876   0.755
 3273SOL    HW110718   6.759   5.944   0.770
 3273SOL    HW210719   6.857   5.836   0.843
 3274SOL     OW10720   5.507   0.908   0.826
 3274SOL    HW110721   5.451   0.967   0.769
 3274SOL    HW210722   5.603   0.914   0.797
 3275SOL     OW10723   5.738   1.473   6.783
 3275SOL    HW110724   5.712   1.380   6.808
 3275SOL    HW210725   5.658   1.533   6.793
 3276SOL     OW10726   3.011   5.857   6.613
 3276SOL    HW110727   3.051   5.940   6.574
 3276SOL    HW210728   2.976   5.876   6.705
 3277SOL     OW10729   3.970   6.758   6.945
 3277SOL    HW110730   3.985   6.659   6.952
 3277SOL    HW210731   4.050   6.801   6.904
 3278SOL     OW10732   0.762   1.007   5.470
 3278SOL    HW110733   0.767   0.908   5.482
 3278SOL    HW210734   0.675   1.030   5.427
 3279SOL     OW10735   4.980   0.569   0.679
 3279SOL    HW110736   5.061   0.604   0.727
 3279SOL    HW210737   4.981   0.469   0.683
 3280SOL     OW10738   4.130   4.807   4.197
 3280SOL    HW110739   4.200   4.736   4.195
 3280SOL    HW210740   4.163   4.885   4.250
 3281SOL     OW10741   1.913   4.985   2.139
 3281SOL    HW110742   1.871   5.042   2.209
 3281SOL    HW210743   1.891   5.021   2.048
 3282SOL     OW10744   6.818   5.347   5.465
 3282SOL    HW110745   6.893   5.281   5.455
 3282SOL    HW210746   6.852   5.429   5.511
 3283SOL     OW10747   3.497   0.121   0.952
 3283SOL    HW110748   3.530   0.073   1.033
 3283SOL    HW210749   3.511   0.220   0.965
 3284SOL     OW10750   0.305   4.848   6.814
 3284SOL    HW110751   0.235   4.796   6.765
 3284SOL    HW210752   0.298   4.828   6.912
 3285SOL     OW10753   4.310   2.328   3.275
 3285SOL    HW110754   4.319   2.277   3.189
 3285SOL    HW210755   4.368   2.410   3.271
 3286SOL     OW10756   3.286   2.884   2.443
 3286SOL    HW110757   3.247   2.958   2.388
 3286SOL    HW210758   3.319   2.812   2.382
 3287SOL     OW10759   0.943   0.539   6.993
 3287SOL    HW110760   0.933   0.475   0.045
 3287SOL    HW210761   1.038   0.568   6.986
 3288SOL     OW10762   0.801   5.750   6.337
 3288SOL    HW110763   0.786   5.652   6.329
 3288SOL    HW210764   0.851   5.784   6.257
 3289SOL     OW10765   2.690   0.478   5.367
 3289SOL    HW110766   2.758   0.551   5.370
 3289SOL    HW210767   2.614   0.505   5.307
 3290SOL     OW10768   6.930   6.418   1.393
 3290SOL    HW110769   6.966   6.438   1.302
 3290SOL    HW210770   6.959   6.489   1.457
 3291SOL     OW10771   1.629   0.333   0.177
 3291SOL    HW110772   1.637   0.412   0.116
 3291SOL    HW210773   1.711   0.327   0.234
 3292SOL     OW10774   0.126   0.856   0.420
 3292SOL    HW110775   0.152   0.923   0.490
 3292SOL    HW210776   0.105   0.768   0.463
 3293SOL     OW10777   0.383   4.121   1.591
 3293SOL    HW110778   0.351   4.092   1.681
 3293SOL    HW210779   0.361   4.217   1.576
 3294SOL     OW10780   5.773   1.894   6.193
 3294SOL    HW110781   5.800   1.982   6.155
 3294SOL    HW210782   5.673   1.887   6.194
 3295SOL     OW10783   1.229   2.251   2.053
 3295SOL    HW110784   1.220   2.313   1.975
 3295SOL    HW210785   1.270   2.299   2.130
 3296SOL     OW10786   1.494   6.975   2.701
 3296SOL    HW110787   1.423   6.904   2.706
 3296SOL    HW210788   1.517   7.005   2.794
 3297SOL     OW10789   3.263   0.997   5.586
 3297SOL    HW110790   3.292   1.066   5.652
 3297SOL    HW210791   3.318   1.005   5.503
 3298SOL     OW10792   6.214   2.073   5.454
 3298SOL    HW110793   6.207   2.172   5.469
 3298SOL    HW210794   6.132   2.040   5.407
 3299SOL     OW10795   3.255   5.529   3.110
 3299SOL    HW110796   3.163   5.551   3.077
 3299SOL    HW210797   3.274   5.582   3.193
 3300SOL     OW10798   6.738   1.157   5.121
 3300SOL    HW110799   6.792   1.116   5.195
 3300SOL    HW210800   6.669   1.219   5.160
 3301SOL     OW10801   1.826   3.259   3.316
 3301SOL    HW110802   1.768   3.183   3.286
 3301SOL    HW210803   1.868   3.302   3.236
 3302SOL     OW10804   0.941   4.895   5.458
 3302SOL    HW110805   1.016   4.833   5.437
 3302SOL    HW210806   0.866   4.844   5.499
 3303SOL     OW10807   3.737   3.700   0.911
 3303SOL    HW110808   3.776   3.778   0.959
 3303SOL    HW210809   3.655   3.669   0.958
 3304SOL     OW10810   1.123   5.577   4.358
 3304SOL    HW110811   1.169   5.663   4.341
 3304SOL    HW210812   1.155   5.508   4.293
 3305SOL     OW10813   1.935   1.166   2.513
 3305SOL    HW110814   1.919   1.074   2.549
 3305SOL    HW210815   2.013   1.165   2.452
 3306SOL     OW10816   2.420   5.602   4.750
 3306SOL    HW110817   2.332   5.568   4.717
 3306SOL    HW210818   2.466   5.529   4.802
 3307SOL     OW10819   6.968   5.553   6.939
 3307SOL    HW110820   0.006   5.515   7.008
 3307SOL    HW210821   6.962   5.652   6.950
 3308SOL     OW10822   2.915   6.377   0.980
 3308SOL    HW110823   2.905   6.335   0.890
 3308SOL    HW210824   2.867   6.322   1.048
 3309SOL     OW10825   0.222   5.907   3.555
 3309SOL    HW110826   0.213   5.847   3.476
 3309SOL    HW210827   0.142   5.895   3.614
 3310SOL     OW10828   0.239   3.368   6.152
 3310SOL    HW110829   0.228   3.432   6.077
 3310SOL    HW210830   0.150   3.326   6.174
 3311SOL     OW10831   2.770   3.625   1.201
 3311SOL    HW110832   2.837   3.665   1.263
 3311SOL    HW210833   2.704   3.571   1.253
 3312SOL     OW10834   4.462   4.753   6.119
 3312SOL    HW110835   4.398   4.760   6.042
 3312SOL    HW210836   4.556   4.755   6.084
 3313SOL     OW10837   0.836   6.457   3.516
 3313SOL    HW110838   0.814   6.525   3.446
 3313SOL    HW210839   0.876   6.376   3.472
 3314SOL     OW10840   2.850   1.306   2.672
 3314SOL    HW110841   2.856   1.260   2.584
 3314SOL    HW210842   2.919   1.378   2.677
 3315SOL     OW10843   6.299   4.251   3.926
 3315SOL    HW110844   6.326   4.208   4.012
 3315SOL    HW210845   6.352   4.335   3.913
 3316SOL     OW10846   4.754   1.235   5.669
 3316SOL    HW110847   4.660   1.202   5.678
 3316SOL    HW210848   4.790   1.258   5.759
 3317SOL     OW10849   4.393   2.991   1.682
 3317SOL    HW110850   4.357   2.904   1.716
 3317SOL    HW210851   4.461   3.026   1.747
 3318SOL     OW10852   2.084   1.506   0.919
 3318SOL    HW110853   2.158   1.451   0.877
 3318SOL    HW210854   2.120   1.595   0.946
 3319SOL     OW10855   6.406   1.535   3.954
 3319SOL    HW110856   6.371   1.629   3.953
 3319SOL    HW210857   6.338   1.475   3.996
 3320SOL     OW10858   6.611   0.777   4.785
 3320SOL    HW110859   6.580   0.694   4.829
 3320SOL    HW210860   6.649   0.839   4.853
 3321SOL     OW10861   5.077   1.784   0.263
 3321SOL    HW110862   5.140   1.766   0.338
 3321SOL    HW210863   5.002   1.841   0.295
 3322SOL     OW10864   6.554   2.820   1.262
 3322SOL    HW110865   6.556   2.920   1.264
 3322SOL    HW210866   6.643   2.785   1.232
 3323SOL     OW10867   2.971   2.872   0.368
 3323SOL    HW110868   2.938   2.952   0.316
 3323SOL    HW210869   2.936   2.877   0.461
 3324SOL     OW10870   3.918   4.987   0.004
 3324SOL    HW110871   3.859   5.068   0.009
 3324SOL    HW210872   3.963   4.983   6.939
 3325SOL     OW10873   0.803   3.038   6.829
 3325SOL    HW110874   0.810   3.036   6.929
 3325SOL    HW210875   0.776   3.129   6.799
 3326SOL     OW10876   4.982   1.825   1.914
 3326SOL    HW110877   4.960   1.788   1.824
 3326SOL    HW210878   4.917   1.899   1.936
 3327SOL     OW10879   3.160   5.814   1.425
 3327SOL    HW110880   3.132   5.907   1.399
 3327SOL    HW210881   3.102   5.781   1.500
 3328SOL     OW10882   4.239   2.033   0.582
 3328SOL    HW110883   4.229   2.123   0.540
 3328SOL    HW210884   4.337   2.011   0.590
 3329SOL     OW10885   5.074   0.271   4.884
 3329SOL    HW110886   5.044   0.215   4.961
 3329SOL    HW210887   4.998   0.287   4.822
 3330SOL     OW10888   6.375   4.870   1.460
 3330SOL    HW110889   6.441   4.861   1.385
 3330SOL    HW210890   6.418   4.842   1.546
 3331SOL     OW10891   2.438   2.817   1.359
 3331SOL    HW110892   2.398   2.904   1.387
 3331SOL    HW210893   2.535   2.830   1.337
 3332SOL     OW10894   5.912   5.258   6.781
 3332SOL    HW110895   5.887   5.274   6.686
 3332SOL    HW210896   5.933   5.161   6.795
 3333SOL     OW10897   4.177   4.458   6.468
 3333SOL    HW110898   4.223   4.485   6.384
 3333SOL    HW210899   4.175   4.358   6.474
 3334SOL     OW10900   3.200   3.684   1.984
 3334SOL    HW110901   3.295   3.674   1.955
 3334SOL    HW210902   3.151   3.599   1.965
 3335SOL     OW10903   5.030   0.268   5.518
 3335SOL    HW110904   5.026   0.207   5.598
 3335SOL    HW210905   5.050   0.214   5.436
 3336SOL     OW10906   2.724   5.969   4.589
 3336SOL    HW110907   2.658   5.894   4.592
 3336SOL    HW210908   2.816   5.932   4.577
 3337SOL     OW10909   3.250   3.921   2.696
 3337SOL    HW110910   3.189   3.871   2.635
 3337SOL    HW210911   3.323   3.964   2.643
 3338SOL     OW10912   5.418   2.963   1.825
 3338SOL    HW110913   5.443   2.885   1.768
 3338SOL    HW210914   5.327   2.995   1.798
 3339SOL     OW10915   6.752   0.508   6.554
 3339SOL    HW110916   6.768   0.419   6.511
 3339SOL    HW210917   6.655   0.529   6.552
 3340SOL     OW10918   3.590   1.182   2.358
 3340SOL    HW110919   3.633   1.213   2.444
 3340SOL    HW210920   3.633   1.229   2.281
 3341SOL     OW10921   1.609   5.277   3.252
 3341SOL    HW110922   1.621   5.275   3.153
 3341SOL    HW210923   1.567   5.364   3.279
 3342SOL     OW10924   2.242   0.190   4.251
 3342SOL    HW110925   2.302   0.147   4.183
 3342SOL    HW210926   2.147   0.160   4.235
 3343SOL     OW10927   5.725   3.494   0.779
 3343SOL    HW110928   5.654   3.491   0.849
 3343SOL    HW210929   5.695   3.552   0.703
 3344SOL     OW10930   5.529   3.305   4.414
 3344SOL    HW110931   5.471   3.248   4.357
 3344SOL    HW210932   5.590   3.247   4.468
 3345SOL     OW10933   1.586   3.910   5.817
 3345SOL    HW110934   1.673   3.923   5.769
 3345SOL    HW210935   1.602   3.911   5.915
 3346SOL     OW10936   1.595   0.823   0.933
 3346SOL    HW110937   1.691   0.805   0.911
 3346SOL    HW210938   1.536   0.773   0.870
 3347SOL     OW10939   0.713   3.694   4.941
 3347SOL    HW110940   0.676   3.603   4.922
 3347SOL    HW210941   0.660   3.763   4.891
 3348SOL     OW10942   3.319   3.475   3.985
 3348SOL    HW110943   3.315   3.552   3.922
 3348SOL    HW210944   3.370   3.501   4.067
 3349SOL     OW10945   1.113   6.179   2.926
 3349SOL    HW110946   1.153   6.147   2.840
 3349SOL    HW210947   1.091   6.101   2.984
 3350SOL     OW10948   0.911   2.496   5.769
 3350SOL    HW110949   0.935   2.496   5.865
 3350SOL    HW210950   0.983   2.539   5.715
 3351SOL     OW10951   4.828   0.970   2.351
 3351SOL    HW110952   4.834   0.910   2.271
 3351SOL    HW210953   4.775   0.924   2.422
 3352SOL     OW10954   6.779   2.354   0.554
 3352SOL    HW110955   6.746   2.438   0.598
 3352SOL    HW210956   6.701   2.292   0.540
 3353SOL     OW10957   1.623   5.748   1.977
 3353SOL    HW110958   1.695   5.710   2.034
 3353SOL    HW210959   1.647   5.842   1.952
 3354SOL     OW10960   4.889   2.638   5.403
 3354SOL    HW110961   4.942   2.670   5.481
 3354SOL    HW210962   4.951   2.603   5.332
 3355SOL     OW10963   2.216   1.436   7.011
 3355SOL    HW110964   2.240   1.515   0.043
 3355SOL    HW210965   2.298   1.396   6.972
 3356SOL     OW10966   1.156   4.506   5.758
 3356SOL    HW110967   1.066   4.471   5.733
 3356SOL    HW210968   1.225   4.435   5.744
 3357SOL     OW10969   2.521   4.495   1.851
 3357SOL    HW110970   2.496   4.548   1.770
 3357SOL    HW210971   2.613   4.521   1.882
 3358SOL     OW10972   4.660   1.476   0.976
 3358SOL    HW110973   4.700   1.506   1.063
 3358SOL    HW210974   4.560   1.486   0.981
 3359SOL     OW10975   7.022   0.166   3.323
 3359SOL    HW110976   0.035   0.252   3.289
 3359SOL    HW210977   6.985   0.179   3.415
 3360SOL     OW10978   0.462   1.038   6.883
 3360SOL    HW110979   0.484   1.061   6.978
 3360SOL    HW210980   0.547   1.019   6.833
 3361SOL     OW10981   1.097   4.597   3.962
 3361SOL    HW110982   1.071   4.510   4.004
 3361SOL    HW210983   1.074   4.672   4.023
 3362SOL     OW10984   3.578   1.452   3.368
 3362SOL    HW110985   3.578   1.503   3.454
 3362SOL    HW210986   3.553   1.357   3.385
 3363SOL     OW10987   6.185   6.515   1.683
 3363SOL    HW110988   6.193   6.430   1.632
 3363SOL    HW210989   6.259   6.577   1.656
 3364SOL     OW10990   1.600   4.358   4.127
 3364SOL    HW110991   1.569   4.453   4.117
 3364SOL    HW210992   1.546   4.299   4.067
 3365SOL     OW10993   6.785   1.881   5.230
 3365SOL    HW110994   6.836   1.803   5.266
 3365SOL    HW210995   6.725   1.917   5.302
 3366SOL     OW10996   5.789   6.412   5.106
 3366SOL    HW110997   5.735   6.402   5.022
 3366SOL    HW210998   5.819   6.506   5.115
 3367SOL     OW10999   3.432   2.728   1.448
 3367SOL    HW111000   3.403   2.821   1.466
 3367SOL    HW211001   3.409   2.670   1.526
 3368SOL     OW11002   0.308   4.926   5.564
 3368SOL    HW111003   0.266   4.937   5.474
 3368SOL    HW211004   0.338   5.015   5.598
 3369SOL     OW11005   3.706   2.523   6.157
 3369SOL    HW111006   3.787   2.479   6.196
 3369SOL    HW211007   3.723   2.622   6.150
 3370SOL     OW11008   6.899   6.033   6.582
 3370SOL    HW111009   6.838   6.064   6.509
 3370SOL    HW211010   6.982   5.994   6.541
 3371SOL     OW11011   1.935   2.970   2.055
 3371SOL    HW111012   1.938   3.061   2.013
 3371SOL    HW211013   1.973   2.903   1.991
 3372SOL     OW11014   0.525   1.866   0.860
 3372SOL    HW111015   0.444   1.923   0.856
 3372SOL    HW211016   0.518   1.792   0.793
 3373SOL     OW11017   6.736   1.524   2.885
 3373SOL    HW111018   6.689   1.598   2.837
 3373SOL    HW211019   6.723   1.439   2.835
 3374SOL     OW11020   1.508   6.001   4.573
 3374SOL    HW111021   1.585   6.055   4.605
 3374SOL    HW211022   1.431   6.012   4.635
 3375SOL     OW11023   6.254   6.004   6.310
 3375SOL    HW111024   6.317   6.049   6.374
 3375SOL    HW211025   6.244   6.060   6.228
 3376SOL     OW11026   3.884   3.055   3.336
 3376SOL    HW111027   3.928   3.113   3.269
 3376SOL    HW211028   3.890   3.097   3.427
 3377SOL     OW11029   6.804   6.417   5.794
 3377SOL    HW111030   6.727   6.355   5.781
 3377SOL    HW211031   6.877   6.371   5.844
 3378SOL     OW11032   6.913   0.911   0.706
 3378SOL    HW111033   6.892   0.981   0.774
 3378SOL    HW211034   7.011   0.912   0.686
 3379SOL     OW11035   6.964   0.014   6.249
 3379SOL    HW111036   6.868   0.040   6.247
 3379SOL    HW211037   6.983   6.988   6.333
 3380SOL     OW11038   5.797   6.677   5.135
 3380SOL    HW111039   5.878   6.735   5.128
 3380SOL    HW211040   5.729   6.707   5.068
 3381SOL     OW11041   0.763   2.637   1.124
 3381SOL    HW111042   0.849   2.598   1.156
 3381SOL    HW211043   0.732   2.706   1.188
 3382SOL     OW11044   0.494   2.237   0.724
 3382SOL    HW111045   0.424   2.167   0.710
 3382SOL    HW211046   0.577   2.194   0.762
 3383SOL     OW11047   4.498   5.814   1.685
 3383SOL    HW111048   4.593   5.834   1.708
 3383SOL    HW211049   4.437   5.860   1.749
 3384SOL     OW11050   2.973   3.305   6.137
 3384SOL    HW111051   3.069   3.292   6.114
 3384SOL    HW211052   2.915   3.265   6.065
 3385SOL     OW11053   6.766   2.953   4.492
 3385SOL    HW111054   6.670   2.937   4.472
 3385SOL    HW211055   6.819   2.870   4.472
 3386SOL     OW11056   5.781   4.541   6.606
 3386SOL    HW111057   5.802   4.628   6.561
 3386SOL    HW211058   5.856   4.477   6.590
 3387SOL     OW11059   3.173   0.959   3.434
 3387SOL    HW111060   3.122   0.879   3.404
 3387SOL    HW211061   3.175   1.027   3.360
 3388SOL     OW11062   5.190   3.076   1.694
 3388SOL    HW111063   5.241   3.150   1.652
 3388SOL    HW211064   5.191   2.996   1.633
 3389SOL     OW11065   5.473   5.203   5.669
 3389SOL    HW111066   5.435   5.263   5.739
 3389SOL    HW211067   5.562   5.170   5.698
 3390SOL     OW11068   4.994   5.830   6.020
 3390SOL    HW111069   4.940   5.780   6.087
 3390SOL    HW211070   5.045   5.904   6.065
 3391SOL     OW11071   5.215   3.106   5.154
 3391SOL    HW111072   5.179   3.151   5.235
 3391SOL    HW211073   5.140   3.065   5.102
 3392SOL     OW11074   3.023   6.751   4.020
 3392SOL    HW111075   3.018   6.807   4.103
 3392SOL    HW211076   2.932   6.716   3.998
 3393SOL     OW11077   0.246   6.307   6.679
 3393SOL    HW111078   0.340   6.273   6.687
 3393SOL    HW211079   0.211   6.289   6.587
 3394SOL     OW11080   5.704   3.547   2.101
 3394SOL    HW111081   5.755   3.633   2.104
 3394SOL    HW211082   5.763   3.473   2.070
 3395SOL     OW11083   5.362   3.301   3.163
 3395SOL    HW111084   5.321   3.338   3.079
 3395SOL    HW211085   5.300   3.234   3.203
 3396SOL     OW11086   4.682   1.991   3.615
 3396SOL    HW111087   4.767   2.041   3.631
 3396SOL    HW211088   4.699   1.893   3.622
 3397SOL     OW11089   2.377   0.564   5.678
 3397SOL    HW111090   2.423   0.531   5.760
 3397SOL    HW211091   2.381   0.664   5.675
 3398SOL     OW11092   0.700   6.620   4.465
 3398SOL    HW111093   0.762   6.603   4.541
 3398SOL    HW211094   0.606   6.625   4.498
 3399SOL     OW11095   5.341   4.580   3.973
 3399SOL    HW111096   5.252   4.622   3.993
 3399SOL    HW211097   5.356   4.502   4.034
 3400SOL     OW11098   4.789   2.890   5.623
 3400SOL    HW111099   4.861   2.929   5.566
 3400SOL    HW211100   4.820   2.802   5.661
 3401SOL     OW11101   6.988   3.256   0.929
 3401SOL    HW111102   6.900   3.245   0.976
 3401SOL    HW211103   7.010   3.353   0.923
 3402SOL     OW11104   4.094   5.849   6.730
 3402SOL    HW111105   4.001   5.811   6.730
 3402SOL    HW211106   4.090   5.946   6.756
 3403SOL     OW11107   3.915   5.749   4.885
 3403SOL    HW111108   3.953   5.741   4.977
 3403SOL    HW211109   3.902   5.658   4.846
 3404SOL     OW11110   4.823   1.383   6.936
 3404SOL    HW111111   4.773   1.303   6.967
 3404SOL    HW211112   4.835   1.447   7.012
 3405SOL     OW11113   6.947   3.810   4.490
 3405SOL    HW111114   6.991   3.819   4.580
 3405SOL    HW211115   6.849   3.799   4.503
 3406SOL     OW11116   0.743   4.289   1.482
 3406SOL    HW111117   0.773   4.301   1.387
 3406SOL    HW211118   0.784   4.207   1.520
 3407SOL     OW11119   1.039   5.134   5.901
 3407SOL    HW111120   0.939   5.145   5.903
 3407SOL    HW211121   1.064   5.073   5.826
 3408SOL     OW11122   4.770   3.804   5.262
 3408SOL    HW111123   4.743   3.713   5.231
 3408SOL    HW211124   4.870   3.808   5.272
 3409SOL     OW11125   3.393   6.162   6.848
 3409SOL    HW111126   3.384   6.193   6.943
 3409SOL    HW211127   3.303   6.145   6.810
 3410SOL     OW11128   0.093   6.145   0.514
 3410SOL    HW111129   0.005   6.182   0.484
 3410SOL    HW211130   0.160   6.219   0.520
 3411SOL     OW11131   0.608   3.084   1.774
 3411SOL    HW111132   0.512   3.111   1.777
 3411SOL    HW211133   0.617   2.998   1.724
 3412SOL     OW11134   4.231   2.787   0.073
 3412SOL    HW111135   4.189   2.700   0.097
 3412SOL    HW211136   4.305   2.771   0.008
 3413SOL     OW11137   5.925   1.165   0.859
 3413SOL    HW111138   5.844   1.123   0.900
 3413SOL    HW211139   5.905   1.260   0.836
 3414SOL     OW11140   2.631   0.330   5.921
 3414SOL    HW111141   2.633   0.399   5.848
 3414SOL    HW211142   2.618   0.240   5.881
 3415SOL     OW11143   1.745   3.670   5.045
 3415SOL    HW111144   1.712   3.579   5.018
 3415SOL    HW211145   1.678   3.714   5.103
 3416SOL     OW11146   0.471   5.715   0.746
 3416SOL    HW111147   0.449   5.754   0.657
 3416SOL    HW211148   0.556   5.755   0.780
 3417SOL     OW11149   0.797   6.170   2.867
 3417SOL    HW111150   0.841   6.102   2.925
 3417SOL    HW211151   0.705   6.139   2.843
 3418SOL     OW11152   3.551   0.564   4.362
 3418SOL    HW111153   3.553   0.464   4.363
 3418SOL    HW211154   3.644   0.599   4.346
 3419SOL     OW11155   2.803   5.742   5.118
 3419SOL    HW111156   2.893   5.757   5.160
 3419SOL    HW211157   2.790   5.809   5.045
 3420SOL     OW11158   5.211   3.023   4.548
 3420SOL    HW111159   5.274   3.050   4.620
 3420SOL    HW211160   5.152   3.101   4.525
 3421SOL     OW11161   5.172   0.951   5.264
 3421SOL    HW111162   5.139   0.859   5.242
 3421SOL    HW211163   5.272   0.951   5.267
 3422SOL     OW11164   1.785   0.373   0.417
 3422SOL    HW111165   1.872   0.323   0.419
 3422SOL    HW211166   1.722   0.335   0.485
 3423SOL     OW11167   0.859   4.591   6.384
 3423SOL    HW111168   0.892   4.500   6.358
 3423SOL    HW211169   0.878   4.607   6.480
 3424SOL     OW11170   3.055   6.427   1.559
 3424SOL    HW111171   3.030   6.430   1.462
 3424SOL    HW211172   3.042   6.517   1.600
 3425SOL     OW11173   5.584   5.130   2.503
 3425SOL    HW111174   5.595   5.040   2.544
 3425SOL    HW211175   5.537   5.191   2.568
 3426SOL     OW11176   4.299   2.983   0.273
 3426SOL    HW111177   4.296   2.955   0.369
 3426SOL    HW211178   4.276   2.905   0.215
 3427SOL     OW11179   6.184   0.194   0.034
 3427SOL    HW111180   6.271   0.171   0.077
 3427SOL    HW211181   6.194   0.278   7.005
 3428SOL     OW11182   2.419   5.035   0.610
 3428SOL    HW111183   2.510   5.075   0.596
 3428SOL    HW211184   2.354   5.107   0.630
 3429SOL     OW11185   0.392   2.201   0.053
 3429SOL    HW111186   0.317   2.196   0.118
 3429SOL    HW211187   0.383   2.126   7.011
 3430SOL     OW11188   0.727   6.283   5.012
 3430SOL    HW111189   0.814   6.235   5.019
 3430SOL    HW211190   0.659   6.238   5.069
 3431SOL     OW11191   0.763   6.884   1.424
 3431SOL    HW111192   0.733   6.806   1.479
 3431SOL    HW211193   0.686   6.918   1.370
 3432SOL     OW11194   1.826   2.343   0.087
 3432SOL    HW111195   1.909   2.398   0.086
 3432SOL    HW211196   1.803   2.316   7.017
 3433SOL     OW11197   0.947   0.620   6.147
 3433SOL    HW111198   0.938   0.558   6.069
 3433SOL    HW211199   0.861   0.623   6.197
 3434SOL     OW11200   4.544   1.689   1.246
 3434SOL    HW111201   4.458   1.729   1.279
 3434SOL    HW211202   4.523   1.617   1.180
 3435SOL     OW11203   0.360   1.778   0.628
 3435SOL    HW111204   0.381   1.777   0.530
 3435SOL    HW211205   0.342   1.685   0.660
 3436SOL     OW11206   4.076   5.463   6.710
 3436SOL    HW111207   4.122   5.518   6.640
 3436SOL    HW211208   4.016   5.522   6.765
 3437SOL     OW11209   1.970   1.046   5.826
 3437SOL    HW111210   1.884   0.997   5.836
 3437SOL    HW211211   1.954   1.129   5.772
 3438SOL     OW11212   1.088   2.881   6.989
 3438SOL    HW111213   1.167   2.934   6.957
 3438SOL    HW211214   1.053   2.825   6.913
 3439SOL     OW11215   2.174   6.169   4.835
 3439SOL    HW111216   2.213   6.078   4.822
 3439SOL    HW211217   2.247   6.237   4.838
 3440SOL     OW11218   3.474   3.644   1.435
 3440SOL    HW111219   3.498   3.659   1.531
 3440SOL    HW211220   3.546   3.591   1.390
 3441SOL     OW11221   5.288   6.967   4.462
 3441SOL    HW111222   5.264   0.026   4.512
 3441SOL    HW211223   5.360   6.987   4.396
 3442SOL     OW11224   2.746   4.996   2.129
 3442SOL    HW111225   2.734   4.974   2.032
 3442SOL    HW211226   2.775   4.914   2.178
 3443SOL     OW11227   5.349   5.932   1.440
 3443SOL    HW111228   5.253   5.921   1.466
 3443SOL    HW211229   5.407   5.926   1.522
 3444SOL     OW11230   5.129   5.553   0.379
 3444SOL    HW111231   5.108   5.608   0.460
 3444SOL    HW211232   5.044   5.531   0.332
 3445SOL     OW11233   6.929   5.470   4.397
 3445SOL    HW111234   7.005   5.405   4.399
 3445SOL    HW211235   6.950   5.543   4.332
 3446SOL     OW11236   6.105   0.612   2.904
 3446SOL    HW111237   6.089   0.557   2.822
 3446SOL    HW211238   6.153   0.557   2.972
 3447SOL     OW11239   5.879   5.867   0.809
 3447SOL    HW111240   5.866   5.862   0.710
 3447SOL    HW211241   5.910   5.959   0.834
 3448SOL     OW11242   3.541   0.399   0.951
 3448SOL    HW111243   3.592   0.476   0.914
 3448SOL    HW211244   3.458   0.431   0.996
 3449SOL     OW11245   6.104   6.330   4.119
 3449SOL    HW111246   6.115   6.244   4.169
 3449SOL    HW211247   6.193   6.358   4.082
 3450SOL     OW11248   0.108   2.593   6.504
 3450SOL    HW111249   0.126   2.691   6.513
 3450SOL    HW211250   0.053   2.577   6.422
 3451SOL     OW11251   1.803   6.287   1.706
 3451SOL    HW111252   1.712   6.264   1.672
 3451SOL    HW211253   1.837   6.367   1.656
 3452SOL     OW11254   6.157   0.632   6.096
 3452SOL    HW111255   6.135   0.699   6.025
 3452SOL    HW211256   6.124   0.542   6.068
 3453SOL     OW11257   6.521   6.220   6.165
 3453SOL    HW111258   6.421   6.223   6.171
 3453SOL    HW211259   6.555   6.143   6.220
 3454SOL     OW11260   1.162   2.395   5.971
 3454SOL    HW111261   1.151   2.360   6.064
 3454SOL    HW211262   1.131   2.327   5.906
 3455SOL     OW11263   2.709   2.022   4.348
 3455SOL    HW111264   2.768   2.040   4.427
 3455SOL    HW211265   2.647   2.100   4.335
 3456SOL     OW11266   6.127   5.778   2.702
 3456SOL    HW111267   6.095   5.741   2.615
 3456SOL    HW211268   6.220   5.747   2.720
 3457SOL     OW11269   2.812   5.247   3.286
 3457SOL    HW111270   2.878   5.179   3.253
 3457SOL    HW211271   2.860   5.317   3.339
 3458SOL     OW11272   5.054   0.480   1.797
 3458SOL    HW111273   5.110   0.499   1.717
 3458SOL    HW211274   5.026   0.567   1.840
 3459SOL     OW11275   5.844   3.626   3.262
 3459SOL    HW111276   5.889   3.556   3.316
 3459SOL    HW211277   5.854   3.605   3.164
 3460SOL     OW11278   2.314   3.162   6.675
 3460SOL    HW111279   2.340   3.066   6.666
 3460SOL    HW211280   2.284   3.180   6.769
 3461SOL     OW11281   4.396   6.215   5.047
 3461SOL    HW111282   4.456   6.252   5.118
 3461SOL    HW211283   4.309   6.188   5.088
 3462SOL     OW11284   0.170   3.712   2.507
 3462SOL    HW111285   0.141   3.764   2.588
 3462SOL    HW211286   0.240   3.764   2.458
 3463SOL     OW11287   0.980   3.963   2.637
 3463SOL    HW111288   0.907   3.895   2.628
 3463SOL    HW211289   1.015   3.962   2.731
 3464SOL     OW11290   6.246   4.079   6.475
 3464SOL    HW111291   6.289   4.127   6.399
 3464SOL    HW211292   6.248   4.137   6.556
 3465SOL     OW11293   1.786   2.184   2.392
 3465SOL    HW111294   1.719   2.252   2.423
 3465SOL    HW211295   1.862   2.231   2.348
 3466SOL     OW11296   0.025   4.675   0.182
 3466SOL    HW111297   7.021   4.728   0.102
 3466SOL    HW211298   0.071   4.735   0.247
 3467SOL     OW11299   1.710   2.362   0.920
 3467SOL    HW111300   1.701   2.287   0.854
 3467SOL    HW211301   1.792   2.348   0.975
 3468SOL     OW11302   5.328   6.636   2.719
 3468SOL    HW111303   5.363   6.695   2.791
 3468SOL    HW211304   5.327   6.541   2.751
 3469SOL     OW11305   4.792   0.015   2.703
 3469SOL    HW111306   4.737   0.047   2.780
 3469SOL    HW211307   4.854   0.088   2.673
 3470SOL     OW11308   6.078   3.478   1.594
 3470SOL    HW111309   6.026   3.410   1.542
 3470SOL    HW211310   6.167   3.491   1.552
 3471SOL     OW11311   4.164   5.207   4.110
 3471SOL    HW111312   4.157   5.192   4.209
 3471SOL    HW211313   4.133   5.300   4.088
 3472SOL     OW11314   2.669   0.866   3.239
 3472SOL    HW111315   2.640   0.930   3.168
 3472SOL    HW211316   2.614   0.783   3.233
 3473SOL     OW11317   0.038   2.085   1.470
 3473SOL    HW111318   0.074   2.013   1.531
 3473SOL    HW211319   6.986   2.048   1.417
 3474SOL     OW11320   1.154   4.811   1.841
 3474SOL    HW111321   1.074   4.858   1.802
 3474SOL    HW211322   1.177   4.852   1.929
 3475SOL     OW11323   1.348   4.650   4.397
 3475SOL    HW111324   1.404   4.733   4.401
 3475SOL    HW211325   1.253   4.675   4.375
 3476SOL     OW11326   2.340   1.427   3.304
 3476SOL    HW111327   2.381   1.370   3.233
 3476SOL    HW211328   2.247   1.451   3.279
 3477SOL     OW11329   1.886   5.408   1.135
 3477SOL    HW111330   1.810   5.345   1.119
 3477SOL    HW211331   1.865   5.496   1.092
 3478SOL     OW11332   2.454   5.613   5.420
 3478SOL    HW111333   2.468   5.606   5.321
 3478SOL    HW211334   2.537   5.646   5.463
 3479SOL     OW11335   1.298   0.602   3.227
 3479SOL    HW111336   1.362   0.527   3.213
 3479SOL    HW211337   1.225   0.597   3.159
 3480SOL     OW11338   0.532   6.426   4.665
 3480SOL    HW111339   0.541   6.327   4.650
 3480SOL    HW211340   0.578   6.450   4.751
 3481SOL     OW11341   4.650   0.421   0.459
 3481SOL    HW111342   4.721   0.364   0.418
 3481SOL    HW211343   4.692   0.499   0.504
 3482SOL     OW11344   5.484   1.132   1.904
 3482SOL    HW111345   5.527   1.136   1.995
 3482SOL    HW211346   5.481   1.224   1.865
 3483SOL     OW11347   4.552   2.237   1.922
 3483SOL    HW111348   4.477   2.257   1.984
 3483SOL    HW211349   4.529   2.158   1.865
 3484SOL     OW11350   1.355   3.069   6.907
 3484SOL    HW111351   1.348   3.162   6.871
 3484SOL    HW211352   1.428   3.020   6.859
 3485SOL     OW11353   2.162   1.559   4.696
 3485SOL    HW111354   2.155   1.503   4.779
 3485SOL    HW211355   2.137   1.505   4.616
 3486SOL     OW11356   2.566   0.596   3.589
 3486SOL    HW111357   2.528   0.550   3.670
 3486SOL    HW211358   2.657   0.632   3.610
 3487SOL     OW11359   5.478   2.533   5.531
 3487SOL    HW111360   5.417   2.544   5.453
 3487SOL    HW211361   5.454   2.449   5.581
 3488SOL     OW11362   6.076   1.349   4.399
 3488SOL    HW111363   6.079   1.275   4.332
 3488SOL    HW211364   5.983   1.384   4.406
 3489SOL     OW11365   3.946   0.181   1.237
 3489SOL    HW111366   4.040   0.204   1.262
 3489SOL    HW211367   3.945   0.095   1.187
 3490SOL     OW11368   4.349   4.343   0.356
 3490SOL    HW111369   4.426   4.289   0.389
 3490SOL    HW211370   4.266   4.316   0.405
 3491SOL     OW11371   4.649   2.617   5.279
 3491SOL    HW111372   4.659   2.653   5.186
 3491SOL    HW211373   4.730   2.640   5.332
 3492SOL     OW11374   0.275   5.293   1.061
 3492SOL    HW111375   0.257   5.279   1.158
 3492SOL    HW211376   0.368   5.327   1.048
 3493SOL     OW11377   5.545   4.404   6.067
 3493SOL    HW111378   5.638   4.418   6.100
 3493SOL    HW211379   5.504   4.328   6.118
 3494SOL     OW11380   3.664   0.630   1.289
 3494SOL    HW111381   3.646   0.541   1.331
 3494SOL    HW211382   3.758   0.633   1.257
 3495SOL     OW11383   5.547   4.954   2.225
 3495SOL    HW111384   5.580   5.035   2.178
 3495SOL    HW211385   5.625   4.907   2.268
 3496SOL     OW11386   6.280   4.510   0.841
 3496SOL    HW111387   6.201   4.568   0.824
 3496SOL    HW211388   6.357   4.566   0.872
 3497SOL     OW11389   3.487   1.257   3.703
 3497SOL    HW111390   3.440   1.330   3.751
 3497SOL    HW211391   3.584   1.257   3.730
 3498SOL     OW11392   2.984   2.488   0.776
 3498SOL    HW111393   3.062   2.432   0.805
 3498SOL    HW211394   2.901   2.434   0.777
 3499SOL     OW11395   4.878   3.246   4.233
 3499SOL    HW111396   4.881   3.208   4.141
 3499SOL    HW211397   4.847   3.175   4.297
 3500SOL     OW11398   1.515   3.304   5.188
 3500SOL    HW111399   1.574   3.225   5.201
 3500SOL    HW211400   1.542   3.354   5.106
 3501SOL     OW11401   1.961   5.862   4.522
 3501SOL    HW111402   1.901   5.782   4.524
 3501SOL    HW211403   1.944   5.918   4.603
 3502SOL     OW11404   6.302   3.030   2.587
 3502SOL    HW111405   6.265   2.962   2.523
 3502SOL    HW211406   6.268   3.011   2.679
 3503SOL     OW11407   6.110   6.821   4.632
 3503SOL    HW111408   6.120   6.813   4.533
 3503SOL    HW211409   6.063   6.906   4.654
 3504SOL     OW11410   2.110   1.965   1.533
 3504SOL    HW111411   2.014   1.938   1.534
 3504SOL    HW211412   2.152   1.942   1.621
 3505SOL     OW11413   5.652   4.777   5.141
 3505SOL    HW111414   5.606   4.693   5.170
 3505SOL    HW211415   5.647   4.844   5.215
 3506SOL     OW11416   5.038   5.285   5.749
 3506SOL    HW111417   4.941   5.294   5.727
 3506SOL    HW211418   5.091   5.280   5.664
 3507SOL     OW11419   1.410   0.874   0.606
 3507SOL    HW111420   1.426   0.972   0.619
 3507SOL    HW211421   1.463   0.842   0.527
 3508SOL     OW11422   2.893   2.676   5.883
 3508SOL    HW111423   2.926   2.738   5.954
 3508SOL    HW211424   2.933   2.701   5.795
 3509SOL     OW11425   5.572   0.613   5.686
 3509SOL    HW111426   5.654   0.637   5.738
 3509SOL    HW211427   5.534   0.528   5.721
 3510SOL     OW11428   1.540   2.639   1.837
 3510SOL    HW111429   1.613   2.590   1.884
 3510SOL    HW211430   1.459   2.643   1.895
 3511SOL     OW11431   3.304   5.239   0.242
 3511SOL    HW111432   3.222   5.261   0.295
 3511SOL    HW211433   3.316   5.309   0.171
 3512SOL     OW11434   0.543   4.805   0.683
 3512SOL    HW111435   0.480   4.819   0.759
 3512SOL    HW211436   0.604   4.884   0.675
 3513SOL     OW11437   6.381   2.831   0.550
 3513SOL    HW111438   6.420   2.899   0.613
 3513SOL    HW211439   6.368   2.744   0.598
 3514SOL     OW11440   0.761   1.524   2.072
 3514SOL    HW111441   0.850   1.527   2.025
 3514SOL    HW211442   0.711   1.443   2.041
 3515SOL     OW11443   5.060   5.906   3.319
 3515SOL    HW111444   5.027   5.955   3.399
 3515SOL    HW211445   4.982   5.876   3.263
 3516SOL     OW11446   4.542   0.195   0.814
 3516SOL    HW111447   4.608   0.207   0.739
 3516SOL    HW211448   4.590   0.161   0.895
 3517SOL     OW11449   1.296   1.870   0.724
 3517SOL    HW111450   1.242   1.922   0.659
 3517SOL    HW211451   1.356   1.807   0.674
 3518SOL     OW11452   5.615   2.852   4.530
 3518SOL    HW111453   5.624   2.820   4.624
 3518SOL    HW211454   5.644   2.780   4.467
 3519SOL     OW11455   1.314   0.969   6.297
 3519SOL    HW111456   1.393   0.919   6.332
 3519SOL    HW211457   1.246   0.904   6.263
 3520SOL     OW11458   2.811   4.712   6.125
 3520SOL    HW111459   2.722   4.725   6.170
 3520SOL    HW211460   2.798   4.656   6.043
 3521SOL     OW11461   5.110   2.534   0.083
 3521SOL    HW111462   5.188   2.491   0.036
 3521SOL    HW211463   5.137   2.557   0.177
 3522SOL     OW11464   6.547   4.488   1.896
 3522SOL    HW111465   6.463   4.487   1.840
 3522SOL    HW211466   6.523   4.507   1.991
 3523SOL     OW11467   2.502   5.141   6.300
 3523SOL    HW111468   2.601   5.146   6.312
 3523SOL    HW211469   2.480   5.072   6.230
 3524SOL     OW11470   3.782   1.640   1.455
 3524SOL    HW111471   3.691   1.648   1.414
 3524SOL    HW211472   3.826   1.556   1.424
 3525SOL     OW11473   1.557   3.844   2.742
 3525SOL    HW111474   1.652   3.861   2.770
 3525SOL    HW211475   1.534   3.905   2.666
 3526SOL     OW11476   2.360   6.340   4.069
 3526SOL    HW111477   2.396   6.421   4.115
 3526SOL    HW211478   2.284   6.302   4.121
 3527SOL     OW11479   5.929   2.522   6.386
 3527SOL    HW111480   5.904   2.604   6.335
 3527SOL    HW211481   6.028   2.508   6.381
 3528SOL     OW11482   0.717   5.327   4.254
 3528SOL    HW111483   0.760   5.408   4.214
 3528SOL    HW211484   0.691   5.346   4.349
 3529SOL     OW11485   3.929   0.038   0.318
 3529SOL    HW111486   4.024   0.060   0.294
 3529SOL    HW211487   3.871   0.050   0.238
 3530SOL     OW11488   0.762   5.304   3.210
 3530SOL    HW111489   0.848   5.326   3.165
 3530SOL    HW211490   0.731   5.213   3.183
 3531SOL     OW11491   4.978   2.915   0.956
 3531SOL    HW111492   4.887   2.873   0.959
 3531SOL    HW211493   5.015   2.907   0.863
 3532SOL     OW11494   2.829   0.883   1.640
 3532SOL    HW111495   2.825   0.945   1.561
 3532SOL    HW211496   2.918   0.890   1.684
 3533SOL     OW11497   1.887   1.824   2.597
 3533SOL    HW111498   1.815   1.795   2.659
 3533SOL    HW211499   1.862   1.800   2.503
 3534SOL     OW11500   5.745   0.990   5.928
 3534SOL    HW111501   5.723   0.934   6.008
 3534SOL    HW211502   5.668   0.988   5.864
 3535SOL     OW11503   1.249   5.501   0.442
 3535SOL    HW111504   1.229   5.404   0.458
 3535SOL    HW211505   1.348   5.513   0.432
 3536SOL     OW11506   2.159   2.216   3.527
 3536SOL    HW111507   2.129   2.296   3.475
 3536SOL    HW211508   2.224   2.162   3.473
 3537SOL     OW11509   3.158   5.845   1.076
 3537SOL    HW111510   3.172   5.757   1.121
 3537SOL    HW211511   3.088   5.834   1.005
 3538SOL     OW11512   1.212   0.460   5.886
 3538SOL    HW111513   1.115   0.454   5.911
 3538SOL    HW211514   1.268   0.419   5.957
 3539SOL     OW11515   6.108   3.680   5.825
 3539SOL    HW111516   6.128   3.677   5.923
 3539SOL    HW211517   6.016   3.718   5.811
 3540SOL     OW11518   2.096   2.584   6.467
 3540SOL    HW111519   2.085   2.644   6.387
 3540SOL    HW211520   2.023   2.602   6.532
 3541SOL     OW11521   1.872   2.544   6.618
 3541SOL    HW111522   1.863   2.449   6.586
 3541SOL    HW211523   1.781   2.581   6.637
 3542SOL     OW11524   1.212   4.521   1.908
 3542SOL    HW111525   1.311   4.517   1.902
 3542SOL    HW211526   1.183   4.616   1.921
 3543SOL     OW11527   0.806   2.672   4.892
 3543SOL    HW111528   0.724   2.717   4.926
 3543SOL    HW211529   0.819   2.694   4.795
 3544SOL     OW11530   2.665   4.430   6.190
 3544SOL    HW111531   2.576   4.475   6.195
 3544SOL    HW211532   2.718   4.452   6.272
 3545SOL     OW11533   4.185   4.953   0.174
 3545SOL    HW111534   4.097   4.984   0.139
 3545SOL    HW211535   4.229   4.895   0.106
 3546SOL     OW11536   0.266   4.407   3.427
 3546SOL    HW111537   0.265   4.370   3.335
 3546SOL    HW211538   0.239   4.503   3.425
 3547SOL     OW11539   6.408   5.099   5.373
 3547SOL    HW111540   6.309   5.098   5.360
 3547SOL    HW211541   6.453   5.118   5.286
 3548SOL     OW11542   5.564   0.666   5.419
 3548SOL    HW111543   5.576   0.654   5.517
 3548SOL    HW211544   5.569   0.764   5.397
 3549SOL     OW11545   6.878   5.010   5.946
 3549SOL    HW111546   6.823   5.031   5.865
 3549SOL    HW211547   6.830   4.943   6.002
 3550SOL     OW11548   6.061   3.145   3.204
 3550SOL    HW111549   6.037   3.054   3.238
 3550SOL    HW211550   6.141   3.139   3.145
 3551SOL     OW11551   3.494   2.005   2.903
 3551SOL    HW111552   3.481   1.907   2.915
 3551SOL    HW211553   3.530   2.022   2.811
 3552SOL     OW11554   6.640   6.451   1.727
 3552SOL    HW111555   6.544   6.424   1.740
 3552SOL    HW211556   6.665   6.434   1.631
 3553SOL     OW11557   4.671   5.350   0.816
 3553SOL    HW111558   4.637   5.441   0.837
 3553SOL    HW211559   4.766   5.342   0.847
 3554SOL     OW11560   4.379   2.086   1.010
 3554SOL    HW111561   4.395   2.155   1.081
 3554SOL    HW211562   4.432   2.004   1.030
 3555SOL     OW11563   0.541   4.232   3.982
 3555SOL    HW111564   0.455   4.283   3.980
 3555SOL    HW211565   0.616   4.294   3.958
 3556SOL     OW11566   3.843   1.578   4.375
 3556SOL    HW111567   3.850   1.674   4.347
 3556SOL    HW211568   3.813   1.524   4.297
 3557SOL     OW11569   0.975   0.962   4.514
 3557SOL    HW111570   0.893   0.994   4.561
 3557SOL    HW211571   0.996   0.868   4.542
 3558SOL     OW11572   1.618   6.111   2.402
 3558SOL    HW111573   1.657   6.026   2.366
 3558SOL    HW211574   1.684   6.155   2.462
 3559SOL     OW11575   0.242   6.068   5.242
 3559SOL    HW111576   0.192   6.121   5.311
 3559SOL    HW211577   0.247   5.972   5.271
 3560SOL     OW11578   1.251   5.396   2.870
 3560SOL    HW111579   1.294   5.306   2.883
 3560SOL    HW211580   1.237   5.438   2.960
 3561SOL     OW11581   4.662   4.470   4.962
 3561SOL    HW111582   4.565   4.455   4.979
 3561SOL    HW211583   4.685   4.566   4.980
 3562SOL     OW11584   3.613   1.437   3.090
 3562SOL    HW111585   3.616   1.530   3.053
 3562SOL    HW211586   3.610   1.441   3.190
 3563SOL     OW11587   6.301   2.141   0.456
 3563SOL    HW111588   6.343   2.074   0.395
 3563SOL    HW211589   6.234   2.095   0.515
 3564SOL     OW11590   0.854   4.515   3.258
 3564SOL    HW111591   0.775   4.576   3.266
 3564SOL    HW211592   0.836   4.430   3.308
 3565SOL     OW11593   3.130   5.488   5.224
 3565SOL    HW111594   3.053   5.432   5.196
 3565SOL    HW211595   3.139   5.484   5.324
 3566SOL     OW11596   6.990   3.595   6.048
 3566SOL    HW111597   6.994   3.613   5.949
 3566SOL    HW211598   7.009   3.680   6.097
 3567SOL     OW11599   0.343   2.751   6.657
 3567SOL    HW111600   0.253   2.790   6.642
 3567SOL    HW211601   0.391   2.803   6.728
 3568SOL     OW11602   4.258   4.852   3.564
 3568SOL    HW111603   4.309   4.881   3.484
 3568SOL    HW211604   4.160   4.856   3.545
 3569SOL     OW11605   2.586   1.673   5.930
 3569SOL    HW111606   2.543   1.652   5.842
 3569SOL    HW211607   2.521   1.722   5.988
 3570SOL     OW11608   5.438   0.980   5.331
 3570SOL    HW111609   5.538   0.985   5.338
 3570SOL    HW211610   5.398   0.991   5.421
 3571SOL     OW11611   0.578   5.198   4.999
 3571SOL    HW111612   0.556   5.103   4.975
 3571SOL    HW211613   0.652   5.198   5.067
 3572SOL     OW11614   6.250   3.665   3.076
 3572SOL    HW111615   6.316   3.649   3.149
 3572SOL    HW211616   6.187   3.588   3.070
 3573SOL     OW11617   0.794   5.913   3.108
 3573SOL    HW111618   0.702   5.952   3.099
 3573SOL    HW211619   0.788   5.825   3.154
 3574SOL     OW11620   0.629   3.531   0.229
 3574SOL    HW111621   0.630   3.485   0.318
 3574SOL    HW211622   0.554   3.495   0.173
 3575SOL     OW11623   5.195   4.985   2.138
 3575SOL    HW111624   5.253   5.045   2.191
 3575SOL    HW211625   5.242   4.898   2.122
 3576SOL     OW11626   0.281   2.383   6.152
 3576SOL    HW111627   0.266   2.467   6.100
 3576SOL    HW211628   0.195   2.354   6.195
 3577SOL     OW11629   1.387   1.627   6.315
 3577SOL    HW111630   1.313   1.607   6.380
 3577SOL    HW211631   1.475   1.603   6.355
 3578SOL     OW11632   4.016   1.869   0.551
 3578SOL    HW111633   4.093   1.932   0.546
 3578SOL    HW211634   3.984   1.848   0.458
 3579SOL     OW11635   0.126   2.095   3.464
 3579SOL    HW111636   0.160   2.183   3.430
 3579SOL    HW211637   0.076   2.110   3.549
 3580SOL     OW11638   5.640   3.084   1.393
 3580SOL    HW111639   5.735   3.056   1.375
 3580SOL    HW211640   5.630   3.106   1.490
 3581SOL     OW11641   1.490   5.726   3.683
 3581SOL    HW111642   1.466   5.787   3.758
 3581SOL    HW211643   1.590   5.722   3.674
 3582SOL     OW11644   0.705   3.563   6.244
 3582SOL    HW111645   0.640   3.636   6.224
 3582SOL    HW211646   0.781   3.568   6.179
 3583SOL     OW11647   0.746   3.997   6.088
 3583SOL    HW111648   0.810   4.060   6.043
 3583SOL    HW211649   0.677   4.049   6.138
 3584SOL     OW11650   5.825   5.620   6.541
 3584SOL    HW111651   5.777   5.532   6.543
 3584SOL    HW211652   5.890   5.621   6.466
 3585SOL     OW11653   2.967   0.970   4.679
 3585SOL    HW111654   2.894   1.019   4.630
 3585SOL    HW211655   3.056   1.004   4.648
 3586SOL     OW11656   6.386   2.130   4.832
 3586SOL    HW111657   6.393   2.130   4.932
 3586SOL    HW211658   6.291   2.111   4.805
 3587SOL     OW11659   2.273   4.539   5.745
 3587SOL    HW111660   2.357   4.560   5.694
 3587SOL    HW211661   2.238   4.450   5.715
 3588SOL     OW11662   1.555   2.963   5.678
 3588SOL    HW111663   1.463   2.992   5.704
 3588SOL    HW211664   1.552   2.870   5.642
 3589SOL     OW11665   4.782   1.444   4.697
 3589SOL    HW111666   4.689   1.478   4.716
 3589SOL    HW211667   4.797   1.360   4.748
 3590SOL     OW11668   0.784   3.102   0.497
 3590SOL    HW111669   0.820   3.076   0.586
 3590SOL    HW211670   0.857   3.141   0.441
 3591SOL     OW11671   5.204   4.340   6.703
 3591SOL    HW111672   5.278   4.339   6.635
 3591SOL    HW211673   5.224   4.274   6.775
 3592SOL     OW11674   0.920   4.958   1.746
 3592SOL    HW111675   0.902   5.041   1.799
 3592SOL    HW211676   0.847   4.891   1.764
 3593SOL     OW11677   0.462   5.650   5.084
 3593SOL    HW111678   0.476   5.598   5.000
 3593SOL    HW211679   0.530   5.723   5.090
 3594SOL     OW11680   4.704   6.773   3.052
 3594SOL    HW111681   4.798   6.795   3.079
 3594SOL    HW211682   4.652   6.858   3.042
 3595SOL     OW11683   4.017   5.566   6.019
 3595SOL    HW111684   4.113   5.585   6.037
 3595SOL    HW211685   3.961   5.644   6.049
 3596SOL     OW11686   6.367   3.295   3.306
 3596SOL    HW111687   6.313   3.354   3.367
 3596SOL    HW211688   6.437   3.350   3.261
 3597SOL     OW11689   1.900   2.382   5.681
 3597SOL    HW111690   1.878   2.447   5.754
 3597SOL    HW211691   1.912   2.291   5.721
 3598SOL     OW11692   1.093   5.436   6.571
 3598SOL    HW111693   1.118   5.423   6.476
 3598SOL    HW211694   1.049   5.354   6.606
 3599SOL     OW11695   6.096   2.556   6.801
 3599SOL    HW111696   6.182   2.574   6.753
 3599SOL    HW211697   6.019   2.591   6.746
 3600SOL     OW11698   0.531   2.882   1.569
 3600SOL    HW111699   0.565   2.925   1.485
 3600SOL    HW211700   0.567   2.790   1.576
 3601SOL     OW11701   5.509   3.583   6.680
 3601SOL    HW111702   5.437   3.578   6.749
 3601SOL    HW211703   5.472   3.556   6.591
 3602SOL     OW11704   1.588   2.862   0.779
 3602SOL    HW111705   1.618   2.859   0.683
 3602SOL    HW211706   1.562   2.771   0.809
 3603SOL     OW11707   3.446   1.034   4.166
 3603SOL    HW111708   3.464   1.124   4.205
 3603SOL    HW211709   3.355   1.003   4.194
 3604SOL     OW11710   6.648   6.175   2.992
 3604SOL    HW111711   6.615   6.167   3.086
 3604SOL    HW211712   6.569   6.178   2.930
 3605SOL     OW11713   6.605   3.805   4.840
 3605SOL    HW111714   6.606   3.765   4.932
 3605SOL    HW211715   6.645   3.896   4.843
 3606SOL     OW11716   0.183   0.336   4.577
 3606SOL    HW111717   0.268   0.387   4.561
 3606SOL    HW211718   0.129   0.334   4.492
 3607SOL     OW11719   5.871   5.113   1.605
 3607SOL    HW111720   5.970   5.095   1.607
 3607SOL    HW211721   5.845   5.163   1.688
 3608SOL     OW11722   4.978   2.755   4.541
 3608SOL    HW111723   4.899   2.706   4.504
 3608SOL    HW211724   4.949   2.845   4.572
 3609SOL     OW11725   1.333   0.162   4.295
 3609SOL    HW111726   1.237   0.141   4.273
 3609SOL    HW211727   1.390   0.083   4.273
 3610SOL     OW11728   1.699   6.964   5.691
 3610SOL    HW111729   1.683   6.938   5.596
 3610SOL    HW211730   1.797   6.966   5.709
 3611SOL     OW11731   4.405   5.100   4.665
 3611SOL    HW111732   4.487   5.094   4.609
 3611SOL    HW211733   4.401   5.021   4.727
 3612SOL     OW11734   6.810   6.815   0.715
 3612SOL    HW111735   6.807   6.915   0.704
 3612SOL    HW211736   6.884   6.791   0.778
 3613SOL     OW11737   4.689   4.430   1.869
 3613SOL    HW111738   4.607   4.424   1.926
 3613SOL    HW211739   4.741   4.345   1.876
 3614SOL     OW11740   4.108   3.559   1.329
 3614SOL    HW111741   4.158   3.549   1.415
 3614SOL    HW211742   4.172   3.573   1.254
 3615SOL     OW11743   5.381   4.632   6.512
 3615SOL    HW111744   5.405   4.647   6.608
 3615SOL    HW211745   5.464   4.624   6.458
 3616SOL     OW11746   0.523   1.711   6.222
 3616SOL    HW111747   0.467   1.793   6.234
 3616SOL    HW211748   0.473   1.632   6.256
 3617SOL     OW11749   4.266   0.709   6.559
 3617SOL    HW111750   4.189   0.696   6.496
 3617SOL    HW211751   4.233   0.751   6.644
 3618SOL     OW11752   2.596   2.979   5.855
 3618SOL    HW111753   2.693   2.992   5.837
 3618SOL    HW211754   2.551   2.945   5.773
 3619SOL     OW11755   5.336   3.079   4.807
 3619SOL    HW111756   5.298   3.171   4.803
 3619SOL    HW211757   5.355   3.055   4.902
 3620SOL     OW11758   6.186   6.450   5.843
 3620SOL    HW111759   6.220   6.498   5.924
 3620SOL    HW211760   6.259   6.392   5.806
 3621SOL     OW11761   3.158   2.851   5.238
 3621SOL    HW111762   3.144   2.762   5.281
 3621SOL    HW211763   3.075   2.906   5.247
 3622SOL     OW11764   1.137   1.370   6.246
 3622SOL    HW111765   1.062   1.305   6.257
 3622SOL    HW211766   1.108   1.446   6.189
 3623SOL     OW11767   0.193   6.444   4.517
 3623SOL    HW111768   0.169   6.374   4.584
 3623SOL    HW211769   0.114   6.502   4.500
 3624SOL     OW11770   1.917   0.037   2.615
 3624SOL    HW111771   1.957   0.006   2.528
 3624SOL    HW211772   1.841   0.099   2.596
 3625SOL     OW11773   6.781   3.092   6.743
 3625SOL    HW111774   6.750   3.053   6.829
 3625SOL    HW211775   6.804   3.019   6.679
 3626SOL     OW11776   1.738   2.048   6.284
 3626SOL    HW111777   1.816   2.086   6.334
 3626SOL    HW211778   1.759   2.045   6.186
 3627SOL     OW11779   3.071   3.016   2.082
 3627SOL    HW111780   2.994   3.044   2.025
 3627SOL    HW211781   3.060   3.054   2.174
 3628SOL     OW11782   1.563   0.879   2.271
 3628SOL    HW111783   1.621   0.811   2.226
 3628SOL    HW211784   1.595   0.893   2.365
 3629SOL     OW11785   6.697   1.128   5.525
 3629SOL    HW111786   6.658   1.068   5.455
 3629SOL    HW211787   6.625   1.188   5.561
 3630SOL     OW11788   5.067   2.230   4.176
 3630SOL    HW111789   5.111   2.226   4.087
 3630SOL    HW211790   5.129   2.272   4.242
 3631SOL     OW11791   2.084   1.141   3.105
 3631SOL    HW111792   2.020   1.110   3.175
 3631SOL    HW211793   2.177   1.113   3.130
 3632SOL     OW11794   5.407   5.193   1.013
 3632SOL    HW111795   5.495   5.177   0.968
 3632SOL    HW211796   5.335   5.143   0.965
 3633SOL     OW11797   4.370   1.957   5.478
 3633SOL    HW111798   4.280   2.000   5.475
 3633SOL    HW211799   4.391   1.917   5.388
 3634SOL     OW11800   1.670   5.125   5.195
 3634SOL    HW111801   1.725   5.090   5.272
 3634SOL    HW211802   1.686   5.068   5.115
 3635SOL     OW11803   3.075   0.249   1.030
 3635SOL    HW111804   3.009   0.314   0.991
 3635SOL    HW211805   3.044   0.221   1.121
 3636SOL     OW11806   0.046   5.425   0.717
 3636SOL    HW111807   0.063   5.383   0.628
 3636SOL    HW211808   7.009   5.366   0.770
 3637SOL     OW11809   0.073   2.528   2.016
 3637SOL    HW111810   6.999   2.545   2.017
 3637SOL    HW211811   0.115   2.569   2.097
 3638SOL     OW11812   0.733   4.299   3.368
 3638SOL    HW111813   0.730   4.251   3.281
 3638SOL    HW211814   0.653   4.275   3.423
 3639SOL     OW11815   3.397   5.435   0.960
 3639SOL    HW111816   3.379   5.507   0.893
 3639SOL    HW211817   3.449   5.361   0.916
 3640SOL     OW11818   4.305   0.573   0.287
 3640SOL    HW111819   4.382   0.586   0.224
 3640SOL    HW211820   4.340   0.548   0.377
 3641SOL     OW11821   6.151   3.948   2.590
 3641SOL    HW111822   6.108   4.038   2.580
 3641SOL    HW211823   6.166   3.909   2.499
 3642SOL     OW11824   5.277   2.129   0.514
 3642SOL    HW111825   5.238   2.052   0.566
 3642SOL    HW211826   5.374   2.138   0.537
 3643SOL     OW11827   3.154   5.536   4.459
 3643SOL    HW111828   3.072   5.479   4.447
 3643SOL    HW211829   3.235   5.484   4.433
 3644SOL     OW11830   0.985   1.007   1.778
 3644SOL    HW111831   0.956   0.989   1.684
 3644SOL    HW211832   0.971   0.925   1.833
 3645SOL     OW11833   1.699   2.388   4.011
 3645SOL    HW111834   1.760   2.375   3.933
 3645SOL    HW211835   1.687   2.486   4.028
 3646SOL     OW11836   1.749   4.294   6.210
 3646SOL    HW111837   1.807   4.220   6.175
 3646SOL    HW211838   1.806   4.361   6.258
 3647SOL     OW11839   2.281   6.216   6.634
 3647SOL    HW111840   2.223   6.147   6.679
 3647SOL    HW211841   2.374   6.209   6.668
 3648SOL     OW11842   4.527   5.879   1.959
 3648SOL    HW111843   4.509   5.975   1.938
 3648SOL    HW211844   4.524   5.866   2.058
 3649SOL     OW11845   6.298   2.700   1.343
 3649SOL    HW111846   6.221   2.657   1.296
 3649SOL    HW211847   6.370   2.722   1.276
 3650SOL     OW11848   6.705   5.505   2.537
 3650SOL    HW111849   6.805   5.504   2.533
 3650SOL    HW211850   6.669   5.446   2.465
 3651SOL     OW11851   0.523   0.324   4.479
 3651SOL    HW111852   0.538   0.380   4.560
 3651SOL    HW211853   0.493   0.382   4.403
 3652SOL     OW11854   6.318   0.346   3.342
 3652SOL    HW111855   6.276   0.434   3.322
 3652SOL    HW211856   6.247   0.279   3.362
 3653SOL     OW11857   1.182   1.151   3.599
 3653SOL    HW111858   1.176   1.240   3.555
 3653SOL    HW211859   1.124   1.150   3.681
 3654SOL     OW11860   3.809   4.331   0.417
 3654SOL    HW111861   3.838   4.251   0.364
 3654SOL    HW211862   3.709   4.335   0.420
 3655SOL     OW11863   3.206   0.103   4.073
 3655SOL    HW111864   3.163   0.083   3.985
 3655SOL    HW211865   3.146   0.072   4.147
 3656SOL     OW11866   0.565   5.395   1.711
 3656SOL    HW111867   0.562   5.311   1.658
 3656SOL    HW211868   0.561   5.474   1.649
 3657SOL     OW11869   5.494   5.692   5.105
 3657SOL    HW111870   5.580   5.642   5.102
 3657SOL    HW211871   5.426   5.645   5.048
 3658SOL     OW11872   2.382   4.424   6.985
 3658SOL    HW111873   2.426   4.395   0.046
 3658SOL    HW211874   2.286   4.399   6.986
 3659SOL     OW11875   2.153   3.211   5.715
 3659SOL    HW111876   2.056   3.228   5.701
 3659SOL    HW211877   2.178   3.231   5.809
 3660SOL     OW11878   5.529   5.930   4.433
 3660SOL    HW111879   5.484   5.966   4.515
 3660SOL    HW211880   5.573   5.843   4.455
 3661SOL     OW11881   6.237   0.957   4.947
 3661SOL    HW111882   6.247   1.054   4.969
 3661SOL    HW211883   6.191   0.947   4.859
 3662SOL     OW11884   3.980   0.934   4.117
 3662SOL    HW111885   3.984   0.876   4.035
 3662SOL    HW211886   4.043   1.010   4.107
 3663SOL     OW11887   1.614   1.915   0.411
 3663SOL    HW111888   1.700   1.964   0.421
 3663SOL    HW211889   1.627   1.819   0.437
 3664SOL     OW11890   4.684   2.275   1.448
 3664SOL    HW111891   4.682   2.313   1.540
 3664SOL    HW211892   4.674   2.348   1.381
 3665SOL     OW11893   0.796   6.000   4.888
 3665SOL    HW111894   0.818   5.950   4.804
 3665SOL    HW211895   0.856   5.969   4.962
 3666SOL     OW11896   1.135   3.471   2.700
 3666SOL    HW111897   1.202   3.545   2.696
 3666SOL    HW211898   1.072   3.480   2.623
 3667SOL     OW11899   0.485   1.261   3.975
 3667SOL    HW111900   0.402   1.230   4.022
 3667SOL    HW211901   0.504   1.201   3.897
 3668SOL     OW11902   1.170   1.236   0.563
 3668SOL    HW111903   1.247   1.210   0.621
 3668SOL    HW211904   1.094   1.268   0.620
 3669SOL     OW11905   5.450   1.693   3.973
 3669SOL    HW111906   5.456   1.649   4.063
 3669SOL    HW211907   5.413   1.627   3.907
 3670SOL     OW11908   1.794   5.701   6.682
 3670SOL    HW111909   1.765   5.786   6.638
 3670SOL    HW211910   1.804   5.630   6.612
 3671SOL     OW11911   0.072   1.901   3.817
 3671SOL    HW111912   0.131   1.976   3.787
 3671SOL    HW211913   0.050   1.843   3.738
 3672SOL     OW11914   4.580   2.372   2.322
 3672SOL    HW111915   4.570   2.446   2.388
 3672SOL    HW211916   4.636   2.299   2.362
 3673SOL     OW11917   4.223   6.080   7.009
 3673SOL    HW111918   4.275   6.062   6.925
 3673SOL    HW211919   4.174   5.996   0.011
 3674SOL     OW11920   1.402   5.753   5.434
 3674SOL    HW111921   1.461   5.750   5.354
 3674SOL    HW211922   1.366   5.845   5.446
 3675SOL     OW11923   1.876   3.034   3.857
 3675SOL    HW111924   1.826   2.952   3.827
 3675SOL    HW211925   1.911   3.020   3.949
 3676SOL     OW11926   6.529   4.541   2.745
 3676SOL    HW111927   6.604   4.503   2.692
 3676SOL    HW211928   6.505   4.631   2.709
 3677SOL     OW11929   3.003   6.274   4.452
 3677SOL    HW111930   3.003   6.359   4.399
 3677SOL    HW211931   2.986   6.197   4.391
 3678SOL     OW11932   1.239   1.358   4.428
 3678SOL    HW111933   1.159   1.298   4.435
 3678SOL    HW211934   1.322   1.305   4.443
 3679SOL     OW11935   6.715   0.253   3.297
 3679SOL    HW111936   6.722   0.156   3.273
 3679SOL    HW211937   6.801   0.282   3.341
 3680SOL     OW11938   5.217   3.198   4.074
 3680SOL    HW111939   5.161   3.262   4.126
 3680SOL    HW211940   5.234   3.234   3.983
 3681SOL     OW11941   0.168   1.453   6.404
 3681SOL    HW111942   0.143   1.529   6.344
 3681SOL    HW211943   0.248   1.406   6.367
 3682SOL     OW11944   5.905   3.297   0.038
 3682SOL    HW111945   5.928   3.379   0.090
 3682SOL    HW211946   5.989   3.254   0.005
 3683SOL     OW11947   6.946   1.587   4.189
 3683SOL    HW111948   6.924   1.498   4.150
 3683SOL    HW211949   0.005   1.580   4.244
 3684SOL     OW11950   1.178   5.295   6.838
 3684SOL    HW111951   1.087   5.279   6.799
 3684SOL    HW211952   1.182   5.387   6.877
 3685SOL     OW11953   1.733   5.880   6.517
 3685SOL    HW111954   1.733   5.878   6.417
 3685SOL    HW211955   1.770   5.967   6.549
 3686SOL     OW11956   6.215   4.995   4.782
 3686SOL    HW111957   6.215   4.907   4.734
 3686SOL    HW211958   6.150   5.057   4.739
 3687SOL     OW11959   3.836   6.245   3.920
 3687SOL    HW111960   3.787   6.166   3.881
 3687SOL    HW211961   3.770   6.312   3.954
 3688SOL     OW11962   0.167   3.101   6.909
 3688SOL    HW111963   0.205   3.132   6.996
 3688SOL    HW211964   0.117   3.176   6.866
 3689SOL     OW11965   1.875   0.250   5.551
 3689SOL    HW111966   1.963   0.274   5.592
 3689SOL    HW211967   1.886   0.166   5.497
 3690SOL     OW11968   4.266   5.982   0.325
 3690SOL    HW111969   4.170   6.004   0.341
 3690SOL    HW211970   4.310   6.059   0.278
 3691SOL     OW11971   2.580   1.716   6.976
 3691SOL    HW111972   2.569   1.635   6.919
 3691SOL    HW211973   2.603   1.688   0.045
 3692SOL     OW11974   6.522   5.412   5.426
 3692SOL    HW111975   6.463   5.331   5.425
 3692SOL    HW211976   6.617   5.384   5.411
 3693SOL     OW11977   2.077   3.438   2.893
 3693SOL    HW111978   2.105   3.534   2.884
 3693SOL    HW211979   2.117   3.385   2.819
 3694SOL     OW11980   0.682   6.221   2.343
 3694SOL    HW111981   0.621   6.276   2.287
 3694SOL    HW211982   0.675   6.125   2.315
 3695SOL     OW11983   5.217   2.804   1.583
 3695SOL    HW111984   5.144   2.806   1.515
 3695SOL    HW211985   5.302   2.837   1.542
 3696SOL     OW11986   3.630   0.223   4.002
 3696SOL    HW111987   3.648   0.126   3.985
 3696SOL    HW211988   3.616   0.237   4.100
 3697SOL     OW11989   0.440   6.410   2.805
 3697SOL    HW111990   0.431   6.389   2.708
 3697SOL    HW211991   0.357   6.382   2.853
 3698SOL     OW11992   2.729   0.964   3.851
 3698SOL    HW111993   2.762   0.996   3.762
 3698SOL    HW211994   2.780   0.882   3.878
 3699SOL     OW11995   1.599   1.665   3.780
 3699SOL    HW111996   1.591   1.601   3.704
 3699SOL    HW211997   1.645   1.749   3.749
 3700SOL     OW11998   1.523   5.252   4.941
 3700SOL    HW111999   1.597   5.291   4.886
 3700SOL    HW212000   1.559   5.223   5.030
 3701SOL     OW12001   1.373   0.681   3.984
 3701SOL    HW112002   1.376   0.774   4.021
 3701SOL    HW212003   1.294   0.672   3.924
 3702SOL     OW12004   5.598   6.439   3.695
 3702SOL    HW112005   5.570   6.432   3.599
 3702SOL    HW212006   5.523   6.407   3.753
 3703SOL     OW12007   6.817   0.798   6.577
 3703SOL    HW112008   6.724   0.830   6.589
 3703SOL    HW212009   6.825   0.704   6.611
 3704SOL     OW12010   3.722   2.101   1.059
 3704SOL    HW112011   3.679   2.190   1.045
 3704SOL    HW212012   3.798   2.111   1.123
 3705SOL     OW12013   5.146   4.103   4.917
 3705SOL    HW112014   5.199   4.070   4.995
 3705SOL    HW212015   5.077   4.034   4.892
 3706SOL     OW12016   0.747   3.818   6.900
 3706SOL    HW112017   0.818   3.748   6.904
 3706SOL    HW212018   0.788   3.908   6.916
 3707SOL     OW12019   5.283   5.063   4.696
 3707SOL    HW112020   5.306   4.996   4.767
 3707SOL    HW212021   5.197   5.109   4.722
 3708SOL     OW12022   6.164   0.556   0.412
 3708SOL    HW112023   6.072   0.558   0.374
 3708SOL    HW212024   6.229   0.528   0.342
 3709SOL     OW12025   3.913   0.358   1.636
 3709SOL    HW112026   3.888   0.453   1.620
 3709SOL    HW212027   3.842   0.313   1.690
 3710SOL     OW12028   6.517   5.628   5.259
 3710SOL    HW112029   6.546   5.547   5.308
 3710SOL    HW212030   6.491   5.603   5.166
 3711SOL     OW12031   1.262   5.330   4.711
 3711SOL    HW112032   1.263   5.247   4.767
 3711SOL    HW212033   1.328   5.321   4.637
 3712SOL     OW12034   1.094   5.077   6.202
 3712SOL    HW112035   1.035   5.005   6.238
 3712SOL    HW212036   1.069   5.097   6.107
 3713SOL     OW12037   0.555   6.601   5.142
 3713SOL    HW112038   0.642   6.590   5.189
 3713SOL    HW212039   0.485   6.630   5.207
 3714SOL     OW12040   5.861   6.072   6.379
 3714SOL    HW112041   5.764   6.078   6.406
 3714SOL    HW212042   5.867   6.049   6.282
 3715SOL     OW12043   0.783   3.969   2.329
 3715SOL    HW112044   0.747   3.968   2.422
 3715SOL    HW212045   0.763   4.057   2.286
 3716SOL     OW12046   6.005   6.585   4.148
 3716SOL    HW112047   6.019   6.612   4.053
 3716SOL    HW212048   6.043   6.494   4.163
 3717SOL     OW12049   5.856   0.123   6.789
 3717SOL    HW112050   5.876   0.083   6.699
 3717SOL    HW212051   5.908   0.074   6.859
 3718SOL     OW12052   0.076   0.620   0.575
 3718SOL    HW112053   0.159   0.588   0.530
 3718SOL    HW212054   0.078   0.593   0.671
 3719SOL     OW12055   5.000   3.444   1.393
 3719SOL    HW112056   5.031   3.511   1.326
 3719SOL    HW212057   5.074   3.380   1.413
 3720SOL     OW12058   6.022   3.385   0.441
 3720SOL    HW112059   6.081   3.318   0.396
 3720SOL    HW212060   5.926   3.362   0.424
 3721SOL     OW12061   6.909   4.934   1.999
 3721SOL    HW112062   6.855   4.850   1.994
 3721SOL    HW212063   6.947   4.944   2.090
 3722SOL     OW12064   5.497   6.055   1.012
 3722SOL    HW112065   5.405   6.019   1.027
 3722SOL    HW212066   5.518   6.053   0.914
 3723SOL     OW12067   5.700   4.423   1.030
 3723SOL    HW112068   5.682   4.521   1.016
 3723SOL    HW212069   5.798   4.406   1.018
 3724SOL     OW12070   1.766   4.656   4.796
 3724SOL    HW112071   1.689   4.623   4.851
 3724SOL    HW212072   1.849   4.605   4.820
 3725SOL     OW12073   0.170   5.107   6.889
 3725SOL    HW112074   0.212   5.097   6.980
 3725SOL    HW212075   0.187   5.024   6.836
 3726SOL     OW12076   5.751   3.099   6.167
 3726SOL    HW112077   5.810   3.033   6.121
 3726SOL    HW212078   5.794   3.189   6.165
 3727SOL     OW12079   6.496   2.134   5.448
 3727SOL    HW112080   6.403   2.170   5.457
 3727SOL    HW212081   6.555   2.205   5.409
 3728SOL     OW12082   0.890   3.776   6.547
 3728SOL    HW112083   0.957   3.732   6.607
 3728SOL    HW212084   0.875   3.720   6.466
 3729SOL     OW12085   2.077   1.904   4.083
 3729SOL    HW112086   2.166   1.860   4.093
 3729SOL    HW212087   2.082   1.974   4.011
 3730SOL     OW12088   3.029   5.903   5.318
 3730SOL    HW112089   3.060   5.841   5.245
 3730SOL    HW212090   2.988   5.984   5.276
 3731SOL     OW12091   0.226   1.216   0.298
 3731SOL    HW112092   0.127   1.203   0.299
 3731SOL    HW212093   0.247   1.312   0.320
 3732SOL     OW12094   2.794   2.016   0.206
 3732SOL    HW112095   2.801   2.005   0.107
 3732SOL    HW212096   2.761   1.930   0.246
 3733SOL     OW12097   1.839   3.546   2.740
 3733SOL    HW112098   1.900   3.540   2.819
 3733SOL    HW212099   1.893   3.541   2.656
 3734SOL     OW12100   5.287   0.247   1.262
 3734SOL    HW112101   5.306   0.345   1.264
 3734SOL    HW212102   5.268   0.216   1.355
 3735SOL     OW12103   2.863   1.008   2.784
 3735SOL    HW112104   2.810   1.085   2.820
 3735SOL    HW212105   2.860   0.933   2.850
 3736SOL     OW12106   0.155   1.522   0.938
 3736SOL    HW112107   0.161   1.578   0.855
 3736SOL    HW212108   0.107   1.437   0.917
 3737SOL     OW12109   5.061   0.750   4.285
 3737SOL    HW112110   5.051   0.803   4.201
 3737SOL    HW212111   5.129   0.792   4.344
 3738SOL     OW12112   6.424   0.365   1.553
 3738SOL    HW112113   6.364   0.312   1.493
 3738SOL    HW212114   6.440   0.314   1.637
 3739SOL     OW12115   2.605   5.231   0.783
 3739SOL    HW112116   2.569   5.309   0.732
 3739SOL    HW212117   2.606   5.253   0.881
 3740SOL     OW12118   6.430   6.966   0.536
 3740SOL    HW112119   6.423   6.884   0.480
 3740SOL    HW212120   6.436   6.941   0.633
 3741SOL     OW12121   4.935   2.710   6.024
 3741SOL    HW112122   5.009   2.671   6.078
 3741SOL    HW212123   4.961   2.803   5.996
 3742SOL     OW12124   3.322   1.624   6.828
 3742SOL    HW112125   3.322   1.630   6.728
 3742SOL    HW212126   3.416   1.615   6.861
 3743SOL     OW12127   5.802   3.238   0.646
 3743SOL    HW112128   5.863   3.184   0.703
 3743SOL    HW212129   5.781   3.324   0.692
 3744SOL     OW12130   1.525   6.480   1.758
 3744SOL    HW112131   1.485   6.497   1.849
 3744SOL    HW212132   1.493   6.550   1.694
 3745SOL     OW12133   4.546   4.399   2.636
 3745SOL    HW112134   4.549   4.332   2.562
 3745SOL    HW212135   4.553   4.491   2.597
 3746SOL     OW12136   6.612   0.455   4.028
 3746SOL    HW112137   6.608   0.533   4.091
 3746SOL    HW212138   6.705   0.447   3.991
 3747SOL     OW12139   3.485   5.907   5.157
 3747SOL    HW112140   3.475   5.810   5.179
 3747SOL    HW212141   3.419   5.932   5.086
 3748SOL     OW12142   5.651   1.090   1.677
 3748SOL    HW112143   5.612   1.087   1.769
 3748SOL    HW212144   5.577   1.095   1.610
 3749SOL     OW12145   1.808   4.826   3.069
 3749SOL    HW112146   1.846   4.918   3.072
 3749SOL    HW212147   1.791   4.801   2.974
 3750SOL     OW12148   6.715   5.245   1.344
 3750SOL    HW112149   6.624   5.211   1.320
 3750SOL    HW212150   6.774   5.241   1.264
 3751SOL     OW12151   6.468   3.541   1.448
 3751SOL    HW112152   6.558   3.584   1.434
 3751SOL    HW212153   6.476   3.469   1.516
 3752SOL     OW12154   0.120   6.504   0.708
 3752SOL    HW112155   0.028   6.467   0.693
 3752SOL    HW212156   0.130   6.589   0.655
 3753SOL     OW12157   0.123   0.805   4.074
 3753SOL    HW112158   0.042   0.861   4.094
 3753SOL    HW212159   0.116   0.718   4.122
 3754SOL     OW12160   4.174   6.905   1.309
 3754SOL    HW112161   4.114   6.923   1.387
 3754SOL    HW212162   4.120   6.877   1.230
 3755SOL     OW12163   5.242   5.623   4.523
 3755SOL    HW112164   5.231   5.706   4.577
 3755SOL    HW212165   5.229   5.543   4.582
 3756SOL     OW12166   2.147   5.680   6.491
 3756SOL    HW112167   2.124   5.753   6.427
 3756SOL    HW212168   2.139   5.591   6.445
 3757SOL     OW12169   3.826   6.353   6.424
 3757SOL    HW112170   3.857   6.260   6.408
 3757SOL    HW212171   3.726   6.356   6.421
 3758SOL     OW12172   2.201   1.324   5.228
 3758SOL    HW112173   2.253   1.238   5.230
 3758SOL    HW212174   2.105   1.304   5.207
 3759SOL     OW12175   4.645   5.688   5.868
 3759SOL    HW112176   4.721   5.703   5.932
 3759SOL    HW212177   4.621   5.775   5.825
 3760SOL     OW12178   1.998   1.966   5.258
 3760SOL    HW112179   1.927   1.916   5.307
 3760SOL    HW212180   1.961   2.001   5.172
 3761SOL     OW12181   1.113   0.651   4.842
 3761SOL    HW112182   1.080   0.717   4.909
 3761SOL    HW212183   1.206   0.676   4.813
 3762SOL     OW12184   1.273   4.110   0.234
 3762SOL    HW112185   1.254   4.100   0.136
 3762SOL    HW212186   1.357   4.062   0.257
 3763SOL     OW12187   0.127   4.425   1.101
 3763SOL    HW112188   0.113   4.431   1.002
 3763SOL    HW212189   0.154   4.332   1.126
 3764SOL     OW12190   1.968   6.848   4.030
 3764SOL    HW112191   1.963   6.948   4.025
 3764SOL    HW212192   1.897   6.809   3.971
 3765SOL     OW12193   4.503   0.883   0.848
 3765SOL    HW112194   4.413   0.842   0.833
 3765SOL    HW212195   4.530   0.934   0.766
 3766SOL     OW12196   1.089   1.170   3.850
 3766SOL    HW112197   1.105   1.129   3.940
 3766SOL    HW212198   0.990   1.173   3.833
 3767SOL     OW12199   2.090   4.363   0.531
 3767SOL    HW112200   2.106   4.438   0.595
 3767SOL    HW212201   2.159   4.366   0.459
 3768SOL     OW12202   1.949   6.004   4.756
 3768SOL    HW112203   1.865   5.986   4.807
 3768SOL    HW212204   2.005   6.070   4.806
 3769SOL     OW12205   6.025   6.346   5.422
 3769SOL    HW112206   6.054   6.425   5.368
 3769SOL    HW212207   6.016   6.373   5.518
 3770SOL     OW12208   2.174   0.452   6.963
 3770SOL    HW112209   2.215   0.409   6.883
 3770SOL    HW212210   2.075   0.439   6.961
 3771SOL     OW12211   6.265   3.228   0.332
 3771SOL    HW112212   6.365   3.222   0.327
 3771SOL    HW212213   6.226   3.202   0.244
 3772SOL     OW12214   0.042   0.682   7.011
 3772SOL    HW112215   0.045   0.677   6.911
 3772SOL    HW212216   6.976   0.717   0.015
 3773SOL     OW12217   6.131   2.741   6.254
 3773SOL    HW112218   6.213   2.767   6.306
 3773SOL    HW212219   6.158   2.684   6.176
 3774SOL     OW12220   0.087   5.849   0.247
 3774SOL    HW112221   0.121   5.790   0.175
 3774SOL    HW212222   7.012   5.858   0.239
 3775SOL     OW12223   5.171   5.299   2.427
 3775SOL    HW112224   5.121   5.367   2.372
 3775SOL    HW212225   5.107   5.229   2.459
 3776SOL     OW12226   4.255   1.186   0.911
 3776SOL    HW112227   4.183   1.250   0.883
 3776SOL    HW212228   4.334   1.196   0.851
 3777SOL     OW12229   3.331   4.894   4.109
 3777SOL    HW112230   3.290   4.856   4.191
 3777SOL    HW212231   3.315   4.993   4.107
 3778SOL     OW12232   3.740   4.944   2.307
 3778SOL    HW112233   3.673   4.913   2.240
 3778SOL    HW212234   3.751   5.043   2.301
 3779SOL     OW12235   1.772   4.844   0.702
 3779SOL    HW112236   1.866   4.823   0.674
 3779SOL    HW212237   1.745   4.785   0.777
 3780SOL     OW12238   5.397   6.052   5.108
 3780SOL    HW112239   5.443   5.966   5.087
 3780SOL    HW212240   5.356   6.089   5.024
 3781SOL     OW12241   0.866   6.816   4.755
 3781SOL    HW112242   0.961   6.844   4.768
 3781SOL    HW212243   0.862   6.718   4.734
 3782SOL     OW12244   2.391   0.759   4.071
 3782SOL    HW112245   2.427   0.751   4.164
 3782SOL    HW212246   2.364   0.669   4.038
 3783SOL     OW12247   5.884   5.498   4.149
 3783SOL    HW112248   5.803   5.445   4.123
 3783SOL    HW212249   5.864   5.549   4.233
 3784SOL     OW12250   4.881   2.870   2.167
 3784SOL    HW112251   4.838   2.941   2.111
 3784SOL    HW212252   4.830   2.785   2.159
 3785SOL     OW12253   1.635   1.560   6.363
 3785SOL    HW112254   1.634   1.550   6.463
 3785SOL    HW212255   1.595   1.478   6.321
 3786SOL     OW12256   2.406   6.184   2.757
 3786SOL    HW112257   2.480   6.180   2.689
 3786SOL    HW212258   2.441   6.226   2.841
 3787SOL     OW12259   6.042   0.756   2.490
 3787SOL    HW112260   6.123   0.711   2.453
 3787SOL    HW212261   5.975   0.686   2.517
 3788SOL     OW12262   0.739   4.042   4.581
 3788SOL    HW112263   0.763   4.134   4.610
 3788SOL    HW212264   0.762   3.977   4.653
 3789SOL     OW12265   0.192   3.170   5.539
 3789SOL    HW112266   0.137   3.245   5.501
 3789SOL    HW212267   0.288   3.184   5.514
 3790SOL     OW12268   1.375   4.841   4.919
 3790SOL    HW112269   1.313   4.794   4.856
 3790SOL    HW212270   1.382   4.788   5.004
 3791SOL     OW12271   5.173   0.441   0.446
 3791SOL    HW112272   5.098   0.379   0.469
 3791SOL    HW212273   5.249   0.426   0.509
 3792SOL     OW12274   1.092   1.891   4.914
 3792SOL    HW112275   1.047   1.958   4.855
 3792SOL    HW212276   1.097   1.927   5.007
 3793SOL     OW12277   4.321   6.959   2.787
 3793SOL    HW112278   4.294   6.874   2.833
 3793SOL    HW212279   4.265   0.010   2.823
 3794SOL     OW12280   2.442   4.174   0.434
 3794SOL    HW112281   2.389   4.184   0.519
 3794SOL    HW212282   2.522   4.117   0.451
 3795SOL     OW12283   4.732   6.471   6.505
 3795SOL    HW112284   4.664   6.441   6.573
 3795SOL    HW212285   4.726   6.412   6.425
 3796SOL     OW12286   2.863   1.866   1.977
 3796SOL    HW112287   2.887   1.962   1.963
 3796SOL    HW212288   2.894   1.836   2.068
 3797SOL     OW12289   0.418   4.181   2.467
 3797SOL    HW112290   0.401   4.245   2.542
 3797SOL    HW212291   0.361   4.101   2.478
 3798SOL     OW12292   2.879   5.601   2.539
 3798SOL    HW112293   2.866   5.503   2.524
 3798SOL    HW212294   2.976   5.622   2.541
 3799SOL     OW12295   0.786   2.707   4.619
 3799SOL    HW112296   0.701   2.656   4.605
 3799SOL    HW212297   0.864   2.647   4.600
 3800SOL     OW12298   5.389   3.113   4.268
 3800SOL    HW112299   5.366   3.023   4.307
 3800SOL    HW212300   5.331   3.130   4.189
 3801SOL     OW12301   6.180   6.752   2.924
 3801SOL    HW112302   6.263   6.733   2.976
 3801SOL    HW212303   6.205   6.793   2.836
 3802SOL     OW12304   1.299   2.176   2.627
 3802SOL    HW112305   1.219   2.135   2.582
 3802SOL    HW212306   1.306   2.140   2.720
 3803SOL     OW12307   3.166   2.279   0.837
 3803SOL    HW112308   3.147   2.232   0.923
 3803SOL    HW212309   3.246   2.238   0.793
 3804SOL     OW12310   5.211   1.059   4.072
 3804SOL    HW112311   5.154   1.074   4.152
 3804SOL    HW212312   5.298   1.018   4.100
 3805SOL     OW12313   2.576   3.108   1.407
 3805SOL    HW112314   2.650   3.122   1.472
 3805SOL    HW212315   2.609   3.051   1.331
 3806SOL     OW12316   3.744   3.930   6.598
 3806SOL    HW112317   3.722   3.859   6.665
 3806SOL    HW212318   3.673   4.001   6.601
 3807SOL     OW12319   1.917   5.773   3.162
 3807SOL    HW112320   1.819   5.773   3.142
 3807SOL    HW212321   1.966   5.726   3.088
 3808SOL     OW12322   4.302   0.336   0.884
 3808SOL    HW112323   4.321   0.422   0.931
 3808SOL    HW212324   4.388   0.289   0.863
 3809SOL     OW12325   6.091   3.147   0.812
 3809SOL    HW112326   6.161   3.152   0.741
 3809SOL    HW212327   6.064   3.239   0.839
 3810SOL     OW12328   4.809   2.276   4.255
 3810SOL    HW112329   4.760   2.315   4.177
 3810SOL    HW212330   4.899   2.245   4.226
 3811SOL     OW12331   1.024   4.041   4.259
 3811SOL    HW112332   1.021   3.970   4.189
 3811SOL    HW212333   0.932   4.061   4.291
 3812SOL     OW12334   5.263   0.698   4.819
 3812SOL    HW112335   5.348   0.683   4.871
 3812SOL    HW212336   5.252   0.795   4.801
 3813SOL     OW12337   4.864   4.806   0.444
 3813SOL    HW112338   4.940   4.855   0.400
 3813SOL    HW212339   4.843   4.723   0.391
 3814SOL     OW12340   0.215   6.719   0.559
 3814SOL    HW112341   0.160   6.700   0.477
 3814SOL    HW212342   0.269   6.801   0.544
 3815SOL     OW12343   4.804   3.150   0.031
 3815SOL    HW112344   4.817   3.112   0.123
 3815SOL    HW212345   4.718   3.202   0.028
 3816SOL     OW12346   0.598   5.623   6.873
 3816SOL    HW112347   0.572   5.526   6.875
 3816SOL    HW212348   0.624   5.648   6.779
 3817SOL     OW12349   4.882   3.949   2.320
 3817SOL    HW112350   4.970   3.904   2.339
 3817SOL    HW212351   4.823   3.941   2.400
 3818SOL     OW12352   5.528   0.550   0.395
 3818SOL    HW112353   5.513   0.536   0.493
 3818SOL    HW212354   5.484   0.636   0.367
 3819SOL     OW12355   5.853   5.677   1.374
 3819SOL    HW112356   5.916   5.669   1.450
 3819SOL    HW212357   5.759   5.676   1.408
 3820SOL     OW12358   5.631   6.951   3.185
 3820SOL    HW112359   5.664   7.003   3.107
 3820SOL    HW212360   5.554   6.999   3.228
 3821SOL     OW12361   2.682   1.360   0.706
 3821SOL    HW112362   2.700   1.380   0.609
 3821SOL    HW212363   2.604   1.413   0.737
 3822SOL     OW12364   1.427   6.725   2.508
 3822SOL    HW112365   1.406   6.743   2.412
 3822SOL    HW212366   1.357   6.767   2.566
 3823SOL     OW12367   3.142   2.766   6.282
 3823SOL    HW112368   3.092   2.732   6.361
 3823SOL    HW212369   3.078   2.801   6.214
 3824SOL     OW12370   5.936   2.681   0.606
 3824SOL    HW112371   5.983   2.769   0.604
 3824SOL    HW212372   5.995   2.611   0.565
 3825SOL     OW12373   0.924   6.357   0.619
 3825SOL    HW112374   0.869   6.436   0.645
 3825SOL    HW212375   0.875   6.306   0.548
 3826SOL     OW12376   0.790   2.648   6.963
 3826SOL    HW112377   0.809   2.727   6.904
 3826SOL    HW212378   0.705   2.605   6.934
 3827SOL     OW12379   2.604   2.204   1.306
 3827SOL    HW112380   2.551   2.259   1.241
 3827SOL    HW212381   2.678   2.158   1.259
 3828SOL     OW12382   3.625   2.485   1.717
 3828SOL    HW112383   3.630   2.417   1.789
 3828SOL    HW212384   3.718   2.517   1.694
 3829SOL     OW12385   2.027   4.659   4.571
 3829SOL    HW112386   2.029   4.740   4.629
 3829SOL    HW212387   1.934   4.624   4.566
 3830SOL     OW12388   0.787   0.367   4.277
 3830SOL    HW112389   0.824   0.405   4.361
 3830SOL    HW212390   0.714   0.426   4.242
 3831SOL     OW12391   4.200   2.301   2.294
 3831SOL    HW112392   4.189   2.301   2.393
 3831SOL    HW212393   4.113   2.280   2.250
 3832SOL     OW12394   5.449   0.880   3.020
 3832SOL    HW112395   5.408   0.963   2.982
 3832SOL    HW212396   5.450   0.808   2.950
 3833SOL     OW12397   0.478   5.852   5.901
 3833SOL    HW112398   0.435   5.919   5.962
 3833SOL    HW212399   0.577   5.853   5.916
 3834SOL     OW12400   4.505   3.481   1.706
 3834SOL    HW112401   4.597   3.506   1.737
 3834SOL    HW212402   4.500   3.382   1.692
 3835SOL     OW12403   3.066   5.455   5.486
 3835SOL    HW112404   3.109   5.460   5.576
 3835SOL    HW212405   3.012   5.538   5.471
 3836SOL     OW12406   1.838   4.145   5.647
 3836SOL    HW112407   1.891   4.174   5.567
 3836SOL    HW212408   1.844   4.046   5.657
 3837SOL     OW12409   4.947   4.060   6.914
 3837SOL    HW112410   4.850   4.086   6.909
 3837SOL    HW212411   4.960   3.996   6.989
 3838SOL     OW12412   0.164   3.238   4.886
 3838SOL    HW112413   0.208   3.210   4.801
 3838SOL    HW212414   0.128   3.331   4.875
 3839SOL     OW12415   4.035   0.743   3.931
 3839SOL    HW112416   4.073   0.734   3.838
 3839SOL    HW212417   3.938   0.717   3.930
 3840SOL     OW12418   2.014   1.572   5.514
 3840SOL    HW112419   2.105   1.557   5.476
 3840SOL    HW212420   1.951   1.502   5.480
 3841SOL     OW12421   6.988   3.115   5.641
 3841SOL    HW112422   6.953   3.034   5.594
 3841SOL    HW212423   0.058   3.133   5.611
 3842SOL     OW12424   0.981   4.108   6.703
 3842SOL    HW112425   1.041   4.188   6.704
 3842SOL    HW212426   0.929   4.107   6.618
 3843SOL     OW12427   6.966   4.350   2.529
 3843SOL    HW112428   6.978   4.344   2.628
 3843SOL    HW212429   6.929   4.264   2.495
 3844SOL     OW12430   0.319   3.119   6.501
 3844SOL    HW112431   0.402   3.120   6.557
 3844SOL    HW212432   0.327   3.047   6.432
 3845SOL     OW12433   3.817   2.974   3.049
 3845SOL    HW112434   3.902   3.000   3.095
 3845SOL    HW212435   3.739   2.992   3.110
 3846SOL     OW12436   1.271   4.843   3.921
 3846SOL    HW112437   1.324   4.784   3.860
 3846SOL    HW212438   1.294   4.938   3.903
 3847SOL     OW12439   6.364   0.549   4.589
 3847SOL    HW112440   6.389   0.644   4.571
 3847SOL    HW212441   6.280   0.546   4.642
 3848SOL     OW12442   3.041   5.358   2.788
 3848SOL    HW112443   3.124   5.360   2.843
 3848SOL    HW212444   2.967   5.406   2.837
 3849SOL     OW12445   0.649   1.520   4.974
 3849SOL    HW112446   0.667   1.615   4.951
 3849SOL    HW212447   0.668   1.462   4.895
 3850SOL     OW12448   2.507   3.705   1.567
 3850SOL    HW112449   2.599   3.707   1.607
 3850SOL    HW212450   2.467   3.796   1.572
 3851SOL     OW12451   1.555   4.520   2.919
 3851SOL    HW112452   1.515   4.543   3.008
 3851SOL    HW212453   1.508   4.441   2.880
 3852SOL     OW12454   4.633   6.614   3.792
 3852SOL    HW112455   4.665   6.690   3.848
 3852SOL    HW212456   4.685   6.532   3.814
 3853SOL     OW12457   1.495   2.767   2.897
 3853SOL    HW112458   1.500   2.864   2.874
 3853SOL    HW212459   1.569   2.744   2.960
 3854SOL     OW12460   1.241   3.361   2.448
 3854SOL    HW112461   1.146   3.389   2.460
 3854SOL    HW212462   1.299   3.443   2.441
 3855SOL     OW12463   5.073   6.054   6.436
 3855SOL    HW112464   5.104   6.143   6.402
 3855SOL    HW212465   5.086   6.051   6.535
 3856SOL     OW12466   6.408   6.337   5.661
 3856SOL    HW112467   6.492   6.284   5.654
 3856SOL    HW212468   6.353   6.324   5.579
 3857SOL     OW12469   0.937   5.913   6.142
 3857SOL    HW112470   1.033   5.940   6.145
 3857SOL    HW212471   0.913   5.885   6.049
 3858SOL     OW12472   1.333   6.186   5.333
 3858SOL    HW112473   1.340   6.102   5.280
 3858SOL    HW212474   1.266   6.247   5.290
 3859SOL     OW12475   6.794   2.204   3.215
 3859SOL    HW112476   6.848   2.142   3.272
 3859SOL    HW212477   6.776   2.161   3.127
 3860SOL     OW12478   1.714   0.482   5.515
 3860SOL    HW112479   1.644   0.536   5.469
 3860SOL    HW212480   1.672   0.406   5.565
 3861SOL     OW12481   5.197   4.650   1.915
 3861SOL    HW112482   5.272   4.639   1.980
 3861SOL    HW212483   5.233   4.680   1.826
 3862SOL     OW12484   0.202   6.833   5.163
 3862SOL    HW112485   0.247   6.783   5.237
 3862SOL    HW212486   0.239   6.803   5.075
 3863SOL     OW12487   4.498   2.770   6.286
 3863SOL    HW112488   4.477   2.813   6.198
 3863SOL    HW212489   4.566   2.823   6.335
 3864SOL     OW12490   3.333   1.371   5.143
 3864SOL    HW112491   3.305   1.457   5.187
 3864SOL    HW212492   3.276   1.296   5.177
 3865SOL     OW12493   3.671   0.012   0.739
 3865SOL    HW112494   3.664   0.109   0.763
 3865SOL    HW212495   3.583   6.992   0.754
 3866SOL     OW12496   4.088   0.885   0.888
 3866SOL    HW112497   4.128   0.971   0.919
 3866SOL    HW212498   3.989   0.889   0.898
 3867SOL     OW12499   2.085   3.485   3.701
 3867SOL    HW112500   2.067   3.404   3.758
 3867SOL    HW212501   2.164   3.467   3.642
 3868SOL     OW12502   3.142   6.540   0.978
 3868SOL    HW112503   3.104   6.632   0.988
 3868SOL    HW212504   3.067   6.473   0.975
 3869SOL     OW12505   6.827   3.214   4.565
 3869SOL    HW112506   6.830   3.290   4.501
 3869SOL    HW212507   6.804   3.130   4.515
 3870SOL     OW12508   4.957   5.276   0.925
 3870SOL    HW112509   4.950   5.278   1.025
 3870SOL    HW212510   4.920   5.190   0.891
 3871SOL     OW12511   3.918   0.353   2.676
 3871SOL    HW112512   3.836   0.404   2.703
 3871SOL    HW212513   3.999   0.398   2.715
 3872SOL     OW12514   3.272   2.826   2.111
 3872SOL    HW112515   3.207   2.894   2.143
 3872SOL    HW212516   3.238   2.784   2.027
 3873SOL     OW12517   6.834   5.640   1.273
 3873SOL    HW112518   6.822   5.630   1.174
 3873SOL    HW212519   6.850   5.736   1.295
 3874SOL     OW12520   4.124   5.555   0.159
 3874SOL    HW112521   4.043   5.547   0.102
 3874SOL    HW212522   4.102   5.527   0.252
 3875SOL     OW12523   0.978   2.739   2.200
 3875SOL    HW112524   0.939   2.711   2.289
 3875SOL    HW212525   0.985   2.658   2.141
 3876SOL     OW12526   6.017   5.439   6.959
 3876SOL    HW112527   6.049   5.394   0.018
 3876SOL    HW212528   5.990   5.369   6.892
 3877SOL     OW12529   0.258   2.431   0.274
 3877SOL    HW112530   0.161   2.431   0.299
 3877SOL    HW212531   0.311   2.386   0.346
 3878SOL     OW12532   2.182   6.249   5.281
 3878SOL    HW112533   2.271   6.228   5.241
 3878SOL    HW212534   2.151   6.338   5.246
 3879SOL     OW12535   4.609   6.886   1.158
 3879SOL    HW112536   4.671   6.951   1.201
 3879SOL    HW212537   4.570   6.927   1.076
 3880SOL     OW12538   5.776   4.197   3.777
 3880SOL    HW112539   5.770   4.262   3.853
 3880SOL    HW212540   5.723   4.115   3.799
 3881SOL     OW12541   1.284   5.181   0.411
 3881SOL    HW112542   1.222   5.156   0.485
 3881SOL    HW212543   1.367   5.125   0.416
 3882SOL     OW12544   6.099   1.368   4.764
 3882SOL    HW112545   6.059   1.459   4.771
 3882SOL    HW212546   6.154   1.361   4.681
 3883SOL     OW12547   4.331   1.144   3.269
 3883SOL    HW112548   4.358   1.098   3.354
 3883SOL    HW212549   4.292   1.077   3.206
 3884SOL     OW12550   1.591   5.655   4.027
 3884SOL    HW112551   1.619   5.590   3.957
 3884SOL    HW212552   1.530   5.723   3.986
 3885SOL     OW12553   6.393   1.537   4.276
 3885SOL    HW112554   6.452   1.597   4.222
 3885SOL    HW212555   6.317   1.505   4.220
 3886SOL     OW12556   6.358   0.053   4.825
 3886SOL    HW112557   6.359   6.983   4.858
 3886SOL    HW212558   6.452   0.084   4.809
 3887SOL     OW12559   5.207   1.767   5.715
 3887SOL    HW112560   5.156   1.775   5.801
 3887SOL    HW212561   5.146   1.737   5.642
 3888SOL     OW12562   0.846   0.696   6.575
 3888SOL    HW112563   0.837   0.604   6.535
 3888SOL    HW212564   0.876   0.689   6.670
 3889SOL     OW12565   0.445   3.292   6.327
 3889SOL    HW112566   0.381   3.250   6.391
 3889SOL    HW212567   0.395   3.324   6.246
 3890SOL     OW12568   5.770   6.457   2.968
 3890SOL    HW112569   5.693   6.393   2.962
 3890SOL    HW212570   5.748   6.530   3.032
 3891SOL     OW12571   5.039   4.279   4.755
 3891SOL    HW112572   5.048   4.373   4.788
 3891SOL    HW212573   5.089   4.218   4.816
 3892SOL     OW12574   0.533   0.363   2.227
 3892SOL    HW112575   0.563   0.319   2.142
 3892SOL    HW212576   0.578   0.452   2.236
 3893SOL     OW12577   3.222   5.476   2.284
 3893SOL    HW112578   3.167   5.551   2.249
 3893SOL    HW212579   3.170   5.427   2.355
 3894SOL     OW12580   3.532   2.299   0.950
 3894SOL    HW112581   3.586   2.256   0.878
 3894SOL    HW212582   3.500   2.388   0.919
 3895SOL     OW12583   1.040   1.168   5.422
 3895SOL    HW112584   1.031   1.209   5.512
 3895SOL    HW212585   0.978   1.213   5.358
 3896SOL     OW12586   0.509   2.530   6.167
 3896SOL    HW112587   0.435   2.476   6.206
 3896SOL    HW212588   0.482   2.565   6.077
 3897SOL     OW12589   3.079   6.938   2.016
 3897SOL    HW112590   3.128   6.858   1.980
 3897SOL    HW212591   3.108   7.019   1.965
 3898SOL     OW12592   3.607   2.998   3.298
 3898SOL    HW112593   3.569   2.952   3.379
 3898SOL    HW212594   3.707   2.985   3.297
 3899SOL     OW12595   4.744   1.410   4.412
 3899SOL    HW112596   4.689   1.326   4.412
 3899SOL    HW212597   4.759   1.439   4.507
 3900SOL     OW12598   5.908   3.606   3.798
 3900SOL    HW112599   5.894   3.526   3.739
 3900SOL    HW212600   5.856   3.595   3.882
 3901SOL     OW12601   2.341   6.365   5.836
 3901SOL    HW112602   2.350   6.464   5.828
 3901SOL    HW212603   2.426   6.321   5.807
 3902SOL     OW12604   4.627   4.457   2.187
 3902SOL    HW112605   4.685   4.396   2.242
 3902SOL    HW212606   4.582   4.404   2.116
 3903SOL     OW12607   3.837   3.668   6.700
 3903SOL    HW112608   3.936   3.659   6.685
 3903SOL    HW212609   3.814   3.632   6.791
 3904SOL     OW12610   1.116   0.816   6.533
 3904SOL    HW112611   1.030   0.770   6.511
 3904SOL    HW212612   1.108   0.913   6.512
 3905SOL     OW12613   6.194   6.744   6.571
 3905SOL    HW112614   6.260   6.693   6.626
 3905SOL    HW212615   6.124   6.783   6.631
 3906SOL     OW12616   2.098   5.334   5.070
 3906SOL    HW112617   2.152   5.276   5.132
 3906SOL    HW212618   2.001   5.314   5.083
 3907SOL     OW12619   0.390   1.339   4.669
 3907SOL    HW112620   0.446   1.258   4.682
 3907SOL    HW212621   0.324   1.346   4.745
 3908SOL     OW12622   0.374   1.394   6.691
 3908SOL    HW112623   0.469   1.379   6.666
 3908SOL    HW212624   0.357   1.493   6.699
 3909SOL     OW12625   5.785   4.244   6.206
 3909SOL    HW112626   5.733   4.160   6.193
 3909SOL    HW212627   5.862   4.228   6.266
 3910SOL     OW12628   3.667   3.924   2.095
 3910SOL    HW112629   3.689   3.930   1.998
 3910SOL    HW212630   3.590   3.984   2.116
 3911SOL     OW12631   5.360   1.095   0.693
 3911SOL    HW112632   5.278   1.051   0.658
 3911SOL    HW212633   5.390   1.166   0.629
 3912SOL     OW12634   3.857   0.409   6.357
 3912SOL    HW112635   3.872   0.508   6.356
 3912SOL    HW212636   3.939   0.364   6.391
 3913SOL     OW12637   3.915   5.594   6.944
 3913SOL    HW112638   3.878   5.681   6.909
 3913SOL    HW212639   3.840   5.538   6.980
 3914SOL     OW12640   4.963   1.236   1.830
 3914SOL    HW112641   4.894   1.300   1.796
 3914SOL    HW212642   4.924   1.179   1.902
 3915SOL     OW12643   3.989   6.489   6.904
 3915SOL    HW112644   3.892   6.464   6.903
 3915SOL    HW212645   4.042   6.418   6.948
 3916SOL     OW12646   2.482   6.985   3.043
 3916SOL    HW112647   2.575   6.982   3.009
 3916SOL    HW212648   2.419   6.952   2.972
 3917SOL     OW12649   2.870   5.051   0.161
 3917SOL    HW112650   2.851   5.050   0.063
 3917SOL    HW212651   2.954   5.103   0.179
 3918SOL     OW12652   4.482   0.841   0.412
 3918SOL    HW112653   4.389   0.876   0.426
 3918SOL    HW212654   4.490   0.749   0.449
 3919SOL     OW12655   4.069   0.638   0.423
 3919SOL    HW112656   4.150   0.627   0.365
 3919SOL    HW212657   4.034   0.549   0.450
 3920SOL     OW12658   2.244   0.962   6.722
 3920SOL    HW112659   2.337   0.998   6.710
 3920SOL    HW212660   2.199   1.012   6.796
 3921SOL     OW12661   0.058   2.593   6.990
 3921SOL    HW112662   0.064   2.674   6.933
 3921SOL    HW212663   6.988   2.561   6.994
 3922SOL     OW12664   4.897   5.313   1.210
 3922SOL    HW112665   4.841   5.396   1.219
 3922SOL    HW212666   4.874   5.249   1.284
 3923SOL     OW12667   5.622   1.680   1.229
 3923SOL    HW112668   5.529   1.650   1.207
 3923SOL    HW212669   5.679   1.600   1.249
 3924SOL     OW12670   0.723   4.404   2.991
 3924SOL    HW112671   0.683   4.333   3.050
 3924SOL    HW212672   0.656   4.477   2.979
 3925SOL     OW12673   4.583   4.506   1.628
 3925SOL    HW112674   4.624   4.480   1.715
 3925SOL    HW212675   4.519   4.435   1.598
 3926SOL     OW12676   0.786   0.001   5.739
 3926SOL    HW112677   0.690   0.012   5.714
 3926SOL    HW212678   0.837   6.993   5.659
 3927SOL     OW12679   0.787   3.039   3.987
 3927SOL    HW112680   0.870   3.094   3.996
 3927SOL    HW212681   0.710   3.099   3.962
 3928SOL     OW12682   2.630   6.669   2.199
 3928SOL    HW112683   2.558   6.731   2.170
 3928SOL    HW212684   2.712   6.685   2.144
 3929SOL     OW12685   0.125   1.047   0.054
 3929SOL    HW112686   0.087   1.111   0.121
 3929SOL    HW212687   0.201   0.997   0.095
 3930SOL     OW12688   0.999   1.925   4.307
 3930SOL    HW112689   0.934   1.904   4.234
 3930SOL    HW212690   1.093   1.914   4.272
 3931SOL     OW12691   1.912   1.971   2.018
 3931SOL    HW112692   1.916   2.006   1.924
 3931SOL    HW212693   1.995   1.918   2.037
 3932SOL     OW12694   2.526   5.348   3.804
 3932SOL    HW112695   2.455   5.280   3.785
 3932SOL    HW212696   2.548   5.398   3.720
 3933SOL     OW12697   0.934   6.347   0.230
 3933SOL    HW112698   1.014   6.405   0.244
 3933SOL    HW212699   0.964   6.255   0.202
 3934SOL     OW12700   0.251   1.534   2.878
 3934SOL    HW112701   0.212   1.444   2.859
 3934SOL    HW212702   0.233   1.559   2.973
 3935SOL     OW12703   6.731   2.379   6.184
 3935SOL    HW112704   6.762   2.386   6.089
 3935SOL    HW212705   6.736   2.284   6.214
 3936SOL     OW12706   6.506   6.045   5.759
 3936SOL    HW112707   6.529   6.010   5.668
 3936SOL    HW212708   6.468   5.972   5.815
 3937SOL     OW12709   0.695   5.810   2.731
 3937SOL    HW112710   0.667   5.829   2.636
 3937SOL    HW212711   0.795   5.811   2.737
 3938SOL     OW12712   6.879   3.368   4.338
 3938SOL    HW112713   6.956   3.370   4.273
 3938SOL    HW212714   6.795   3.345   4.288
 3939SOL     OW12715   2.157   1.579   3.793
 3939SOL    HW112716   2.117   1.666   3.764
 3939SOL    HW212717   2.102   1.503   3.758
 3940SOL     OW12718   3.005   4.909   1.958
 3940SOL    HW112719   3.026   4.848   1.881
 3940SOL    HW212720   2.906   4.910   1.973
 3941SOL     OW12721   5.906   6.870   4.178
 3941SOL    HW112722   5.923   6.925   4.097
 3941SOL    HW212723   5.958   6.785   4.172
 3942SOL     OW12724   0.847   6.088   5.571
 3942SOL    HW112725   0.849   6.126   5.663
 3942SOL    HW212726   0.761   6.039   5.557
 3943SOL     OW12727   0.959   3.556   1.580
 3943SOL    HW112728   1.039   3.497   1.580
 3943SOL    HW212729   0.904   3.538   1.661
 3944SOL     OW12730   5.703   3.251   5.878
 3944SOL    HW112731   5.758   3.276   5.959
 3944SOL    HW212732   5.686   3.153   5.879
 3945SOL     OW12733   0.814   2.597   3.331
 3945SOL    HW112734   0.873   2.640   3.263
 3945SOL    HW212735   0.837   2.501   3.340
 3946SOL     OW12736   6.940   3.684   6.785
 3946SOL    HW112737   6.877   3.760   6.804
 3946SOL    HW212738   6.939   3.620   6.861
 3947SOL     OW12739   6.029   5.300   0.182
 3947SOL    HW112740   5.935   5.300   0.213
 3947SOL    HW212741   6.091   5.306   0.260
 3948SOL     OW12742   1.617   3.410   6.914
 3948SOL    HW112743   1.649   3.436   6.823
 3948SOL    HW212744   1.636   3.313   6.930
 3949SOL     OW12745   6.229   0.105   3.154
 3949SOL    HW112746   6.282   0.043   3.212
 3949SOL    HW212747   6.173   0.165   3.212
 3950SOL     OW12748   4.231   4.143   1.736
 3950SOL    HW112749   4.229   4.043   1.734
 3950SOL    HW212750   4.318   4.174   1.774
 3951SOL     OW12751   0.426   2.144   6.492
 3951SOL    HW112752   0.328   2.152   6.472
 3951SOL    HW212753   0.450   2.204   6.569
 3952SOL     OW12754   6.072   2.839   3.785
 3952SOL    HW112755   6.066   2.740   3.796
 3952SOL    HW212756   6.161   2.863   3.744
 3953SOL     OW12757   3.088   4.813   6.063
 3953SOL    HW112758   3.002   4.843   6.104
 3953SOL    HW212759   3.082   4.717   6.037
 3954SOL     OW12760   6.251   4.170   5.657
 3954SOL    HW112761   6.349   4.178   5.670
 3954SOL    HW212762   6.213   4.259   5.633
 3955SOL     OW12763   4.921   6.608   0.222
 3955SOL    HW112764   4.827   6.642   0.214
 3955SOL    HW212765   4.943   6.592   0.318
 3956SOL     OW12766   0.815   2.765   5.541
 3956SOL    HW112767   0.739   2.722   5.493
 3956SOL    HW212768   0.899   2.755   5.488
 3957SOL     OW12769   3.282   6.137   4.104
 3957SOL    HW112770   3.242   6.122   4.194
 3957SOL    HW212771   3.319   6.229   4.098
 3958SOL     OW12772   5.602   6.465   0.168
 3958SOL    HW112773   5.695   6.449   0.200
 3958SOL    HW212774   5.547   6.382   0.180
 3959SOL     OW12775   3.486   6.164   1.220
 3959SOL    HW112776   3.497   6.226   1.142
 3959SOL    HW212777   3.571   6.158   1.271
 3960SOL     OW12778   4.831   2.717   6.548
 3960SOL    HW112779   4.757   2.657   6.519
 3960SOL    HW212780   4.813   2.749   6.642
 3961SOL     OW12781   4.754   2.157   2.286
 3961SOL    HW112782   4.768   2.239   2.231
 3961SOL    HW212783   4.731   2.080   2.226
 3962SOL     OW12784   0.788   5.986   6.745
 3962SOL    HW112785   0.716   5.921   6.721
 3962SOL    HW212786   0.870   5.937   6.775
 3963SOL     OW12787   5.906   5.690   3.278
 3963SOL    HW112788   5.929   5.618   3.344
 3963SOL    HW212789   5.853   5.650   3.203
 3964SOL     OW12790   4.347   5.862   5.122
 3964SOL    HW112791   4.446   5.868   5.131
 3964SOL    HW212792   4.319   5.766   5.130
 3965SOL     OW12793   3.442   4.665   6.337
 3965SOL    HW112794   3.513   4.689   6.271
 3965SOL    HW212795   3.481   4.610   6.410
 3966SOL     OW12796   6.393   4.725   6.592
 3966SOL    HW112797   6.347   4.723   6.680
 3966SOL    HW212798   6.419   4.819   6.570
 3967SOL     OW12799   0.670   5.097   3.815
 3967SOL    HW112800   0.575   5.119   3.838
 3967SOL    HW212801   0.672   5.012   3.762
 3968SOL     OW12802   5.672   0.421   2.770
 3968SOL    HW112803   5.616   0.456   2.696
 3968SOL    HW212804   5.631   0.338   2.807
 3969SOL     OW12805   1.201   4.397   2.678
 3969SOL    HW112806   1.194   4.484   2.630
 3969SOL    HW212807   1.132   4.333   2.643
 3970SOL     OW12808   4.774   5.042   3.482
 3970SOL    HW112809   4.801   5.016   3.389
 3970SOL    HW212810   4.851   5.083   3.529
 3971SOL     OW12811   2.979   5.344   3.064
 3971SOL    HW112812   2.897   5.290   3.081
 3971SOL    HW212813   2.955   5.441   3.061
 3972SOL     OW12814   0.125   5.948   0.713
 3972SOL    HW112815   0.093   5.977   0.623
 3972SOL    HW212816   0.047   5.940   0.775
 3973SOL     OW12817   3.240   3.168   5.414
 3973SOL    HW112818   3.299   3.105   5.363
 3973SOL    HW212819   3.148   3.167   5.374
 3974SOL     OW12820   0.541   1.135   6.232
 3974SOL    HW112821   0.587   1.104   6.316
 3974SOL    HW212822   0.604   1.191   6.178
 3975SOL     OW12823   6.402   0.678   5.857
 3975SOL    HW112824   6.443   0.619   5.927
 3975SOL    HW212825   6.467   0.690   5.782
 3976SOL     OW12826   1.084   4.947   1.188
 3976SOL    HW112827   1.009   4.898   1.144
 3976SOL    HW212828   1.064   4.958   1.285
 3977SOL     OW12829   2.777   5.412   6.111
 3977SOL    HW112830   2.811   5.435   6.020
 3977SOL    HW212831   2.682   5.443   6.120
 3978SOL     OW12832   5.708   1.149   5.162
 3978SOL    HW112833   5.625   1.133   5.108
 3978SOL    HW212834   5.786   1.162   5.100
 3979SOL     OW12835   1.784   6.983   1.810
 3979SOL    HW112836   1.695   6.995   1.853
 3979SOL    HW212837   1.776   6.916   1.736
 3980SOL     OW12838   6.446   3.648   5.253
 3980SOL    HW112839   6.438   3.723   5.318
 3980SOL    HW212840   6.365   3.591   5.257
 3981SOL     OW12841   0.139   1.588   6.174
 3981SOL    HW112842   0.141   1.653   6.098
 3981SOL    HW212843   0.054   1.536   6.172
 3982SOL     OW12844   2.760   0.834   4.774
 3982SOL    HW112845   2.829   0.905   4.764
 3982SOL    HW212846   2.679   0.872   4.819
 3983SOL     OW12847   3.308   6.175   4.381
 3983SOL    HW112848   3.228   6.235   4.378
 3983SOL    HW212849   3.369   6.204   4.454
 3984SOL     OW12850   1.981   0.134   1.709
 3984SOL    HW112851   1.966   0.178   1.621
 3984SOL    HW212852   1.905   0.071   1.728
 3985SOL     OW12853   2.051   3.730   6.931
 3985SOL    HW112854   1.985   3.669   6.887
 3985SOL    HW212855   2.059   3.705   0.003
 3986SOL     OW12856   0.023   1.834   2.702
 3986SOL    HW112857   6.955   1.864   2.726
 3986SOL    HW212858   0.064   1.898   2.637
 3987SOL     OW12859   1.891   5.622   4.914
 3987SOL    HW112860   1.956   5.697   4.929
 3987SOL    HW212861   1.939   5.544   4.874
 3988SOL     OW12862   3.606   1.609   5.765
 3988SOL    HW112863   3.600   1.517   5.727
 3988SOL    HW212864   3.544   1.670   5.715
 3989SOL     OW12865   6.073   0.389   5.995
 3989SOL    HW112866   6.055   0.382   5.897
 3989SOL    HW212867   6.121   0.307   6.027
 3990SOL     OW12868   5.586   2.538   4.968
 3990SOL    HW112869   5.617   2.623   4.926
 3990SOL    HW212870   5.577   2.467   4.898
 3991SOL     OW12871   6.780   2.705   3.141
 3991SOL    HW112872   6.749   2.794   3.109
 3991SOL    HW212873   6.789   2.642   3.064
 3992SOL     OW12874   4.445   2.929   6.968
 3992SOL    HW112875   4.371   2.994   6.985
 3992SOL    HW212876   4.504   2.964   6.895
 3993SOL     OW12877   2.624   2.156   3.328
 3993SOL    HW112878   2.615   2.058   3.308
 3993SOL    HW212879   2.562   2.181   3.402
 3994SOL     OW12880   2.276   2.732   5.028
 3994SOL    HW112881   2.179   2.755   5.035
 3994SOL    HW212882   2.329   2.815   5.009
 3995SOL     OW12883   2.476   4.661   3.487
 3995SOL    HW112884   2.461   4.567   3.454
 3995SOL    HW212885   2.557   4.699   3.441
 3996SOL     OW12886   2.104   1.332   4.853
 3996SOL    HW112887   2.117   1.243   4.896
 3996SOL    HW212888   2.014   1.368   4.877
 3997SOL     OW12889   4.860   3.667   3.404
 3997SOL    HW112890   4.866   3.731   3.327
 3997SOL    HW212891   4.803   3.707   3.476
 3998SOL     OW12892   5.593   2.238   2.104
 3998SOL    HW112893   5.688   2.255   2.080
 3998SOL    HW212894   5.550   2.182   2.032
 3999SOL     OW12895   6.412   4.003   3.468
 3999SOL    HW112896   6.365   4.057   3.537
 3999SOL    HW212897   6.349   3.983   3.393
 4000SOL     OW12898   3.352   5.288   2.970
 4000SOL    HW112899   3.284   5.215   2.973
 4000SOL    HW212900   3.322   5.364   3.028
 4001SOL     OW12901   2.449   3.676   5.353
 4001SOL    HW112902   2.548   3.662   5.353
 4001SOL    HW212903   2.427   3.757   5.299
 4002SOL     OW12904   3.535   3.382   4.439
 4002SOL    HW112905   3.454   3.362   4.383
 4002SOL    HW212906   3.537   3.479   4.462
 4003SOL     OW12907   2.200   1.223   6.525
 4003SOL    HW112908   2.252   1.170   6.458
 4003SOL    HW212909   2.103   1.226   6.498
 4004SOL     OW12910   6.499   3.166   4.554
 4004SOL    HW112911   6.496   3.078   4.507
 4004SOL    HW212912   6.594   3.194   4.566
 4005SOL     OW12913   4.875   4.834   1.398
 4005SOL    HW112914   4.800   4.899   1.388
 4005SOL    HW212915   4.838   4.744   1.420
 4006SOL     OW12916   5.745   4.764   2.344
 4006SOL    HW112917   5.760   4.811   2.431
 4006SOL    HW212918   5.803   4.682   2.341
 4007SOL     OW12919   0.543   2.294   2.978
 4007SOL    HW112920   0.501   2.381   3.006
 4007SOL    HW212921   0.495   2.258   2.898
 4008SOL     OW12922   3.322   0.766   6.086
 4008SOL    HW112923   3.407   0.722   6.057
 4008SOL    HW212924   3.244   0.708   6.061
 4009SOL     OW12925   4.365   2.020   1.340
 4009SOL    HW112926   4.443   2.017   1.404
 4009SOL    HW212927   4.340   2.115   1.324
 4010SOL     OW12928   3.200   3.372   1.807
 4010SOL    HW112929   3.173   3.275   1.811
 4010SOL    HW212930   3.298   3.379   1.788
 4011SOL     OW12931   0.115   6.295   2.157
 4011SOL    HW112932   0.091   6.384   2.117
 4011SOL    HW212933   0.163   6.310   2.244
 4012SOL     OW12934   4.359   6.569   2.432
 4012SOL    HW112935   4.359   6.668   2.441
 4012SOL    HW212936   4.394   6.527   2.516
 4013SOL     OW12937   2.195   0.616   1.160
 4013SOL    HW112938   2.249   0.589   1.240
 4013SOL    HW212939   2.255   0.628   1.082
 4014SOL     OW12940   3.605   5.619   3.782
 4014SOL    HW112941   3.593   5.718   3.796
 4014SOL    HW212942   3.674   5.604   3.712
 4015SOL     OW12943   4.956   4.930   6.990
 4015SOL    HW112944   4.880   4.988   6.960
 4015SOL    HW212945   5.029   4.932   6.921
 4016SOL     OW12946   2.688   6.037   6.926
 4016SOL    HW112947   2.717   5.985   6.846
 4016SOL    HW212948   2.646   5.976   6.993
 4017SOL     OW12949   0.645   6.039   6.117
 4017SOL    HW112950   0.723   5.999   6.068
 4017SOL    HW212951   0.675   6.116   6.171
 4018SOL     OW12952   4.775   6.354   1.466
 4018SOL    HW112953   4.867   6.360   1.428
 4018SOL    HW212954   4.767   6.417   1.543
 4019SOL     OW12955   5.901   4.459   2.944
 4019SOL    HW112956   5.885   4.362   2.923
 4019SOL    HW212957   5.815   4.509   2.937
 4020SOL     OW12958   6.759   3.135   5.824
 4020SOL    HW112959   6.847   3.149   5.778
 4020SOL    HW212960   6.685   3.140   5.757
 4021SOL     OW12961   3.585   4.081   4.996
 4021SOL    HW112962   3.486   4.067   5.002
 4021SOL    HW212963   3.613   4.150   5.063
 4022SOL     OW12964   4.232   6.834   6.794
 4022SOL    HW112965   4.277   6.766   6.852
 4022SOL    HW212966   4.284   6.848   6.711
 4023SOL     OW12967   0.181   0.289   5.065
 4023SOL    HW112968   0.213   0.200   5.097
 4023SOL    HW212969   0.111   0.277   4.996
 4024SOL     OW12970   2.423   5.074   4.129
 4024SOL    HW112971   2.328   5.095   4.107
 4024SOL    HW212972   2.446   4.983   4.094
 4025SOL     OW12973   0.819   6.017   4.055
 4025SOL    HW112974   0.784   6.101   4.096
 4025SOL    HW212975   0.742   5.961   4.025
 4026SOL     OW12976   5.965   6.967   3.720
 4026SOL    HW112977   5.912   6.958   3.636
 4026SOL    HW212978   5.971   6.877   3.765
 4027SOL     OW12979   3.118   2.260   0.245
 4027SOL    HW112980   3.049   2.327   0.218
 4027SOL    HW212981   3.142   2.275   0.341
 4028SOL     OW12982   3.983   1.870   3.606
 4028SOL    HW112983   4.019   1.790   3.558
 4028SOL    HW212984   4.025   1.875   3.697
 4029SOL     OW12985   2.777   4.561   5.879
 4029SOL    HW112986   2.677   4.563   5.873
 4029SOL    HW212987   2.816   4.617   5.806
 4030SOL     OW12988   6.838   1.362   2.021
 4030SOL    HW112989   6.900   1.301   1.972
 4030SOL    HW212990   6.828   1.447   1.970
 4031SOL     OW12991   5.549   5.491   3.431
 4031SOL    HW112992   5.531   5.512   3.527
 4031SOL    HW212993   5.471   5.518   3.375
 4032SOL     OW12994   6.827   0.025   1.670
 4032SOL    HW112995   6.806   0.005   1.765
 4032SOL    HW212996   6.753   7.016   1.611
 4033SOL     OW12997   2.295   3.079   1.421
 4033SOL    HW112998   2.237   3.152   1.457
 4033SOL    HW212999   2.389   3.110   1.417
 4034SOL     OW13000   6.039   1.632   4.684
 4034SOL    HW113001   6.115   1.684   4.645
 4034SOL    HW213002   6.033   1.650   4.782
 4035SOL     OW13003   6.442   1.777   1.004
 4035SOL    HW113004   6.412   1.862   1.047
 4035SOL    HW213005   6.379   1.753   0.930
 4036SOL     OW13006   4.205   5.169   2.113
 4036SOL    HW113007   4.109   5.194   2.101
 4036SOL    HW213008   4.215   5.116   2.197
 4037SOL     OW13009   2.065   1.731   6.919
 4037SOL    HW113010   2.024   1.721   7.009
 4037SOL    HW213011   2.164   1.719   6.925
 4038SOL     OW13012   4.696   2.559   1.301
 4038SOL    HW113013   4.728   2.534   1.392
 4038SOL    HW213014   4.606   2.601   1.307
 4039SOL     OW13015   5.883   5.921   1.134
 4039SOL    HW113016   5.981   5.941   1.136
 4039SOL    HW213017   5.832   6.007   1.133
 4040SOL     OW13018   3.620   0.063   5.616
 4040SOL    HW113019   3.673   0.034   5.696
 4040SOL    HW213020   3.627   7.017   5.545
 4041SOL     OW13021   1.108   5.543   1.570
 4041SOL    HW113022   1.164   5.461   1.560
 4041SOL    HW213023   1.012   5.520   1.549
 4042SOL     OW13024   6.326   5.697   3.417
 4042SOL    HW113025   6.324   5.793   3.389
 4042SOL    HW213026   6.315   5.639   3.336
 4043SOL     OW13027   6.546   2.747   5.103
 4043SOL    HW113028   6.532   2.649   5.094
 4043SOL    HW213029   6.572   2.786   5.014
 4044SOL     OW13030   4.393   0.116   3.565
 4044SOL    HW113031   4.372   0.103   3.662
 4044SOL    HW213032   4.318   0.078   3.510
 4045SOL     OW13033   3.884   6.387   5.303
 4045SOL    HW113034   3.912   6.313   5.242
 4045SOL    HW213035   3.924   6.372   5.394
 4046SOL     OW13036   1.608   1.857   4.294
 4046SOL    HW113037   1.668   1.923   4.338
 4046SOL    HW213038   1.610   1.871   4.194
 4047SOL     OW13039   2.037   2.437   0.763
 4047SOL    HW113040   1.994   2.509   0.708
 4047SOL    HW213041   2.004   2.443   0.857
 4048SOL     OW13042   5.141   1.613   2.015
 4048SOL    HW113043   5.097   1.578   2.098
 4048SOL    HW213044   5.107   1.705   1.996
 4049SOL     OW13045   5.454   5.268   6.517
 4049SOL    HW113046   5.411   5.190   6.563
 4049SOL    HW213047   5.403   5.290   6.433
 4050SOL     OW13048   0.990   6.811   1.994
 4050SOL    HW113049   0.957   6.724   1.955
 4050SOL    HW213050   1.082   6.798   2.030
 4051SOL     OW13051   4.457   1.964   6.385
 4051SOL    HW113052   4.523   1.960   6.460
 4051SOL    HW213053   4.447   2.059   6.354
 4052SOL     OW13054   6.574   1.242   2.197
 4052SOL    HW113055   6.559   1.145   2.177
 4052SOL    HW213056   6.671   1.263   2.190
 4053SOL     OW13057   3.330   5.905   3.938
 4053SOL    HW113058   3.287   5.901   3.848
 4053SOL    HW213059   3.324   5.998   3.974
 4054SOL     OW13060   6.562   4.245   1.606
 4054SOL    HW113061   6.493   4.241   1.534
 4054SOL    HW213062   6.632   4.176   1.589
 4055SOL     OW13063   2.979   3.431   6.930
 4055SOL    HW113064   2.913   3.503   6.952
 4055SOL    HW213065   2.934   3.357   6.881
 4056SOL     OW13066   4.696   3.883   0.455
 4056SOL    HW113067   4.731   3.796   0.421
 4056SOL    HW213068   4.661   3.871   0.548
 4057SOL     OW13069   6.784   2.699   1.182
 4057SOL    HW113070   6.788   2.625   1.115
 4057SOL    HW213071   6.865   2.697   1.239
 4058SOL     OW13072   2.218   0.285   4.712
 4058SOL    HW113073   2.284   0.343   4.761
 4058SOL    HW213074   2.134   0.336   4.696
 4059SOL     OW13075   0.664   1.705   2.590
 4059SOL    HW113076   0.639   1.623   2.537
 4059SOL    HW213077   0.593   1.774   2.579
 4060SOL     OW13078   5.228   5.674   4.922
 4060SOL    HW113079   5.220   5.743   4.994
 4060SOL    HW213080   5.173   5.594   4.945
 4061SOL     OW13081   2.866   4.776   2.245
 4061SOL    HW113082   2.956   4.816   2.260
 4061SOL    HW213083   2.875   4.677   2.232
 4062SOL     OW13084   2.073   1.617   2.371
 4062SOL    HW113085   1.979   1.610   2.336
 4062SOL    HW213086   2.136   1.631   2.295
 4063SOL     OW13087   6.221   6.712   6.849
 4063SOL    HW113088   6.236   6.613   6.843
 4063SOL    HW213089   6.174   6.733   6.935
 4064SOL     OW13090   2.506   0.290   4.138
 4064SOL    HW113091   2.465   0.210   4.094
 4064SOL    HW213092   2.531   0.267   4.232
 4065SOL     OW13093   1.096   6.674   1.282
 4065SOL    HW113094   1.008   6.658   1.238
 4065SOL    HW213095   1.168   6.629   1.229
 4066SOL     OW13096   5.635   5.058   3.615
 4066SOL    HW113097   5.731   5.048   3.589
 4066SOL    HW213098   5.628   5.072   3.714
 4067SOL     OW13099   6.564   3.130   2.839
 4067SOL    HW113100   6.497   3.185   2.790
 4067SOL    HW213101   6.523   3.043   2.866
 4068SOL     OW13102   2.086   1.422   4.484
 4068SOL    HW113103   2.116   1.468   4.400
 4068SOL    HW213104   2.122   1.329   4.486
 4069SOL     OW13105   2.231   5.326   6.620
 4069SOL    HW113106   2.316   5.275   6.609
 4069SOL    HW213107   2.159   5.284   6.565
 4070SOL     OW13108   0.399   3.676   2.229
 4070SOL    HW113109   0.470   3.618   2.268
 4070SOL    HW213110   0.348   3.625   2.161
 4071SOL     OW13111   1.625   0.806   5.237
 4071SOL    HW113112   1.685   0.880   5.266
 4071SOL    HW213113   1.580   0.765   5.317
 4072SOL     OW13114   0.486   5.200   4.156
 4072SOL    HW113115   0.489   5.119   4.213
 4072SOL    HW213116   0.578   5.241   4.151
 4073SOL     OW13117   2.433   6.225   6.179
 4073SOL    HW113118   2.338   6.251   6.163
 4073SOL    HW213119   2.440   6.172   6.263
 4074SOL     OW13120   0.020   3.659   1.744
 4074SOL    HW113121   0.029   3.743   1.798
 4074SOL    HW213122   0.109   3.636   1.705
 4075SOL     OW13123   4.242   1.985   2.093
 4075SOL    HW113124   4.294   2.006   2.175
 4075SOL    HW213125   4.253   2.058   2.026
 4076SOL     OW13126   2.676   2.766   5.435
 4076SOL    HW113127   2.620   2.758   5.353
 4076SOL    HW213128   2.617   2.792   5.513
 4077SOL     OW13129   3.143   0.968   0.072
 4077SOL    HW113130   3.215   0.906   0.105
 4077SOL    HW213131   3.136   0.961   6.996
 4078SOL     OW13132   0.539   5.992   1.489
 4078SOL    HW113133   0.619   5.948   1.528
 4078SOL    HW213134   0.568   6.058   1.419
 4079SOL     OW13135   1.225   1.484   3.703
 4079SOL    HW113136   1.246   1.407   3.764
 4079SOL    HW213137   1.310   1.521   3.666
 4080SOL     OW13138   3.267   4.397   6.665
 4080SOL    HW113139   3.348   4.428   6.616
 4080SOL    HW213140   3.272   4.298   6.680
 4081SOL     OW13141   1.992   2.545   4.879
 4081SOL    HW113142   1.909   2.493   4.900
 4081SOL    HW213143   1.977   2.600   4.797
 4082SOL     OW13144   1.243   3.408   0.697
 4082SOL    HW113145   1.238   3.479   0.627
 4082SOL    HW213146   1.264   3.320   0.655
 4083SOL     OW13147   6.819   4.429   2.121
 4083SOL    HW113148   6.912   4.459   2.098
 4083SOL    HW213149   6.792   4.355   2.059
 4084SOL     OW13150   4.899   2.431   3.653
 4084SOL    HW113151   4.852   2.469   3.733
 4084SOL    HW213152   4.851   2.457   3.570
 4085SOL     OW13153   2.060   5.949   1.180
 4085SOL    HW113154   2.040   5.852   1.171
 4085SOL    HW213155   2.140   5.972   1.125
 4086SOL     OW13156   1.356   5.341   1.823
 4086SOL    HW113157   1.402   5.292   1.897
 4086SOL    HW213158   1.382   5.300   1.735
 4087SOL     OW13159   1.371   1.664   3.009
 4087SOL    HW113160   1.299   1.727   3.037
 4087SOL    HW213161   1.338   1.607   2.934
 4088SOL     OW13162   6.459   1.078   6.457
 4088SOL    HW113163   6.471   1.176   6.441
 4088SOL    HW213164   6.519   1.027   6.395
 4089SOL     OW13165   6.070   5.719   4.509
 4089SOL    HW113166   6.065   5.645   4.577
 4089SOL    HW213167   6.162   5.722   4.470
 4090SOL     OW13168   1.577   5.457   5.249
 4090SOL    HW113169   1.499   5.403   5.282
 4090SOL    HW213170   1.623   5.500   5.327
 4091SOL     OW13171   6.568   6.572   6.542
 4091SOL    HW113172   6.658   6.589   6.581
 4091SOL    HW213173   6.577   6.527   6.454
 4092SOL     OW13174   6.119   2.680   5.326
 4092SOL    HW113175   6.025   2.704   5.350
 4092SOL    HW213176   6.153   2.744   5.257
 4093SOL     OW13177   4.691   5.986   2.202
 4093SOL    HW113178   4.747   6.052   2.154
 4093SOL    HW213179   4.595   6.013   2.197
 4094SOL     OW13180   1.821   5.689   5.501
 4094SOL    HW113181   1.830   5.610   5.561
 4094SOL    HW213182   1.825   5.659   5.405
 4095SOL     OW13183   1.178   3.350   0.214
 4095SOL    HW113184   1.119   3.431   0.206
 4095SOL    HW213185   1.236   3.343   0.132
 4096SOL     OW13186   4.812   6.688   6.108
 4096SOL    HW113187   4.744   6.678   6.035
 4096SOL    HW213188   4.770   6.666   6.196
 4097SOL     OW13189   4.186   4.700   5.237
 4097SOL    HW113190   4.214   4.607   5.213
 4097SOL    HW213191   4.133   4.739   5.162
 4098SOL     OW13192   6.628   2.488   1.573
 4098SOL    HW113193   6.622   2.389   1.585
 4098SOL    HW213194   6.722   2.519   1.591
 4099SOL     OW13195   3.075   5.370   1.340
 4099SOL    HW113196   2.982   5.389   1.370
 4099SOL    HW213197   3.130   5.342   1.419
 4100SOL     OW13198   6.640   0.044   4.830
 4100SOL    HW113199   6.710   0.000   4.774
 4100SOL    HW213200   6.648   0.011   4.924
 4101SOL     OW13201   6.429   1.281   6.970
 4101SOL    HW113202   6.513   1.254   6.923
 4101SOL    HW213203   6.401   1.207   0.007
 4102SOL     OW13204   0.161   1.006   0.632
 4102SOL    HW113205   0.200   0.956   0.709
 4102SOL    HW213206   0.182   1.104   0.642
 4103SOL     OW13207   6.898   0.046   0.118
 4103SOL    HW113208   6.862   0.053   0.211
 4103SOL    HW213209   6.830   0.081   0.053
 4104SOL     OW13210   0.403   4.672   3.085
 4104SOL    HW113211   0.500   4.650   3.085
 4104SOL    HW213212   0.382   4.730   3.165
 4105SOL     OW13213   5.186   7.007   1.512
 4105SOL    HW113214   5.282   6.982   1.528
 4105SOL    HW213215   5.127   6.945   1.564
 4106SOL     OW13216   6.352   3.376   2.932
 4106SOL    HW113217   6.256   3.403   2.935
 4106SOL    HW213218   6.401   3.435   2.868
 4107SOL     OW13219   1.316   4.958   1.057
 4107SOL    HW113220   1.234   4.925   1.104
 4107SOL    HW213221   1.354   5.035   1.109
 4108SOL     OW13222   6.079   4.374   5.570
 4108SOL    HW113223   6.043   4.418   5.488
 4108SOL    HW213224   6.098   4.444   5.639
 4109SOL     OW13225   5.855   0.211   4.830
 4109SOL    HW113226   5.803   0.296   4.816
 4109SOL    HW213227   5.794   0.132   4.819
 4110SOL     OW13228   4.348   3.571   6.010
 4110SOL    HW113229   4.383   3.491   6.059
 4110SOL    HW213230   4.249   3.562   5.997
 4111SOL     OW13231   5.122   3.224   0.040
 4111SOL    HW113232   5.029   3.220   0.004
 4111SOL    HW213233   5.182   3.171   7.006
 4112SOL     OW13234   5.130   5.933   4.358
 4112SOL    HW113235   5.185   5.864   4.310
 4112SOL    HW213236   5.033   5.915   4.344
 4113SOL     OW13237   5.049   6.131   4.566
 4113SOL    HW113238   5.126   6.190   4.588
 4113SOL    HW213239   5.078   6.061   4.500
 4114SOL     OW13240   3.444   1.987   3.976
 4114SOL    HW113241   3.542   2.003   3.994
 4114SOL    HW213242   3.410   2.055   3.911
 4115SOL     OW13243   3.476   5.197   1.816
 4115SOL    HW113244   3.469   5.120   1.753
 4115SOL    HW213245   3.398   5.198   1.877
 4116SOL     OW13246   2.982   0.920   2.568
 4116SOL    HW113247   3.038   0.993   2.530
 4116SOL    HW213248   2.932   0.953   2.648
 4117SOL     OW13249   1.459   4.037   2.540
 4117SOL    HW113250   1.422   4.126   2.516
 4117SOL    HW213251   1.446   3.973   2.464
 4118SOL     OW13252   3.515   6.619   0.005
 4118SOL    HW113253   3.444   6.573   6.976
 4118SOL    HW213254   3.564   6.553   0.061
 4119SOL     OW13255   2.850   1.947   3.792
 4119SOL    HW113256   2.778   1.961   3.724
 4119SOL    HW213257   2.849   2.023   3.857
 4120SOL     OW13258   3.706   0.997   6.982
 4120SOL    HW113259   3.639   1.008   6.909
 4120SOL    HW213260   3.713   1.082   0.010
 4121SOL     OW13261   5.784   1.326   4.508
 4121SOL    HW113262   5.781   1.242   4.453
 4121SOL    HW213263   5.700   1.333   4.561
 4122SOL     OW13264   1.434   5.277   4.508
 4122SOL    HW113265   1.402   5.310   4.419
 4122SOL    HW213266   1.408   5.181   4.519
 4123SOL     OW13267   4.486   4.536   5.444
 4123SOL    HW113268   4.454   4.527   5.538
 4123SOL    HW213269   4.586   4.531   5.442
 4124SOL     OW13270   6.688   5.801   0.027
 4124SOL    HW113271   6.685   5.770   6.957
 4124SOL    HW213272   6.623   5.748   0.082
 4125SOL     OW13273   5.015   1.527   2.231
 4125SOL    HW113274   5.041   1.505   2.325
 4125SOL    HW213275   4.933   1.474   2.206
 4126SOL     OW13276   1.351   3.500   4.513
 4126SOL    HW113277   1.252   3.490   4.527
 4126SOL    HW213278   1.367   3.537   4.421
 4127SOL     OW13279   4.702   4.748   4.974
 4127SOL    HW113280   4.757   4.744   4.891
 4127SOL    HW213281   4.710   4.839   5.015
 4128SOL     OW13282   1.278   3.050   1.477
 4128SOL    HW113283   1.190   3.077   1.517
 4128SOL    HW213284   1.264   3.018   1.383
 4129SOL     OW13285   3.704   1.485   6.425
 4129SOL    HW113286   3.625   1.504   6.366
 4129SOL    HW213287   3.677   1.492   6.521
 4130SOL     OW13288   6.619   3.463   6.968
 4130SOL    HW113289   6.710   3.439   6.935
 4130SOL    HW213290   6.551   3.441   6.898
 4131SOL     OW13291   0.711   0.978   3.999
 4131SOL    HW113292   0.801   0.937   4.013
 4131SOL    HW213293   0.642   0.906   3.987
 4132SOL     OW13294   4.912   4.386   3.528
 4132SOL    HW113295   4.953   4.361   3.616
 4132SOL    HW213296   4.889   4.304   3.477
 4133SOL     OW13297   2.544   5.741   0.577
 4133SOL    HW113298   2.535   5.724   0.675
 4133SOL    HW213299   2.455   5.767   0.539
 4134SOL     OW13300   2.427   3.583   0.743
 4134SOL    HW113301   2.385   3.662   0.699
 4134SOL    HW213302   2.478   3.613   0.823
 4135SOL     OW13303   0.589   1.448   2.486
 4135SOL    HW113304   0.575   1.404   2.575
 4135SOL    HW213305   0.505   1.442   2.432
 4136SOL     OW13306   1.378   2.207   3.320
 4136SOL    HW113307   1.298   2.191   3.377
 4136SOL    HW213308   1.398   2.305   3.317
 4137SOL     OW13309   1.200   4.368   0.640
 4137SOL    HW113310   1.161   4.340   0.728
 4137SOL    HW213311   1.279   4.312   0.618
 4138SOL     OW13312   5.002   5.459   2.943
 4138SOL    HW113313   5.050   5.390   2.997
 4138SOL    HW213314   5.069   5.515   2.894
 4139SOL     OW13315   1.808   1.779   5.901
 4139SOL    HW113316   1.851   1.834   5.972
 4139SOL    HW213317   1.873   1.711   5.868
 4140SOL     OW13318   3.166   0.275   5.276
 4140SOL    HW113319   3.099   0.292   5.204
 4140SOL    HW213320   3.227   0.201   5.248
 4141SOL     OW13321   6.350   6.121   0.832
 4141SOL    HW113322   6.291   6.067   0.772
 4141SOL    HW213323   6.294   6.188   0.882
 4142SOL     OW13324   6.941   5.158   1.150
 4142SOL    HW113325   6.990   5.229   1.201
 4142SOL    HW213326   6.957   5.069   1.192
 4143SOL     OW13327   5.819   1.066   0.567
 4143SOL    HW113328   5.840   1.155   0.607
 4143SOL    HW213329   5.858   1.060   0.475
 4144SOL     OW13330   5.093   3.266   6.727
 4144SOL    HW113331   5.184   3.233   6.754
 4144SOL    HW213332   5.090   3.366   6.735
 4145SOL     OW13333   6.615   5.920   1.662
 4145SOL    HW113334   6.713   5.908   1.653
 4145SOL    HW213335   6.590   5.929   1.759
 4146SOL     OW13336   6.414   0.876   4.031
 4146SOL    HW113337   6.366   0.834   3.955
 4146SOL    HW213338   6.436   0.971   4.008
 4147SOL     OW13339   5.205   4.128   6.458
 4147SOL    HW113340   5.204   4.046   6.401
 4147SOL    HW213341   5.171   4.206   6.407
 4148SOL     OW13342   1.485   0.605   5.428
 4148SOL    HW113343   1.420   0.679   5.408
 4148SOL    HW213344   1.436   0.527   5.465
 4149SOL     OW13345   6.988   3.052   0.312
 4149SOL    HW113346   0.002   3.070   0.402
 4149SOL    HW213347   0.006   2.969   0.274
 4150SOL     OW13348   1.272   0.785   5.930
 4150SOL    HW113349   1.233   0.852   5.867
 4150SOL    HW213350   1.265   0.693   5.889
 4151SOL     OW13351   2.221   5.837   6.228
 4151SOL    HW113352   2.262   5.904   6.290
 4151SOL    HW213353   2.292   5.799   6.168
 4152SOL     OW13354   4.756   5.812   1.065
 4152SOL    HW113355   4.735   5.908   1.082
 4152SOL    HW213356   4.855   5.800   1.058
 4153SOL     OW13357   4.586   5.420   6.908
 4153SOL    HW113358   4.601   5.519   6.909
 4153SOL    HW213359   4.670   5.373   6.881
 4154SOL     OW13360   0.078   5.362   3.957
 4154SOL    HW113361   0.176   5.345   3.949
 4154SOL    HW213362   0.060   5.458   3.937
 4155SOL     OW13363   0.939   0.972   2.538
 4155SOL    HW113364   0.875   0.903   2.505
 4155SOL    HW213365   0.927   1.057   2.487
 4156SOL     OW13366   5.235   5.839   4.697
 4156SOL    HW113367   5.152   5.893   4.683
 4156SOL    HW213368   5.223   5.780   4.777
 4157SOL     OW13369   4.682   5.131   4.249
 4157SOL    HW113370   4.723   5.064   4.187
 4157SOL    HW213371   4.630   5.198   4.196
 4158SOL     OW13372   0.855   4.325   2.006
 4158SOL    HW113373   0.818   4.322   1.913
 4158SOL    HW213374   0.927   4.256   2.015
 4159SOL     OW13375   2.157   3.541   4.157
 4159SOL    HW113376   2.102   3.472   4.109
 4159SOL    HW213377   2.253   3.512   4.158
 4160SOL     OW13378   6.297   1.254   1.265
 4160SOL    HW113379   6.376   1.296   1.309
 4160SOL    HW213380   6.233   1.325   1.236
 4161SOL     OW13381   0.775   1.163   0.846
 4161SOL    HW113382   0.817   1.229   0.785
 4161SOL    HW213383   0.846   1.106   0.888
 4162SOL     OW13384   6.983   6.787   6.461
 4162SOL    HW113385   7.012   6.693   6.444
 4162SOL    HW213386   6.894   6.786   6.508
 4163SOL     OW13387   5.516   6.437   3.390
 4163SOL    HW113388   5.550   6.531   3.384
 4163SOL    HW213389   5.417   6.436   3.375
 4164SOL     OW13390   1.782   6.501   6.329
 4164SOL    HW113391   1.827   6.456   6.405
 4164SOL    HW213392   1.684   6.477   6.329
 4165SOL     OW13393   4.033   6.487   6.606
 4165SOL    HW113394   3.968   6.432   6.554
 4165SOL    HW213395   3.998   6.500   6.699
 4166SOL     OW13396   6.270   3.410   1.022
 4166SOL    HW113397   6.295   3.327   1.073
 4166SOL    HW213398   6.173   3.408   1.001
 4167SOL     OW13399   1.384   4.045   0.984
 4167SOL    HW113400   1.484   4.038   0.984
 4167SOL    HW213401   1.344   3.956   0.963
 4168SOL     OW13402   6.886   4.717   1.259
 4168SOL    HW113403   6.978   4.755   1.250
 4168SOL    HW213404   6.860   4.714   1.355
 4169SOL     OW13405   5.616   4.099   4.128
 4169SOL    HW113406   5.710   4.066   4.117
 4169SOL    HW213407   5.611   4.159   4.208
 4170SOL     OW13408   4.750   4.324   5.692
 4170SOL    HW113409   4.718   4.255   5.757
 4170SOL    HW213410   4.738   4.415   5.732
 4171SOL     OW13411   6.635   5.217   0.369
 4171SOL    HW113412   6.547   5.202   0.413
 4171SOL    HW213413   6.689   5.281   0.424
 4172SOL     OW13414   0.459   2.164   6.130
 4172SOL    HW113415   0.406   2.249   6.135
 4172SOL    HW213416   0.432   2.104   6.205
 4173SOL     OW13417   5.525   3.517   5.485
 4173SOL    HW113418   5.504   3.443   5.548
 4173SOL    HW213419   5.555   3.478   5.397
 4174SOL     OW13420   5.190   0.616   3.168
 4174SOL    HW113421   5.255   0.649   3.236
 4174SOL    HW213422   5.097   0.619   3.205
 4175SOL     OW13423   2.599   6.012   4.051
 4175SOL    HW113424   2.602   6.039   3.955
 4175SOL    HW213425   2.508   5.976   4.073
 4176SOL     OW13426   2.943   6.323   1.881
 4176SOL    HW113427   3.023   6.318   1.822
 4176SOL    HW213428   2.970   6.355   1.972
 4177SOL     OW13429   5.885   4.478   4.651
 4177SOL    HW113430   5.944   4.420   4.595
 4177SOL    HW213431   5.884   4.443   4.745
 4178SOL     OW13432   4.745   0.714   4.235
 4178SOL    HW113433   4.829   0.733   4.286
 4178SOL    HW213434   4.756   0.744   4.140
 4179SOL     OW13435   5.066   2.635   3.648
 4179SOL    HW113436   5.006   2.554   3.645
 4179SOL    HW213437   5.103   2.645   3.740
 4180SOL     OW13438   5.146   4.049   1.303
 4180SOL    HW113439   5.103   4.036   1.213
 4180SOL    HW213440   5.245   4.036   1.294
 4181SOL     OW13441   2.473   1.677   0.897
 4181SOL    HW113442   2.472   1.655   0.800
 4181SOL    HW213443   2.563   1.714   0.922
 4182SOL     OW13444   0.577   6.879   3.264
 4182SOL    HW113445   0.664   6.900   3.218
 4182SOL    HW213446   0.583   6.905   3.360
 4183SOL     OW13447   4.355   0.740   6.906
 4183SOL    HW113448   4.367   0.778   6.997
 4183SOL    HW213449   4.314   0.649   6.912
 4184SOL     OW13450   4.728   5.031   1.198
 4184SOL    HW113451   4.819   5.072   1.192
 4184SOL    HW213452   4.662   5.086   1.148
 4185SOL     OW13453   0.712   5.427   2.484
 4185SOL    HW113454   0.682   5.364   2.556
 4185SOL    HW213455   0.724   5.519   2.522
 4186SOL     OW13456   2.457   5.447   0.658
 4186SOL    HW113457   2.476   5.509   0.734
 4186SOL    HW213458   2.358   5.433   0.651
 4187SOL     OW13459   3.744   4.038   5.974
 4187SOL    HW113460   3.744   4.135   5.952
 4187SOL    HW213461   3.737   4.027   6.074
 4188SOL     OW13462   4.502   6.885   4.367
 4188SOL    HW113463   4.560   6.869   4.446
 4188SOL    HW213464   4.494   6.983   4.349
 4189SOL     OW13465   3.905   0.277   5.334
 4189SOL    HW113466   3.853   0.338   5.394
 4189SOL    HW213467   3.980   0.328   5.291
 4190SOL     OW13468   0.542   0.402   0.215
 4190SOL    HW113469   0.593   0.428   0.297
 4190SOL    HW213470   0.562   0.465   0.141
 4191SOL     OW13471   5.236   3.902   3.225
 4191SOL    HW113472   5.291   3.864   3.300
 4191SOL    HW213473   5.296   3.936   3.153
 4192SOL     OW13474   0.565   1.182   4.483
 4192SOL    HW113475   0.561   1.281   4.497
 4192SOL    HW213476   0.597   1.164   4.390
 4193SOL     OW13477   1.562   0.485   2.475
 4193SOL    HW113478   1.655   0.451   2.481
 4193SOL    HW213479   1.540   0.538   2.556
 4194SOL     OW13480   5.662   0.410   4.911
 4194SOL    HW113481   5.583   0.460   4.947
 4194SOL    HW213482   5.721   0.382   4.986
 4195SOL     OW13483   4.147   6.646   2.583
 4195SOL    HW113484   4.124   6.742   2.566
 4195SOL    HW213485   4.224   6.619   2.524
 4196SOL     OW13486   5.436   2.141   3.422
 4196SOL    HW113487   5.375   2.106   3.493
 4196SOL    HW213488   5.422   2.090   3.338
 4197SOL     OW13489   4.879   6.245   5.366
 4197SOL    HW113490   4.941   6.233   5.288
 4197SOL    HW213491   4.928   6.288   5.441
 4198SOL     OW13492   5.701   3.470   0.271
 4198SOL    HW113493   5.714   3.373   0.293
 4198SOL    HW213494   5.607   3.496   0.290
 4199SOL     OW13495   2.208   3.186   6.424
 4199SOL    HW113496   2.226   3.229   6.512
 4199SOL    HW213497   2.191   3.089   6.438
 4200SOL     OW13498   3.164   6.501   6.067
 4200SOL    HW113499   3.207   6.418   6.032
 4200SOL    HW213500   3.113   6.546   5.994
 4201SOL     OW13501   6.309   6.576   3.897
 4201SOL    HW113502   6.225   6.532   3.866
 4201SOL    HW213503   6.374   6.581   3.821
 4202SOL     OW13504   4.301   5.201   5.684
 4202SOL    HW113505   4.253   5.130   5.736
 4202SOL    HW213506   4.294   5.182   5.586
 4203SOL     OW13507   5.111   5.177   0.478
 4203SOL    HW113508   5.173   5.230   0.420
 4203SOL    HW213509   5.058   5.240   0.536
 4204SOL     OW13510   4.172   3.522   2.521
 4204SOL    HW113511   4.134   3.578   2.594
 4204SOL    HW213512   4.272   3.527   2.523
 4205SOL     OW13513   3.816   5.202   3.562
 4205SOL    HW113514   3.834   5.140   3.486
 4205SOL    HW213515   3.786   5.150   3.642
 4206SOL     OW13516   6.238   0.845   5.712
 4206SOL    HW113517   6.311   0.799   5.763
 4206SOL    HW213518   6.238   0.813   5.618
 4207SOL     OW13519   1.474   1.213   1.571
 4207SOL    HW113520   1.421   1.213   1.656
 4207SOL    HW213521   1.565   1.176   1.588
 4208SOL     OW13522   0.709   3.988   6.594
 4208SOL    HW113523   0.778   3.916   6.592
 4208SOL    HW213524   0.650   3.977   6.674
 4209SOL     OW13525   0.532   0.961   5.789
 4209SOL    HW113526   0.612   0.923   5.835
 4209SOL    HW213527   0.499   0.894   5.722
 4210SOL     OW13528   2.997   3.381   2.321
 4210SOL    HW113529   2.947   3.306   2.364
 4210SOL    HW213530   2.934   3.456   2.302
 4211SOL     OW13531   3.963   5.175   5.650
 4211SOL    HW113532   4.005   5.264   5.667
 4211SOL    HW213533   3.864   5.184   5.653
 4212SOL     OW13534   6.148   2.803   2.511
 4212SOL    HW113535   6.123   2.757   2.596
 4212SOL    HW213536   6.233   2.763   2.475
 4213SOL     OW13537   2.545   0.839   2.377
 4213SOL    HW113538   2.579   0.748   2.355
 4213SOL    HW213539   2.573   0.865   2.469
 4214SOL     OW13540   1.824   4.261   4.930
 4214SOL    HW113541   1.901   4.198   4.916
 4214SOL    HW213542   1.789   4.251   5.023
 4215SOL     OW13543   6.860   6.270   4.737
 4215SOL    HW113544   6.780   6.213   4.753
 4215SOL    HW213545   6.837   6.344   4.674
 4216SOL     OW13546   0.980   1.510   3.148
 4216SOL    HW113547   1.044   1.547   3.215
 4216SOL    HW213548   0.987   1.563   3.063
 4217SOL     OW13549   6.709   0.176   2.891
 4217SOL    HW113550   6.740   0.248   2.953
 4217SOL    HW213551   6.616   0.197   2.861
 4218SOL     OW13552   4.686   1.091   1.578
 4218SOL    HW113553   4.686   1.182   1.537
 4218SOL    HW213554   4.678   1.099   1.677
 4219SOL     OW13555   2.691   5.132   3.505
 4219SOL    HW113556   2.733   5.158   3.419
 4219SOL    HW213557   2.603   5.088   3.487
 4220SOL     OW13558   5.507   2.996   3.503
 4220SOL    HW113559   5.545   3.043   3.423
 4220SOL    HW213560   5.416   2.961   3.481
 4221SOL     OW13561   6.012   5.547   6.353
 4221SOL    HW113562   5.952   5.497   6.291
 4221SOL    HW213563   6.013   5.644   6.327
 4222SOL     OW13564   5.941   2.279   2.857
 4222SOL    HW113565   5.865   2.316   2.910
 4222SOL    HW213566   5.997   2.354   2.822
 4223SOL     OW13567   3.232   3.410   5.583
 4223SOL    HW113568   3.142   3.366   5.579
 4223SOL    HW213569   3.273   3.410   5.492
 4224SOL     OW13570   4.819   3.002   3.479
 4224SOL    HW113571   4.835   3.018   3.577
 4224SOL    HW213572   4.874   3.065   3.425
 4225SOL     OW13573   4.121   0.433   5.232
 4225SOL    HW113574   4.084   0.522   5.205
 4225SOL    HW213575   4.138   0.432   5.330
 4226SOL     OW13576   0.626   0.556   2.829
 4226SOL    HW113577   0.574   0.627   2.876
 4226SOL    HW213578   0.710   0.596   2.793
 4227SOL     OW13579   3.579   4.755   6.773
 4227SOL    HW113580   3.484   4.740   6.801
 4227SOL    HW213581   3.581   4.811   6.690
 4228SOL     OW13582   0.660   3.709   3.971
 4228SOL    HW113583   0.745   3.711   4.024
 4228SOL    HW213584   0.626   3.803   3.959
 4229SOL     OW13585   4.949   5.069   5.206
 4229SOL    HW113586   4.966   5.047   5.110
 4229SOL    HW213587   4.915   4.988   5.253
 4230SOL     OW13588   2.166   0.577   4.309
 4230SOL    HW113589   2.146   0.491   4.355
 4230SOL    HW213590   2.213   0.559   4.222
 4231SOL     OW13591   5.658   5.895   4.935
 4231SOL    HW113592   5.708   5.952   4.870
 4231SOL    HW213593   5.688   5.917   5.028
 4232SOL     OW13594   0.096   4.518   2.394
 4232SOL    HW113595   0.025   4.463   2.439
 4232SOL    HW213596   0.093   4.612   2.430
 4233SOL     OW13597   6.921   0.534   6.779
 4233SOL    HW113598   6.868   0.502   6.701
 4233SOL    HW213599   7.001   0.585   6.747
 4234SOL     OW13600   1.304   7.011   5.872
 4234SOL    HW113601   1.256   7.017   5.960
 4234SOL    HW213602   1.393   0.031   5.879
 4235SOL     OW13603   4.968   3.731   5.605
 4235SOL    HW113604   4.971   3.657   5.537
 4235SOL    HW213605   4.956   3.692   5.696
 4236SOL     OW13606   0.354   3.646   2.754
 4236SOL    HW113607   0.269   3.594   2.756
 4236SOL    HW213608   0.335   3.742   2.774
 4237SOL     OW13609   6.628   5.453   3.515
 4237SOL    HW113610   6.558   5.391   3.480
 4237SOL    HW213611   6.710   5.446   3.458
 4238SOL     OW13612   3.468   4.898   2.669
 4238SOL    HW113613   3.393   4.861   2.725
 4238SOL    HW213614   3.433   4.969   2.608
 4239SOL     OW13615   5.806   1.295   3.643
 4239SOL    HW113616   5.847   1.297   3.551
 4239SOL    HW213617   5.838   1.373   3.696
 4240SOL     OW13618   2.427   6.830   0.289
 4240SOL    HW113619   2.517   6.871   0.304
 4240SOL    HW213620   2.362   6.901   0.259
 4241SOL     OW13621   6.120   0.861   1.267
 4241SOL    HW113622   6.117   0.949   1.221
 4241SOL    HW213623   6.157   0.792   1.205
 4242SOL     OW13624   1.929   0.660   3.434
 4242SOL    HW113625   1.900   0.737   3.491
 4242SOL    HW213626   2.017   0.682   3.391
 4243SOL     OW13627   0.028   3.721   3.839
 4243SOL    HW113628   0.055   3.808   3.797
 4243SOL    HW213629   7.000   3.667   3.774
 4244SOL     OW13630   5.397   5.454   0.919
 4244SOL    HW113631   5.410   5.370   0.972
 4244SOL    HW213632   5.303   5.486   0.929
 4245SOL     OW13633   6.222   1.252   6.412
 4245SOL    HW113634   6.126   1.266   6.388
 4245SOL    HW213635   6.261   1.182   6.352
 4246SOL     OW13636   5.835   2.821   3.570
 4246SOL    HW113637   5.845   2.781   3.661
 4246SOL    HW213638   5.755   2.880   3.568
 4247SOL     OW13639   2.146   5.232   3.356
 4247SOL    HW113640   2.190   5.285   3.429
 4247SOL    HW213641   2.179   5.265   3.267
 4248SOL     OW13642   1.448   1.156   3.638
 4248SOL    HW113643   1.349   1.155   3.652
 4248SOL    HW213644   1.467   1.177   3.542
 4249SOL     OW13645   5.240   1.438   4.023
 4249SOL    HW113646   5.269   1.399   4.110
 4249SOL    HW213647   5.169   1.507   4.038
 4250SOL     OW13648   6.183   6.161   4.724
 4250SOL    HW113649   6.225   6.217   4.652
 4250SOL    HW213650   6.103   6.115   4.687
 4251SOL     OW13651   6.264   3.205   1.276
 4251SOL    HW113652   6.310   3.200   1.365
 4251SOL    HW213653   6.195   3.133   1.271
 4252SOL     OW13654   5.326   6.346   6.021
 4252SOL    HW113655   5.229   6.332   6.002
 4252SOL    HW213656   5.337   6.415   6.092
 4253SOL     OW13657   3.349   6.905   1.511
 4253SOL    HW113658   3.442   6.898   1.474
 4253SOL    HW213659   3.350   6.882   1.609
 4254SOL     OW13660   1.806   3.944   1.937
 4254SOL    HW113661   1.859   4.002   1.876
 4254SOL    HW213662   1.723   3.913   1.890
 4255SOL     OW13663   6.939   4.277   3.576
 4255SOL    HW113664   6.917   4.280   3.674
 4255SOL    HW213665   0.003   4.232   3.564
 4256SOL     OW13666   0.909   6.088   0.996
 4256SOL    HW113667   0.947   6.115   0.907
 4256SOL    HW213668   0.959   6.009   1.031
 4257SOL     OW13669   3.462   1.286   4.595
 4257SOL    HW113670   3.400   1.361   4.574
 4257SOL    HW213671   3.501   1.300   4.686
 4258SOL     OW13672   3.090   6.014   0.744
 4258SOL    HW113673   3.012   6.076   0.748
 4258SOL    HW213674   3.174   6.066   0.757
 4259SOL     OW13675   1.447   6.657   1.086
 4259SOL    HW113676   1.465   6.635   1.182
 4259SOL    HW213677   1.414   6.751   1.079
 4260SOL     OW13678   5.844   1.062   3.224
 4260SOL    HW113679   5.754   1.025   3.249
 4260SOL    HW213680   5.833   1.154   3.186
 4261SOL     OW13681   1.775   0.426   3.081
 4261SOL    HW113682   1.870   0.459   3.073
 4261SOL    HW213683   1.744   0.390   2.993
 4262SOL     OW13684   0.877   3.751   6.082
 4262SOL    HW113685   0.828   3.838   6.091
 4262SOL    HW213686   0.971   3.768   6.053
 4263SOL     OW13687   2.279   0.392   3.399
 4263SOL    HW113688   2.313   0.300   3.382
 4263SOL    HW213689   2.208   0.414   3.333
 4264SOL     OW13690   0.008   2.200   4.588
 4264SOL    HW113691   0.026   2.102   4.589
 4264SOL    HW213692   6.951   2.218   4.533
 4265SOL     OW13693   3.900   1.037   0.652
 4265SOL    HW113694   3.859   0.956   0.611
 4265SOL    HW213695   3.972   1.010   0.716
 4266SOL     OW13696   2.174   6.238   6.338
 4266SOL    HW113697   2.245   6.249   6.407
 4266SOL    HW213698   2.178   6.313   6.272
 4267SOL     OW13699   2.315   4.183   4.416
 4267SOL    HW113700   2.307   4.124   4.335
 4267SOL    HW213701   2.370   4.263   4.394
 4268SOL     OW13702   1.275   5.522   7.001
 4268SOL    HW113703   1.286   5.474   0.064
 4268SOL    HW213704   1.257   5.619   7.019
 4269SOL     OW13705   2.971   6.932   3.299
 4269SOL    HW113706   2.956   6.934   3.398
 4269SOL    HW213707   2.943   7.019   3.259
 4270SOL     OW13708   3.537   2.791   2.121
 4270SOL    HW113709   3.588   2.792   2.207
 4270SOL    HW213710   3.440   2.805   2.140
 4271SOL     OW13711   0.227   0.817   0.824
 4271SOL    HW113712   0.218   0.852   0.917
 4271SOL    HW213713   0.175   0.732   0.814
 4272SOL     OW13714   6.312   2.760   4.505
 4272SOL    HW113715   6.236   2.790   4.447
 4272SOL    HW213716   6.335   2.665   4.482
 4273SOL     OW13717   4.737   6.332   4.434
 4273SOL    HW113718   4.751   6.430   4.424
 4273SOL    HW213719   4.707   6.312   4.527
 4274SOL     OW13720   1.611   6.993   2.168
 4274SOL    HW113721   1.576   7.003   2.075
 4274SOL    HW213722   1.558   0.027   2.230
 4275SOL     OW13723   6.819   1.918   3.867
 4275SOL    HW113724   6.918   1.924   3.876
 4275SOL    HW213725   6.789   1.973   3.789
 4276SOL     OW13726   2.758   5.141   3.941
 4276SOL    HW113727   2.807   5.125   3.855
 4276SOL    HW213728   2.683   5.205   3.925
 4277SOL     OW13729   6.707   4.654   3.000
 4277SOL    HW113730   6.672   4.652   2.907
 4277SOL    HW213731   6.787   4.715   3.004
 4278SOL     OW13732   6.952   6.769   4.961
 4278SOL    HW113733   0.003   6.832   4.945
 4278SOL    HW213734   6.982   6.696   5.023
 4279SOL     OW13735   1.828   1.387   3.175
 4279SOL    HW113736   1.907   1.449   3.177
 4279SOL    HW213737   1.853   1.300   3.218
 4280SOL     OW13738   5.788   0.083   5.415
 4280SOL    HW113739   5.863   0.073   5.349
 4280SOL    HW213740   5.795   0.010   5.483
 4281SOL     OW13741   5.690   5.147   3.150
 4281SOL    HW113742   5.702   5.055   3.189
 4281SOL    HW213743   5.708   5.215   3.221
 4282SOL     OW13744   3.234   4.336   0.544
 4282SOL    HW113745   3.228   4.286   0.457
 4282SOL    HW213746   3.177   4.418   0.538
 4283SOL     OW13747   2.471   1.044   3.395
 4283SOL    HW113748   2.519   1.124   3.360
 4283SOL    HW213749   2.502   1.025   3.488
 4284SOL     OW13750   4.204   4.293   0.888
 4284SOL    HW113751   4.127   4.256   0.835
 4284SOL    HW213752   4.244   4.370   0.839
 4285SOL     OW13753   2.688   1.102   6.098
 4285SOL    HW113754   2.734   1.114   6.010
 4285SOL    HW213755   2.748   1.051   6.160
 4286SOL     OW13756   5.966   6.764   6.063
 4286SOL    HW113757   5.869   6.765   6.039
 4286SOL    HW213758   5.978   6.799   6.156
 4287SOL     OW13759   4.666   1.041   5.906
 4287SOL    HW113760   4.624   0.958   5.867
 4287SOL    HW213761   4.623   1.122   5.866
 4288SOL     OW13762   0.670   5.605   3.733
 4288SOL    HW113763   0.717   5.640   3.814
 4288SOL    HW213764   0.636   5.682   3.679
 4289SOL     OW13765   0.832   2.223   5.869
 4289SOL    HW113766   0.775   2.246   5.948
 4289SOL    HW213767   0.780   2.235   5.785
 4290SOL     OW13768   1.029   6.194   4.730
 4290SOL    HW113769   1.040   6.286   4.690
 4290SOL    HW213770   0.931   6.175   4.741
 4291SOL     OW13771   5.195   3.537   6.799
 4291SOL    HW113772   5.140   3.547   6.882
 4291SOL    HW213773   5.163   3.602   6.730
 4292SOL     OW13774   6.514   3.122   0.288
 4292SOL    HW113775   6.585   3.132   0.358
 4292SOL    HW213776   6.478   3.029   0.290
 4293SOL     OW13777   3.600   4.590   0.210
 4293SOL    HW113778   3.675   4.644   0.171
 4293SOL    HW213779   3.567   4.634   0.294
 4294SOL     OW13780   2.037   0.955   6.559
 4294SOL    HW113781   2.048   0.999   6.470
 4294SOL    HW213782   2.124   0.954   6.608
 4295SOL     OW13783   5.575   5.795   4.173
 4295SOL    HW113784   5.648   5.729   4.190
 4295SOL    HW213785   5.566   5.855   4.252
 4296SOL     OW13786   3.175   6.435   0.055
 4296SOL    HW113787   3.154   6.338   0.058
 4296SOL    HW213788   3.113   6.485   0.116
 4297SOL     OW13789   5.872   0.410   2.145
 4297SOL    HW113790   5.911   0.407   2.053
 4297SOL    HW213791   5.841   0.504   2.165
 4298SOL     OW13792   3.587   5.908   1.080
 4298SOL    HW113793   3.541   5.980   1.133
 4298SOL    HW213794   3.635   5.847   1.142
 4299SOL     OW13795   1.552   2.567   6.980
 4299SOL    HW113796   1.459   2.534   7.000
 4299SOL    HW213797   1.609   2.490   6.952
 4300SOL     OW13798   2.680   6.956   0.192
 4300SOL    HW113799   2.726   6.916   0.271
 4300SOL    HW213800   2.745   6.960   0.115
 4301SOL     OW13801   4.761   0.056   1.318
 4301SOL    HW113802   4.768   0.004   1.403
 4301SOL    HW213803   4.849   0.100   1.299
 4302SOL     OW13804   6.870   0.635   6.191
 4302SOL    HW113805   6.922   0.619   6.107
 4302SOL    HW213806   6.788   0.577   6.191
 4303SOL     OW13807   0.092   4.385   4.211
 4303SOL    HW113808   0.191   4.382   4.205
 4303SOL    HW213809   0.061   4.479   4.221
 4304SOL     OW13810   3.391   3.204   2.508
 4304SOL    HW113811   3.403   3.125   2.568
 4304SOL    HW213812   3.480   3.236   2.477
 4305SOL     OW13813   0.835   6.962   6.009
 4305SOL    HW113814   0.827   6.991   5.913
 4305SOL    HW213815   0.903   7.018   6.056
 4306SOL     OW13816   4.621   4.853   4.415
 4306SOL    HW113817   4.637   4.782   4.484
 4306SOL    HW213818   4.609   4.941   4.461
 4307SOL     OW13819   6.118   3.575   5.384
 4307SOL    HW113820   6.115   3.647   5.315
 4307SOL    HW213821   6.177   3.501   5.351
 4308SOL     OW13822   6.152   5.975   1.178
 4308SOL    HW113823   6.145   5.907   1.250
 4308SOL    HW213824   6.243   5.971   1.137
 4309SOL     OW13825   0.967   1.380   0.702
 4309SOL    HW113826   0.929   1.437   0.776
 4309SOL    HW213827   0.941   1.419   0.614
 4310SOL     OW13828   1.482   2.667   1.496
 4310SOL    HW113829   1.462   2.702   1.404
 4310SOL    HW213830   1.399   2.627   1.535
 4311SOL     OW13831   0.133   5.868   2.854
 4311SOL    HW113832   0.130   5.951   2.798
 4311SOL    HW213833   0.136   5.893   2.951
 4312SOL     OW13834   1.541   5.570   2.617
 4312SOL    HW113835   1.444   5.580   2.597
 4312SOL    HW213836   1.589   5.655   2.597
 4313SOL     OW13837   4.777   2.225   0.787
 4313SOL    HW113838   4.767   2.211   0.886
 4313SOL    HW213839   4.874   2.228   0.764
 4314SOL     OW13840   5.880   1.833   5.148
 4314SOL    HW113841   5.884   1.744   5.193
 4314SOL    HW213842   5.785   1.854   5.124
 4315SOL     OW13843   1.920   0.386   3.518
 4315SOL    HW113844   1.934   0.484   3.503
 4315SOL    HW213845   1.893   0.343   3.431
 4316SOL     OW13846   4.512   0.519   1.870
 4316SOL    HW113847   4.433   0.580   1.856
 4316SOL    HW213848   4.525   0.463   1.788
 4317SOL     OW13849   5.499   1.610   5.631
 4317SOL    HW113850   5.505   1.611   5.531
 4317SOL    HW213851   5.412   1.649   5.660
 4318SOL     OW13852   1.383   1.853   4.809
 4318SOL    HW113853   1.321   1.840   4.887
 4318SOL    HW213854   1.329   1.851   4.724
 4319SOL     OW13855   2.134   1.905   0.854
 4319SOL    HW113856   2.133   1.986   0.912
 4319SOL    HW213857   2.171   1.828   0.906
 4320SOL     OW13858   3.624   5.265   0.830
 4320SOL    HW113859   3.679   5.185   0.810
 4320SOL    HW213860   3.642   5.295   0.924
 4321SOL     OW13861   7.011   4.620   4.514
 4321SOL    HW113862   0.006   4.531   4.556
 4321SOL    HW213863   0.019   4.693   4.574
 4322SOL     OW13864   6.208   3.187   0.066
 4322SOL    HW113865   6.304   3.214   0.072
 4322SOL    HW213866   6.177   3.195   6.996
 4323SOL     OW13867   4.905   4.614   0.246
 4323SOL    HW113868   4.992   4.567   0.265
 4323SOL    HW213869   4.893   4.624   0.147
 4324SOL     OW13870   5.998   4.652   6.243
 4324SOL    HW113871   6.053   4.593   6.302
 4324SOL    HW213872   6.055   4.729   6.211
 4325SOL     OW13873   3.028   1.243   1.994
 4325SOL    HW113874   3.003   1.327   2.044
 4325SOL    HW213875   3.077   1.267   1.911
 4326SOL     OW13876   4.880   4.632   1.765
 4326SOL    HW113877   4.938   4.603   1.841
 4326SOL    HW213878   4.808   4.564   1.750
 4327SOL     OW13879   5.192   5.676   1.748
 4327SOL    HW113880   5.237   5.764   1.759
 4327SOL    HW213881   5.184   5.631   1.838
 4328SOL     OW13882   5.811   4.802   5.735
 4328SOL    HW113883   5.905   4.769   5.734
 4328SOL    HW213884   5.762   4.760   5.811
 4329SOL     OW13885   4.549   2.794   5.548
 4329SOL    HW113886   4.641   2.832   5.554
 4329SOL    HW213887   4.502   2.832   5.468
 4330SOL     OW13888   2.157   6.187   4.189
 4330SOL    HW113889   2.186   6.127   4.264
 4330SOL    HW213890   2.058   6.200   4.192
 4331SOL     OW13891   5.690   0.778   1.889
 4331SOL    HW113892   5.629   0.848   1.924
 4331SOL    HW213893   5.760   0.820   1.831
 4332SOL     OW13894   5.561   3.340   2.554
 4332SOL    HW113895   5.477   3.302   2.514
 4332SOL    HW213896   5.637   3.329   2.490
 4333SOL     OW13897   4.312   1.584   5.209
 4333SOL    HW113898   4.323   1.603   5.307
 4333SOL    HW213899   4.327   1.486   5.193
 4334SOL     OW13900   2.139   2.628   2.266
 4334SOL    HW113901   2.110   2.591   2.177
 4334SOL    HW213902   2.238   2.638   2.267
 4335SOL     OW13903   3.892   3.079   1.348
 4335SOL    HW113904   3.804   3.088   1.302
 4335SOL    HW213905   3.877   3.075   1.447
 4336SOL     OW13906   2.609   6.427   6.127
 4336SOL    HW113907   2.680   6.375   6.080
 4336SOL    HW213908   2.531   6.368   6.145
 4337SOL     OW13909   2.182   4.570   1.668
 4337SOL    HW113910   2.267   4.616   1.642
 4337SOL    HW213911   2.160   4.590   1.764
 4338SOL     OW13912   6.403   6.666   5.679
 4338SOL    HW113913   6.333   6.685   5.610
 4338SOL    HW213914   6.469   6.601   5.642
 4339SOL     OW13915   3.935   2.765   6.500
 4339SOL    HW113916   4.028   2.763   6.463
 4339SOL    HW213917   3.923   2.847   6.555
 4340SOL     OW13918   6.377   3.801   1.810
 4340SOL    HW113919   6.460   3.832   1.856
 4340SOL    HW213920   6.312   3.877   1.805
 4341SOL     OW13921   1.459   5.214   1.143
 4341SOL    HW113922   1.548   5.181   1.176
 4341SOL    HW213923   1.450   5.311   1.164
 4342SOL     OW13924   5.470   3.943   3.103
 4342SOL    HW113925   5.548   3.903   3.055
 4342SOL    HW213926   5.504   4.010   3.170
 4343SOL     OW13927   3.127   5.957   4.618
 4343SOL    HW113928   3.072   5.888   4.570
 4343SOL    HW213929   3.203   5.985   4.561
 4344SOL     OW13930   1.184   3.577   3.114
 4344SOL    HW113931   1.139   3.518   3.047
 4344SOL    HW213932   1.153   3.671   3.102
 4345SOL     OW13933   3.426   4.182   4.690
 4345SOL    HW113934   3.360   4.155   4.620
 4345SOL    HW213935   3.393   4.154   4.780
 4346SOL     OW13936   2.154   3.256   2.698
 4346SOL    HW113937   2.076   3.197   2.722
 4346SOL    HW213938   2.211   3.210   2.630
 4347SOL     OW13939   5.590   6.329   3.165
 4347SOL    HW113940   5.525   6.253   3.176
 4347SOL    HW213941   5.591   6.384   3.249
 4348SOL     OW13942   0.173   5.770   4.361
 4348SOL    HW113943   0.194   5.750   4.265
 4348SOL    HW213944   0.193   5.866   4.380
 4349SOL     OW13945   6.429   1.917   3.268
 4349SOL    HW113946   6.408   1.949   3.176
 4349SOL    HW213947   6.506   1.853   3.265
 4350SOL     OW13948   4.279   2.111   3.963
 4350SOL    HW113949   4.344   2.109   3.887
 4350SOL    HW213950   4.203   2.172   3.940
 4351SOL     OW13951   1.053   6.190   1.529
 4351SOL    HW113952   1.142   6.169   1.569
 4351SOL    HW213953   1.066   6.245   1.446
 4352SOL     OW13954   6.508   4.619   2.186
 4352SOL    HW113955   6.547   4.668   2.108
 4352SOL    HW213956   6.528   4.668   2.270
 4353SOL     OW13957   3.474   3.139   6.758
 4353SOL    HW113958   3.375   3.133   6.750
 4353SOL    HW213959   3.517   3.077   6.693
 4354SOL     OW13960   2.057   1.085   6.288
 4354SOL    HW113961   2.040   1.180   6.261
 4354SOL    HW213962   2.126   1.045   6.228
 4355SOL     OW13963   1.786   6.911   2.779
 4355SOL    HW113964   1.843   6.955   2.709
 4355SOL    HW213965   1.738   6.833   2.738
 4356SOL     OW13966   4.832   3.588   6.219
 4356SOL    HW113967   4.928   3.608   6.238
 4356SOL    HW213968   4.783   3.674   6.206
 4357SOL     OW13969   0.031   0.931   1.432
 4357SOL    HW113970   0.074   1.014   1.399
 4357SOL    HW213971   0.085   0.893   1.507
 4358SOL     OW13972   6.390   0.932   0.848
 4358SOL    HW113973   6.314   0.979   0.803
 4358SOL    HW213974   6.449   0.889   0.780
 4359SOL     OW13975   1.628   1.230   6.824
 4359SOL    HW113976   1.711   1.277   6.794
 4359SOL    HW213977   1.567   1.217   6.746
 4360SOL     OW13978   0.581   3.228   3.944
 4360SOL    HW113979   0.628   3.308   3.982
 4360SOL    HW213980   0.483   3.245   3.941
 4361SOL     OW13981   2.199   3.961   1.376
 4361SOL    HW113982   2.206   4.006   1.287
 4361SOL    HW213983   2.127   4.005   1.430
 4362SOL     OW13984   6.647   5.778   4.401
 4362SOL    HW113985   6.572   5.825   4.447
 4362SOL    HW213986   6.617   5.686   4.376
 4363SOL     OW13987   4.494   1.706   1.698
 4363SOL    HW113988   4.398   1.695   1.725
 4363SOL    HW213989   4.525   1.625   1.648
 4364SOL     OW13990   3.336   3.907   3.625
 4364SOL    HW113991   3.320   3.811   3.648
 4364SOL    HW213992   3.259   3.942   3.573
 4365SOL     OW13993   2.628   0.591   2.198
 4365SOL    HW113994   2.665   0.600   2.105
 4365SOL    HW213995   2.696   0.550   2.258
 4366SOL     OW13996   6.311   6.958   6.426
 4366SOL    HW113997   6.258   6.894   6.482
 4366SOL    HW213998   6.408   6.952   6.452
 4367SOL     OW13999   2.545   4.856   3.722
 4367SOL    HW114000   2.484   4.783   3.690
 4367SOL    HW214001   2.601   4.888   3.645
 4368SOL     OW14002   3.729   5.690   1.778
 4368SOL    HW114003   3.688   5.605   1.813
 4368SOL    HW214004   3.657   5.758   1.766
 4369SOL     OW14005   4.694   4.830   2.922
 4369SOL    HW114006   4.793   4.833   2.909
 4369SOL    HW214007   4.658   4.746   2.883
 4370SOL     OW14008   3.823   4.721   1.417
 4370SOL    HW114009   3.743   4.779   1.403
 4370SOL    HW214010   3.795   4.633   1.456
 4371SOL     OW14011   2.052   1.941   2.863
 4371SOL    HW114012   2.021   1.846   2.857
 4371SOL    HW214013   2.032   1.988   2.777
 4372SOL     OW14014   2.454   2.566   4.262
 4372SOL    HW114015   2.449   2.662   4.289
 4372SOL    HW214016   2.492   2.512   4.337
 4373SOL     OW14017   4.482   1.225   0.150
 4373SOL    HW114018   4.557   1.198   0.211
 4373SOL    HW214019   4.419   1.148   0.139
 4374SOL     OW14020   1.353   1.741   1.651
 4374SOL    HW114021   1.357   1.800   1.570
 4374SOL    HW214022   1.314   1.653   1.626
 4375SOL     OW14023   4.203   5.945   2.792
 4375SOL    HW114024   4.119   5.978   2.835
 4375SOL    HW214025   4.182   5.909   2.702
 4376SOL     OW14026   6.096   0.410   2.690
 4376SOL    HW114027   6.125   0.383   2.598
 4376SOL    HW214028   6.082   0.328   2.746
 4377SOL     OW14029   5.693   5.399   6.923
 4377SOL    HW114030   5.770   5.360   6.873
 4377SOL    HW214031   5.716   5.491   6.953
 4378SOL     OW14032   1.845   2.972   2.540
 4378SOL    HW114033   1.940   2.943   2.535
 4378SOL    HW214034   1.819   3.016   2.455
 4379SOL     OW14035   2.251   1.454   1.755
 4379SOL    HW114036   2.167   1.489   1.797
 4379SOL    HW214037   2.320   1.440   1.826
 4380SOL     OW14038   2.049   6.377   3.970
 4380SOL    HW114039   2.102   6.295   3.992
 4380SOL    HW214040   2.060   6.445   4.043
 4381SOL     OW14041   2.239   4.134   4.805
 4381SOL    HW114042   2.287   4.219   4.827
 4381SOL    HW214043   2.259   4.066   4.875
 4382SOL     OW14044   6.132   3.186   6.326
 4382SOL    HW114045   6.215   3.160   6.375
 4382SOL    HW214046   6.067   3.110   6.328
 4383SOL     OW14047   0.831   3.050   5.541
 4383SOL    HW114048   0.786   3.098   5.616
 4383SOL    HW214049   0.814   2.952   5.549
 4384SOL     OW14050   5.428   1.266   6.782
 4384SOL    HW114051   5.429   1.352   6.730
 4384SOL    HW214052   5.520   1.226   6.783
 4385SOL     OW14053   6.910   2.687   4.481
 4385SOL    HW114054   6.896   2.597   4.523
 4385SOL    HW214055   6.994   2.728   4.518
 4386SOL     OW14056   1.668   3.737   6.698
 4386SOL    HW114057   1.760   3.700   6.711
 4386SOL    HW214058   1.672   3.837   6.699
 4387SOL     OW14059   0.710   1.268   1.522
 4387SOL    HW114060   0.668   1.272   1.613
 4387SOL    HW214061   0.709   1.174   1.489
 4388SOL     OW14062   4.785   0.988   6.133
 4388SOL    HW114063   4.758   0.901   6.174
 4388SOL    HW214064   4.728   1.006   6.052
 4389SOL     OW14065   5.896   1.812   0.506
 4389SOL    HW114066   5.827   1.835   0.437
 4389SOL    HW214067   5.951   1.893   0.527
 4390SOL     OW14068   3.866   1.682   2.094
 4390SOL    HW114069   3.916   1.597   2.110
 4390SOL    HW214070   3.774   1.674   2.132
 4391SOL     OW14071   1.701   5.885   5.678
 4391SOL    HW114072   1.725   5.806   5.621
 4391SOL    HW214073   1.740   5.873   5.769
 4392SOL     OW14074   6.629   3.648   5.564
 4392SOL    HW114075   6.682   3.662   5.480
 4392SOL    HW214076   6.680   3.589   5.626
 4393SOL     OW14077   5.516   6.834   2.841
 4393SOL    HW114078   5.580   6.759   2.854
 4393SOL    HW214079   5.557   6.904   2.783
 4394SOL     OW14080   6.207   5.574   2.915
 4394SOL    HW114081   6.306   5.586   2.920
 4394SOL    HW214082   6.161   5.649   2.963
 4395SOL     OW14083   3.925   1.006   1.977
 4395SOL    HW114084   3.826   0.993   1.974
 4395SOL    HW214085   3.964   0.987   1.887
 4396SOL     OW14086   2.564   2.239   4.282
 4396SOL    HW114087   2.497   2.282   4.342
 4396SOL    HW214088   2.518   2.205   4.199
 4397SOL     OW14089   0.302   1.530   4.953
 4397SOL    HW114090   0.266   1.438   4.941
 4397SOL    HW214091   0.402   1.528   4.949
 4398SOL     OW14092   1.011   4.437   4.754
 4398SOL    HW114093   1.031   4.459   4.659
 4398SOL    HW214094   0.968   4.347   4.759
 4399SOL     OW14095   1.509   0.885   1.832
 4399SOL    HW114096   1.444   0.895   1.908
 4399SOL    HW214097   1.586   0.946   1.846
 4400SOL     OW14098   2.546   0.213   4.804
 4400SOL    HW114099   2.524   0.140   4.739
 4400SOL    HW214100   2.465   0.233   4.860
 4401SOL     OW14101   5.004   0.151   6.731
 4401SOL    HW114102   4.968   0.075   6.784
 4401SOL    HW214103   5.102   0.138   6.718
 4402SOL     OW14104   2.274   6.621   1.790
 4402SOL    HW114105   2.346   6.554   1.810
 4402SOL    HW214106   2.201   6.576   1.737
 4403SOL     OW14107   0.309   6.801   4.176
 4403SOL    HW114108   0.298   6.888   4.224
 4403SOL    HW214109   0.374   6.812   4.101
 4404SOL     OW14110   0.653   4.255   5.684
 4404SOL    HW114111   0.683   4.331   5.742
 4404SOL    HW214112   0.579   4.206   5.729
 4405SOL     OW14113   3.069   4.494   1.118
 4405SOL    HW114114   3.074   4.419   1.052
 4405SOL    HW214115   2.976   4.529   1.122
 4406SOL     OW14116   6.764   4.411   1.311
 4406SOL    HW114117   6.750   4.507   1.335
 4406SOL    HW214118   6.857   4.384   1.336
 4407SOL     OW14119   0.495   4.199   0.405
 4407SOL    HW114120   0.428   4.124   0.408
 4407SOL    HW214121   0.562   4.179   0.334
 4408SOL     OW14122   4.048   1.193   1.439
 4408SOL    HW114123   4.135   1.230   1.404
 4408SOL    HW214124   4.051   1.191   1.539
 4409SOL     OW14125   4.314   0.039   1.877
 4409SOL    HW114126   4.412   0.024   1.894
 4409SOL    HW214127   4.273   6.980   1.840
 4410SOL     OW14128   1.502   5.557   0.369
 4410SOL    HW114129   1.593   5.586   0.398
 4410SOL    HW214130   1.510   5.500   0.287
 4411SOL     OW14131   3.146   3.076   3.934
 4411SOL    HW114132   3.125   3.051   3.839
 4411SOL    HW214133   3.093   3.157   3.960
 4412SOL     OW14134   3.325   0.947   4.939
 4412SOL    HW114135   3.387   0.955   4.861
 4412SOL    HW214136   3.347   0.864   4.991
 4413SOL     OW14137   4.602   5.563   4.769
 4413SOL    HW114138   4.574   5.488   4.710
 4413SOL    HW214139   4.660   5.626   4.717
 4414SOL     OW14140   3.804   5.031   1.606
 4414SOL    HW114141   3.810   4.983   1.693
 4414SOL    HW214142   3.883   5.009   1.550
 4415SOL     OW14143   4.143   3.619   6.369
 4415SOL    HW114144   4.239   3.603   6.394
 4415SOL    HW214145   4.130   3.715   6.344
 4416SOL     OW14146   2.585   0.295   4.450
 4416SOL    HW114147   2.655   0.365   4.460
 4416SOL    HW214148   2.494   0.337   4.458
 4417SOL     OW14149   5.789   4.386   3.257
 4417SOL    HW114150   5.844   4.393   3.340
 4417SOL    HW214151   5.810   4.300   3.210
 4418SOL     OW14152   5.285   0.897   3.233
 4418SOL    HW114153   5.288   0.833   3.310
 4418SOL    HW214154   5.352   0.870   3.164
 4419SOL     OW14155   5.423   6.017   0.326
 4419SOL    HW114156   5.362   5.979   0.258
 4419SOL    HW214157   5.478   5.943   0.366
 4420SOL     OW14158   5.447   1.507   1.533
 4420SOL    HW114159   5.398   1.448   1.598
 4420SOL    HW214160   5.543   1.481   1.531
 4421SOL     OW14161   2.086   1.478   4.041
 4421SOL    HW114162   2.110   1.546   3.972
 4421SOL    HW214163   2.005   1.510   4.091
 4422SOL     OW14164   2.588   4.327   5.675
 4422SOL    HW114165   2.551   4.363   5.761
 4422SOL    HW214166   2.513   4.294   5.618
 4423SOL     OW14167   1.020   2.801   5.360
 4423SOL    HW114168   1.113   2.834   5.345
 4423SOL    HW214169   0.965   2.819   5.279
 4424SOL     OW14170   5.448   6.841   4.050
 4424SOL    HW114171   5.459   6.825   3.951
 4424SOL    HW214172   5.351   6.859   4.070
 4425SOL     OW14173   3.849   5.678   6.327
 4425SOL    HW114174   3.778   5.656   6.260
 4425SOL    HW214175   3.825   5.763   6.375
 4426SOL     OW14176   0.271   2.085   4.707
 4426SOL    HW114177   0.201   2.014   4.717
 4426SOL    HW214178   0.262   2.128   4.617
 4427SOL     OW14179   6.771   6.486   2.689
 4427SOL    HW114180   6.797   6.524   2.601
 4427SOL    HW214181   6.772   6.558   2.758
 4428SOL     OW14182   3.460   5.521   2.115
 4428SOL    HW114183   3.497   5.610   2.088
 4428SOL    HW214184   3.375   5.534   2.166
 4429SOL     OW14185   2.876   0.173   3.255
 4429SOL    HW114186   2.781   0.159   3.282
 4429SOL    HW214187   2.899   0.270   3.263
 4430SOL     OW14188   5.052   3.453   5.023
 4430SOL    HW114189   5.090   3.511   5.095
 4430SOL    HW214190   4.972   3.499   4.983
 4431SOL     OW14191   1.728   0.717   1.876
 4431SOL    HW114192   1.697   0.704   1.970
 4431SOL    HW214193   1.655   0.758   1.822
 4432SOL     OW14194   3.298   4.117   4.248
 4432SOL    HW114195   3.386   4.154   4.220
 4432SOL    HW214196   3.240   4.103   4.167
 4433SOL     OW14197   5.763   0.336   4.550
 4433SOL    HW114198   5.725   0.253   4.510
 4433SOL    HW214199   5.689   0.401   4.568
 4434SOL     OW14200   3.636   1.729   3.269
 4434SOL    HW114201   3.664   1.644   3.315
 4434SOL    HW214202   3.664   1.807   3.325
 4435SOL     OW14203   4.195   3.900   1.421
 4435SOL    HW114204   4.263   3.853   1.478
 4435SOL    HW214205   4.113   3.843   1.413
 4436SOL     OW14206   3.935   1.445   1.379
 4436SOL    HW114207   3.941   1.348   1.400
 4436SOL    HW214208   3.880   1.459   1.297
 4437SOL     OW14209   5.507   1.639   4.241
 4437SOL    HW114210   5.570   1.717   4.249
 4437SOL    HW214211   5.543   1.562   4.293
 4438SOL     OW14212   4.818   0.972   0.510
 4438SOL    HW114213   4.852   0.880   0.530
 4438SOL    HW214214   4.727   0.983   0.549
 4439SOL     OW14215   0.565   6.253   1.678
 4439SOL    HW114216   0.467   6.252   1.658
 4439SOL    HW214217   0.600   6.346   1.669
 4440SOL     OW14218   2.056   4.783   0.677
 4440SOL    HW114219   2.140   4.827   0.707
 4440SOL    HW214220   2.040   4.803   0.581
 4441SOL     OW14221   6.773   1.894   2.692
 4441SOL    HW114222   6.766   1.920   2.595
 4441SOL    HW214223   6.688   1.850   2.721
 4442SOL     OW14224   2.518   5.866   4.821
 4442SOL    HW114225   2.531   5.829   4.913
 4442SOL    HW214226   2.507   5.791   4.756
 4443SOL     OW14227   6.526   3.100   1.228
 4443SOL    HW114228   6.615   3.146   1.231
 4443SOL    HW214229   6.453   3.169   1.222
 4444SOL     OW14230   4.055   5.311   6.139
 4444SOL    HW114231   4.081   5.247   6.067
 4444SOL    HW214232   4.023   5.396   6.097
 4445SOL     OW14233   6.467   0.087   0.846
 4445SOL    HW114234   6.502   0.016   0.907
 4445SOL    HW214235   6.367   0.083   0.844
 4446SOL     OW14236   5.996   1.490   2.075
 4446SOL    HW114237   5.971   1.430   2.151
 4446SOL    HW214238   6.052   1.566   2.109
 4447SOL     OW14239   5.894   3.643   6.084
 4447SOL    HW114240   5.910   3.738   6.110
 4447SOL    HW214241   5.796   3.628   6.069
 4448SOL     OW14242   3.138   4.186   1.188
 4448SOL    HW114243   3.193   4.252   1.239
 4448SOL    HW214244   3.190   4.102   1.175
 4449SOL     OW14245   4.715   0.754   6.256
 4449SOL    HW114246   4.620   0.738   6.283
 4449SOL    HW214247   4.772   0.760   6.337
 4450SOL     OW14248   4.101   3.610   4.252
 4450SOL    HW114249   4.104   3.659   4.340
 4450SOL    HW214250   4.006   3.602   4.222
 4451SOL     OW14251   5.872   4.024   4.092
 4451SOL    HW114252   5.892   3.927   4.083
 4451SOL    HW214253   5.956   4.077   4.081
 4452SOL     OW14254   5.708   6.560   3.998
 4452SOL    HW114255   5.676   6.609   4.079
 4452SOL    HW214256   5.796   6.598   3.968
 4453SOL     OW14257   0.262   2.961   1.291
 4453SOL    HW114258   0.237   3.017   1.212
 4453SOL    HW214259   0.281   3.020   1.369
 4454SOL     OW14260   6.779   2.266   6.876
 4454SOL    HW114261   6.723   2.184   6.861
 4454SOL    HW214262   6.875   2.241   6.881
 4455SOL     OW14263   3.996   6.988   6.688
 4455SOL    HW114264   3.990   0.029   6.764
 4455SOL    HW214265   4.071   6.924   6.705
 4456SOL     OW14266   2.781   5.221   2.257
 4456SOL    HW114267   2.764   5.285   2.182
 4456SOL    HW214268   2.766   5.128   2.225
 4457SOL     OW14269   4.198   2.729   0.746
 4457SOL    HW114270   4.284   2.727   0.694
 4457SOL    HW214271   4.169   2.635   0.765
 4458SOL     OW14272   1.157   3.912   6.795
 4458SOL    HW114273   1.070   3.960   6.788
 4458SOL    HW214274   1.208   3.920   6.709
 4459SOL     OW14275   4.661   0.645   3.653
 4459SOL    HW114276   4.741   0.675   3.704
 4459SOL    HW214277   4.668   0.546   3.635
 4460SOL     OW14278   2.954   3.012   5.244
 4460SOL    HW114279   2.866   3.033   5.286
 4460SOL    HW214280   2.974   3.079   5.172
 4461SOL     OW14281   1.311   0.362   2.410
 4461SOL    HW114282   1.319   0.272   2.454
 4461SOL    HW214283   1.400   0.408   2.412
 4462SOL     OW14284   6.891   3.779   1.532
 4462SOL    HW114285   6.919   3.869   1.498
 4462SOL    HW214286   6.970   3.733   1.572
 4463SOL     OW14287   4.524   2.709   0.082
 4463SOL    HW114288   4.510   2.800   0.043
 4463SOL    HW214289   4.466   2.700   0.164
 4464SOL     OW14290   6.976   4.959   0.080
 4464SOL    HW114291   6.969   4.969   7.005
 4464SOL    HW214292   6.889   4.981   0.122
 4465SOL     OW14293   2.565   5.568   2.395
 4465SOL    HW114294   2.640   5.549   2.458
 4465SOL    HW214295   2.526   5.658   2.416
 4466SOL     OW14296   1.556   1.307   3.094
 4466SOL    HW114297   1.650   1.335   3.114
 4466SOL    HW214298   1.539   1.313   2.996
 4467SOL     OW14299   1.578   0.220   3.298
 4467SOL    HW114300   1.567   0.122   3.310
 4467SOL    HW214301   1.675   0.243   3.294
 4468SOL     OW14302   1.895   2.967   1.085
 4468SOL    HW114303   1.812   2.974   1.029
 4468SOL    HW214304   1.879   2.904   1.161
 4469SOL     OW14305   4.117   0.411   1.416
 4469SOL    HW114306   4.123   0.318   1.379
 4469SOL    HW214307   4.074   0.407   1.507
 4470SOL     OW14308   5.969   3.026   1.947
 4470SOL    HW114309   5.938   3.106   1.998
 4470SOL    HW214310   5.890   2.969   1.924
 4471SOL     OW14311   0.093   2.186   6.575
 4471SOL    HW114312   0.135   2.229   6.656
 4471SOL    HW214313   7.018   2.184   6.586
 4472SOL     OW14314   1.581   3.090   3.760
 4472SOL    HW114315   1.521   3.164   3.730
 4472SOL    HW214316   1.649   3.126   3.824
 4473SOL     OW14317   6.860   2.651   3.740
 4473SOL    HW114318   6.875   2.745   3.772
 4473SOL    HW214319   6.867   2.589   3.818
 4474SOL     OW14320   3.853   0.402   2.071
 4474SOL    HW114321   3.774   0.342   2.061
 4474SOL    HW214322   3.883   0.402   2.167
 4475SOL     OW14323   1.910   3.643   2.243
 4475SOL    HW114324   1.954   3.562   2.204
 4475SOL    HW214325   1.895   3.629   2.341
 4476SOL     OW14326   4.749   6.769   4.005
 4476SOL    HW114327   4.841   6.748   4.038
 4476SOL    HW214328   4.683   6.753   4.078
 4477SOL     OW14329   1.355   0.444   5.621
 4477SOL    HW114330   1.382   0.350   5.598
 4477SOL    HW214331   1.320   0.447   5.714
 4478SOL     OW14332   3.491   6.498   2.759
 4478SOL    HW114333   3.480   6.405   2.796
 4478SOL    HW214334   3.581   6.533   2.785
 4479SOL     OW14335   0.897   1.183   1.268
 4479SOL    HW114336   0.878   1.092   1.305
 4479SOL    HW214337   0.814   1.218   1.224
 4480SOL     OW14338   2.227   3.434   5.545
 4480SOL    HW114339   2.177   3.355   5.578
 4480SOL    HW214340   2.263   3.415   5.454
 4481SOL     OW14341   2.609   6.459   5.300
 4481SOL    HW114342   2.555   6.537   5.331
 4481SOL    HW214343   2.695   6.455   5.351
 4482SOL     OW14344   0.790   4.323   4.154
 4482SOL    HW114345   0.741   4.239   4.176
 4482SOL    HW214346   0.737   4.402   4.184
 4483SOL     OW14347   4.952   3.574   2.272
 4483SOL    HW114348   5.038   3.568   2.220
 4483SOL    HW214349   4.897   3.649   2.236
 4484SOL     OW14350   3.348   2.748   5.584
 4484SOL    HW114351   3.428   2.718   5.636
 4484SOL    HW214352   3.372   2.829   5.530
 4485SOL     OW14353   5.206   1.468   5.109
 4485SOL    HW114354   5.209   1.546   5.047
 4485SOL    HW214355   5.299   1.437   5.127
 4486SOL     OW14356   4.807   4.235   4.602
 4486SOL    HW114357   4.835   4.164   4.537
 4486SOL    HW214358   4.888   4.274   4.647
 4487SOL     OW14359   2.706   2.906   6.396
 4487SOL    HW114360   2.710   2.819   6.345
 4487SOL    HW214361   2.769   2.971   6.354
 4488SOL     OW14362   6.406   3.766   5.771
 4488SOL    HW114363   6.424   3.692   5.836
 4488SOL    HW214364   6.328   3.820   5.803
 4489SOL     OW14365   6.186   5.240   4.375
 4489SOL    HW114366   6.150   5.332   4.358
 4489SOL    HW214367   6.113   5.173   4.365
 4490SOL     OW14368   6.095   2.587   3.230
 4490SOL    HW114369   6.160   2.511   3.224
 4490SOL    HW214370   6.132   2.656   3.292
 4491SOL     OW14371   0.138   2.667   4.609
 4491SOL    HW114372   0.138   2.578   4.655
 4491SOL    HW214373   0.139   2.653   4.510
 4492SOL     OW14374   5.298   4.273   1.628
 4492SOL    HW114375   5.262   4.329   1.703
 4492SOL    HW214376   5.234   4.277   1.551
 4493SOL     OW14377   4.820   6.728   5.117
 4493SOL    HW114378   4.774   6.811   5.148
 4493SOL    HW214379   4.914   6.726   5.151
 4494SOL     OW14380   6.613   1.498   5.872
 4494SOL    HW114381   6.560   1.474   5.954
 4494SOL    HW214382   6.584   1.441   5.796
 4495SOL     OW14383   4.179   6.156   4.262
 4495SOL    HW114384   4.153   6.240   4.309
 4495SOL    HW214385   4.121   6.144   4.181
 4496SOL     OW14386   5.328   5.553   1.270
 4496SOL    HW114387   5.385   5.474   1.250
 4496SOL    HW214388   5.379   5.637   1.249
 4497SOL     OW14389   4.696   1.017   6.632
 4497SOL    HW114390   4.602   0.984   6.644
 4497SOL    HW214391   4.700   1.075   6.550
 4498SOL     OW14392   6.642   3.289   6.258
 4498SOL    HW114393   6.610   3.376   6.295
 4498SOL    HW214394   6.671   3.301   6.163
 4499SOL     OW14395   6.961   3.366   4.014
 4499SOL    HW114396   7.018   3.342   3.935
 4499SOL    HW214397   6.920   3.283   4.052
 4500SOL     OW14398   3.072   3.362   3.570
 4500SOL    HW114399   3.044   3.437   3.630
 4500SOL    HW214400   3.169   3.372   3.547
 4501SOL     OW14401   6.988   2.858   5.541
 4501SOL    HW114402   6.966   2.846   5.444
 4501SOL    HW214403   6.910   2.831   5.597
 4502SOL     OW14404   0.973   1.949   6.473
 4502SOL    HW114405   0.964   1.890   6.554
 4502SOL    HW214406   0.909   2.026   6.481
 4503SOL     OW14407   3.218   0.084   2.607
 4503SOL    HW114408   3.163   0.012   2.650
 4503SOL    HW214409   3.297   0.104   2.664
 4504SOL     OW14410   6.697   1.767   4.703
 4504SOL    HW114411   6.680   1.753   4.800
 4504SOL    HW214412   6.701   1.679   4.656
 4505SOL     OW14413   6.379   5.958   3.070
 4505SOL    HW114414   6.393   6.019   2.992
 4505SOL    HW214415   6.448   5.977   3.140
 4506SOL     OW14416   4.466   2.300   3.545
 4506SOL    HW114417   4.500   2.231   3.609
 4506SOL    HW214418   4.367   2.309   3.555
 4507SOL     OW14419   5.784   5.179   2.354
 4507SOL    HW114420   5.869   5.147   2.397
 4507SOL    HW214421   5.708   5.164   2.416
 4508SOL     OW14422   1.037   4.688   5.916
 4508SOL    HW114423   1.079   4.665   6.003
 4508SOL    HW214424   1.083   4.639   5.842
 4509SOL     OW14425   5.353   2.849   2.573
 4509SOL    HW114426   5.405   2.767   2.593
 4509SOL    HW214427   5.272   2.825   2.519
 4510SOL     OW14428   4.700   0.522   4.871
 4510SOL    HW114429   4.769   0.588   4.840
 4510SOL    HW214430   4.741   0.458   4.936
 4511SOL     OW14431   6.549   3.264   6.593
 4511SOL    HW114432   6.614   3.340   6.604
 4511SOL    HW214433   6.594   3.178   6.617
 4512SOL     OW14434   2.456   0.086   5.576
 4512SOL    HW114435   2.480   0.071   5.480
 4512SOL    HW214436   2.391   0.162   5.583
 4513SOL     OW14437   5.256   6.244   0.734
 4513SOL    HW114438   5.259   6.195   0.648
 4513SOL    HW214439   5.195   6.197   0.798
 4514SOL     OW14440   4.582   1.002   5.488
 4514SOL    HW114441   4.543   0.925   5.437
 4514SOL    HW214442   4.666   0.972   5.533
 4515SOL     OW14443   0.457   3.051   6.085
 4515SOL    HW114444   0.519   3.111   6.135
 4515SOL    HW214445   0.396   3.004   6.149
 4516SOL     OW14446   1.404   0.178   6.755
 4516SOL    HW114447   1.460   0.102   6.722
 4516SOL    HW214448   1.462   0.253   6.785
 4517SOL     OW14449   3.023   0.929   6.430
 4517SOL    HW114450   2.976   0.963   6.512
 4517SOL    HW214451   3.121   0.949   6.437
 4518SOL     OW14452   6.621   1.011   3.344
 4518SOL    HW114453   6.657   1.104   3.330
 4518SOL    HW214454   6.570   0.983   3.262
 4519SOL     OW14455   5.271   0.396   2.104
 4519SOL    HW114456   5.175   0.374   2.084
 4519SOL    HW214457   5.314   0.318   2.149
 4520SOL     OW14458   5.032   5.935   3.601
 4520SOL    HW114459   5.039   5.904   3.696
 4520SOL    HW214460   5.063   6.030   3.595
 4521SOL     OW14461   5.810   1.966   3.439
 4521SOL    HW114462   5.852   1.959   3.529
 4521SOL    HW214463   5.848   2.044   3.390
 4522SOL     OW14464   5.851   6.899   3.470
 4522SOL    HW114465   5.763   6.866   3.435
 4522SOL    HW214466   5.920   6.892   3.398
 4523SOL     OW14467   1.713   4.360   0.125
 4523SOL    HW114468   1.700   4.403   0.214
 4523SOL    HW214469   1.714   4.431   0.054
 4524SOL     OW14470   5.510   2.667   3.936
 4524SOL    HW114471   5.480   2.661   4.032
 4524SOL    HW214472   5.451   2.609   3.880
 4525SOL     OW14473   5.039   1.168   3.455
 4525SOL    HW114474   4.983   1.231   3.508
 4525SOL    HW214475   4.989   1.083   3.441
 4526SOL     OW14476   5.426   0.776   1.288
 4526SOL    HW114477   5.471   0.791   1.200
 4526SOL    HW214478   5.495   0.761   1.359
 4527SOL     OW14479   3.917   1.509   3.596
 4527SOL    HW114480   3.998   1.562   3.568
 4527SOL    HW214481   3.918   1.421   3.549
 4528SOL     OW14482   4.693   6.731   0.183
 4528SOL    HW114483   4.692   6.780   0.095
 4528SOL    HW214484   4.609   6.751   0.234
 4529SOL     OW14485   3.582   1.662   5.092
 4529SOL    HW114486   3.593   1.648   4.993
 4529SOL    HW214487   3.523   1.741   5.109
 4530SOL     OW14488   0.621   3.457   6.478
 4530SOL    HW114489   0.534   3.417   6.451
 4530SOL    HW214490   0.669   3.492   6.398
 4531SOL     OW14491   0.397   3.624   3.873
 4531SOL    HW114492   0.359   3.541   3.914
 4531SOL    HW214493   0.488   3.642   3.912
 4532SOL     OW14494   5.928   2.219   3.351
 4532SOL    HW114495   5.986   2.233   3.271
 4532SOL    HW214496   5.854   2.287   3.350
 4533SOL     OW14497   1.614   0.594   2.180
 4533SOL    HW114498   1.536   0.554   2.132
 4533SOL    HW214499   1.612   0.565   2.276
 4534SOL     OW14500   4.917   4.357   5.055
 4534SOL    HW114501   4.921   4.265   5.092
 4534SOL    HW214502   4.822   4.380   5.034
 4535SOL     OW14503   4.816   1.536   2.505
 4535SOL    HW114504   4.902   1.585   2.489
 4535SOL    HW214505   4.827   1.440   2.480
 4536SOL     OW14506   4.097   1.895   3.893
 4536SOL    HW114507   4.143   1.975   3.932
 4536SOL    HW214508   4.085   1.826   3.964
 4537SOL     OW14509   3.683   3.280   5.771
 4537SOL    HW114510   3.686   3.318   5.864
 4537SOL    HW214511   3.680   3.355   5.705
 4538SOL     OW14512   2.747   0.599   4.417
 4538SOL    HW114513   2.709   0.602   4.509
 4538SOL    HW214514   2.674   0.612   4.350
 4539SOL     OW14515   2.174   1.174   4.481
 4539SOL    HW114516   2.266   1.177   4.443
 4539SOL    HW214517   2.167   1.100   4.548
 4540SOL     OW14518   3.040   3.448   4.656
 4540SOL    HW114519   3.064   3.395   4.575
 4540SOL    HW214520   3.122   3.464   4.711
 4541SOL     OW14521   5.997   1.595   0.694
 4541SOL    HW114522   5.962   1.615   0.602
 4541SOL    HW214523   5.922   1.562   0.751
 4542SOL     OW14524   6.360   0.822   2.964
 4542SOL    HW114525   6.270   0.810   2.921
 4542SOL    HW214526   6.369   0.759   3.041
 4543SOL     OW14527   4.947   1.679   1.643
 4543SOL    HW114528   4.907   1.594   1.674
 4543SOL    HW214529   4.982   1.669   1.550
 4544SOL     OW14530   3.188   6.275   6.504
 4544SOL    HW114531   3.220   6.362   6.540
 4544SOL    HW214532   3.163   6.285   6.408
 4545SOL     OW14533   5.467   3.481   4.875
 4545SOL    HW114534   5.429   3.531   4.798
 4545SOL    HW214535   5.398   3.418   4.911
 4546SOL     OW14536   2.156   1.500   6.470
 4546SOL    HW114537   2.172   1.402   6.481
 4546SOL    HW214538   2.104   1.535   6.548
 4547SOL     OW14539   5.952   2.574   2.980
 4547SOL    HW114540   6.017   2.567   3.055
 4547SOL    HW214541   5.886   2.500   2.985
 4548SOL     OW14542   1.310   4.147   4.881
 4548SOL    HW114543   1.290   4.238   4.915
 4548SOL    HW214544   1.323   4.150   4.782
 4549SOL     OW14545   6.040   4.208   2.582
 4549SOL    HW114546   6.114   4.249   2.636
 4549SOL    HW214547   6.055   4.226   2.485
 4550SOL     OW14548   1.579   6.154   3.076
 4550SOL    HW114549   1.659   6.184   3.023
 4550SOL    HW214550   1.511   6.113   3.014
 4551SOL     OW14551   6.106   1.526   6.069
 4551SOL    HW114552   6.198   1.508   6.033
 4551SOL    HW214553   6.042   1.460   6.030
 4552SOL     OW14554   6.372   2.479   1.485
 4552SOL    HW114555   6.343   2.566   1.447
 4552SOL    HW214556   6.449   2.493   1.546
 4553SOL     OW14557   3.949   4.219   6.610
 4553SOL    HW114558   3.929   4.311   6.576
 4553SOL    HW214559   3.875   4.190   6.670
 4554SOL     OW14560   4.595   0.392   1.633
 4554SOL    HW114561   4.667   0.461   1.623
 4554SOL    HW214562   4.522   0.411   1.568
 4555SOL     OW14563   3.462   1.376   5.893
 4555SOL    HW114564   3.554   1.338   5.885
 4555SOL    HW214565   3.436   1.381   5.989
 4556SOL     OW14566   4.508   2.502   4.317
 4556SOL    HW114567   4.502   2.430   4.387
 4556SOL    HW214568   4.418   2.514   4.275
 4557SOL     OW14569   4.789   6.602   4.400
 4557SOL    HW114570   4.790   6.655   4.485
 4557SOL    HW214571   4.847   6.647   4.332
 4558SOL     OW14572   0.299   3.508   5.541
 4558SOL    HW114573   0.335   3.564   5.466
 4558SOL    HW214574   0.205   3.481   5.520
 4559SOL     OW14575   1.114   4.086   1.369
 4559SOL    HW114576   1.062   4.053   1.448
 4559SOL    HW214577   1.195   4.029   1.356
 4560SOL     OW14578   5.281   5.065   2.668
 4560SOL    HW114579   5.296   5.162   2.650
 4560SOL    HW214580   5.231   5.055   2.755
 4561SOL     OW14581   2.405   0.628   1.356
 4561SOL    HW114582   2.442   0.540   1.384
 4561SOL    HW214583   2.445   0.701   1.411
 4562SOL     OW14584   3.394   6.429   5.265
 4562SOL    HW114585   3.436   6.401   5.178
 4562SOL    HW214586   3.421   6.523   5.286
 4563SOL     OW14587   0.972   4.171   0.491
 4563SOL    HW114588   0.998   4.216   0.576
 4563SOL    HW214589   0.880   4.132   0.499
 4564SOL     OW14590   0.305   6.993   1.033
 4564SOL    HW114591   0.259   7.016   0.947
 4564SOL    HW214592   0.401   6.973   1.016
 4565SOL     OW14593   6.782   0.944   5.749
 4565SOL    HW114594   6.739   1.015   5.693
 4565SOL    HW214595   6.792   0.978   5.843
 4566SOL     OW14596   6.655   1.543   0.318
 4566SOL    HW114597   6.701   1.628   0.346
 4566SOL    HW214598   6.577   1.525   0.377
 4567SOL     OW14599   6.907   0.403   0.264
 4567SOL    HW114600   6.920   0.501   0.282
 4567SOL    HW214601   6.909   0.386   0.166
 4568SOL     OW14602   1.359   4.063   5.495
 4568SOL    HW114603   1.451   4.079   5.459
 4568SOL    HW214604   1.292   4.075   5.421
 4569SOL     OW14605   1.565   1.331   3.371
 4569SOL    HW114606   1.655   1.292   3.390
 4569SOL    HW214607   1.531   1.296   3.284
 4570SOL     OW14608   1.216   6.606   3.067
 4570SOL    HW114609   1.207   6.588   3.165
 4570SOL    HW214610   1.309   6.632   3.045
 4571SOL     OW14611   3.426   2.976   6.372
 4571SOL    HW114612   3.358   3.049   6.367
 4571SOL    HW214613   3.416   2.917   6.291
 4572SOL     OW14614   1.343   6.516   7.010
 4572SOL    HW114615   1.317   6.443   6.947
 4572SOL    HW214616   1.263   6.544   0.039
 4573SOL     OW14617   6.678   6.271   0.267
 4573SOL    HW114618   6.686   6.217   0.183
 4573SOL    HW214619   6.649   6.364   0.243
 4574SOL     OW14620   6.725   3.602   1.388
 4574SOL    HW114621   6.754   3.675   1.449
 4574SOL    HW214622   6.750   3.513   1.426
 4575SOL     OW14623   5.840   2.149   6.068
 4575SOL    HW114624   5.938   2.135   6.054
 4575SOL    HW214625   5.800   2.194   5.988
 4576SOL     OW14626   2.231   5.903   6.938
 4576SOL    HW114627   2.196   5.996   6.953
 4576SOL    HW214628   2.160   5.846   6.898
 4577SOL     OW14629   1.143   2.161   4.380
 4577SOL    HW114630   1.117   2.066   4.400
 4577SOL    HW214631   1.169   2.168   4.284
 4578SOL     OW14632   1.194   3.350   4.236
 4578SOL    HW114633   1.142   3.327   4.318
 4578SOL    HW214634   1.291   3.356   4.258
 4579SOL     OW14635   4.678   2.180   2.854
 4579SOL    HW114636   4.610   2.166   2.782
 4579SOL    HW214637   4.644   2.251   2.917
 4580SOL     OW14638   4.771   5.121   6.911
 4580SOL    HW114639   4.752   5.169   6.826
 4580SOL    HW214640   4.698   5.138   6.977
 4581SOL     OW14641   3.183   4.889   3.156
 4581SOL    HW114642   3.140   4.941   3.230
 4581SOL    HW214643   3.134   4.804   3.141
 4582SOL     OW14644   5.634   6.427   4.833
 4582SOL    HW114645   5.606   6.357   4.767
 4582SOL    HW214646   5.552   6.468   4.873
 4583SOL     OW14647   3.044   1.933   5.559
 4583SOL    HW114648   2.987   1.852   5.544
 4583SOL    HW214649   2.986   2.015   5.556
 4584SOL     OW14650   0.125   5.165   5.854
 4584SOL    HW114651   0.140   5.198   5.761
 4584SOL    HW214652   0.052   5.219   5.897
 4585SOL     OW14653   2.741   6.551   3.316
 4585SOL    HW114654   2.797   6.546   3.398
 4585SOL    HW214655   2.768   6.631   3.262
 4586SOL     OW14656   3.873   4.760   0.366
 4586SOL    HW114657   3.788   4.727   0.407
 4586SOL    HW214658   3.869   4.750   0.267
 4587SOL     OW14659   4.066   3.906   2.104
 4587SOL    HW114660   3.997   3.956   2.157
 4587SOL    HW214661   4.105   3.834   2.161
 4588SOL     OW14662   4.230   4.087   5.615
 4588SOL    HW114663   4.318   4.089   5.567
 4588SOL    HW214664   4.204   4.179   5.642
 4589SOL     OW14665   5.310   1.078   2.897
 4589SOL    HW114666   5.224   1.124   2.917
 4589SOL    HW214667   5.323   1.071   2.798
 4590SOL     OW14668   4.704   5.482   0.312
 4590SOL    HW114669   4.683   5.574   0.343
 4590SOL    HW214670   4.748   5.430   0.386
 4591SOL     OW14671   0.808   5.992   4.404
 4591SOL    HW114672   0.761   6.080   4.413
 4591SOL    HW214673   0.744   5.924   4.368
 4592SOL     OW14674   3.464   1.624   1.896
 4592SOL    HW114675   3.495   1.551   1.836
 4592SOL    HW214676   3.486   1.713   1.856
 4593SOL     OW14677   4.287   5.690   3.566
 4593SOL    HW114678   4.249   5.629   3.496
 4593SOL    HW214679   4.386   5.675   3.572
 4594SOL     OW14680   3.167   0.595   1.847
 4594SOL    HW114681   3.236   0.564   1.781
 4594SOL    HW214682   3.162   0.694   1.847
 4595SOL     OW14683   3.526   2.145   6.055
 4595SOL    HW114684   3.613   2.111   6.091
 4595SOL    HW214685   3.494   2.221   6.111
 4596SOL     OW14686   5.633   6.717   3.387
 4596SOL    HW114687   5.677   6.728   3.298
 4596SOL    HW214688   5.546   6.767   3.388
 4597SOL     OW14689   4.677   4.356   6.710
 4597SOL    HW114690   4.775   4.373   6.695
 4597SOL    HW214691   4.634   4.334   6.622
 4598SOL     OW14692   2.155   5.445   0.254
 4598SOL    HW114693   2.106   5.463   0.169
 4598SOL    HW214694   2.197   5.530   0.287
 4599SOL     OW14695   1.329   5.210   0.110
 4599SOL    HW114696   1.326   5.155   0.193
 4599SOL    HW214697   1.237   5.219   0.073
 4600SOL     OW14698   1.134   4.827   5.113
 4600SOL    HW114699   1.121   4.745   5.058
 4600SOL    HW214700   1.066   4.896   5.087
 4601SOL     OW14701   1.340   6.759   5.738
 4601SOL    HW114702   1.344   6.857   5.756
 4601SOL    HW214703   1.433   6.721   5.738
 4602SOL     OW14704   1.074   5.708   1.815
 4602SOL    HW114705   1.087   5.657   1.729
 4602SOL    HW214706   1.129   5.666   1.887
 4603SOL     OW14707   3.398   6.222   0.833
 4603SOL    HW114708   3.319   6.252   0.887
 4603SOL    HW214709   3.475   6.205   0.894
 4604SOL     OW14710   4.660   0.265   1.980
 4604SOL    HW114711   4.740   0.286   1.924
 4604SOL    HW214712   4.604   0.347   1.991
 4605SOL     OW14713   3.253   1.162   3.592
 4605SOL    HW114714   3.352   1.149   3.602
 4605SOL    HW214715   3.215   1.089   3.534
 4606SOL     OW14716   0.856   0.082   1.592
 4606SOL    HW114717   0.825   0.003   1.540
 4606SOL    HW214718   0.822   0.166   1.549
 4607SOL     OW14719   2.463   2.429   1.164
 4607SOL    HW114720   2.402   2.498   1.203
 4607SOL    HW214721   2.550   2.471   1.140
 4608SOL     OW14722   0.998   5.989   3.477
 4608SOL    HW114723   1.094   5.984   3.505
 4608SOL    HW214724   0.942   5.936   3.541
 4609SOL     OW14725   4.834   4.989   5.945
 4609SOL    HW114726   4.752   5.023   5.991
 4609SOL    HW214727   4.810   4.954   5.855
 4610SOL     OW14728   5.034   2.242   0.708
 4610SOL    HW114729   5.013   2.215   0.614
 4610SOL    HW214730   5.072   2.334   0.709
 4611SOL     OW14731   0.064   6.124   6.222
 4611SOL    HW114732   6.990   6.125   6.207
 4611SOL    HW214733   0.096   6.030   6.228
 4612SOL     OW14734   0.770   5.426   0.050
 4612SOL    HW114735   0.733   5.506   0.003
 4612SOL    HW214736   0.790   5.450   0.145
 4613SOL     OW14737   2.507   5.868   2.428
 4613SOL    HW114738   2.436   5.898   2.365
 4613SOL    HW214739   2.487   5.902   2.520
 4614SOL     OW14740   0.395   3.845   4.582
 4614SOL    HW114741   0.325   3.790   4.626
 4614SOL    HW214742   0.378   3.850   4.484
 4615SOL     OW14743   2.160   1.004   6.985
 4615SOL    HW114744   2.180   0.907   6.976
 4615SOL    HW214745   2.207   1.041   0.041
 4616SOL     OW14746   5.801   0.725   5.805
 4616SOL    HW114747   5.900   0.720   5.788
 4616SOL    HW214748   5.775   0.818   5.829
 4617SOL     OW14749   0.952   2.829   1.792
 4617SOL    HW114750   0.913   2.738   1.804
 4617SOL    HW214751   0.961   2.873   1.882
 4618SOL     OW14752   2.011   2.841   5.397
 4618SOL    HW114753   1.980   2.786   5.319
 4618SOL    HW214754   2.103   2.876   5.379
 4619SOL     OW14755   3.116   6.073   2.964
 4619SOL    HW114756   3.129   6.079   2.865
 4619SOL    HW214757   3.166   6.148   3.008
 4620SOL     OW14758   3.056   4.600   0.392
 4620SOL    HW114759   3.147   4.638   0.380
 4620SOL    HW214760   3.048   4.560   0.484
 4621SOL     OW14761   4.780   1.431   2.741
 4621SOL    HW114762   4.799   1.488   2.660
 4621SOL    HW214763   4.810   1.479   2.823
 4622SOL     OW14764   2.134   4.133   0.113
 4622SOL    HW114765   2.079   4.118   0.195
 4622SOL    HW214766   2.168   4.046   0.079
 4623SOL     OW14767   6.587   6.042   0.708
 4623SOL    HW114768   6.516   6.096   0.753
 4623SOL    HW214769   6.594   6.070   0.612
 4624SOL     OW14770   5.611   0.335   3.278
 4624SOL    HW114771   5.694   0.371   3.320
 4624SOL    HW214772   5.532   0.359   3.334
 4625SOL     OW14773   1.511   3.981   0.211
 4625SOL    HW114774   1.574   4.021   0.278
 4625SOL    HW214775   1.558   3.909   0.161
 4626SOL     OW14776   5.827   5.680   2.735
 4626SOL    HW114777   5.887   5.682   2.655
 4626SOL    HW214778   5.846   5.759   2.793
 4627SOL     OW14779   3.097   5.213   3.854
 4627SOL    HW114780   3.023   5.173   3.799
 4627SOL    HW214781   3.063   5.294   3.902
 4628SOL     OW14782   5.463   3.836   4.120
 4628SOL    HW114783   5.370   3.862   4.147
 4628SOL    HW214784   5.526   3.910   4.142
 4629SOL     OW14785   2.294   5.099   5.572
 4629SOL    HW114786   2.258   5.088   5.664
 4629SOL    HW214787   2.309   5.196   5.553
 4630SOL     OW14788   3.858   5.580   2.139
 4630SOL    HW114789   3.816   5.668   2.119
 4630SOL    HW214790   3.839   5.554   2.234
 4631SOL     OW14791   2.172   6.482   3.516
 4631SOL    HW114792   2.135   6.516   3.430
 4631SOL    HW214793   2.120   6.522   3.593
 4632SOL     OW14794   3.872   5.240   2.598
 4632SOL    HW114795   3.949   5.235   2.533
 4632SOL    HW214796   3.790   5.202   2.555
 4633SOL     OW14797   5.432   1.404   3.808
 4633SOL    HW114798   5.359   1.387   3.874
 4633SOL    HW214799   5.497   1.327   3.809
 4634SOL     OW14800   2.632   4.864   6.270
 4634SOL    HW114801   2.541   4.892   6.241
 4634SOL    HW214802   2.660   4.916   6.351
 4635SOL     OW14803   5.448   4.046   1.664
 4635SOL    HW114804   5.370   3.983   1.665
 4635SOL    HW214805   5.417   4.136   1.634
 4636SOL     OW14806   2.224   4.428   0.295
 4636SOL    HW114807   2.309   4.387   0.260
 4636SOL    HW214808   2.152   4.418   0.227
 4637SOL     OW14809   1.012   0.158   6.981
 4637SOL    HW114810   1.015   0.227   6.909
 4637SOL    HW214811   1.003   0.203   0.045
 4638SOL     OW14812   4.854   3.040   0.261
 4638SOL    HW114813   4.944   2.999   0.248
 4638SOL    HW214814   4.790   2.971   0.297
 4639SOL     OW14815   2.341   4.424   4.916
 4639SOL    HW114816   2.434   4.447   4.943
 4639SOL    HW214817   2.307   4.492   4.851
 4640SOL     OW14818   5.023   4.801   3.338
 4640SOL    HW114819   5.049   4.803   3.242
 4640SOL    HW214820   5.070   4.874   3.387
 4641SOL     OW14821   2.741   6.268   4.687
 4641SOL    HW114822   2.753   6.197   4.617
 4641SOL    HW214823   2.748   6.358   4.644
 4642SOL     OW14824   0.238   5.464   4.220
 4642SOL    HW114825   0.145   5.433   4.199
 4642SOL    HW214826   0.277   5.408   4.292
 4643SOL     OW14827   5.925   2.995   1.290
 4643SOL    HW114828   5.915   2.933   1.213
 4643SOL    HW214829   5.969   2.947   1.366
 4644SOL     OW14830   0.117   4.587   5.339
 4644SOL    HW114831   0.121   4.491   5.311
 4644SOL    HW214832   0.128   4.645   5.259
 4645SOL     OW14833   1.110   1.239   4.831
 4645SOL    HW114834   1.054   1.283   4.761
 4645SOL    HW214835   1.122   1.301   4.909
 4646SOL     OW14836   2.268   5.739   3.414
 4646SOL    HW114837   2.288   5.683   3.494
 4646SOL    HW214838   2.308   5.696   3.333
 4647SOL     OW14839   1.449   0.954   4.009
 4647SOL    HW114840   1.527   0.948   4.072
 4647SOL    HW214841   1.482   0.983   3.919
 4648SOL     OW14842   4.386   0.945   2.127
 4648SOL    HW114843   4.297   0.988   2.112
 4648SOL    HW214844   4.432   0.990   2.204
 4649SOL     OW14845   5.385   0.538   6.297
 4649SOL    HW114846   5.418   0.600   6.368
 4649SOL    HW214847   5.296   0.569   6.265
 4650SOL     OW14848   4.998   5.515   3.700
 4650SOL    HW114849   4.983   5.495   3.796
 4650SOL    HW214850   4.941   5.592   3.672
 4651SOL     OW14851   6.787   1.560   0.929
 4651SOL    HW114852   6.846   1.638   0.952
 4651SOL    HW214853   6.724   1.543   1.005
 4652SOL     OW14854   0.329   0.016   4.291
 4652SOL    HW114855   0.235   0.041   4.313
 4652SOL    HW214856   0.378   7.016   4.375
 4653SOL     OW14857   5.856   4.901   7.010
 4653SOL    HW114858   5.765   4.899   0.026
 4653SOL    HW214859   5.850   4.896   6.911
 4654SOL     OW14860   0.509   6.314   0.401
 4654SOL    HW114861   0.515   6.301   0.302
 4654SOL    HW214862   0.597   6.293   0.443
 4655SOL     OW14863   6.672   5.290   1.847
 4655SOL    HW114864   6.761   5.246   1.845
 4655SOL    HW214865   6.678   5.381   1.806
 4656SOL     OW14866   1.048   0.424   3.715
 4656SOL    HW114867   1.072   0.378   3.801
 4656SOL    HW214868   1.063   0.362   3.638
 4657SOL     OW14869   5.168   6.240   1.486
 4657SOL    HW114870   5.118   6.282   1.410
 4657SOL    HW214871   5.128   6.271   1.572
 4658SOL     OW14872   4.221   1.481   2.747
 4658SOL    HW114873   4.216   1.407   2.680
 4658SOL    HW214874   4.203   1.444   2.838
 4659SOL     OW14875   3.109   4.362   5.308
 4659SOL    HW114876   3.028   4.389   5.256
 4659SOL    HW214877   3.121   4.263   5.303
 4660SOL     OW14878   1.058   3.473   5.522
 4660SOL    HW114879   1.035   3.520   5.607
 4660SOL    HW214880   1.070   3.539   5.449
 4661SOL     OW14881   3.460   3.930   5.989
 4661SOL    HW114882   3.549   3.976   5.992
 4661SOL    HW214883   3.464   3.846   6.043
 4662SOL     OW14884   3.855   6.706   4.832
 4662SOL    HW114885   3.852   6.747   4.923
 4662SOL    HW214886   3.814   6.769   4.765
 4663SOL     OW14887   0.283   1.857   3.083
 4663SOL    HW114888   0.194   1.825   3.052
 4663SOL    HW214889   0.311   1.805   3.163
 4664SOL     OW14890   1.817   1.396   0.439
 4664SOL    HW114891   1.779   1.350   0.520
 4664SOL    HW214892   1.908   1.359   0.421
 4665SOL     OW14893   3.311   6.711   0.153
 4665SOL    HW114894   3.348   6.741   0.241
 4665SOL    HW214895   3.386   6.681   0.094
 4666SOL     OW14896   1.503   2.127   1.184
 4666SOL    HW114897   1.441   2.055   1.153
 4666SOL    HW214898   1.590   2.086   1.213
 4667SOL     OW14899   6.290   4.171   2.065
 4667SOL    HW114900   6.362   4.174   1.996
 4667SOL    HW214901   6.260   4.264   2.086
 4668SOL     OW14902   5.221   1.801   3.468
 4668SOL    HW114903   5.256   1.867   3.534
 4668SOL    HW214904   5.297   1.764   3.415
 4669SOL     OW14905   4.271   6.594   6.579
 4669SOL    HW114906   4.171   6.587   6.585
 4669SOL    HW214907   4.310   6.588   6.670
 4670SOL     OW14908   3.041   2.291   5.428
 4670SOL    HW114909   3.041   2.358   5.354
 4670SOL    HW214910   3.104   2.321   5.500
 4671SOL     OW14911   6.438   2.189   2.290
 4671SOL    HW114912   6.503   2.257   2.256
 4671SOL    HW214913   6.417   2.124   2.218
 4672SOL     OW14914   2.726   4.186   6.087
 4672SOL    HW114915   2.794   4.213   6.019
 4672SOL    HW214916   2.700   4.265   6.142
 4673SOL     OW14917   4.962   6.726   1.257
 4673SOL    HW114918   4.887   6.684   1.206
 4673SOL    HW214919   5.038   6.746   1.196
 4674SOL     OW14920   5.042   6.823   6.606
 4674SOL    HW114921   4.986   6.867   6.675
 4674SOL    HW214922   5.000   6.836   6.516
 4675SOL     OW14923   7.019   1.903   6.293
 4675SOL    HW114924   0.065   1.971   6.317
 4675SOL    HW214925   6.995   1.850   6.375
 4676SOL     OW14926   6.875   6.325   3.906
 4676SOL    HW114927   6.821   6.408   3.898
 4676SOL    HW214928   6.963   6.337   3.859
 4677SOL     OW14929   2.782   1.157   0.169
 4677SOL    HW114930   2.713   1.208   0.220
 4677SOL    HW214931   2.746   1.067   0.144
 4678SOL     OW14932   1.710   4.686   2.815
 4678SOL    HW114933   1.645   4.624   2.858
 4678SOL    HW214934   1.796   4.637   2.798
 4679SOL     OW14935   3.699   0.319   1.224
 4679SOL    HW114936   3.672   0.322   1.127
 4679SOL    HW214937   3.785   0.270   1.233
 4680SOL     OW14938   3.648   1.510   6.739
 4680SOL    HW114939   3.668   1.414   6.758
 4680SOL    HW214940   3.677   1.566   6.816
 4681SOL     OW14941   5.353   5.076   6.720
 4681SOL    HW114942   5.399   5.000   6.672
 4681SOL    HW214943   5.263   5.046   6.749
 4682SOL     OW14944   4.981   4.358   5.310
 4682SOL    HW114945   4.958   4.377   5.215
 4682SOL    HW214946   5.008   4.262   5.320
 4683SOL     OW14947   4.915   5.159   2.528
 4683SOL    HW114948   4.822   5.179   2.557
 4683SOL    HW214949   4.975   5.155   2.609
 4684SOL     OW14950   5.378   0.629   5.108
 4684SOL    HW114951   5.295   0.658   5.156
 4684SOL    HW214952   5.352   0.573   5.029
 4685SOL     OW14953   1.691   5.225   5.576
 4685SOL    HW114954   1.727   5.220   5.669
 4685SOL    HW214955   1.736   5.157   5.519
 4686SOL     OW14956   4.755   5.265   6.649
 4686SOL    HW114957   4.656   5.268   6.642
 4686SOL    HW214958   4.791   5.358   6.657
 4687SOL     OW14959   5.105   3.393   4.278
 4687SOL    HW114960   5.079   3.467   4.340
 4687SOL    HW214961   5.022   3.347   4.245
 4688SOL     OW14962   5.959   3.775   5.193
 4688SOL    HW114963   5.966   3.875   5.193
 4688SOL    HW214964   5.886   3.747   5.256
 4689SOL     OW14965   4.718   0.886   0.142
 4689SOL    HW114966   4.727   0.816   0.213
 4689SOL    HW214967   4.742   0.847   0.054
 4690SOL     OW14968   0.889   0.341   0.173
 4690SOL    HW114969   0.927   0.399   0.245
 4690SOL    HW214970   0.865   0.252   0.211
 4691SOL     OW14971   2.994   4.336   0.907
 4691SOL    HW114972   2.997   4.246   0.864
 4691SOL    HW214973   2.906   4.379   0.888
 4692SOL     OW14974   5.531   5.471   2.182
 4692SOL    HW114975   5.486   5.532   2.247
 4692SOL    HW214976   5.467   5.400   2.153
 4693SOL     OW14977   1.009   1.714   2.925
 4693SOL    HW114978   1.028   1.802   2.969
 4693SOL    HW214979   1.091   1.682   2.878
 4694SOL     OW14980   2.464   1.237   0.122
 4694SOL    HW114981   2.427   1.266   0.033
 4694SOL    HW214982   2.421   1.291   0.195
 4695SOL     OW14983   1.573   4.307   2.041
 4695SOL    HW114984   1.530   4.394   2.019
 4695SOL    HW214985   1.671   4.313   2.027
 4696SOL     OW14986   0.293   3.807   0.306
 4696SOL    HW114987   0.266   3.850   0.220
 4696SOL    HW214988   0.284   3.708   0.298
 4697SOL     OW14989   1.615   4.021   1.383
 4697SOL    HW114990   1.642   4.101   1.330
 4697SOL    HW214991   1.671   4.014   1.465
 4698SOL     OW14992   4.459   5.854   2.822
 4698SOL    HW114993   4.488   5.809   2.738
 4698SOL    HW214994   4.359   5.864   2.822
 4699SOL     OW14995   1.342   6.503   2.291
 4699SOL    HW114996   1.435   6.471   2.311
 4699SOL    HW214997   1.295   6.527   2.376
 4700SOL     OW14998   6.728   1.062   2.954
 4700SOL    HW114999   6.762   1.132   3.017
 4700SOL    HW215000   6.794   0.988   2.948
 4701SOL     OW15001   3.235   2.340   0.487
 4701SOL    HW115002   3.302   2.275   0.522
 4701SOL    HW215003   3.266   2.433   0.505
 4702SOL     OW15004   5.091   4.936   0.361
 4702SOL    HW115005   5.121   4.954   0.268
 4702SOL    HW215006   5.099   5.020   0.415
 4703SOL     OW15007   0.079   0.522   2.178
 4703SOL    HW115008   0.085   0.536   2.079
 4703SOL    HW215009   0.019   0.443   2.197
 4704SOL     OW15010   6.680   6.751   6.264
 4704SOL    HW115011   6.757   6.765   6.201
 4704SOL    HW215012   6.603   6.713   6.215
 4705SOL     OW15013   3.891   2.691   1.069
 4705SOL    HW115014   3.956   2.616   1.070
 4705SOL    HW215015   3.798   2.654   1.073
 4706SOL     OW15016   2.710   0.257   0.499
 4706SOL    HW115017   2.751   0.277   0.409
 4706SOL    HW215018   2.628   0.313   0.512
 4707SOL     OW15019   1.267   6.923   0.169
 4707SOL    HW115020   1.334   6.997   0.168
 4707SOL    HW215021   1.298   6.850   0.230
 4708SOL     OW15022   1.288   2.616   6.237
 4708SOL    HW115023   1.372   2.620   6.182
 4708SOL    HW215024   1.210   2.602   6.177
 4709SOL     OW15025   4.533   5.551   5.323
 4709SOL    HW115026   4.509   5.535   5.227
 4709SOL    HW215027   4.453   5.535   5.381
 4710SOL     OW15028   4.791   0.162   5.734
 4710SOL    HW115029   4.885   0.189   5.755
 4710SOL    HW215030   4.781   0.152   5.635
 4711SOL     OW15031   6.305   1.511   1.542
 4711SOL    HW115032   6.213   1.473   1.551
 4711SOL    HW215033   6.369   1.438   1.520
 4712SOL     OW15034   2.786   5.305   6.377
 4712SOL    HW115035   2.794   5.359   6.292
 4712SOL    HW215036   2.734   5.357   6.444
 4713SOL     OW15037   3.421   4.481   0.975
 4713SOL    HW115038   3.499   4.459   1.033
 4713SOL    HW215039   3.441   4.454   0.881
 4714SOL     OW15040   1.057   1.590   6.113
 4714SOL    HW115041   1.106   1.653   6.053
 4714SOL    HW215042   0.977   1.636   6.152
 4715SOL     OW15043   5.692   3.354   2.304
 4715SOL    HW115044   5.716   3.398   2.218
 4715SOL    HW215045   5.702   3.255   2.296
 4716SOL     OW15046   4.462   6.620   6.379
 4716SOL    HW115047   4.541   6.663   6.424
 4716SOL    HW215048   4.398   6.588   6.449
 4717SOL     OW15049   0.605   6.322   3.661
 4717SOL    HW115050   0.679   6.386   3.640
 4717SOL    HW215051   0.624   6.234   3.617
 4718SOL     OW15052   5.931   2.154   1.089
 4718SOL    HW115053   5.880   2.184   1.009
 4718SOL    HW215054   6.016   2.207   1.097
 4719SOL     OW15055   4.787   3.054   1.648
 4719SOL    HW115056   4.709   3.051   1.711
 4719SOL    HW215057   4.805   3.149   1.623
 4720SOL     OW15058   2.066   5.083   6.219
 4720SOL    HW115059   1.976   5.122   6.200
 4720SOL    HW215060   2.061   4.983   6.215
 4721SOL     OW15061   6.664   1.513   2.490
 4721SOL    HW115062   6.591   1.532   2.557
 4721SOL    HW215063   6.645   1.564   2.406
 4722SOL     OW15064   1.193   6.249   6.699
 4722SOL    HW115065   1.096   6.275   6.696
 4722SOL    HW215066   1.204   6.157   6.662
 4723SOL     OW15067   2.723   3.329   6.037
 4723SOL    HW115068   2.712   3.231   6.052
 4723SOL    HW215069   2.645   3.377   6.077
 4724SOL     OW15070   6.235   0.022   3.729
 4724SOL    HW115071   6.145   7.006   3.746
 4724SOL    HW215072   6.292   0.010   3.810
 4725SOL     OW15073   6.744   4.873   1.087
 4725SOL    HW115074   6.798   4.832   1.160
 4725SOL    HW215075   6.782   4.846   0.998
 4726SOL     OW15076   1.254   3.317   6.177
 4726SOL    HW115077   1.287   3.322   6.271
 4726SOL    HW215078   1.319   3.264   6.121
 4727SOL     OW15079   0.992   6.316   1.310
 4727SOL    HW115080   0.916   6.367   1.350
 4727SOL    HW215081   1.022   6.360   1.226
 4728SOL     OW15082   5.708   1.392   1.509
 4728SOL    HW115083   5.740   1.297   1.518
 4728SOL    HW215084   5.761   1.451   1.571
 4729SOL     OW15085   4.434   1.263   0.732
 4729SOL    HW115086   4.529   1.241   0.752
 4729SOL    HW215087   4.425   1.360   0.710
 4730SOL     OW15088   3.106   5.752   5.117
 4730SOL    HW115089   3.125   5.764   5.020
 4730SOL    HW215090   3.137   5.661   5.145
 4731SOL     OW15091   3.076   0.135   0.308
 4731SOL    HW115092   3.000   0.195   0.284
 4731SOL    HW215093   3.082   0.127   0.408
 4732SOL     OW15094   1.269   4.046   5.189
 4732SOL    HW115095   1.231   4.120   5.134
 4732SOL    HW215096   1.356   4.017   5.149
 4733SOL     OW15097   1.863   3.983   3.651
 4733SOL    HW115098   1.952   3.993   3.694
 4733SOL    HW215099   1.874   3.983   3.551
 4734SOL     OW15100   4.853   3.648   0.012
 4734SOL    HW115101   4.894   3.737   0.029
 4734SOL    HW215102   4.924   3.578   0.014
 4735SOL     OW15103   0.100   5.206   4.893
 4735SOL    HW115104   0.158   5.284   4.870
 4735SOL    HW215105   0.140   5.156   4.970
 4736SOL     OW15106   6.092   1.770   5.772
 4736SOL    HW115107   6.039   1.774   5.856
 4736SOL    HW215108   6.163   1.841   5.774
 4737SOL     OW15109   3.053   4.289   1.693
 4737SOL    HW115110   3.005   4.356   1.749
 4737SOL    HW215111   3.025   4.300   1.597
 4738SOL     OW15112   2.049   6.253   3.009
 4738SOL    HW115113   2.136   6.256   3.058
 4738SOL    HW215114   2.062   6.285   2.915
 4739SOL     OW15115   4.909   1.567   2.932
 4739SOL    HW115116   4.892   1.573   3.030
 4739SOL    HW215117   4.946   1.654   2.900
 4740SOL     OW15118   0.307   2.049   0.744
 4740SOL    HW115119   0.326   1.963   0.696
 4740SOL    HW215120   0.253   2.031   0.826
 4741SOL     OW15121   5.469   4.260   0.767
 4741SOL    HW115122   5.568   4.254   0.780
 4741SOL    HW215123   5.423   4.231   0.850
 4742SOL     OW15124   3.065   0.050   6.856
 4742SOL    HW115125   3.035   0.007   6.941
 4742SOL    HW215126   3.071   7.005   6.784
 4743SOL     OW15127   1.928   3.492   5.279
 4743SOL    HW115128   1.841   3.463   5.319
 4743SOL    HW215129   1.938   3.591   5.291
 4744SOL     OW15130   2.685   3.997   6.295
 4744SOL    HW115131   2.688   3.901   6.268
 4744SOL    HW215132   2.696   4.055   6.214
 4745SOL     OW15133   3.262   5.582   6.107
 4745SOL    HW115134   3.323   5.538   6.041
 4745SOL    HW215135   3.270   5.536   6.195
 4746SOL     OW15136   5.296   6.371   2.368
 4746SOL    HW115137   5.220   6.373   2.432
 4746SOL    HW215138   5.347   6.286   2.379
 4747SOL     OW15139   1.982   4.124   6.076
 4747SOL    HW115140   2.025   4.203   6.032
 4747SOL    HW215141   2.046   4.081   6.139
 4748SOL     OW15142   1.075   4.927   0.591
 4748SOL    HW115143   1.063   4.886   0.681
 4748SOL    HW215144   1.115   5.019   0.601
 4749SOL     OW15145   3.169   6.277   5.304
 4749SOL    HW115146   3.259   6.314   5.283
 4749SOL    HW215147   3.165   6.252   5.401
 4750SOL     OW15148   0.416   3.691   3.611
 4750SOL    HW115149   0.326   3.674   3.570
 4750SOL    HW215150   0.411   3.676   3.709
 4751SOL     OW15151   2.981   2.457   1.156
 4751SOL    HW115152   3.002   2.398   1.234
 4751SOL    HW215153   3.023   2.546   1.170
 4752SOL     OW15154   3.468   0.462   6.641
 4752SOL    HW115155   3.452   0.399   6.717
 4752SOL    HW215156   3.549   0.432   6.590
 4753SOL     OW15157   5.143   0.247   3.675
 4753SOL    HW115158   5.224   0.250   3.734
 4753SOL    HW215159   5.063   0.276   3.728
 4754SOL     OW15160   5.988   0.034   4.592
 4754SOL    HW115161   5.958   0.060   4.500
 4754SOL    HW215162   5.947   0.097   4.659
 4755SOL     OW15163   2.308   0.679   0.919
 4755SOL    HW115164   2.288   0.774   0.943
 4755SOL    HW215165   2.400   0.673   0.880
 4756SOL     OW15166   6.247   3.464   1.348
 4756SOL    HW115167   6.244   3.368   1.321
 4756SOL    HW215168   6.338   3.486   1.384
 4757SOL     OW15169   2.439   1.951   0.547
 4757SOL    HW115170   2.531   1.971   0.580
 4757SOL    HW215171   2.444   1.910   0.456
 4758SOL     OW15172   2.331   6.601   4.454
 4758SOL    HW115173   2.379   6.540   4.517
 4758SOL    HW215174   2.234   6.603   4.479
 4759SOL     OW15175   5.340   4.868   4.877
 4759SOL    HW115176   5.306   4.807   4.949
 4759SOL    HW215177   5.425   4.831   4.839
 4760SOL     OW15178   3.487   2.134   0.022
 4760SOL    HW115179   3.433   2.055   0.050
 4760SOL    HW215180   3.469   2.210   0.084
 4761SOL     OW15181   0.576   6.051   0.172
 4761SOL    HW115182   0.498   6.067   0.232
 4761SOL    HW215183   0.573   6.115   0.096
 4762SOL     OW15184   1.489   5.610   2.889
 4762SOL    HW115185   1.391   5.620   2.907
 4762SOL    HW215186   1.504   5.599   2.791
 4763SOL     OW15187   6.589   6.291   3.270
 4763SOL    HW115188   6.599   6.295   3.369
 4763SOL    HW215189   6.492   6.279   3.247
 4764SOL     OW15190   4.940   3.843   4.991
 4764SOL    HW115191   4.908   3.898   4.914
 4764SOL    HW215192   4.888   3.758   4.995
 4765SOL     OW15193   4.467   0.978   3.961
 4765SOL    HW115194   4.403   0.902   3.971
 4765SOL    HW215195   4.418   1.064   3.976
 4766SOL     OW15196   5.263   5.377   4.231
 4766SOL    HW115197   5.228   5.283   4.228
 4766SOL    HW215198   5.190   5.438   4.262
 4767SOL     OW15199   3.688   5.323   6.092
 4767SOL    HW115200   3.715   5.321   5.996
 4767SOL    HW215201   3.746   5.260   6.144
 4768SOL     OW15202   4.220   1.196   4.923
 4768SOL    HW115203   4.141   1.257   4.912
 4768SOL    HW215204   4.297   1.231   4.870
 4769SOL     OW15205   5.153   4.485   0.340
 4769SOL    HW115206   5.239   4.506   0.294
 4769SOL    HW215207   5.167   4.411   0.406
 4770SOL     OW15208   1.166   0.591   4.373
 4770SOL    HW115209   1.244   0.578   4.311
 4770SOL    HW215210   1.139   0.503   4.412
 4771SOL     OW15211   3.434   5.398   5.984
 4771SOL    HW115212   3.517   5.365   6.028
 4771SOL    HW215213   3.365   5.326   5.983
 4772SOL     OW15214   3.261   4.408   1.297
 4772SOL    HW115215   3.217   4.461   1.369
 4772SOL    HW215216   3.249   4.455   1.209
 4773SOL     OW15217   0.198   5.567   4.575
 4773SOL    HW115218   0.123   5.569   4.641
 4773SOL    HW215219   0.173   5.619   4.494
 4774SOL     OW15220   1.190   2.463   1.896
 4774SOL    HW115221   1.234   2.553   1.900
 4774SOL    HW215222   1.214   2.418   1.810
 4775SOL     OW15223   5.059   6.337   2.551
 4775SOL    HW115224   5.024   6.281   2.475
 4775SOL    HW215225   4.983   6.370   2.606
 4776SOL     OW15226   1.070   6.239   5.461
 4776SOL    HW115227   0.995   6.189   5.503
 4776SOL    HW215228   1.112   6.300   5.528
 4777SOL     OW15229   2.495   5.156   1.067
 4777SOL    HW115230   2.486   5.252   1.093
 4777SOL    HW215231   2.581   5.120   1.101
 4778SOL     OW15232   6.730   3.072   3.161
 4778SOL    HW115233   6.646   3.018   3.162
 4778SOL    HW215234   6.782   3.051   3.078
 4779SOL     OW15235   6.223   6.550   2.594
 4779SOL    HW115236   6.315   6.554   2.554
 4779SOL    HW215237   6.193   6.643   2.616
 4780SOL     OW15238   5.859   0.686   0.030
 4780SOL    HW115239   5.901   0.690   0.121
 4780SOL    HW215240   5.768   0.727   0.034
 4781SOL     OW15241   2.281   5.901   2.254
 4781SOL    HW115242   2.222   5.821   2.264
 4781SOL    HW215243   2.227   5.984   2.268
 4782SOL     OW15244   4.271   5.560   6.945
 4782SOL    HW115245   4.224   5.566   0.009
 4782SOL    HW215246   4.233   5.484   6.892
 4783SOL     OW15247   4.860   4.656   7.005
 4783SOL    HW115248   4.903   4.741   6.975
 4783SOL    HW215249   4.918   4.579   6.979
 4784SOL     OW15250   5.828   4.255   6.640
 4784SOL    HW115251   5.741   4.209   6.654
 4784SOL    HW215252   5.900   4.187   6.627
 4785SOL     OW15253   0.179   6.462   2.371
 4785SOL    HW115254   0.259   6.507   2.330
 4785SOL    HW215255   0.170   6.490   2.466
 4786SOL     OW15256   2.722   1.786   0.308
 4786SOL    HW115257   2.711   1.712   0.241
 4786SOL    HW215258   2.808   1.773   0.358
 4787SOL     OW15259   4.090   1.712   2.691
 4787SOL    HW115260   4.138   1.745   2.609
 4787SOL    HW215261   4.127   1.623   2.717
 4788SOL     OW15262   0.581   5.676   5.460
 4788SOL    HW115263   0.558   5.590   5.415
 4788SOL    HW215264   0.532   5.683   5.547
 4789SOL     OW15265   5.371   1.592   1.165
 4789SOL    HW115266   5.436   1.518   1.185
 4789SOL    HW215267   5.334   1.579   1.073
 4790SOL     OW15268   6.501   2.476   5.047
 4790SOL    HW115269   6.465   2.492   4.955
 4790SOL    HW215270   6.425   2.463   5.110
 4791SOL     OW15271   6.316   2.438   2.031
 4791SOL    HW115272   6.278   2.449   1.940
 4791SOL    HW215273   6.249   2.468   2.099
 4792SOL     OW15274   2.254   4.078   2.970
 4792SOL    HW115275   2.245   3.978   2.977
 4792SOL    HW215276   2.163   4.120   2.975
 4793SOL     OW15277   1.906   2.787   5.925
 4793SOL    HW115278   1.946   2.778   5.834
 4793SOL    HW215279   1.838   2.861   5.925
 4794SOL     OW15280   4.314   0.368   3.210
 4794SOL    HW115281   4.326   0.363   3.309
 4794SOL    HW215282   4.256   0.446   3.187
 4795SOL     OW15283   5.829   2.520   4.144
 4795SOL    HW115284   5.926   2.539   4.156
 4795SOL    HW215285   5.815   2.467   4.061
 4796SOL     OW15286   5.210   1.479   5.380
 4796SOL    HW115287   5.186   1.398   5.433
 4796SOL    HW215288   5.186   1.464   5.284
 4797SOL     OW15289   1.263   6.255   5.903
 4797SOL    HW115290   1.354   6.218   5.920
 4797SOL    HW215291   1.218   6.276   5.989
 4798SOL     OW15292   0.085   3.350   4.522
 4798SOL    HW115293   7.022   3.322   4.482
 4798SOL    HW215294   0.070   3.429   4.582
 4799SOL     OW15295   5.344   2.410   6.935
 4799SOL    HW115296   5.354   2.311   6.923
 4799SOL    HW215297   5.435   2.452   6.932
 4800SOL     OW15298   3.225   3.257   6.045
 4800SOL    HW115299   3.237   3.161   6.019
 4800SOL    HW215300   3.261   3.316   5.972
 4801SOL     OW15301   2.899   2.292   6.972
 4801SOL    HW115302   2.895   2.373   6.914
 4801SOL    HW215303   2.972   2.231   6.941
 4802SOL     OW15304   0.862   6.038   2.592
 4802SOL    HW115305   0.941   5.992   2.552
 4802SOL    HW215306   0.891   6.126   2.630
 4803SOL     OW15307   1.071   5.228   1.044
 4803SOL    HW115308   1.132   5.149   1.035
 4803SOL    HW215309   1.123   5.312   1.027
 4804SOL     OW15310   5.173   6.029   6.972
 4804SOL    HW115311   5.137   6.110   7.018
 4804SOL    HW215312   5.225   5.974   0.013
 4805SOL     OW15313   5.171   1.217   2.379
 4805SOL    HW115314   5.115   1.289   2.421
 4805SOL    HW215315   5.214   1.253   2.296
 4806SOL     OW15316   1.085   4.632   3.350
 4806SOL    HW115317   1.096   4.611   3.447
 4806SOL    HW215318   1.003   4.586   3.315
 4807SOL     OW15319   0.762   4.843   0.271
 4807SOL    HW115320   0.849   4.864   0.227
 4807SOL    HW215321   0.765   4.751   0.310
 4808SOL     OW15322   5.592   3.997   6.588
 4808SOL    HW115323   5.542   4.083   6.570
 4808SOL    HW215324   5.593   3.942   6.505
 4809SOL     OW15325   3.339   4.553   0.112
 4809SOL    HW115326   3.426   4.603   0.110
 4809SOL    HW215327   3.290   4.576   0.196
 4810SOL     OW15328   1.386   4.962   2.698
 4810SOL    HW115329   1.309   5.007   2.652
 4810SOL    HW215330   1.350   4.903   2.772
 4811SOL     OW15331   2.902   3.806   1.740
 4811SOL    HW115332   2.998   3.780   1.738
 4811SOL    HW215333   2.891   3.892   1.790
 4812SOL     OW15334   6.598   5.373   4.091
 4812SOL    HW115335   6.558   5.393   4.180
 4812SOL    HW215336   6.680   5.317   4.102
 4813SOL     OW15337   4.922   2.212   1.688
 4813SOL    HW115338   4.838   2.168   1.655
 4813SOL    HW215339   4.912   2.231   1.786
 4814SOL     OW15340   6.415   4.001   0.745
 4814SOL    HW115341   6.348   3.951   0.800
 4814SOL    HW215342   6.382   4.008   0.651
 4815SOL     OW15343   5.673   4.622   2.977
 4815SOL    HW115344   5.614   4.645   2.899
 4815SOL    HW215345   5.630   4.653   3.061
 4816SOL     OW15346   1.666   4.655   0.872
 4816SOL    HW115347   1.639   4.571   0.825
 4816SOL    HW215348   1.596   4.680   0.938
 4817SOL     OW15349   0.190   2.088   6.349
 4817SOL    HW115350   0.160   2.140   6.269
 4817SOL    HW215351   0.167   2.138   6.433
 4818SOL     OW15352   1.276   6.423   4.023
 4818SOL    HW115353   1.296   6.378   3.936
 4818SOL    HW215354   1.244   6.356   4.090
 4819SOL     OW15355   1.435   1.640   0.267
 4819SOL    HW115356   1.526   1.600   0.251
 4819SOL    HW215357   1.437   1.699   0.347
 4820SOL     OW15358   5.928   2.434   2.056
 4820SOL    HW115359   5.992   2.415   1.982
 4820SOL    HW215360   5.900   2.530   2.052
 4821SOL     OW15361   1.307   6.320   3.030
 4821SOL    HW115362   1.238   6.257   2.994
 4821SOL    HW215363   1.273   6.364   3.113
 4822SOL     OW15364   2.476   2.123   5.282
 4822SOL    HW115365   2.400   2.070   5.319
 4822SOL    HW215366   2.464   2.133   5.183
 4823SOL     OW15367   1.753   0.944   4.777
 4823SOL    HW115368   1.769   0.870   4.711
 4823SOL    HW215369   1.663   0.985   4.759
 4824SOL     OW15370   4.866   2.655   4.968
 4824SOL    HW115371   4.843   2.563   5.000
 4824SOL    HW215372   4.790   2.690   4.913
 4825SOL     OW15373   1.929   3.001   5.096
 4825SOL    HW115374   1.944   2.903   5.084
 4825SOL    HW215375   2.016   3.049   5.096
 4826SOL     OW15376   5.508   1.545   6.929
 4826SOL    HW115377   5.503   1.643   6.953
 4826SOL    HW215378   5.532   1.493   7.011
 4827SOL     OW15379   6.465   1.672   0.661
 4827SOL    HW115380   6.515   1.758   0.644
 4827SOL    HW215381   6.530   1.599   0.679
 4828SOL     OW15382   5.039   2.536   0.999
 4828SOL    HW115383   5.043   2.462   1.066
 4828SOL    HW215384   4.965   2.517   0.934
 4829SOL     OW15385   4.034   6.459   5.805
 4829SOL    HW115386   4.042   6.402   5.723
 4829SOL    HW215387   4.026   6.401   5.886
 4830SOL     OW15388   4.426   6.383   4.135
 4830SOL    HW115389   4.447   6.288   4.159
 4830SOL    HW215390   4.384   6.386   4.044
 4831SOL     OW15391   1.143   4.254   6.027
 4831SOL    HW115392   1.089   4.189   5.972
 4831SOL    HW215393   1.116   4.347   6.003
 4832SOL     OW15394   3.844   4.062   3.891
 4832SOL    HW115395   3.772   4.077   3.823
 4832SOL    HW215396   3.822   4.113   3.974
 4833SOL     OW15397   5.117   1.947   3.044
 4833SOL    HW115398   5.102   2.022   2.980
 4833SOL    HW215399   5.031   1.923   3.089
 4834SOL     OW15400   3.238   6.434   1.216
 4834SOL    HW115401   3.235   6.476   1.125
 4834SOL    HW215402   3.148   6.443   1.260
 4835SOL     OW15403   5.435   1.845   6.731
 4835SOL    HW115404   5.354   1.896   6.702
 4835SOL    HW215405   5.509   1.861   6.667
 4836SOL     OW15406   5.150   2.213   4.947
 4836SOL    HW115407   5.135   2.276   5.023
 4836SOL    HW215408   5.075   2.147   4.943
 4837SOL     OW15409   6.980   4.087   2.936
 4837SOL    HW115410   6.899   4.029   2.942
 4837SOL    HW215411   6.963   4.173   2.983
 4838SOL     OW15412   0.998   5.275   0.032
 4838SOL    HW115413   0.914   5.330   0.026
 4838SOL    HW215414   0.975   5.178   0.021
 4839SOL     OW15415   1.775   3.367   0.359
 4839SOL    HW115416   1.690   3.372   0.411
 4839SOL    HW215417   1.840   3.436   0.393
 4840SOL     OW15418   6.724   4.589   6.662
 4840SOL    HW115419   6.656   4.561   6.594
 4840SOL    HW215420   6.761   4.679   6.638
 4841SOL     OW15421   2.114   5.235   2.366
 4841SOL    HW115422   2.178   5.304   2.400
 4841SOL    HW215423   2.165   5.154   2.338
 4842SOL     OW15424   3.801   5.213   2.225
 4842SOL    HW115425   3.810   5.230   2.126
 4842SOL    HW215426   3.892   5.203   2.265
 4843SOL     OW15427   6.157   3.129   1.673
 4843SOL    HW115428   6.148   3.176   1.761
 4843SOL    HW215429   6.219   3.051   1.684
 4844SOL     OW15430   0.563   3.064   6.653
 4844SOL    HW115431   0.626   3.130   6.611
 4844SOL    HW215432   0.609   3.017   6.728
 4845SOL     OW15433   5.207   5.015   6.411
 4845SOL    HW115434   5.129   4.986   6.356
 4845SOL    HW215435   5.177   5.083   6.478
 4846SOL     OW15436   6.719   2.298   3.519
 4846SOL    HW115437   6.732   2.264   3.426
 4846SOL    HW215438   6.785   2.371   3.537
 4847SOL     OW15439   2.588   0.667   6.768
 4847SOL    HW115440   2.569   0.756   6.726
 4847SOL    HW215441   2.649   0.614   6.709
 4848SOL     OW15442   1.984   1.056   4.749
 4848SOL    HW115443   1.895   1.012   4.760
 4848SOL    HW215444   2.043   1.030   4.826
 4849SOL     OW15445   1.044   5.881   6.766
 4849SOL    HW115446   1.021   5.817   6.693
 4849SOL    HW215447   1.110   5.948   6.733
 4850SOL     OW15448   4.172   1.163   1.712
 4850SOL    HW115449   4.136   1.073   1.738
 4850SOL    HW215450   4.265   1.153   1.677
 4851SOL     OW15451   3.431   6.860   5.700
 4851SOL    HW115452   3.410   6.764   5.719
 4851SOL    HW215453   3.450   6.907   5.785
 4852SOL     OW15454   2.070   5.805   5.000
 4852SOL    HW115455   2.135   5.853   4.941
 4852SOL    HW215456   2.118   5.735   5.053
 4853SOL     OW15457   2.728   1.478   3.450
 4853SOL    HW115458   2.794   1.472   3.525
 4853SOL    HW215459   2.736   1.568   3.407
 4854SOL     OW15460   4.385   6.664   2.169
 4854SOL    HW115461   4.348   6.756   2.155
 4854SOL    HW215462   4.376   6.640   2.266
 4855SOL     OW15463   5.460   2.688   4.202
 4855SOL    HW115464   5.428   2.755   4.269
 4855SOL    HW215465   5.488   2.604   4.249
 4856SOL     OW15466   1.783   3.306   2.888
 4856SOL    HW115467   1.796   3.374   2.817
 4856SOL    HW215468   1.700   3.326   2.939
 4857SOL     OW15469   2.910   2.216   3.591
 4857SOL    HW115470   2.828   2.258   3.629
 4857SOL    HW215471   2.967   2.181   3.665
 4858SOL     OW15472   0.012   0.264   4.856
 4858SOL    HW115473   0.074   0.274   4.779
 4858SOL    HW215474   6.969   0.338   4.856
 4859SOL     OW15475   0.783   5.638   3.251
 4859SOL    HW115476   0.760   5.634   3.349
 4859SOL    HW215477   0.732   5.567   3.203
 4860SOL     OW15478   4.686   4.906   0.633
 4860SOL    HW115479   4.743   4.883   0.554
 4860SOL    HW215480   4.637   4.992   0.615
 4861SOL     OW15481   6.181   5.176   6.563
 4861SOL    HW115482   6.232   5.188   6.648
 4861SOL    HW215483   6.226   5.226   6.489
 4862SOL     OW15484   1.874   4.350   4.663
 4862SOL    HW115485   1.957   4.301   4.640
 4862SOL    HW215486   1.856   4.343   4.761
 4863SOL     OW15487   5.252   3.709   2.000
 4863SOL    HW115488   5.266   3.680   2.094
 4863SOL    HW215489   5.194   3.643   1.952
 4864SOL     OW15490   3.469   1.789   2.607
 4864SOL    HW115491   3.385   1.830   2.572
 4864SOL    HW215492   3.454   1.759   2.701
 4865SOL     OW15493   1.883   6.415   4.627
 4865SOL    HW115494   1.797   6.417   4.576
 4865SOL    HW215495   1.933   6.331   4.604
 4866SOL     OW15496   6.293   4.260   1.426
 4866SOL    HW115497   6.346   4.292   1.347
 4866SOL    HW215498   6.199   4.293   1.419
 4867SOL     OW15499   4.870   5.569   1.972
 4867SOL    HW115500   4.899   5.518   1.891
 4867SOL    HW215501   4.895   5.666   1.961
 4868SOL     OW15502   0.376   4.919   1.974
 4868SOL    HW115503   0.283   4.918   1.936
 4868SOL    HW215504   0.431   4.988   1.925
 4869SOL     OW15505   0.153   2.016   1.891
 4869SOL    HW115506   0.168   1.958   1.812
 4869SOL    HW215507   0.229   2.080   1.901
 4870SOL     OW15508   6.811   5.935   2.189
 4870SOL    HW115509   6.752   5.987   2.127
 4870SOL    HW215510   6.906   5.962   2.176
 4871SOL     OW15511   0.741   1.661   4.598
 4871SOL    HW115512   0.813   1.640   4.532
 4871SOL    HW215513   0.694   1.745   4.570
 4872SOL     OW15514   0.218   6.049   4.386
 4872SOL    HW115515   0.151   6.033   4.459
 4872SOL    HW215516   0.216   6.145   4.360
 4873SOL     OW15517   6.834   4.745   3.921
 4873SOL    HW115518   6.812   4.713   4.013
 4873SOL    HW215519   6.859   4.842   3.926
 4874SOL     OW15520   5.907   3.390   3.449
 4874SOL    HW115521   6.007   3.392   3.454
 4874SOL    HW215522   5.879   3.335   3.370
 4875SOL     OW15523   5.195   3.264   1.363
 4875SOL    HW115524   5.211   3.170   1.331
 4875SOL    HW215525   5.263   3.287   1.433
 4876SOL     OW15526   5.453   0.982   4.671
 4876SOL    HW115527   5.388   0.970   4.595
 4876SOL    HW215528   5.527   1.042   4.642
 4877SOL     OW15529   0.060   1.841   0.157
 4877SOL    HW115530   0.034   1.813   0.065
 4877SOL    HW215531   0.057   1.762   0.219
 4878SOL     OW15532   6.105   0.996   3.237
 4878SOL    HW115533   6.162   1.060   3.186
 4878SOL    HW215534   6.016   1.038   3.257
 4879SOL     OW15535   4.781   5.366   3.265
 4879SOL    HW115536   4.730   5.289   3.227
 4879SOL    HW215537   4.746   5.387   3.356
 4880SOL     OW15538   6.335   3.355   6.748
 4880SOL    HW115539   6.398   3.318   6.680
 4880SOL    HW215540   6.291   3.437   6.712
 4881SOL     OW15541   2.099   6.825   6.818
 4881SOL    HW115542   2.134   6.757   6.882
 4881SOL    HW215543   2.110   6.791   6.724
 4882SOL     OW15544   5.781   1.691   3.924
 4882SOL    HW115545   5.803   1.694   4.022
 4882SOL    HW215546   5.689   1.728   3.910
 4883SOL     OW15547   4.908   5.127   2.244
 4883SOL    HW115548   4.914   5.147   2.342
 4883SOL    HW215549   4.848   5.048   2.230
 4884SOL     OW15550   4.053   0.186   0.941
 4884SOL    HW115551   3.997   0.265   0.966
 4884SOL    HW215552   4.148   0.215   0.930
 4885SOL     OW15553   2.802   5.893   1.990
 4885SOL    HW115554   2.759   5.804   2.006
 4885SOL    HW215555   2.823   5.904   1.893
 4886SOL     OW15556   6.549   5.992   6.672
 4886SOL    HW115557   6.499   5.907   6.657
 4886SOL    HW215558   6.528   6.027   6.763
 4887SOL     OW15559   6.901   0.397   3.468
 4887SOL    HW115560   6.940   0.489   3.458
 4887SOL    HW215561   6.875   0.382   3.563
 4888SOL     OW15562   2.076   6.570   4.461
 4888SOL    HW115563   2.015   6.508   4.509
 4888SOL    HW215564   2.023   6.642   4.416
 4889SOL     OW15565   6.366   0.665   6.691
 4889SOL    HW115566   6.368   0.652   6.790
 4889SOL    HW215567   6.274   0.646   6.657
 4890SOL     OW15568   0.390   1.885   5.768
 4890SOL    HW115569   0.294   1.912   5.759
 4890SOL    HW215570   0.423   1.850   5.680
 4891SOL     OW15571   1.774   5.664   0.765
 4891SOL    HW115572   1.747   5.580   0.718
 4891SOL    HW215573   1.870   5.660   0.790
 4892SOL     OW15574   2.445   6.136   1.936
 4892SOL    HW115575   2.409   6.214   1.987
 4892SOL    HW215576   2.544   6.146   1.924
 4893SOL     OW15577   6.975   4.159   0.752
 4893SOL    HW115578   6.925   4.151   0.838
 4893SOL    HW215579   0.047   4.176   0.772
 4894SOL     OW15580   2.189   2.113   2.121
 4894SOL    HW115581   2.165   2.167   2.040
 4894SOL    HW215582   2.124   2.133   2.195
 4895SOL     OW15583   0.727   4.871   2.698
 4895SOL    HW115584   0.734   4.827   2.609
 4895SOL    HW215585   0.669   4.952   2.691
 4896SOL     OW15586   2.302   5.012   1.586
 4896SOL    HW115587   2.385   4.959   1.570
 4896SOL    HW215588   2.324   5.110   1.585
 4897SOL     OW15589   2.533   4.981   5.508
 4897SOL    HW115590   2.573   4.921   5.578
 4897SOL    HW215591   2.461   5.036   5.549
 4898SOL     OW15592   4.550   0.924   4.244
 4898SOL    HW115593   4.609   0.847   4.266
 4898SOL    HW215594   4.550   0.940   4.146
 4899SOL     OW15595   6.141   5.000   3.410
 4899SOL    HW115596   6.154   4.930   3.339
 4899SOL    HW215597   6.124   5.088   3.367
 4900SOL     OW15598   1.578   5.688   4.868
 4900SOL    HW115599   1.547   5.663   4.777
 4900SOL    HW215600   1.669   5.649   4.884
 4901SOL     OW15601   2.670   6.713   5.594
 4901SOL    HW115602   2.609   6.674   5.662
 4901SOL    HW215603   2.684   6.811   5.612
 4902SOL     OW15604   2.564   2.468   4.858
 4902SOL    HW115605   2.638   2.466   4.925
 4902SOL    HW215606   2.599   2.439   4.769
 4903SOL     OW15607   2.771   6.121   6.214
 4903SOL    HW115608   2.810   6.034   6.243
 4903SOL    HW215609   2.688   6.104   6.160
 4904SOL     OW15610   1.086   0.288   3.937
 4904SOL    HW115611   1.010   0.346   3.966
 4904SOL    HW215612   1.099   0.214   4.003
 4905SOL     OW15613   4.129   1.033   2.200
 4905SOL    HW115614   4.162   1.125   2.181
 4905SOL    HW215615   4.057   1.008   2.136
 4906SOL     OW15616   4.266   1.562   6.645
 4906SOL    HW115617   4.332   1.537   6.574
 4906SOL    HW215618   4.212   1.640   6.615
 4907SOL     OW15619   4.991   6.069   1.149
 4907SOL    HW115620   4.902   6.106   1.124
 4907SOL    HW215621   4.983   5.972   1.170
 4908SOL     OW15622   5.020   4.976   6.210
 4908SOL    HW115623   4.922   4.977   6.187
 4908SOL    HW215624   5.074   4.987   6.127
 4909SOL     OW15625   6.822   0.375   5.170
 4909SOL    HW115626   6.763   0.409   5.243
 4909SOL    HW215627   6.825   0.275   5.173
 4910SOL     OW15628   5.367   6.461   4.296
 4910SOL    HW115629   5.465   6.467   4.314
 4910SOL    HW215630   5.352   6.464   4.197
 4911SOL     OW15631   6.719   2.900   5.608
 4911SOL    HW115632   6.772   2.975   5.567
 4911SOL    HW215633   6.631   2.892   5.562
 4912SOL     OW15634   5.474   2.820   1.489
 4912SOL    HW115635   5.461   2.757   1.412
 4912SOL    HW215636   5.568   2.854   1.489
 4913SOL     OW15637   4.171   3.508   3.706
 4913SOL    HW115638   4.265   3.526   3.677
 4913SOL    HW215639   4.143   3.574   3.776
 4914SOL     OW15640   3.039   6.943   5.101
 4914SOL    HW115641   3.111   7.011   5.113
 4914SOL    HW215642   3.038   6.881   5.180
 4915SOL     OW15643   4.405   0.446   4.412
 4915SOL    HW115644   4.320   0.402   4.383
 4915SOL    HW215645   4.404   0.459   4.511
 4916SOL     OW15646   1.946   1.771   3.688
 4916SOL    HW115647   1.992   1.858   3.707
 4916SOL    HW215648   1.854   1.789   3.653
 4917SOL     OW15649   1.451   4.799   0.602
 4917SOL    HW115650   1.397   4.769   0.524
 4917SOL    HW215651   1.467   4.722   0.664
 4918SOL     OW15652   2.654   6.724   2.484
 4918SOL    HW115653   2.648   6.629   2.517
 4918SOL    HW215654   2.643   6.725   2.385
 4919SOL     OW15655   1.958   1.404   0.097
 4919SOL    HW115656   2.038   1.463   0.086
 4919SOL    HW215657   1.876   1.454   0.069
 4920SOL     OW15658   4.831   0.446   6.137
 4920SOL    HW115659   4.767   0.494   6.197
 4920SOL    HW215660   4.839   0.494   6.050
 4921SOL     OW15661   1.899   4.205   0.892
 4921SOL    HW115662   1.885   4.226   0.795
 4921SOL    HW215663   1.869   4.283   0.948
 4922SOL     OW15664   2.007   3.026   4.808
 4922SOL    HW115665   2.086   3.000   4.752
 4922SOL    HW215666   1.970   3.113   4.775
 4923SOL     OW15667   3.294   1.448   0.461
 4923SOL    HW115668   3.324   1.430   0.554
 4923SOL    HW215669   3.225   1.381   0.435
 4924SOL     OW15670   1.837   2.439   6.249
 4924SOL    HW115671   1.737   2.429   6.249
 4924SOL    HW215672   1.873   2.412   6.338
 4925SOL     OW15673   5.711   6.606   1.446
 4925SOL    HW115674   5.798   6.637   1.407
 4925SOL    HW215675   5.701   6.508   1.431
 4926SOL     OW15676   5.407   2.589   0.754
 4926SOL    HW115677   5.464   2.521   0.798
 4926SOL    HW215678   5.438   2.681   0.778
 4927SOL     OW15679   3.949   3.984   4.623
 4927SOL    HW115680   3.929   3.891   4.653
 4927SOL    HW215681   3.886   4.048   4.666
 4928SOL     OW15682   0.158   0.839   6.493
 4928SOL    HW115683   0.165   0.934   6.524
 4928SOL    HW215684   0.075   0.827   6.439
 4929SOL     OW15685   1.601   4.420   4.673
 4929SOL    HW115686   1.538   4.348   4.703
 4929SOL    HW215687   1.694   4.382   4.666
 4930SOL     OW15688   5.260   0.985   1.908
 4930SOL    HW115689   5.205   0.966   1.827
 4930SOL    HW215690   5.344   1.032   1.881
 4931SOL     OW15691   6.669   6.678   1.404
 4931SOL    HW115692   6.610   6.743   1.356
 4931SOL    HW215693   6.764   6.709   1.400
 4932SOL     OW15694   2.386   2.622   1.997
 4932SOL    HW115695   2.322   2.692   2.029
 4932SOL    HW215696   2.431   2.653   1.913
 4933SOL     OW15697   2.744   6.646   3.997
 4933SOL    HW115698   2.759   6.555   4.036
 4933SOL    HW215699   2.693   6.638   3.912
 4934SOL     OW15700   1.333   4.740   3.247
 4934SOL    HW115701   1.246   4.712   3.288
 4934SOL    HW215702   1.395   4.661   3.244
 4935SOL     OW15703   1.313   1.341   6.643
 4935SOL    HW115704   1.410   1.321   6.624
 4935SOL    HW215705   1.291   1.310   6.735
 4936SOL     OW15706   2.388   5.232   1.846
 4936SOL    HW115707   2.372   5.330   1.833
 4936SOL    HW215708   2.315   5.194   1.903
 4937SOL     OW15709   6.714   3.322   5.998
 4937SOL    HW115710   6.694   3.241   5.942
 4937SOL    HW215711   6.804   3.311   6.042
 4938SOL     OW15712   2.508   6.038   0.272
 4938SOL    HW115713   2.593   6.017   0.319
 4938SOL    HW215714   2.508   6.134   0.244
 4939SOL     OW15715   0.798   1.454   3.991
 4939SOL    HW115716   0.779   1.450   4.089
 4939SOL    HW215717   0.885   1.409   3.972
 4940SOL     OW15718   0.795   1.301   5.557
 4940SOL    HW115719   0.755   1.238   5.623
 4940SOL    HW215720   0.790   1.261   5.465
 4941SOL     OW15721   4.408   2.490   5.380
 4941SOL    HW115722   4.479   2.524   5.319
 4941SOL    HW215723   4.338   2.561   5.392
 4942SOL     OW15724   5.466   2.934   5.054
 4942SOL    HW115725   5.402   2.857   5.062
 4942SOL    HW215726   5.558   2.903   5.075
 4943SOL     OW15727   5.265   4.167   5.843
 4943SOL    HW115728   5.337   4.218   5.796
 4943SOL    HW215729   5.285   4.069   5.836
 4944SOL     OW15730   2.621   4.092   1.496
 4944SOL    HW115731   2.674   4.124   1.575
 4944SOL    HW215732   2.637   4.151   1.418
 4945SOL     OW15733   1.131   6.626   4.874
 4945SOL    HW115734   1.172   6.714   4.850
 4945SOL    HW215735   1.080   6.589   4.796
 4946SOL     OW15736   0.658   5.198   6.736
 4946SOL    HW115737   0.646   5.201   6.835
 4946SOL    HW215738   0.607   5.274   6.695
 4947SOL     OW15739   2.296   0.199   0.982
 4947SOL    HW115740   2.284   0.164   0.889
 4947SOL    HW215741   2.206   0.220   1.022
 4948SOL     OW15742   2.014   2.327   2.298
 4948SOL    HW115743   2.019   2.389   2.219
 4948SOL    HW215744   2.035   2.378   2.382
 4949SOL     OW15745   6.631   4.476   5.321
 4949SOL    HW115746   6.604   4.547   5.386
 4949SOL    HW215747   6.566   4.400   5.327
 4950SOL     OW15748   2.070   4.752   4.963
 4950SOL    HW115749   2.164   4.769   4.994
 4950SOL    HW215750   2.052   4.654   4.963
 4951SOL     OW15751   6.073   1.162   4.193
 4951SOL    HW115752   5.996   1.153   4.129
 4951SOL    HW215753   6.126   1.077   4.193
 4952SOL     OW15754   0.052   0.228   6.127
 4952SOL    HW115755   0.065   0.309   6.184
 4952SOL    HW215756   0.031   0.149   6.185
 4953SOL     OW15757   1.460   0.019   3.542
 4953SOL    HW115758   1.380   6.984   3.555
 4953SOL    HW215759   1.518   7.004   3.471
 4954SOL     OW15760   2.637   3.186   6.931
 4954SOL    HW115761   2.592   3.272   6.955
 4954SOL    HW215762   2.702   3.201   6.857
 4955SOL     OW15763   3.093   6.736   6.993
 4955SOL    HW115764   3.054   6.808   0.027
 4955SOL    HW215765   3.186   6.715   7.024
 4956SOL     OW15766   2.636   0.084   5.796
 4956SOL    HW115767   2.679   7.020   5.815
 4956SOL    HW215768   2.596   0.082   5.704
 4957SOL     OW15769   6.087   2.288   1.891
 4957SOL    HW115770   6.174   2.311   1.848
 4957SOL    HW215771   6.082   2.190   1.907
 4958SOL     OW15772   0.750   5.131   5.923
 4958SOL    HW115773   0.748   5.184   5.838
 4958SOL    HW215774   0.665   5.148   5.974
 4959SOL     OW15775   6.106   1.969   0.600
 4959SOL    HW115776   6.137   1.880   0.634
 4959SOL    HW215777   6.092   2.031   0.677
 4960SOL     OW15778   4.000   4.860   3.519
 4960SOL    HW115779   3.948   4.905   3.446
 4960SOL    HW215780   3.938   4.834   3.594
 4961SOL     OW15781   3.836   0.659   5.662
 4961SOL    HW115782   3.872   0.576   5.705
 4961SOL    HW215783   3.895   0.685   5.586
 4962SOL     OW15784   6.045   2.933   0.589
 4962SOL    HW115785   6.011   3.001   0.655
 4962SOL    HW215786   6.145   2.930   0.594
 4963SOL     OW15787   0.500   6.045   0.587
 4963SOL    HW115788   0.448   6.092   0.657
 4963SOL    HW215789   0.518   6.108   0.511
 4964SOL     OW15790   2.425   0.001   4.653
 4964SOL    HW115791   2.413   6.967   4.733
 4964SOL    HW215792   2.367   6.993   4.578
 4965SOL     OW15793   0.911   0.304   2.043
 4965SOL    HW115794   0.976   0.314   2.119
 4965SOL    HW215795   0.924   0.214   2.001
 4966SOL     OW15796   3.035   6.532   5.240
 4966SOL    HW115797   3.066   6.447   5.283
 4966SOL    HW215798   2.978   6.509   5.161
 4967SOL     OW15799   3.814   4.782   5.534
 4967SOL    HW115800   3.868   4.701   5.512
 4967SOL    HW215801   3.874   4.852   5.574
 4968SOL     OW15802   0.211   1.231   3.350
 4968SOL    HW115803   0.215   1.301   3.279
 4968SOL    HW215804   0.146   1.160   3.323
 4969SOL     OW15805   1.664   5.763   3.024
 4969SOL    HW115806   1.582   5.707   3.012
 4969SOL    HW215807   1.698   5.792   2.934
 4970SOL     OW15808   2.543   1.801   1.388
 4970SOL    HW115809   2.635   1.830   1.362
 4970SOL    HW215810   2.547   1.710   1.430
 4971SOL     OW15811   5.813   5.530   3.050
 4971SOL    HW115812   5.819   5.579   2.962
 4971SOL    HW215813   5.889   5.465   3.056
 4972SOL     OW15814   0.889   3.365   1.249
 4972SOL    HW115815   0.850   3.330   1.334
 4972SOL    HW215816   0.905   3.463   1.257
 4973SOL     OW15817   1.357   6.794   1.844
 4973SOL    HW115818   1.311   6.863   1.901
 4973SOL    HW215819   1.297   6.715   1.832
 4974SOL     OW15820   6.856   4.507   1.052
 4974SOL    HW115821   6.771   4.456   1.066
 4974SOL    HW215822   6.872   4.567   1.131
 4975SOL     OW15823   5.924   4.104   5.923
 4975SOL    HW115824   5.954   4.022   5.973
 4975SOL    HW215825   5.909   4.080   5.827
 4976SOL     OW15826   2.685   1.848   4.052
 4976SOL    HW115827   2.675   1.857   4.151
 4976SOL    HW215828   2.618   1.783   4.018
 4977SOL     OW15829   4.602   4.594   0.051
 4977SOL    HW115830   4.546   4.548   7.007
 4977SOL    HW215831   4.699   4.584   0.026
 4978SOL     OW15832   6.282   4.504   5.079
 4978SOL    HW115833   6.268   4.460   5.167
 4978SOL    HW215834   6.378   4.533   5.071
 4979SOL     OW15835   6.764   6.859   5.574
 4979SOL    HW115836   6.841   6.904   5.620
 4979SOL    HW215837   6.716   6.926   5.517
 4980SOL     OW15838   5.504   5.667   3.037
 4980SOL    HW115839   5.413   5.629   3.055
 4980SOL    HW215840   5.572   5.618   3.093
 4981SOL     OW15841   4.098   5.095   0.938
 4981SOL    HW115842   4.122   5.185   0.975
 4981SOL    HW215843   4.176   5.058   0.887
 4982SOL     OW15844   3.305   1.211   5.745
 4982SOL    HW115845   3.218   1.246   5.711
 4982SOL    HW215846   3.358   1.286   5.783
 4983SOL     OW15847   6.506   3.588   5.987
 4983SOL    HW115848   6.528   3.654   6.059
 4983SOL    HW215849   6.559   3.504   6.001
 4984SOL     OW15850   5.646   4.290   3.547
 4984SOL    HW115851   5.693   4.374   3.521
 4984SOL    HW215852   5.676   4.263   3.639
 4985SOL     OW15853   5.676   0.076   2.965
 4985SOL    HW115854   5.676   0.041   2.871
 4985SOL    HW215855   5.609   0.150   2.972
 4986SOL     OW15856   0.361   4.985   1.499
 4986SOL    HW115857   0.263   5.004   1.505
 4986SOL    HW215858   0.379   4.926   1.420
 4987SOL     OW15859   0.605   6.693   2.390
 4987SOL    HW115860   0.576   6.780   2.430
 4987SOL    HW215861   0.700   6.675   2.415
 4988SOL     OW15862   5.142   0.812   2.943
 4988SOL    HW115863   5.066   0.752   2.921
 4988SOL    HW215864   5.204   0.766   3.007
 4989SOL     OW15865   5.295   6.757   1.671
 4989SOL    HW115866   5.381   6.752   1.722
 4989SOL    HW215867   5.301   6.699   1.590
 4990SOL     OW15868   2.766   2.213   6.109
 4990SOL    HW115869   2.758   2.302   6.064
 4990SOL    HW215870   2.706   2.147   6.063
 4991SOL     OW15871   6.666   5.717   3.664
 4991SOL    HW115872   6.683   5.722   3.762
 4991SOL    HW215873   6.651   5.621   3.638
 4992SOL     OW15874   4.965   0.687   1.954
 4992SOL    HW115875   4.987   0.774   1.997
 4992SOL    HW215876   4.871   0.661   1.978
 4993SOL     OW15877   3.638   5.798   4.945
 4993SOL    HW115878   3.729   5.838   4.929
 4993SOL    HW215879   3.590   5.852   5.014
 4994SOL     OW15880   1.945   0.440   4.505
 4994SOL    HW115881   1.882   0.381   4.555
 4994SOL    HW215882   1.900   0.476   4.424
 4995SOL     OW15883   0.620   1.812   5.261
 4995SOL    HW115884   0.663   1.895   5.297
 4995SOL    HW215885   0.578   1.761   5.336
 4996SOL     OW15886   0.342   0.760   3.043
 4996SOL    HW115887   0.370   0.696   3.114
 4996SOL    HW215888   0.268   0.721   2.989
 4997SOL     OW15889   4.664   2.667   2.124
 4997SOL    HW115890   4.631   2.628   2.210
 4997SOL    HW215891   4.597   2.732   2.089
 4998SOL     OW15892   2.105   3.442   5.057
 4998SOL    HW115893   2.027   3.447   5.120
 4998SOL    HW215894   2.143   3.534   5.044
 4999SOL     OW15895   6.805   3.911   6.207
 4999SOL    HW115896   6.886   3.901   6.265
 4999SOL    HW215897   6.833   3.920   6.112
 5000SOL     OW15898   4.115   6.844   3.251
 5000SOL    HW115899   4.049   6.881   3.186
 5000SOL    HW215900   4.173   6.777   3.204
 5001SOL     OW15901   0.479   4.128   2.051
 5001SOL    HW115902   0.423   4.093   1.976
 5001SOL    HW215903   0.471   4.067   2.130
 5002SOL     OW15904   0.835   3.195   1.902
 5002SOL    HW115905   0.890   3.129   1.952
 5002SOL    HW215906   0.763   3.148   1.852
 5003SOL     OW15907   3.125   5.383   2.523
 5003SOL    HW115908   3.076   5.378   2.610
 5003SOL    HW215909   3.096   5.308   2.465
 5004SOL     OW15910   2.770   5.113   5.457
 5004SOL    HW115911   2.679   5.073   5.464
 5004SOL    HW215912   2.765   5.212   5.475
 5005SOL     OW15913   3.465   3.066   0.843
 5005SOL    HW115914   3.535   3.028   0.904
 5005SOL    HW215915   3.453   3.163   0.862
 5006SOL     OW15916   4.946   0.463   1.031
 5006SOL    HW115917   4.867   0.510   0.992
 5006SOL    HW215918   4.918   0.410   1.111
 5007SOL     OW15919   0.530   6.308   1.011
 5007SOL    HW115920   0.490   6.220   1.034
 5007SOL    HW215921   0.462   6.366   0.967
 5008SOL     OW15922   5.564   6.291   1.818
 5008SOL    HW115923   5.634   6.241   1.869
 5008SOL    HW215924   5.541   6.240   1.735
 5009SOL     OW15925   0.342   1.225   0.705
 5009SOL    HW115926   0.407   1.172   0.759
 5009SOL    HW215927   0.257   1.235   0.757
 5010SOL     OW15928   4.006   3.340   2.376
 5010SOL    HW115929   4.063   3.401   2.431
 5010SOL    HW215930   3.960   3.275   2.437
 5011SOL     OW15931   1.398   4.100   1.929
 5011SOL    HW115932   1.461   4.168   1.967
 5011SOL    HW215933   1.359   4.045   2.004
 5012SOL     OW15934   5.590   4.044   5.632
 5012SOL    HW115935   5.578   4.130   5.681
 5012SOL    HW215936   5.673   3.999   5.664
 5013SOL     OW15937   5.131   1.015   0.584
 5013SOL    HW115938   5.179   0.927   0.591
 5013SOL    HW215939   5.115   1.036   0.487
 5014SOL     OW15940   6.538   4.316   1.186
 5014SOL    HW115941   6.553   4.382   1.113
 5014SOL    HW215942   6.613   4.321   1.252
 5015SOL     OW15943   4.642   1.770   4.748
 5015SOL    HW115944   4.637   1.759   4.649
 5015SOL    HW215945   4.639   1.680   4.792
 5016SOL     OW15946   1.531   2.916   6.758
 5016SOL    HW115947   1.583   2.907   6.673
 5016SOL    HW215948   1.456   2.849   6.758
 5017SOL     OW15949   2.488   2.789   1.053
 5017SOL    HW115950   2.571   2.780   0.997
 5017SOL    HW215951   2.512   2.830   1.141
 5018SOL     OW15952   1.190   3.744   2.505
 5018SOL    HW115953   1.211   3.667   2.445
 5018SOL    HW215954   1.101   3.783   2.480
 5019SOL     OW15955   1.099   4.894   5.737
 5019SOL    HW115956   1.045   4.866   5.657
 5019SOL    HW215957   1.090   4.826   5.809
 5020SOL     OW15958   5.267   0.092   6.669
 5020SOL    HW115959   5.293   7.020   6.680
 5020SOL    HW215960   5.338   0.151   6.708
 5021SOL     OW15961   0.589   1.284   0.294
 5021SOL    HW115962   0.540   1.208   0.338
 5021SOL    HW215963   0.560   1.371   0.334
 5022SOL     OW15964   1.426   1.185   0.294
 5022SOL    HW115965   1.420   1.087   0.275
 5022SOL    HW215966   1.498   1.226   0.238
 5023SOL     OW15967   0.154   3.393   1.453
 5023SOL    HW115968   0.113   3.465   1.397
 5023SOL    HW215969   0.091   3.368   1.526
 5024SOL     OW15970   6.525   5.614   1.919
 5024SOL    HW115971   6.570   5.605   1.830
 5024SOL    HW215972   6.574   5.558   1.987
 5025SOL     OW15973   3.590   1.737   2.178
 5025SOL    HW115974   3.555   1.695   2.095
 5025SOL    HW215975   3.553   1.830   2.186
 5026SOL     OW15976   5.977   6.112   5.306
 5026SOL    HW115977   6.031   6.044   5.356
 5026SOL    HW215978   5.959   6.191   5.366
 5027SOL     OW15979   0.297   6.364   1.643
 5027SOL    HW115980   0.321   6.367   1.546
 5027SOL    HW215981   0.274   6.456   1.675
 5028SOL     OW15982   0.162   2.206   2.275
 5028SOL    HW115983   0.125   2.184   2.366
 5028SOL    HW215984   0.110   2.282   2.236
 5029SOL     OW15985   6.622   1.891   2.107
 5029SOL    HW115986   6.673   1.808   2.130
 5029SOL    HW215987   6.682   1.971   2.116
 5030SOL     OW15988   0.064   6.607   0.329
 5030SOL    HW115989   0.156   6.597   0.293
 5030SOL    HW215990   0.000   6.622   0.254
 5031SOL     OW15991   6.034   0.406   5.720
 5031SOL    HW115992   6.097   0.476   5.687
 5031SOL    HW215993   6.068   0.316   5.695
 5032SOL     OW15994   1.948   1.868   0.235
 5032SOL    HW115995   2.040   1.838   0.256
 5032SOL    HW215996   1.939   1.966   0.254
 5033SOL     OW15997   2.029   0.023   5.382
 5033SOL    HW115998   2.080   6.966   5.411
 5033SOL    HW215999   2.085   0.104   5.393
 5034SOL     OW16000   5.762   0.538   3.503
 5034SOL    HW116001   5.805   0.596   3.434
 5034SOL    HW216002   5.675   0.578   3.532
 5035SOL     OW16003   0.956   3.550   0.241
 5035SOL    HW116004   0.948   3.648   0.224
 5035SOL    HW216005   0.870   3.516   0.280
 5036SOL     OW16006   0.795   5.018   6.330
 5036SOL    HW116007   0.887   4.982   6.347
 5036SOL    HW216008   0.739   4.948   6.285
 5037SOL     OW16009   5.626   4.183   1.999
 5037SOL    HW116010   5.603   4.087   1.978
 5037SOL    HW216011   5.724   4.191   2.015
 5038SOL     OW16012   3.691   4.001   6.227
 5038SOL    HW116013   3.698   3.913   6.274
 5038SOL    HW216014   3.678   4.073   6.295
 5039SOL     OW16015   3.039   4.411   5.649
 5039SOL    HW116016   2.957   4.355   5.659
 5039SOL    HW216017   3.108   4.382   5.716
 5040SOL     OW16018   1.663   6.125   5.565
 5040SOL    HW116019   1.688   6.129   5.468
 5040SOL    HW216020   1.678   6.033   5.600
 5041SOL     OW16021   2.395   1.838   2.786
 5041SOL    HW116022   2.368   1.913   2.726
 5041SOL    HW216023   2.333   1.761   2.773
 5042SOL     OW16024   6.600   2.802   0.148
 5042SOL    HW116025   6.677   2.782   0.209
 5042SOL    HW216026   6.516   2.811   0.202
 5043SOL     OW16027   3.034   6.959   6.068
 5043SOL    HW116028   3.128   6.925   6.076
 5043SOL    HW216029   3.002   6.947   5.974
 5044SOL     OW16030   0.300   6.735   7.013
 5044SOL    HW116031   0.290   6.662   6.946
 5044SOL    HW216032   0.246   6.713   0.070
 5045SOL     OW16033   4.892   0.604   6.709
 5045SOL    HW116034   4.957   0.644   6.774
 5045SOL    HW216035   4.936   0.530   6.660
 5046SOL     OW16036   3.238   4.089   2.934
 5046SOL    HW116037   3.307   4.158   2.913
 5046SOL    HW216038   3.236   4.021   2.861
 5047SOL     OW16039   0.706   4.209   2.206
 5047SOL    HW116040   0.763   4.267   2.149
 5047SOL    HW216041   0.621   4.189   2.159
 5048SOL     OW16042   0.776   1.574   2.334
 5048SOL    HW116043   0.717   1.517   2.392
 5048SOL    HW216044   0.755   1.558   2.238
 5049SOL     OW16045   5.788   2.259   5.818
 5049SOL    HW116046   5.832   2.246   5.729
 5049SOL    HW216047   5.696   2.221   5.816
 5050SOL     OW16048   1.598   1.752   1.325
 5050SOL    HW116049   1.649   1.667   1.340
 5050SOL    HW216050   1.650   1.828   1.364
 5051SOL     OW16051   4.605   4.790   1.047
 5051SOL    HW116052   4.639   4.853   1.117
 5051SOL    HW216053   4.528   4.832   1.000
 5052SOL     OW16054   2.583   0.937   6.694
 5052SOL    HW116055   2.653   0.946   6.765
 5052SOL    HW216056   2.542   1.026   6.676
 5053SOL     OW16057   2.056   3.803   3.501
 5053SOL    HW116058   2.075   3.839   3.593
 5053SOL    HW216059   2.069   3.704   3.500
 5054SOL     OW16060   3.771   5.389   5.513
 5054SOL    HW116061   3.725   5.303   5.534
 5054SOL    HW216062   3.749   5.457   5.583
 5055SOL     OW16063   1.964   1.997   6.018
 5055SOL    HW116064   2.022   2.013   5.938
 5055SOL    HW216065   1.909   2.079   6.036
 5056SOL     OW16066   6.628   4.182   6.793
 5056SOL    HW116067   6.651   4.171   6.890
 5056SOL    HW216068   6.589   4.097   6.759
 5057SOL     OW16069   0.192   5.911   3.907
 5057SOL    HW116070   0.142   5.992   3.876
 5057SOL    HW216071   0.149   5.829   3.870
 5058SOL     OW16072   2.933   3.325   5.658
 5058SOL    HW116073   2.888   3.324   5.569
 5058SOL    HW216074   2.894   3.397   5.715
 5059SOL     OW16075   5.716   1.033   3.660
 5059SOL    HW116076   5.638   1.016   3.599
 5059SOL    HW216077   5.739   1.130   3.658
 5060SOL     OW16078   0.797   1.996   5.608
 5060SOL    HW116079   0.719   1.942   5.640
 5060SOL    HW216080   0.882   1.957   5.643
 5061SOL     OW16081   3.863   2.576   1.667
 5061SOL    HW116082   3.862   2.591   1.568
 5061SOL    HW216083   3.956   2.591   1.702
 5062SOL     OW16084   4.738   1.156   3.432
 5062SOL    HW116085   4.742   1.199   3.342
 5062SOL    HW216086   4.769   1.061   3.426
 5063SOL     OW16087   1.008   6.485   2.200
 5063SOL    HW116088   0.992   6.408   2.261
 5063SOL    HW216089   1.075   6.458   2.130
 5064SOL     OW16090   5.126   4.412   1.800
 5064SOL    HW116091   5.167   4.466   1.873
 5064SOL    HW216092   5.061   4.347   1.839
 5065SOL     OW16093   1.888   0.820   3.655
 5065SOL    HW116094   1.830   0.758   3.709
 5065SOL    HW216095   1.923   0.892   3.715
 5066SOL     OW16096   4.517   4.824   2.160
 5066SOL    HW116097   4.426   4.790   2.182
 5066SOL    HW216098   4.552   4.777   2.079
 5067SOL     OW16099   4.885   0.912   1.490
 5067SOL    HW116100   4.789   0.931   1.510
 5067SOL    HW216101   4.896   0.894   1.392
 5068SOL     OW16102   3.153   4.857   0.107
 5068SOL    HW116103   3.100   4.819   0.031
 5068SOL    HW216104   3.238   4.897   0.072
 5069SOL     OW16105   2.371   3.631   5.655
 5069SOL    HW116106   2.322   3.570   5.594
 5069SOL    HW216107   2.468   3.631   5.631
 5070SOL     OW16108   4.474   4.990   3.800
 5070SOL    HW116109   4.492   4.992   3.701
 5070SOL    HW216110   4.513   4.907   3.840
 5071SOL     OW16111   4.067   2.101   3.201
 5071SOL    HW116112   4.085   2.162   3.278
 5071SOL    HW216113   3.969   2.087   3.191
 5072SOL     OW16114   0.979   0.202   1.242
 5072SOL    HW116115   0.896   0.205   1.185
 5072SOL    HW216116   0.982   0.116   1.293
 5073SOL     OW16117   0.309   5.649   1.816
 5073SOL    HW116118   0.309   5.565   1.870
 5073SOL    HW216119   0.372   5.640   1.739
 5074SOL     OW16120   3.217   2.718   1.239
 5074SOL    HW116121   3.286   2.655   1.274
 5074SOL    HW216122   3.171   2.764   1.315
 5075SOL     OW16123   0.902   1.552   6.394
 5075SOL    HW116124   0.893   1.637   6.342
 5075SOL    HW216125   0.983   1.558   6.453
 5076SOL     OW16126   4.209   1.194   0.566
 5076SOL    HW116127   4.280   1.207   0.636
 5076SOL    HW216128   4.187   1.281   0.523
 5077SOL     OW16129   2.152   4.705   5.409
 5077SOL    HW116130   2.192   4.614   5.423
 5077SOL    HW216131   2.104   4.707   5.322
 5078SOL     OW16132   0.912   0.828   4.228
 5078SOL    HW116133   0.988   0.888   4.257
 5078SOL    HW216134   0.849   0.816   4.304
 5079SOL     OW16135   2.071   3.046   5.999
 5079SOL    HW116136   2.166   3.057   5.970
 5079SOL    HW216137   2.056   2.951   6.027
 5080SOL     OW16138   6.067   6.959   5.869
 5080SOL    HW116139   6.051   6.933   5.774
 5080SOL    HW216140   6.055   6.878   5.928
 5081SOL     OW16141   3.106   3.254   4.480
 5081SOL    HW116142   3.194   3.206   4.472
 5081SOL    HW216143   3.062   3.261   4.391
 5082SOL     OW16144   4.741   5.616   0.601
 5082SOL    HW116145   4.682   5.664   0.536
 5082SOL    HW216146   4.686   5.585   0.679
 5083SOL     OW16147   2.295   6.532   2.417
 5083SOL    HW116148   2.264   6.443   2.381
 5083SOL    HW216149   2.249   6.605   2.367
 5084SOL     OW16150   0.413   4.800   4.672
 5084SOL    HW116151   0.323   4.836   4.648
 5084SOL    HW216152   0.416   4.702   4.654
 5085SOL     OW16153   5.367   3.059   6.564
 5085SOL    HW116154   5.329   3.006   6.488
 5085SOL    HW216155   5.304   3.054   6.642
 5086SOL     OW16156   1.159   5.804   3.301
 5086SOL    HW116157   1.108   5.742   3.361
 5086SOL    HW216158   1.181   5.888   3.350
 5087SOL     OW16159   1.721   5.134   2.321
 5087SOL    HW116160   1.628   5.171   2.318
 5087SOL    HW216161   1.722   5.051   2.377
 5088SOL     OW16162   6.230   1.231   4.966
 5088SOL    HW116163   6.317   1.279   4.977
 5088SOL    HW216164   6.174   1.279   4.899
 5089SOL     OW16165   4.899   3.829   4.288
 5089SOL    HW116166   4.886   3.793   4.196
 5089SOL    HW216167   4.867   3.924   4.291
 5090SOL     OW16168   1.903   3.990   2.380
 5090SOL    HW116169   1.985   3.941   2.352
 5090SOL    HW216170   1.841   4.000   2.302
 5091SOL     OW16171   0.725   0.093   2.625
 5091SOL    HW116172   0.637   0.085   2.578
 5091SOL    HW216173   0.716   0.156   2.702
 5092SOL     OW16174   3.745   3.333   1.569
 5092SOL    HW116175   3.806   3.260   1.541
 5092SOL    HW216176   3.746   3.406   1.500
 5093SOL     OW16177   2.594   1.252   1.493
 5093SOL    HW116178   2.516   1.203   1.532
 5093SOL    HW216179   2.671   1.248   1.558
 5094SOL     OW16180   2.282   5.691   5.868
 5094SOL    HW116181   2.328   5.769   5.828
 5094SOL    HW216182   2.191   5.681   5.827
 5095SOL     OW16183   5.890   2.380   4.809
 5095SOL    HW116184   5.794   2.392   4.834
 5095SOL    HW216185   5.948   2.398   4.888
 5096SOL     OW16186   4.162   4.299   0.562
 5096SOL    HW116187   4.205   4.382   0.599
 5096SOL    HW216188   4.077   4.280   0.611
 5097SOL     OW16189   1.297   0.626   6.520
 5097SOL    HW116190   1.381   0.663   6.479
 5097SOL    HW216191   1.228   0.698   6.526
 5098SOL     OW16192   1.982   0.578   1.863
 5098SOL    HW116193   1.896   0.623   1.886
 5098SOL    HW216194   1.991   0.571   1.764
 5099SOL     OW16195   0.579   6.179   6.657
 5099SOL    HW116196   0.621   6.104   6.708
 5099SOL    HW216197   0.605   6.266   6.699
 5100SOL     OW16198   4.008   5.531   5.495
 5100SOL    HW116199   3.939   5.459   5.493
 5100SOL    HW216200   4.017   5.566   5.588
 5101SOL     OW16201   4.857   6.465   6.981
 5101SOL    HW116202   4.838   6.516   0.041
 5101SOL    HW216203   4.923   6.517   6.926
 5102SOL     OW16204   5.142   0.306   4.175
 5102SOL    HW116205   5.212   0.308   4.247
 5102SOL    HW216206   5.185   0.317   4.086
 5103SOL     OW16207   0.188   1.596   3.866
 5103SOL    HW116208   0.187   1.695   3.862
 5103SOL    HW216209   0.208   1.567   3.960
 5104SOL     OW16210   1.699   6.731   2.962
 5104SOL    HW116211   1.720   6.810   2.904
 5104SOL    HW216212   1.667   6.655   2.906
 5105SOL     OW16213   3.613   3.091   0.438
 5105SOL    HW116214   3.522   3.063   0.469
 5105SOL    HW216215   3.623   3.071   0.341
 5106SOL     OW16216   3.413   0.936   0.298
 5106SOL    HW116217   3.427   1.029   0.263
 5106SOL    HW216218   3.428   0.871   0.224
 5107SOL     OW16219   3.217   0.736   0.412
 5107SOL    HW116220   3.254   0.651   0.375
 5107SOL    HW216221   3.270   0.814   0.380
 5108SOL     OW16222   2.967   3.730   4.199
 5108SOL    HW116223   2.905   3.711   4.274
 5108SOL    HW216224   3.044   3.785   4.232
 5109SOL     OW16225   1.328   0.935   0.299
 5109SOL    HW116226   1.380   0.871   0.356
 5109SOL    HW216227   1.287   0.885   0.223
 5110SOL     OW16228   0.311   1.061   6.361
 5110SOL    HW116229   0.333   0.982   6.418
 5110SOL    HW216230   0.391   1.089   6.309
 5111SOL     OW16231   2.886   1.580   5.617
 5111SOL    HW116232   2.814   1.513   5.639
 5111SOL    HW216233   2.922   1.561   5.526
 5112SOL     OW16234   1.180   6.922   2.960
 5112SOL    HW116235   1.231   6.935   3.045
 5112SOL    HW216236   1.106   6.856   2.975
 5113SOL     OW16237   2.245   6.258   1.317
 5113SOL    HW116238   2.319   6.317   1.351
 5113SOL    HW216239   2.210   6.295   1.231
 5114SOL     OW16240   3.105   1.667   0.171
 5114SOL    HW116241   3.201   1.691   0.184
 5114SOL    HW216242   3.096   1.608   0.091
 5115SOL     OW16243   2.060   5.211   4.299
 5115SOL    HW116244   2.082   5.162   4.215
 5115SOL    HW216245   1.962   5.201   4.319
 5116SOL     OW16246   5.991   7.020   6.987
 5116SOL    HW116247   6.072   0.050   7.010
 5116SOL    HW216248   5.992   6.935   0.017
 5117SOL     OW16249   2.854   4.809   4.878
 5117SOL    HW116250   2.811   4.736   4.932
 5117SOL    HW216251   2.806   4.818   4.791
 5118SOL     OW16252   4.853   0.667   0.275
 5118SOL    HW116253   4.944   0.689   0.311
 5118SOL    HW216254   4.861   0.597   0.204
 5119SOL     OW16255   5.260   0.862   1.538
 5119SOL    HW116256   5.255   0.836   1.442
 5119SOL    HW216257   5.187   0.817   1.589
 5120SOL     OW16258   4.114   1.706   4.089
 5120SOL    HW116259   4.135   1.739   4.181
 5120SOL    HW216260   4.095   1.608   4.092
 5121SOL     OW16261   2.794   2.025   6.981
 5121SOL    HW116262   2.828   2.118   6.965
 5121SOL    HW216263   2.833   1.963   6.913
 5122SOL     OW16264   2.943   6.883   2.971
 5122SOL    HW116265   2.963   6.957   3.035
 5122SOL    HW216266   3.028   6.834   2.950
 5123SOL     OW16267   5.459   1.388   5.177
 5123SOL    HW116268   5.476   1.306   5.123
 5123SOL    HW216269   5.451   1.364   5.274
 5124SOL     OW16270   3.111   4.913   4.688
 5124SOL    HW116271   3.151   4.827   4.656
 5124SOL    HW216272   3.084   4.904   4.784
 5125SOL     OW16273   6.851   3.125   4.096
 5125SOL    HW116274   6.790   3.099   4.171
 5125SOL    HW216275   6.798   3.130   4.011
 5126SOL     OW16276   6.104   5.595   5.625
 5126SOL    HW116277   6.006   5.615   5.623
 5126SOL    HW216278   6.155   5.680   5.633
 5127SOL     OW16279   0.593   3.818   0.256
 5127SOL    HW116280   0.618   3.729   0.220
 5127SOL    HW216281   0.495   3.822   0.272
 5128SOL     OW16282   6.665   0.689   6.864
 5128SOL    HW116283   6.754   0.732   6.878
 5128SOL    HW216284   6.636   0.703   6.769
 5129SOL     OW16285   4.629   0.302   2.878
 5129SOL    HW116286   4.706   0.317   2.940
 5129SOL    HW216287   4.608   0.204   2.875
 5130SOL     OW16288   1.790   5.213   4.020
 5130SOL    HW116289   1.709   5.200   4.078
 5130SOL    HW216290   1.788   5.305   3.980
 5131SOL     OW16291   2.587   4.893   3.979
 5131SOL    HW116292   2.655   4.963   4.001
 5131SOL    HW216293   2.575   4.889   3.879
 5132SOL     OW16294   3.416   1.891   6.422
 5132SOL    HW116295   3.469   1.864   6.342
 5132SOL    HW216296   3.427   1.823   6.494
 5133SOL     OW16297   1.937   4.982   6.594
 5133SOL    HW116298   1.874   4.973   6.517
 5133SOL    HW216299   1.888   4.964   6.680
 5134SOL     OW16300   6.518   0.912   2.110
 5134SOL    HW116301   6.535   0.836   2.172
 5134SOL    HW216302   6.420   0.934   2.110
 5135SOL     OW16303   5.027   3.609   4.465
 5135SOL    HW116304   5.028   3.612   4.565
 5135SOL    HW216305   5.023   3.702   4.429
 5136SOL     OW16306   5.465   0.732   6.480
 5136SOL    HW116307   5.492   0.821   6.444
 5136SOL    HW216308   5.398   0.745   6.553
 5137SOL     OW16309   5.254   3.310   5.528
 5137SOL    HW116310   5.338   3.274   5.569
 5137SOL    HW216311   5.196   3.233   5.500
 5138SOL     OW16312   4.101   3.735   4.548
 5138SOL    HW116313   4.038   3.799   4.502
 5138SOL    HW216314   4.185   3.783   4.572
 5139SOL     OW16315   0.842   0.090   4.333
 5139SOL    HW116316   0.833   0.183   4.297
 5139SOL    HW216317   0.936   0.059   4.324
 5140SOL     OW16318   3.884   1.728   5.712
 5140SOL    HW116319   3.799   1.691   5.750
 5140SOL    HW216320   3.924   1.793   5.777
 5141SOL     OW16321   6.205   3.817   0.977
 5141SOL    HW116322   6.302   3.826   0.999
 5141SOL    HW216323   6.160   3.758   1.044
 5142SOL     OW16324   5.525   6.253   4.056
 5142SOL    HW116325   5.510   6.240   4.154
 5142SOL    HW216326   5.451   6.209   4.006
 5143SOL     OW16327   0.292   4.672   4.426
 5143SOL    HW116328   0.220   4.741   4.425
 5143SOL    HW216329   0.292   4.625   4.514
 5144SOL     OW16330   1.364   4.891   5.296
 5144SOL    HW116331   1.396   4.982   5.269
 5144SOL    HW216332   1.264   4.888   5.291
 5145SOL     OW16333   3.650   5.888   6.470
 5145SOL    HW116334   3.576   5.955   6.469
 5145SOL    HW216335   3.638   5.826   6.547
 5146SOL     OW16336   3.380   3.654   5.694
 5146SOL    HW116337   3.325   3.585   5.646
 5146SOL    HW216338   3.381   3.633   5.792
 5147SOL     OW16339   6.643   5.824   3.933
 5147SOL    HW116340   6.571   5.893   3.949
 5147SOL    HW216341   6.732   5.865   3.948
 5148SOL     OW16342   6.981   0.979   2.002
 5148SOL    HW116343   6.934   1.029   1.929
 5148SOL    HW216344   0.011   1.043   2.056
 5149SOL     OW16345   6.472   5.269   4.322
 5149SOL    HW116346   6.491   5.176   4.290
 5149SOL    HW216347   6.373   5.280   4.335
 5150SOL     OW16348   2.291   5.415   3.511
 5150SOL    HW116349   2.285   5.486   3.581
 5150SOL    HW216350   2.314   5.457   3.423
 5151SOL     OW16351   0.156   3.839   1.967
 5151SOL    HW116352   0.149   3.864   2.064
 5151SOL    HW216353   0.223   3.765   1.957
 5152SOL     OW16354   1.481   5.235   6.849
 5152SOL    HW116355   1.569   5.271   6.882
 5152SOL    HW216356   1.408   5.262   6.912
 5153SOL     OW16357   0.683   2.094   0.876
 5153SOL    HW116358   0.639   2.005   0.861
 5153SOL    HW216359   0.680   2.117   0.973
 5154SOL     OW16360   1.093   2.672   6.047
 5154SOL    HW116361   1.129   2.592   5.999
 5154SOL    HW216362   1.059   2.739   5.981
 5155SOL     OW16363   3.739   0.049   1.989
 5155SOL    HW116364   3.780   0.064   2.079
 5155SOL    HW216365   3.644   0.022   1.999
 5156SOL     OW16366   5.679   4.781   5.463
 5156SOL    HW116367   5.730   4.776   5.549
 5156SOL    HW216368   5.657   4.877   5.443
 5157SOL     OW16369   3.258   2.089   3.008
 5157SOL    HW116370   3.336   2.052   2.957
 5157SOL    HW216371   3.291   2.153   3.077
 5158SOL     OW16372   4.047   2.023   0.955
 5158SOL    HW116373   4.019   2.087   0.884
 5158SOL    HW216374   4.146   2.026   0.966
 5159SOL     OW16375   5.665   2.957   5.912
 5159SOL    HW116376   5.629   2.883   5.967
 5159SOL    HW216377   5.761   2.939   5.889
 5160SOL     OW16378   0.090   4.724   3.328
 5160SOL    HW116379   0.088   4.674   3.242
 5160SOL    HW216380   0.017   4.792   3.329
 5161SOL     OW16381   1.904   3.583   6.742
 5161SOL    HW116382   1.966   3.505   6.751
 5161SOL    HW216383   1.933   3.639   6.664
 5162SOL     OW16384   0.989   5.592   3.051
 5162SOL    HW116385   0.944   5.615   3.137
 5162SOL    HW216386   0.981   5.494   3.034
 5163SOL     OW16387   3.034   6.801   1.012
 5163SOL    HW116388   2.970   6.856   0.960
 5163SOL    HW216389   3.108   6.859   1.046
 5164SOL     OW16390   3.687   2.945   0.172
 5164SOL    HW116391   3.663   2.853   0.205
 5164SOL    HW216392   3.646   2.960   0.082
 5165SOL     OW16393   0.555   3.990   5.776
 5165SOL    HW116394   0.630   3.967   5.714
 5165SOL    HW216395   0.590   3.998   5.869
 5166SOL     OW16396   1.884   5.338   2.315
 5166SOL    HW116397   1.814   5.271   2.341
 5166SOL    HW216398   1.974   5.301   2.337
 5167SOL     OW16399   6.239   4.396   5.327
 5167SOL    HW116400   6.330   4.356   5.319
 5167SOL    HW216401   6.183   4.341   5.389
 5168SOL     OW16402   5.356   3.324   2.303
 5168SOL    HW116403   5.298   3.356   2.378
 5168SOL    HW216404   5.351   3.225   2.298
 5169SOL     OW16405   3.604   2.019   3.402
 5169SOL    HW116406   3.702   2.042   3.404
 5169SOL    HW216407   3.566   2.044   3.313
 5170SOL     OW16408   1.322   3.678   4.926
 5170SOL    HW116409   1.252   3.741   4.891
 5170SOL    HW216410   1.304   3.658   5.022
 5171SOL     OW16411   0.078   3.856   5.966
 5171SOL    HW116412   0.009   3.823   5.901
 5171SOL    HW216413   0.150   3.788   5.975
 5172SOL     OW16414   1.806   3.293   2.464
 5172SOL    HW116415   1.780   3.228   2.393
 5172SOL    HW216416   1.731   3.358   2.479
 5173SOL     OW16417   4.143   5.179   5.134
 5173SOL    HW116418   4.066   5.118   5.115
 5173SOL    HW216419   4.157   5.241   5.058
 5174SOL     OW16420   2.664   4.931   3.140
 5174SOL    HW116421   2.673   4.878   3.225
 5174SOL    HW216422   2.598   5.005   3.154
 5175SOL     OW16423   3.085   3.617   6.673
 5175SOL    HW116424   3.004   3.558   6.681
 5175SOL    HW216425   3.079   3.669   6.587
 5176SOL     OW16426   5.353   3.898   6.798
 5176SOL    HW116427   5.420   3.826   6.782
 5176SOL    HW216428   5.298   3.912   6.716
 5177SOL     OW16429   5.600   6.507   0.702
 5177SOL    HW116430   5.567   6.502   0.608
 5177SOL    HW216431   5.525   6.488   0.765
 5178SOL     OW16432   1.319   3.701   2.734
 5178SOL    HW116433   1.298   3.723   2.639
 5178SOL    HW216434   1.417   3.715   2.750
 5179SOL     OW16435   4.439   4.534   4.172
 5179SOL    HW116436   4.440   4.511   4.075
 5179SOL    HW216437   4.458   4.632   4.183
 5180SOL     OW16438   3.029   1.241   1.231
 5180SOL    HW116439   2.951   1.179   1.220
 5180SOL    HW216440   3.114   1.190   1.223
 5181SOL     OW16441   5.216   0.931   2.360
 5181SOL    HW116442   5.172   1.021   2.352
 5181SOL    HW216443   5.315   0.943   2.364
 5182SOL     OW16444   4.343   4.560   1.980
 5182SOL    HW116445   4.282   4.606   2.044
 5182SOL    HW216446   4.365   4.469   2.015
 5183SOL     OW16447   3.556   1.688   2.928
 5183SOL    HW116448   3.456   1.693   2.939
 5183SOL    HW216449   3.578   1.659   2.835
 5184SOL     OW16450   1.088   2.363   3.597
 5184SOL    HW116451   0.998   2.348   3.637
 5184SOL    HW216452   1.084   2.441   3.534
 5185SOL     OW16453   4.823   1.210   3.168
 5185SOL    HW116454   4.789   1.253   3.084
 5185SOL    HW216455   4.908   1.162   3.148
 5186SOL     OW16456   5.905   1.326   0.059
 5186SOL    HW116457   5.978   1.363   0.002
 5186SOL    HW216458   5.907   1.226   0.056
 5187SOL     OW16459   1.255   6.024   4.698
 5187SOL    HW116460   1.219   5.943   4.744
 5187SOL    HW216461   1.186   6.096   4.696
 5188SOL     OW16462   6.687   5.518   1.702
 5188SOL    HW116463   6.776   5.564   1.699
 5188SOL    HW216464   6.650   5.512   1.609
 5189SOL     OW16465   4.364   5.698   0.915
 5189SOL    HW116466   4.333   5.671   0.824
 5189SOL    HW216467   4.290   5.686   0.981
 5190SOL     OW16468   0.572   3.542   4.326
 5190SOL    HW116469   0.532   3.451   4.332
 5190SOL    HW216470   0.653   3.547   4.384
 5191SOL     OW16471   3.780   6.798   2.545
 5191SOL    HW116472   3.880   6.802   2.539
 5191SOL    HW216473   3.747   6.874   2.600
 5192SOL     OW16474   1.906   5.859   1.630
 5192SOL    HW116475   1.922   5.771   1.674
 5192SOL    HW216476   1.926   5.933   1.694
 5193SOL     OW16477   5.266   5.774   5.587
 5193SOL    HW116478   5.345   5.758   5.645
 5193SOL    HW216479   5.296   5.790   5.493
 5194SOL     OW16480   4.339   1.830   6.967
 5194SOL    HW116481   4.345   1.924   6.934
 5194SOL    HW216482   4.348   1.829   0.043
 5195SOL     OW16483   0.223   0.333   4.273
 5195SOL    HW116484   0.268   0.417   4.302
 5195SOL    HW216485   0.253   0.308   4.181
 5196SOL     OW16486   4.797   6.962   2.195
 5196SOL    HW116487   4.846   7.005   2.118
 5196SOL    HW216488   4.765   6.872   2.168
 5197SOL     OW16489   2.152   4.028   6.323
 5197SOL    HW116490   2.209   4.074   6.391
 5197SOL    HW216491   2.208   3.963   6.272
 5198SOL     OW16492   4.871   6.252   3.304
 5198SOL    HW116493   4.821   6.211   3.227
 5198SOL    HW216494   4.898   6.345   3.280
 5199SOL     OW16495   0.993   6.042   0.183
 5199SOL    HW116496   0.954   5.980   0.250
 5199SOL    HW216497   1.041   5.990   0.112
 5200SOL     OW16498   6.909   3.984   5.337
 5200SOL    HW116499   6.976   3.969   5.264
 5200SOL    HW216500   6.865   3.898   5.361
 5201SOL     OW16501   0.573   6.885   2.919
 5201SOL    HW116502   0.650   6.828   2.947
 5201SOL    HW216503   0.505   6.828   2.872
 5202SOL     OW16504   5.041   2.542   6.417
 5202SOL    HW116505   5.110   2.486   6.463
 5202SOL    HW216506   4.970   2.567   6.483
 5203SOL     OW16507   2.218   2.371   6.558
 5203SOL    HW116508   2.169   2.433   6.497
 5203SOL    HW216509   2.188   2.386   6.652
 5204SOL     OW16510   3.253   5.133   6.457
 5204SOL    HW116511   3.299   5.052   6.421
 5204SOL    HW216512   3.161   5.139   6.420
 5205SOL     OW16513   0.331   6.640   0.917
 5205SOL    HW116514   0.321   6.542   0.903
 5205SOL    HW216515   0.302   6.664   1.010
 5206SOL     OW16516   0.327   4.069   5.648
 5206SOL    HW116517   0.368   4.071   5.557
 5206SOL    HW216518   0.396   4.042   5.715
 5207SOL     OW16519   0.922   6.008   3.784
 5207SOL    HW116520   0.963   6.097   3.765
 5207SOL    HW216521   0.925   5.991   3.883
 5208SOL     OW16522   3.527   1.727   6.629
 5208SOL    HW116523   3.579   1.811   6.649
 5208SOL    HW216524   3.567   1.651   6.681
 5209SOL     OW16525   5.632   5.781   3.368
 5209SOL    HW116526   5.556   5.831   3.409
 5209SOL    HW216527   5.649   5.697   3.420
 5210SOL     OW16528   5.165   2.797   5.388
 5210SOL    HW116529   5.115   2.749   5.316
 5210SOL    HW216530   5.184   2.734   5.463
 5211SOL     OW16531   3.222   2.994   4.672
 5211SOL    HW116532   3.239   2.926   4.743
 5211SOL    HW216533   3.160   3.064   4.707
 5212SOL     OW16534   6.062   2.165   0.795
 5212SOL    HW116535   6.065   2.091   0.862
 5212SOL    HW216536   5.996   2.234   0.824
 5213SOL     OW16537   4.388   4.047   6.860
 5213SOL    HW116538   4.344   4.002   6.938
 5213SOL    HW216539   4.334   4.126   6.832
 5214SOL     OW16540   4.615   1.620   5.570
 5214SOL    HW116541   4.578   1.688   5.507
 5214SOL    HW216542   4.639   1.537   5.521
 5215SOL     OW16543   5.990   4.760   3.579
 5215SOL    HW116544   6.063   4.807   3.629
 5215SOL    HW216545   5.990   4.663   3.605
 5216SOL     OW16546   4.340   5.352   1.463
 5216SOL    HW116547   4.356   5.398   1.550
 5216SOL    HW216548   4.336   5.253   1.477
 5217SOL     OW16549   3.620   5.373   4.592
 5217SOL    HW116550   3.660   5.360   4.683
 5217SOL    HW216551   3.633   5.468   4.563
 5218SOL     OW16552   0.956   0.832   3.956
 5218SOL    HW116553   0.966   0.799   4.050
 5218SOL    HW216554   1.018   0.782   3.896
 5219SOL     OW16555   4.132   0.433   5.842
 5219SOL    HW116556   4.199   0.507   5.835
 5219SOL    HW216557   4.149   0.380   5.925
 5220SOL     OW16558   1.597   5.831   2.564
 5220SOL    HW116559   1.655   5.824   2.483
 5220SOL    HW216560   1.504   5.857   2.536
 5221SOL     OW16561   5.404   2.316   3.987
 5221SOL    HW116562   5.394   2.236   3.927
 5221SOL    HW216563   5.500   2.328   4.010
 5222SOL     OW16564   3.454   5.982   3.418
 5222SOL    HW116565   3.390   5.979   3.341
 5222SOL    HW216566   3.469   5.889   3.452
 5223SOL     OW16567   6.056   1.914   0.928
 5223SOL    HW116568   6.095   1.831   0.888
 5223SOL    HW216569   6.041   1.900   1.026
 5224SOL     OW16570   0.062   2.511   3.984
 5224SOL    HW116571   7.024   2.567   4.039
 5224SOL    HW216572   0.122   2.570   3.931
 5225SOL     OW16573   0.423   0.146   3.483
 5225SOL    HW116574   0.474   0.218   3.436
 5225SOL    HW216575   0.328   0.174   3.493
 5226SOL     OW16576   0.408   5.929   4.566
 5226SOL    HW116577   0.315   5.961   4.549
 5226SOL    HW216578   0.461   5.935   4.481
 5227SOL     OW16579   1.209   3.593   3.997
 5227SOL    HW116580   1.303   3.602   4.030
 5227SOL    HW216581   1.149   3.648   4.055
 5228SOL     OW16582   6.308   2.219   1.386
 5228SOL    HW116583   6.337   2.313   1.404
 5228SOL    HW216584   6.288   2.173   1.472
 5229SOL     OW16585   1.807   5.591   0.163
 5229SOL    HW116586   1.729   5.612   0.103
 5229SOL    HW216587   1.842   5.676   0.203
 5230SOL     OW16588   0.413   6.025   1.075
 5230SOL    HW116589   0.409   6.045   1.173
 5230SOL    HW216590   0.496   5.973   1.055
 5231SOL     OW16591   4.179   3.689   5.532
 5231SOL    HW116592   4.231   3.735   5.605
 5231SOL    HW216593   4.242   3.634   5.477
 5232SOL     OW16594   3.614   2.166   5.593
 5232SOL    HW116595   3.542   2.119   5.543
 5232SOL    HW216596   3.580   2.193   5.683
 5233SOL     OW16597   5.477   0.882   2.033
 5233SOL    HW116598   5.507   0.949   2.100
 5233SOL    HW216599   5.390   0.911   1.993
 5234SOL     OW16600   2.525   0.617   0.283
 5234SOL    HW116601   2.550   0.648   0.192
 5234SOL    HW216602   2.457   0.543   0.276
 5235SOL     OW16603   2.185   3.009   1.197
 5235SOL    HW116604   2.233   3.025   1.283
 5235SOL    HW216605   2.095   2.971   1.216
 5236SOL     OW16606   5.975   4.005   2.819
 5236SOL    HW116607   5.997   3.932   2.883
 5236SOL    HW216608   6.011   3.982   2.728
 5237SOL     OW16609   2.352   0.751   5.040
 5237SOL    HW116610   2.291   0.726   4.965
 5237SOL    HW216611   2.306   0.735   5.127
 5238SOL     OW16612   1.375   4.177   0.548
 5238SOL    HW116613   1.307   4.138   0.486
 5238SOL    HW216614   1.407   4.106   0.611
 5239SOL     OW16615   4.009   3.097   4.307
 5239SOL    HW116616   4.023   3.104   4.209
 5239SOL    HW216617   4.015   3.187   4.349
 5240SOL     OW16618   3.218   1.601   6.485
 5240SOL    HW116619   3.120   1.598   6.502
 5240SOL    HW216620   3.251   1.695   6.493
 5241SOL     OW16621   0.694   5.262   5.675
 5241SOL    HW116622   0.719   5.346   5.723
 5241SOL    HW216623   0.767   5.238   5.610
 5242SOL     OW16624   6.605   5.998   6.295
 5242SOL    HW116625   6.561   5.915   6.259
 5242SOL    HW216626   6.600   5.998   6.395
 5243SOL     OW16627   1.542   5.555   1.773
 5243SOL    HW116628   1.460   5.504   1.800
 5243SOL    HW216629   1.572   5.613   1.849
 5244SOL     OW16630   3.465   4.193   6.345
 5244SOL    HW116631   3.390   4.148   6.297
 5244SOL    HW216632   3.505   4.263   6.286
 5245SOL     OW16633   4.850   4.303   0.451
 5245SOL    HW116634   4.869   4.207   0.470
 5245SOL    HW216635   4.892   4.361   0.521
 5246SOL     OW16636   5.603   4.311   2.675
 5246SOL    HW116637   5.675   4.271   2.731
 5246SOL    HW216638   5.534   4.242   2.654
 5247SOL     OW16639   0.845   0.096   0.342
 5247SOL    HW116640   0.804   0.091   0.433
 5247SOL    HW216641   0.784   0.052   0.276
 5248SOL     OW16642   5.458   0.953   4.151
 5248SOL    HW116643   5.492   0.886   4.085
 5248SOL    HW216644   5.480   1.045   4.119
 5249SOL     OW16645   6.819   4.839   4.927
 5249SOL    HW116646   6.781   4.789   4.849
 5249SOL    HW216647   6.810   4.784   5.009
 5250SOL     OW16648   1.082   0.893   5.437
 5250SOL    HW116649   1.083   0.990   5.414
 5250SOL    HW216650   1.005   0.874   5.497
 5251SOL     OW16651   0.560   3.238   0.371
 5251SOL    HW116652   0.470   3.195   0.357
 5251SOL    HW216653   0.615   3.181   0.432
 5252SOL     OW16654   2.240   5.834   0.911
 5252SOL    HW116655   2.197   5.845   0.821
 5252SOL    HW216656   2.193   5.760   0.960
 5253SOL     OW16657   5.479   4.050   4.585
 5253SOL    HW116658   5.509   3.972   4.529
 5253SOL    HW216659   5.444   4.017   4.672
 5254SOL     OW16660   4.469   1.638   2.941
 5254SOL    HW116661   4.542   1.635   3.008
 5254SOL    HW216662   4.387   1.595   2.978
 5255SOL     OW16663   4.529   0.653   6.019
 5255SOL    HW116664   4.573   0.713   5.953
 5255SOL    HW216665   4.546   0.688   6.112
 5256SOL     OW16666   4.387   0.678   3.508
 5256SOL    HW116667   4.458   0.677   3.578
 5256SOL    HW216668   4.397   0.597   3.450
 5257SOL     OW16669   4.787   6.438   2.212
 5257SOL    HW116670   4.697   6.409   2.246
 5257SOL    HW216671   4.776   6.477   2.120
 5258SOL     OW16672   5.539   3.520   1.723
 5258SOL    HW116673   5.562   3.580   1.800
 5258SOL    HW216674   5.448   3.480   1.738
 5259SOL     OW16675   4.887   5.899   0.734
 5259SOL    HW116676   4.848   5.855   0.652
 5259SOL    HW216677   4.814   5.916   0.799
 5260SOL     OW16678   5.495   3.881   0.759
 5260SOL    HW116679   5.402   3.915   0.768
 5260SOL    HW216680   5.522   3.835   0.844
 5261SOL     OW16681   1.642   3.381   6.616
 5261SOL    HW116682   1.737   3.361   6.590
 5261SOL    HW216683   1.625   3.479   6.609
 5262SOL     OW16684   2.699   0.396   3.062
 5262SOL    HW116685   2.655   0.422   3.148
 5262SOL    HW216686   2.661   0.450   2.987
 5263SOL     OW16687   1.338   0.829   5.375
 5263SOL    HW116688   1.242   0.847   5.399
 5263SOL    HW216689   1.365   0.890   5.301
 5264SOL     OW16690   5.515   1.333   2.682
 5264SOL    HW116691   5.498   1.423   2.643
 5264SOL    HW216692   5.461   1.264   2.634
 5265SOL     OW16693   5.192   4.128   3.548
 5265SOL    HW116694   5.244   4.158   3.468
 5265SOL    HW216695   5.136   4.049   3.524
 5266SOL     OW16696   2.838   6.681   2.018
 5266SOL    HW116697   2.872   6.772   1.994
 5266SOL    HW216698   2.748   6.666   1.977
 5267SOL     OW16699   5.019   4.276   5.648
 5267SOL    HW116700   5.028   4.178   5.630
 5267SOL    HW216701   4.925   4.295   5.676
 5268SOL     OW16702   6.277   0.351   6.342
 5268SOL    HW116703   6.253   0.375   6.436
 5268SOL    HW216704   6.203   0.298   6.300
 5269SOL     OW16705   1.972   0.088   4.179
 5269SOL    HW116706   1.945   0.096   4.083
 5269SOL    HW216707   1.895   0.116   4.237
 5270SOL     OW16708   5.380   1.800   2.073
 5270SOL    HW116709   5.350   1.705   2.080
 5270SOL    HW216710   5.341   1.842   1.991
 5271SOL     OW16711   5.787   5.596   5.143
 5271SOL    HW116712   5.798   5.503   5.180
 5271SOL    HW216713   5.851   5.657   5.188
 5272SOL     OW16714   2.162   6.379   1.966
 5272SOL    HW116715   2.093   6.406   1.899
 5272SOL    HW216716   2.253   6.388   1.926
 5273SOL     OW16717   6.759   3.260   3.378
 5273SOL    HW116718   6.776   3.188   3.311
 5273SOL    HW216719   6.661   3.276   3.387
 5274SOL     OW16720   6.669   6.232   2.252
 5274SOL    HW116721   6.736   6.298   2.286
 5274SOL    HW216722   6.626   6.186   2.330
 5275SOL     OW16723   3.889   1.869   6.428
 5275SOL    HW116724   3.925   1.942   6.370
 5275SOL    HW216725   3.801   1.897   6.466
 5276SOL     OW16726   1.255   0.954   0.969
 5276SOL    HW116727   1.301   0.892   0.905
 5276SOL    HW216728   1.265   1.048   0.937
 5277SOL     OW16729   1.476   2.067   3.113
 5277SOL    HW116730   1.433   2.136   3.171
 5277SOL    HW216731   1.455   1.976   3.147
 5278SOL     OW16732   4.614   0.291   4.101
 5278SOL    HW116733   4.594   0.380   4.142
 5278SOL    HW216734   4.712   0.280   4.089
 5279SOL     OW16735   1.469   5.365   6.605
 5279SOL    HW116736   1.495   5.319   6.690
 5279SOL    HW216737   1.386   5.419   6.621
 5280SOL     OW16738   3.369   6.399   5.539
 5280SOL    HW116739   3.289   6.345   5.565
 5280SOL    HW216740   3.375   6.404   5.439
 5281SOL     OW16741   0.550   1.514   3.027
 5281SOL    HW116742   0.474   1.579   3.027
 5281SOL    HW216743   0.624   1.550   2.970
 5282SOL     OW16744   2.227   1.722   3.156
 5282SOL    HW116745   2.309   1.711   3.211
 5282SOL    HW216746   2.159   1.775   3.207
 5283SOL     OW16747   3.473   6.952   2.042
 5283SOL    HW116748   3.401   6.999   1.992
 5283SOL    HW216749   3.434   6.903   2.120
 5284SOL     OW16750   5.666   3.517   2.997
 5284SOL    HW116751   5.676   3.463   3.081
 5284SOL    HW216752   5.573   3.554   2.992
 5285SOL     OW16753   1.934   3.975   4.441
 5285SOL    HW116754   1.975   4.002   4.353
 5285SOL    HW216755   1.843   4.015   4.449
 5286SOL     OW16756   0.253   3.771   0.975
 5286SOL    HW116757   0.230   3.745   0.881
 5286SOL    HW216758   0.176   3.821   1.015
 5287SOL     OW16759   1.506   6.040   1.748
 5287SOL    HW116760   1.527   6.105   1.674
 5287SOL    HW216761   1.583   6.036   1.811
 5288SOL     OW16762   3.795   0.603   2.655
 5288SOL    HW116763   3.717   0.614   2.716
 5288SOL    HW216764   3.763   0.580   2.563
 5289SOL     OW16765   1.582   5.649   6.299
 5289SOL    HW116766   1.646   5.716   6.261
 5289SOL    HW216767   1.546   5.592   6.226
 5290SOL     OW16768   1.741   4.454   5.155
 5290SOL    HW116769   1.821   4.464   5.097
 5290SOL    HW216770   1.730   4.357   5.180
 5291SOL     OW16771   2.961   4.996   5.609
 5291SOL    HW116772   2.902   5.030   5.536
 5291SOL    HW216773   3.056   5.024   5.590
 5292SOL     OW16774   6.428   4.627   0.351
 5292SOL    HW116775   6.381   4.616   0.263
 5292SOL    HW216776   6.391   4.561   0.417
 5293SOL     OW16777   1.501   0.550   4.182
 5293SOL    HW116778   1.482   0.613   4.106
 5293SOL    HW216779   1.483   0.456   4.153
 5294SOL     OW16780   5.676   2.733   4.830
 5294SOL    HW116781   5.773   2.738   4.807
 5294SOL    HW216782   5.642   2.825   4.849
 5295SOL     OW16783   4.251   0.771   2.571
 5295SOL    HW116784   4.255   0.811   2.663
 5295SOL    HW216785   4.280   0.676   2.574
 5296SOL     OW16786   2.203   5.433   0.747
 5296SOL    HW116787   2.154   5.391   0.670
 5296SOL    HW216788   2.232   5.361   0.810
 5297SOL     OW16789   2.948   2.127   0.705
 5297SOL    HW116790   3.025   2.189   0.719
 5297SOL    HW216791   2.954   2.051   0.770
 5298SOL     OW16792   1.176   6.022   6.546
 5298SOL    HW116793   1.108   6.064   6.486
 5298SOL    HW216794   1.224   5.950   6.496
 5299SOL     OW16795   2.616   2.547   0.804
 5299SOL    HW116796   2.654   2.544   0.896
 5299SOL    HW216797   2.653   2.471   0.750
 5300SOL     OW16798   0.847   6.193   1.713
 5300SOL    HW116799   0.762   6.170   1.666
 5300SOL    HW216800   0.923   6.188   1.649
 5301SOL     OW16801   3.666   2.254   6.339
 5301SOL    HW116802   3.649   2.168   6.290
 5301SOL    HW216803   3.752   2.294   6.307
 5302SOL     OW16804   5.873   5.491   3.764
 5302SOL    HW116805   5.816   5.455   3.838
 5302SOL    HW216806   5.970   5.487   3.792
 5303SOL     OW16807   6.838   5.819   2.903
 5303SOL    HW116808   6.902   5.771   2.843
 5303SOL    HW216809   6.878   5.905   2.933
 5304SOL     OW16810   5.452   1.534   6.622
 5304SOL    HW116811   5.502   1.600   6.564
 5304SOL    HW216812   5.446   1.570   6.715
 5305SOL     OW16813   1.483   5.386   3.790
 5305SOL    HW116814   1.410   5.372   3.857
 5305SOL    HW216815   1.445   5.428   3.708
 5306SOL     OW16816   0.664   4.732   5.033
 5306SOL    HW116817   0.720   4.698   5.108
 5306SOL    HW216818   0.710   4.716   4.946
 5307SOL     OW16819   4.009   0.135   0.678
 5307SOL    HW116820   4.014   0.152   0.777
 5307SOL    HW216821   3.956   0.051   0.661
 5308SOL     OW16822   1.177   6.403   3.289
 5308SOL    HW116823   1.101   6.363   3.237
 5308SOL    HW216824   1.218   6.333   3.347
 5309SOL     OW16825   3.990   4.670   1.669
 5309SOL    HW116826   3.969   4.728   1.747
 5309SOL    HW216827   4.007   4.727   1.588
 5310SOL     OW16828   6.304   3.556   1.745
 5310SOL    HW116829   6.341   3.646   1.768
 5310SOL    HW216830   6.209   3.566   1.716
 5311SOL     OW16831   0.195   6.369   0.135
 5311SOL    HW116832   0.135   6.415   0.069
 5311SOL    HW216833   0.176   6.271   0.135
 5312SOL     OW16834   0.491   4.789   1.628
 5312SOL    HW116835   0.471   4.880   1.592
 5312SOL    HW216836   0.412   4.729   1.612
 5313SOL     OW16837   1.567   4.989   6.290
 5313SOL    HW116838   1.521   5.058   6.346
 5313SOL    HW216839   1.502   4.948   6.227
 5314SOL     OW16840   3.629   5.997   6.849
 5314SOL    HW116841   3.547   6.052   6.836
 5314SOL    HW216842   3.671   6.019   6.937
 5315SOL     OW16843   5.106   3.527   1.641
 5315SOL    HW116844   5.113   3.625   1.660
 5315SOL    HW216845   5.073   3.513   1.548
 5316SOL     OW16846   6.841   4.508   5.047
 5316SOL    HW116847   6.865   4.419   5.085
 5316SOL    HW216848   6.815   4.570   5.121
 5317SOL     OW16849   6.731   6.930   5.036
 5317SOL    HW116850   6.681   6.868   5.097
 5317SOL    HW216851   6.820   6.889   5.015
 5318SOL     OW16852   0.043   2.248   6.181
 5318SOL    HW116853   0.049   2.256   6.081
 5318SOL    HW216854   6.971   2.236   6.208
 5319SOL     OW16855   4.532   6.679   6.795
 5319SOL    HW116856   4.458   6.668   6.861
 5319SOL    HW216857   4.540   6.597   6.739
 5320SOL     OW16858   6.009   4.823   0.364
 5320SOL    HW116859   5.971   4.888   0.299
 5320SOL    HW216860   5.945   4.746   0.376
 5321SOL     OW16861   1.084   4.062   3.566
 5321SOL    HW116862   1.004   4.004   3.583
 5321SOL    HW216863   1.066   4.123   3.489
 5322SOL     OW16864   4.364   6.100   6.477
 5322SOL    HW116865   4.333   6.182   6.430
 5322SOL    HW216866   4.316   6.090   6.563
 5323SOL     OW16867   3.631   2.966   6.939
 5323SOL    HW116868   3.576   3.036   6.894
 5323SOL    HW216869   3.608   2.876   6.901
 5324SOL     OW16870   4.080   2.493   1.086
 5324SOL    HW116871   4.045   2.433   1.158
 5324SOL    HW216872   4.177   2.473   1.070
 5325SOL     OW16873   4.538   0.532   4.189
 5325SOL    HW116874   4.475   0.520   4.266
 5325SOL    HW216875   4.613   0.592   4.216
 5326SOL     OW16876   0.348   5.354   3.967
 5326SOL    HW116877   0.407   5.335   4.045
 5326SOL    HW216878   0.385   5.432   3.916
 5327SOL     OW16879   5.542   3.793   5.141
 5327SOL    HW116880   5.588   3.716   5.097
 5327SOL    HW216881   5.598   3.827   5.216
 5328SOL     OW16882   3.746   3.059   5.930
 5328SOL    HW116883   3.844   3.073   5.947
 5328SOL    HW216884   3.718   3.114   5.851
 5329SOL     OW16885   6.686   4.353   0.287
 5329SOL    HW116886   6.770   4.398   0.318
 5329SOL    HW216887   6.686   4.258   0.318
 5330SOL     OW16888   3.739   4.299   5.898
 5330SOL    HW116889   3.836   4.314   5.877
 5330SOL    HW216890   3.683   4.357   5.839
 5331SOL     OW16891   5.172   1.155   1.167
 5331SOL    HW116892   5.131   1.146   1.258
 5331SOL    HW216893   5.124   1.225   1.115
 5332SOL     OW16894   0.513   3.802   1.020
 5332SOL    HW116895   0.535   3.762   1.109
 5332SOL    HW216896   0.414   3.797   1.005
 5333SOL     OW16897   0.980   0.617   3.491
 5333SOL    HW116898   1.071   0.646   3.522
 5333SOL    HW216899   0.915   0.625   3.566
 5334SOL     OW16900   3.817   6.624   4.306
 5334SOL    HW116901   3.776   6.715   4.307
 5334SOL    HW216902   3.902   6.626   4.253
 5335SOL     OW16903   6.490   5.520   2.735
 5335SOL    HW116904   6.439   5.435   2.724
 5335SOL    HW216905   6.563   5.525   2.668
 5336SOL     OW16906   1.647   1.941   2.952
 5336SOL    HW116907   1.603   2.016   3.002
 5336SOL    HW216908   1.654   1.861   3.011
 5337SOL     OW16909   5.635   4.457   2.072
 5337SOL    HW116910   5.640   4.475   1.974
 5337SOL    HW216911   5.626   4.358   2.087
 5338SOL     OW16912   6.069   0.830   5.916
 5338SOL    HW116913   6.116   0.840   5.828
 5338SOL    HW216914   6.056   0.920   5.957
 5339SOL     OW16915   6.342   2.146   3.408
 5339SOL    HW116916   6.404   2.070   3.389
 5339SOL    HW216917   6.281   2.161   3.330
 5340SOL     OW16918   5.657   3.654   1.498
 5340SOL    HW116919   5.617   3.581   1.553
 5340SOL    HW216920   5.709   3.716   1.557
 5341SOL     OW16921   3.231   5.155   6.020
 5341SOL    HW116922   3.286   5.086   5.973
 5341SOL    HW216923   3.213   5.125   6.113
 5342SOL     OW16924   4.562   6.653   4.168
 5342SOL    HW116925   4.570   6.627   4.264
 5342SOL    HW216926   4.483   6.608   4.127
 5343SOL     OW16927   3.689   3.699   4.936
 5343SOL    HW116928   3.683   3.602   4.960
 5343SOL    HW216929   3.648   3.754   5.009
 5344SOL     OW16930   1.851   1.913   0.783
 5344SOL    HW116931   1.840   1.814   0.782
 5344SOL    HW216932   1.938   1.937   0.826
 5345SOL     OW16933   4.169   6.294   0.307
 5345SOL    HW116934   4.181   6.303   0.406
 5345SOL    HW216935   4.236   6.229   0.271
 5346SOL     OW16936   3.360   5.460   3.830
 5346SOL    HW116937   3.412   5.385   3.871
 5346SOL    HW216938   3.421   5.514   3.772
 5347SOL     OW16939   7.024   2.951   2.266
 5347SOL    HW116940   6.937   3.000   2.255
 5347SOL    HW216941   0.050   2.953   2.180
 5348SOL     OW16942   6.609   1.909   0.630
 5348SOL    HW116943   6.615   1.899   0.531
 5348SOL    HW216944   6.699   1.935   0.666
 5349SOL     OW16945   2.328   2.573   0.285
 5349SOL    HW116946   2.344   2.536   0.194
 5349SOL    HW216947   2.357   2.507   0.354
 5350SOL     OW16948   1.168   6.896   4.809
 5350SOL    HW116949   1.196   6.956   4.885
 5350SOL    HW216950   1.235   6.904   4.735
 5351SOL     OW16951   6.517   5.214   2.056
 5351SOL    HW116952   6.568   5.252   1.979
 5351SOL    HW216953   6.525   5.114   2.055
 5352SOL     OW16954   1.931   5.082   3.055
 5352SOL    HW116955   2.030   5.086   3.039
 5352SOL    HW216956   1.883   5.078   2.968
 5353SOL     OW16957   3.840   5.163   4.368
 5353SOL    HW116958   3.752   5.209   4.377
 5353SOL    HW216959   3.829   5.065   4.385
 5354SOL     OW16960   1.924   4.581   0.803
 5354SOL    HW116961   1.832   4.603   0.835
 5354SOL    HW216962   1.953   4.650   0.737
 5355SOL     OW16963   6.270   4.309   4.592
 5355SOL    HW116964   6.255   4.406   4.610
 5355SOL    HW216965   6.183   4.264   4.572
 5356SOL     OW16966   6.777   3.864   2.458
 5356SOL    HW116967   6.761   3.799   2.384
 5356SOL    HW216968   6.802   3.815   2.541
 5357SOL     OW16969   2.927   5.871   6.884
 5357SOL    HW116970   2.987   5.884   6.964
 5357SOL    HW216971   2.853   5.808   6.908
 5358SOL     OW16972   4.663   1.475   0.425
 5358SOL    HW116973   4.579   1.454   0.375
 5358SOL    HW216974   4.655   1.441   0.519
 5359SOL     OW16975   2.193   1.055   6.031
 5359SOL    HW116976   2.229   1.148   6.030
 5359SOL    HW216977   2.107   1.051   5.981
 5360SOL     OW16978   3.368   6.063   3.685
 5360SOL    HW116979   3.410   6.088   3.598
 5360SOL    HW216980   3.305   5.987   3.671
 5361SOL     OW16981   2.576   0.884   4.548
 5361SOL    HW116982   2.624   0.816   4.604
 5361SOL    HW216983   2.628   0.969   4.547
 5362SOL     OW16984   6.016   6.343   2.609
 5362SOL    HW116985   6.090   6.398   2.646
 5362SOL    HW216986   5.980   6.283   2.680
 5363SOL     OW16987   6.504   6.573   5.372
 5363SOL    HW116988   6.562   6.558   5.452
 5363SOL    HW216989   6.420   6.519   5.381
 5364SOL     OW16990   6.695   0.320   1.844
 5364SOL    HW116991   6.706   0.298   1.747
 5364SOL    HW216992   6.600   0.306   1.871
 5365SOL     OW16993   3.975   2.956   1.116
 5365SOL    HW116994   3.937   3.006   1.193
 5365SOL    HW216995   3.959   2.858   1.127
 5366SOL     OW16996   6.000   6.134   0.803
 5366SOL    HW116997   6.066   6.067   0.768
 5366SOL    HW216998   5.953   6.177   0.726
 5367SOL     OW16999   0.222   0.009   1.296
 5367SOL    HW117000   0.208   0.007   1.197
 5367SOL    HW217001   0.212   0.103   1.330
 5368SOL     OW17002   5.629   0.041   2.104
 5368SOL    HW117003   5.685   0.010   2.181
 5368SOL    HW217004   5.536   0.007   2.115
 5369SOL     OW17005   2.693   6.608   0.973
 5369SOL    HW117006   2.637   6.525   0.977
 5369SOL    HW217007   2.639   6.682   0.933
 5370SOL     OW17008   4.773   2.571   0.877
 5370SOL    HW117009   4.690   2.542   0.924
 5370SOL    HW217010   4.767   2.669   0.858
 5371SOL     OW17011   0.101   3.841   5.635
 5371SOL    HW117012   0.146   3.803   5.554
 5371SOL    HW217013   0.129   3.936   5.647
 5372SOL     OW17014   1.406   5.734   3.232
 5372SOL    HW117015   1.489   5.788   3.250
 5372SOL    HW217016   1.332   5.768   3.291
 5373SOL     OW17017   3.950   6.478   4.936
 5373SOL    HW117018   3.899   6.560   4.908
 5373SOL    HW217019   3.905   6.397   4.900
 5374SOL     OW17020   2.133   4.007   0.515
 5374SOL    HW117021   2.196   4.082   0.534
 5374SOL    HW217022   2.060   4.006   0.583
 5375SOL     OW17023   0.686   6.243   4.495
 5375SOL    HW117024   0.604   6.285   4.455
 5375SOL    HW217025   0.658   6.176   4.565
 5376SOL     OW17026   1.123   2.296   1.283
 5376SOL    HW117027   1.152   2.252   1.368
 5376SOL    HW217028   1.033   2.263   1.256
 5377SOL     OW17029   0.198   0.095   2.255
 5377SOL    HW117030   0.163   0.122   2.345
 5377SOL    HW217031   0.283   0.144   2.236
 5378SOL     OW17032   6.934   0.301   2.329
 5378SOL    HW117033   7.002   0.275   2.397
 5378SOL    HW217034   6.871   0.368   2.369
 5379SOL     OW17035   0.543   4.128   4.878
 5379SOL    HW117036   0.481   4.162   4.807
 5379SOL    HW217037   0.544   4.028   4.875
 5380SOL     OW17038   2.938   0.338   2.774
 5380SOL    HW117039   2.839   0.325   2.775
 5380SOL    HW217040   2.974   0.311   2.684
 5381SOL     OW17041   6.023   5.118   1.930
 5381SOL    HW117042   5.983   5.161   2.011
 5381SOL    HW217043   6.049   5.188   1.864
 5382SOL     OW17044   2.608   1.431   2.132
 5382SOL    HW117045   2.674   1.493   2.090
 5382SOL    HW217046   2.632   1.416   2.228
 5383SOL     OW17047   1.867   2.405   5.201
 5383SOL    HW117048   1.866   2.323   5.258
 5383SOL    HW217049   1.821   2.387   5.114
 5384SOL     OW17050   5.456   0.170   4.827
 5384SOL    HW117051   5.446   0.131   4.919
 5384SOL    HW217052   5.528   0.121   4.778
 5385SOL     OW17053   3.627   3.677   4.514
 5385SOL    HW117054   3.707   3.717   4.558
 5385SOL    HW217055   3.586   3.745   4.453
 5386SOL     OW17056   4.794   1.176   4.058
 5386SOL    HW117057   4.749   1.123   4.129
 5386SOL    HW217058   4.734   1.250   4.028
 5387SOL     OW17059   1.800   6.712   3.853
 5387SOL    HW117060   1.763   6.728   3.762
 5387SOL    HW217061   1.735   6.658   3.907
 5388SOL     OW17062   0.305   0.980   3.198
 5388SOL    HW117063   0.337   0.906   3.139
 5388SOL    HW217064   0.310   1.067   3.147
 5389SOL     OW17065   3.222   1.487   3.277
 5389SOL    HW117066   3.233   1.471   3.375
 5389SOL    HW217067   3.263   1.576   3.254
 5390SOL     OW17068   4.768   4.108   3.561
 5390SOL    HW117069   4.739   4.082   3.653
 5390SOL    HW217070   4.725   4.195   3.536
 5391SOL     OW17071   2.780   1.210   1.012
 5391SOL    HW117072   2.818   1.302   1.002
 5391SOL    HW217073   2.688   1.217   1.051
 5392SOL     OW17074   6.073   3.772   1.604
 5392SOL    HW117075   6.078   3.677   1.636
 5392SOL    HW217076   6.093   3.775   1.506
 5393SOL     OW17077   5.117   0.531   5.467
 5393SOL    HW117078   5.074   0.442   5.485
 5393SOL    HW217079   5.201   0.517   5.414
 5394SOL     OW17080   0.472   5.731   1.225
 5394SOL    HW117081   0.396   5.761   1.283
 5394SOL    HW217082   0.442   5.726   1.130
 5395SOL     OW17083   4.895   0.859   1.211
 5395SOL    HW117084   4.994   0.853   1.204
 5395SOL    HW217085   4.855   0.862   1.119
 5396SOL     OW17086   5.722   4.537   1.808
 5396SOL    HW117087   5.682   4.465   1.752
 5396SOL    HW217088   5.665   4.619   1.801
 5397SOL     OW17089   0.035   2.834   1.588
 5397SOL    HW117090   0.112   2.785   1.547
 5397SOL    HW217091   0.014   2.794   1.677
 5398SOL     OW17092   2.732   2.312   3.794
 5398SOL    HW117093   2.785   2.301   3.879
 5398SOL    HW217094   2.687   2.401   3.795
 5399SOL     OW17095   2.544   6.425   0.423
 5399SOL    HW117096   2.642   6.430   0.410
 5399SOL    HW217097   2.511   6.509   0.466
 5400SOL     OW17098   3.281   3.362   6.861
 5400SOL    HW117099   3.344   3.311   6.921
 5400SOL    HW217100   3.186   3.345   6.891
 5401SOL     OW17101   6.573   4.775   2.389
 5401SOL    HW117102   6.482   4.790   2.426
 5401SOL    HW217103   6.634   4.848   2.420
 5402SOL     OW17104   2.232   6.160   1.633
 5402SOL    HW117105   2.237   6.069   1.592
 5402SOL    HW217106   2.321   6.186   1.668
 5403SOL     OW17107   5.572   2.819   5.479
 5403SOL    HW117108   5.542   2.724   5.482
 5403SOL    HW217109   5.511   2.872   5.420
 5404SOL     OW17110   0.672   0.450   3.105
 5404SOL    HW117111   0.761   0.472   3.144
 5404SOL    HW217112   0.663   0.495   3.016
 5405SOL     OW17113   5.769   5.922   6.881
 5405SOL    HW117114   5.788   6.021   6.876
 5405SOL    HW217115   5.672   5.906   6.865
 5406SOL     OW17116   1.807   0.066   5.273
 5406SOL    HW117117   1.756   0.006   5.335
 5406SOL    HW217118   1.905   0.050   5.285
 5407SOL     OW17119   3.643   1.666   1.059
 5407SOL    HW117120   3.695   1.581   1.069
 5407SOL    HW217121   3.703   1.745   1.070
 5408SOL     OW17122   3.649   0.379   6.188
 5408SOL    HW117123   3.678   0.342   6.100
 5408SOL    HW217124   3.729   0.388   6.248
 5409SOL     OW17125   7.017   1.613   3.313
 5409SOL    HW117126   7.019   1.676   3.390
 5409SOL    HW217127   6.927   1.617   3.269
 5410SOL     OW17128   1.114   2.439   6.382
 5410SOL    HW117129   1.066   2.370   6.327
 5410SOL    HW217130   1.205   2.455   6.344
 5411SOL     OW17131   5.925   5.413   6.115
 5411SOL    HW117132   5.955   5.339   6.056
 5411SOL    HW217133   5.893   5.490   6.060
 5412SOL     OW17134   3.739   1.259   6.754
 5412SOL    HW117135   3.799   1.254   6.834
 5412SOL    HW217136   3.756   1.180   6.695
 5413SOL     OW17137   0.227   0.274   0.926
 5413SOL    HW117138   0.231   0.217   0.844
 5413SOL    HW217139   0.135   0.313   0.935
 5414SOL     OW17140   6.125   3.712   4.644
 5414SOL    HW117141   6.203   3.761   4.684
 5414SOL    HW217142   6.080   3.658   4.715
 5415SOL     OW17143   1.306   5.923   2.187
 5415SOL    HW117144   1.278   5.989   2.257
 5415SOL    HW217145   1.258   5.943   2.102
 5416SOL     OW17146   3.200   5.123   5.515
 5416SOL    HW117147   3.127   5.191   5.509
 5416SOL    HW217148   3.287   5.165   5.489
 5417SOL     OW17149   4.466   6.425   4.417
 5417SOL    HW117150   4.442   6.435   4.321
 5417SOL    HW217151   4.539   6.356   4.427
 5418SOL     OW17152   4.954   0.468   4.360
 5418SOL    HW117153   5.004   0.553   4.349
 5418SOL    HW217154   5.003   0.394   4.314
 5419SOL     OW17155   3.679   5.450   6.923
 5419SOL    HW117156   3.725   5.369   6.960
 5419SOL    HW217157   3.671   5.441   6.824
 5420SOL     OW17158   2.300   2.986   1.816
 5420SOL    HW117159   2.278   3.084   1.817
 5420SOL    HW217160   2.390   2.973   1.774
 5421SOL     OW17161   2.808   5.098   2.992
 5421SOL    HW117162   2.839   5.050   2.910
 5421SOL    HW217163   2.743   5.041   3.042
 5422SOL     OW17164   1.083   5.534   4.638
 5422SOL    HW117165   1.161   5.484   4.675
 5422SOL    HW217166   1.090   5.537   4.539
 5423SOL     OW17167   6.028   4.241   0.001
 5423SOL    HW117168   5.934   4.209   7.020
 5423SOL    HW217169   6.062   4.260   6.933
 5424SOL     OW17170   5.530   3.796   4.421
 5424SOL    HW117171   5.515   3.770   4.325
 5424SOL    HW217172   5.473   3.739   4.479
 5425SOL     OW17173   5.225   2.199   4.620
 5425SOL    HW117174   5.190   2.204   4.713
 5425SOL    HW217175   5.321   2.225   4.618
 5426SOL     OW17176   6.466   5.379   3.826
 5426SOL    HW117177   6.500   5.365   3.919
 5426SOL    HW217178   6.447   5.476   3.812
 5427SOL     OW17179   5.298   4.504   0.729
 5427SOL    HW117180   5.278   4.491   0.826
 5427SOL    HW217181   5.365   4.435   0.700
 5428SOL     OW17182   6.152   6.857   2.097
 5428SOL    HW117183   6.239   6.811   2.080
 5428SOL    HW217184   6.162   6.920   2.174
 5429SOL     OW17185   1.697   1.051   5.343
 5429SOL    HW117186   1.757   1.108   5.399
 5429SOL    HW217187   1.623   1.106   5.305
 5430SOL     OW17188   2.373   2.660   6.342
 5430SOL    HW117189   2.289   2.606   6.337
 5430SOL    HW217190   2.406   2.679   6.249
 5431SOL     OW17191   3.616   4.327   6.156
 5431SOL    HW117192   3.647   4.301   6.064
 5431SOL    HW217193   3.695   4.347   6.213
 5432SOL     OW17194   3.459   5.682   6.346
 5432SOL    HW117195   3.528   5.657   6.278
 5432SOL    HW217196   3.495   5.756   6.404
 5433SOL     OW17197   0.190   0.584   2.802
 5433SOL    HW117198   0.124   0.518   2.838
 5433SOL    HW217199   0.271   0.535   2.769
 5434SOL     OW17200   4.601   0.817   4.683
 5434SOL    HW117201   4.512   0.844   4.719
 5434SOL    HW217202   4.597   0.722   4.652
 5435SOL     OW17203   6.130   1.882   1.436
 5435SOL    HW117204   6.203   1.866   1.503
 5435SOL    HW217205   6.069   1.803   1.433
 5436SOL     OW17206   5.671   4.491   4.301
 5436SOL    HW117207   5.657   4.400   4.339
 5436SOL    HW217208   5.727   4.545   4.364
 5437SOL     OW17209   2.921   5.471   5.848
 5437SOL    HW117210   2.984   5.527   5.795
 5437SOL    HW217211   2.944   5.375   5.838
 5438SOL     OW17212   6.452   3.569   2.097
 5438SOL    HW117213   6.438   3.561   2.196
 5438SOL    HW217214   6.374   3.616   2.057
 5439SOL     OW17215   6.992   2.404   0.286
 5439SOL    HW117216   6.932   2.371   0.358
 5439SOL    HW217217   6.940   2.415   0.201
 5440SOL     OW17218   6.579   0.415   3.464
 5440SOL    HW117219   6.652   0.380   3.406
 5440SOL    HW217220   6.496   0.361   3.451
 5441SOL     OW17221   4.698   2.804   3.352
 5441SOL    HW117222   4.732   2.879   3.408
 5441SOL    HW217223   4.634   2.749   3.405
 5442SOL     OW17224   2.840   6.750   3.178
 5442SOL    HW117225   2.848   6.803   3.093
 5442SOL    HW217226   2.902   6.787   3.247
 5443SOL     OW17227   3.383   5.574   4.284
 5443SOL    HW117228   3.288   5.552   4.263
 5443SOL    HW217229   3.426   5.618   4.205
 5444SOL     OW17230   0.175   0.536   3.456
 5444SOL    HW117231   0.275   0.543   3.455
 5444SOL    HW217232   0.135   0.626   3.473
 5445SOL     OW17233   6.037   4.204   3.963
 5445SOL    HW117234   5.977   4.254   3.900
 5445SOL    HW217235   6.133   4.225   3.941
 5446SOL     OW17236   5.461   5.415   4.864
 5446SOL    HW117237   5.512   5.363   4.932
 5446SOL    HW217238   5.518   5.488   4.829
 5447SOL     OW17239   1.216   1.504   0.537
 5447SOL    HW117240   1.132   1.548   0.505
 5447SOL    HW217241   1.195   1.413   0.572
 5448SOL     OW17242   5.798   4.690   4.485
 5448SOL    HW117243   5.873   4.713   4.423
 5448SOL    HW217244   5.833   4.632   4.559
 5449SOL     OW17245   2.062   1.671   0.462
 5449SOL    HW117246   2.098   1.745   0.518
 5449SOL    HW217247   1.963   1.683   0.451
 5450SOL     OW17248   2.933   0.457   0.860
 5450SOL    HW117249   2.843   0.424   0.832
 5450SOL    HW217250   2.997   0.447   0.784
 5451SOL     OW17251   2.510   6.661   3.766
 5451SOL    HW117252   2.485   6.741   3.819
 5451SOL    HW217253   2.490   6.677   3.669
 5452SOL     OW17254   2.974   3.927   6.724
 5452SOL    HW117255   3.057   3.873   6.742
 5452SOL    HW217256   2.956   3.929   6.626
 5453SOL     OW17257   5.258   4.176   2.102
 5453SOL    HW117258   5.260   4.215   2.193
 5453SOL    HW217259   5.350   4.178   2.063
 5454SOL     OW17260   5.038   5.380   6.349
 5454SOL    HW117261   4.956   5.388   6.294
 5454SOL    HW217262   5.114   5.349   6.292
 5455SOL     OW17263   0.241   2.195   2.970
 5455SOL    HW117264   0.288   2.165   3.053
 5455SOL    HW217265   0.302   2.185   2.892
 5456SOL     OW17266   3.008   6.932   0.107
 5456SOL    HW117267   2.929   6.978   0.066
 5456SOL    HW217268   3.020   6.964   0.201
 5457SOL     OW17269   6.339   1.987   1.916
 5457SOL    HW117270   6.384   1.948   1.835
 5457SOL    HW217271   6.380   2.076   1.937
 5458SOL     OW17272   0.670   5.046   0.688
 5458SOL    HW117273   0.755   5.050   0.635
 5458SOL    HW217274   0.672   5.116   0.759
 5459SOL     OW17275   3.758   3.770   6.371
 5459SOL    HW117276   3.756   3.672   6.386
 5459SOL    HW217277   3.754   3.817   6.459
 5460SOL     OW17278   3.299   6.293   3.096
 5460SOL    HW117279   3.366   6.318   3.026
 5460SOL    HW217280   3.345   6.282   3.184
 5461SOL     OW17281   0.233   1.118   5.326
 5461SOL    HW117282   0.215   1.089   5.232
 5461SOL    HW217283   0.320   1.078   5.357
 5462SOL     OW17284   5.455   6.469   6.973
 5462SOL    HW117285   5.520   6.461   6.898
 5462SOL    HW217286   5.503   6.469   0.036
 5463SOL     OW17287   6.981   1.430   7.017
 5463SOL    HW117288   7.020   1.391   6.934
 5463SOL    HW217289   6.882   1.442   7.005
 5464SOL     OW17290   6.265   0.232   4.312
 5464SOL    HW117291   6.264   0.213   4.410
 5464SOL    HW217292   6.355   0.268   4.286
 5465SOL     OW17293   4.751   0.431   4.530
 5465SOL    HW117294   4.798   0.448   4.442
 5465SOL    HW217295   4.682   0.502   4.544
 5466SOL     OW17296   5.030   2.980   4.994
 5466SOL    HW117297   5.015   2.917   4.918
 5466SOL    HW217298   4.980   3.065   4.977
 5467SOL     OW17299   5.389   3.968   3.625
 5467SOL    HW117300   5.306   4.023   3.618
 5467SOL    HW217301   5.399   3.911   3.544
 5468SOL     OW17302   6.543   2.547   3.626
 5468SOL    HW117303   6.611   2.609   3.587
 5468SOL    HW217304   6.514   2.481   3.557
 5469SOL     OW17305   2.714   6.856   5.863
 5469SOL    HW117306   2.812   6.869   5.850
 5469SOL    HW217307   2.699   6.783   5.930
 5470SOL     OW17308   3.609   5.520   3.342
 5470SOL    HW117309   3.612   5.518   3.242
 5470SOL    HW217310   3.556   5.442   3.375
 5471SOL     OW17311   5.877   0.297   3.504
 5471SOL    HW117312   5.838   0.389   3.500
 5471SOL    HW217313   5.962   0.299   3.557
 5472SOL     OW17314   2.819   3.523   6.660
 5472SOL    HW117315   2.790   3.511   6.755
 5472SOL    HW217316   2.809   3.436   6.612
 5473SOL     OW17317   1.494   3.230   1.811
 5473SOL    HW117318   1.513   3.281   1.895
 5473SOL    HW217319   1.544   3.272   1.734
 5474SOL     OW17320   1.051   4.412   4.167
 5474SOL    HW117321   1.112   4.361   4.228
 5474SOL    HW217322   0.961   4.368   4.166
 5475SOL     OW17323   1.988   2.583   1.105
 5475SOL    HW117324   2.008   2.486   1.093
 5475SOL    HW217325   2.063   2.627   1.155
 5476SOL     OW17326   2.015   4.900   4.705
 5476SOL    HW117327   2.016   4.830   4.776
 5476SOL    HW217328   2.030   4.990   4.746
 5477SOL     OW17329   2.353   4.221   2.396
 5477SOL    HW117330   2.406   4.142   2.426
 5477SOL    HW217331   2.321   4.273   2.475
 5478SOL     OW17332   3.153   6.431   4.645
 5478SOL    HW117333   3.100   6.369   4.587
 5478SOL    HW217334   3.091   6.494   4.692
 5479SOL     OW17335   5.551   1.236   6.041
 5479SOL    HW117336   5.650   1.243   6.041
 5479SOL    HW217337   5.511   1.325   6.019
 5480SOL     OW17338   6.042   5.749   4.075
 5480SOL    HW117339   5.969   5.816   4.063
 5480SOL    HW217340   6.003   5.657   4.069
 5481SOL     OW17341   4.476   1.503   4.554
 5481SOL    HW117342   4.534   1.540   4.482
 5481SOL    HW217343   4.389   1.553   4.555
 5482SOL     OW17344   3.682   4.483   1.495
 5482SOL    HW117345   3.740   4.403   1.483
 5482SOL    HW217346   3.678   4.508   1.592
 5483SOL     OW17347   7.016   2.157   5.452
 5483SOL    HW117348   0.048   2.219   5.398
 5483SOL    HW217349   6.930   2.202   5.475
 5484SOL     OW17350   3.720   1.160   3.846
 5484SOL    HW117351   3.708   1.175   3.944
 5484SOL    HW217352   3.812   1.126   3.828
 5485SOL     OW17353   3.653   6.837   4.351
 5485SOL    HW117354   3.615   6.796   4.434
 5485SOL    HW217355   3.585   6.899   4.311
 5486SOL     OW17356   1.733   6.117   5.289
 5486SOL    HW117357   1.670   6.122   5.212
 5486SOL    HW217358   1.817   6.069   5.261
 5487SOL     OW17359   5.822   3.466   6.848
 5487SOL    HW117360   5.766   3.408   6.788
 5487SOL    HW217361   5.825   3.426   6.939
 5488SOL     OW17362   5.863   0.128   1.298
 5488SOL    HW117363   5.876   0.169   1.389
 5488SOL    HW217364   5.952   0.099   1.262
 5489SOL     OW17365   0.901   4.206   1.242
 5489SOL    HW117366   0.840   4.139   1.200
 5489SOL    HW217367   0.978   4.158   1.284
 5490SOL     OW17368   3.207   6.950   1.151
 5490SOL    HW117369   3.232   6.887   1.225
 5490SOL    HW217370   3.277   6.947   1.080
 5491SOL     OW17371   1.639   4.048   0.884
 5491SOL    HW117372   1.670   3.969   0.832
 5491SOL    HW217373   1.708   4.120   0.880
 5492SOL     OW17374   0.340   2.953   5.856
 5492SOL    HW117375   0.390   2.952   5.770
 5492SOL    HW217376   0.399   2.989   5.929
 5493SOL     OW17377   3.136   4.045   4.027
 5493SOL    HW117378   3.104   4.007   3.940
 5493SOL    HW217379   3.065   4.033   4.097
 5494SOL     OW17380   6.719   3.043   6.340
 5494SOL    HW117381   6.812   3.035   6.303
 5494SOL    HW217382   6.684   3.135   6.322
 5495SOL     OW17383   3.723   1.244   0.724
 5495SOL    HW117384   3.763   1.180   0.659
 5495SOL    HW217385   3.641   1.203   0.765
 5496SOL     OW17386   3.660   1.135   3.519
 5496SOL    HW117387   3.632   1.040   3.506
 5496SOL    HW217388   3.627   1.168   3.608
 5497SOL     OW17389   0.399   1.872   4.890
 5497SOL    HW117390   0.382   1.878   4.792
 5497SOL    HW217391   0.312   1.878   4.939
 5498SOL     OW17392   6.413   5.963   1.089
 5498SOL    HW117393   6.427   6.014   1.173
 5498SOL    HW217394   6.480   5.993   1.020
 5499SOL     OW17395   0.517   0.502   4.695
 5499SOL    HW117396   0.584   0.570   4.726
 5499SOL    HW217397   0.425   0.540   4.703
 5500SOL     OW17398   1.148   0.467   0.635
 5500SOL    HW117399   1.115   0.560   0.622
 5500SOL    HW217400   1.248   0.465   0.626
 5501SOL     OW17401   3.573   0.938   0.547
 5501SOL    HW117402   3.598   0.842   0.541
 5501SOL    HW217403   3.536   0.968   0.459
 5502SOL     OW17404   5.283   3.698   0.044
 5502SOL    HW117405   5.358   3.744   7.022
 5502SOL    HW217406   5.266   3.742   0.132
 5503SOL     OW17407   0.765   4.709   2.445
 5503SOL    HW117408   0.798   4.641   2.511
 5503SOL    HW217409   0.705   4.665   2.379
 5504SOL     OW17410   4.279   1.030   5.341
 5504SOL    HW117411   4.256   1.076   5.427
 5504SOL    HW217412   4.330   0.946   5.362
 5505SOL     OW17413   2.132   5.028   4.089
 5505SOL    HW117414   2.036   5.001   4.074
 5505SOL    HW217415   2.187   4.997   4.012
 5506SOL     OW17416   1.113   2.369   0.135
 5506SOL    HW117417   1.147   2.463   0.131
 5506SOL    HW217418   1.052   2.358   0.213
 5507SOL     OW17419   3.761   1.291   4.563
 5507SOL    HW117420   3.668   1.264   4.588
 5507SOL    HW217421   3.759   1.382   4.521
 5508SOL     OW17422   1.347   0.946   6.729
 5508SOL    HW117423   1.269   0.983   6.678
 5508SOL    HW217424   1.430   0.953   6.673
 5509SOL     OW17425   0.291   6.523   6.824
 5509SOL    HW117426   0.271   6.433   6.785
 5509SOL    HW217427   0.312   6.587   6.750
 5510SOL     OW17428   4.937   5.513   0.172
 5510SOL    HW117429   4.939   5.569   0.089
 5510SOL    HW217430   4.843   5.486   0.193
 5511SOL     OW17431   1.675   1.162   3.783
 5511SOL    HW117432   1.701   1.248   3.826
 5511SOL    HW217433   1.582   1.169   3.747
 5512SOL     OW17434   5.372   2.009   1.150
 5512SOL    HW117435   5.312   2.083   1.179
 5512SOL    HW217436   5.464   2.023   1.186
 5513SOL     OW17437   4.564   4.370   6.095
 5513SOL    HW117438   4.662   4.373   6.073
 5513SOL    HW217439   4.511   4.373   6.010
 5514SOL     OW17440   3.945   6.915   3.629
 5514SOL    HW117441   3.975   6.994   3.683
 5514SOL    HW217442   3.979   6.831   3.671
 5515SOL     OW17443   1.107   5.973   2.490
 5515SOL    HW117444   1.121   6.048   2.425
 5515SOL    HW217445   1.115   5.885   2.442
 5516SOL     OW17446   1.863   3.956   6.339
 5516SOL    HW117447   1.814   4.010   6.270
 5516SOL    HW217448   1.957   3.989   6.346
 5517SOL     OW17449   2.521   2.958   1.654
 5517SOL    HW117450   2.599   2.895   1.653
 5517SOL    HW217451   2.525   3.016   1.573
 5518SOL     OW17452   5.959   6.782   6.709
 5518SOL    HW117453   6.029   6.806   6.777
 5518SOL    HW217454   5.888   6.727   6.752
 5519SOL     OW17455   5.660   3.800   3.364
 5519SOL    HW117456   5.664   3.777   3.461
 5519SOL    HW217457   5.727   3.745   3.314
 5520SOL     OW17458   6.456   6.933   2.512
 5520SOL    HW117459   6.416   7.015   2.553
 5520SOL    HW217460   6.384   6.879   2.468
 5521SOL     OW17461   5.690   5.942   2.106
 5521SOL    HW117462   5.750   5.864   2.126
 5521SOL    HW217463   5.729   6.025   2.147
 5522SOL     OW17464   6.285   5.127   0.255
 5522SOL    HW117465   6.332   5.115   0.342
 5522SOL    HW217466   6.292   5.043   0.201
 5523SOL     OW17467   3.285   0.862   1.968
 5523SOL    HW117468   3.282   0.954   2.007
 5523SOL    HW217469   3.318   0.798   2.037
 5524SOL     OW17470   5.317   0.352   4.439
 5524SOL    HW117471   5.281   0.281   4.499
 5524SOL    HW217472   5.296   0.442   4.476
 5525SOL     OW17473   0.234   1.930   1.026
 5525SOL    HW117474   0.289   2.008   1.056
 5525SOL    HW217475   0.138   1.956   1.022
 5526SOL     OW17476   4.578   5.710   3.534
 5526SOL    HW117477   4.675   5.726   3.550
 5526SOL    HW217478   4.567   5.624   3.484
 5527SOL     OW17479   4.957   3.830   4.005
 5527SOL    HW117480   5.010   3.891   3.945
 5527SOL    HW217481   4.922   3.754   3.951
 5528SOL     OW17482   1.519   1.031   6.989
 5528SOL    HW117483   1.427   1.033   6.949
 5528SOL    HW217484   1.570   1.112   6.959
 5529SOL     OW17485   3.177   6.774   3.297
 5529SOL    HW117486   3.156   6.682   3.332
 5529SOL    HW217487   3.094   6.829   3.296
 5530SOL     OW17488   5.845   2.291   1.439
 5530SOL    HW117489   5.869   2.235   1.359
 5530SOL    HW217490   5.848   2.234   1.521
 5531SOL     OW17491   3.335   3.596   2.270
 5531SOL    HW117492   3.303   3.512   2.228
 5531SOL    HW217493   3.257   3.655   2.291
 5532SOL     OW17494   0.857   3.451   0.854
 5532SOL    HW117495   0.943   3.488   0.889
 5532SOL    HW217496   0.784   3.517   0.871
 5533SOL     OW17497   3.792   1.839   3.029
 5533SOL    HW117498   3.721   1.769   3.039
 5533SOL    HW217499   3.869   1.816   3.090
 5534SOL     OW17500   7.001   1.716   6.509
 5534SOL    HW117501   6.936   1.650   6.474
 5534SOL    HW217502   0.042   1.670   6.570
 5535SOL     OW17503   0.326   2.964   2.907
 5535SOL    HW117504   0.320   2.880   2.961
 5535SOL    HW217505   0.295   3.042   2.962
 5536SOL     OW17506   3.193   1.014   4.295
 5536SOL    HW117507   3.131   0.935   4.301
 5536SOL    HW217508   3.139   1.098   4.299
 5537SOL     OW17509   2.599   1.175   2.716
 5537SOL    HW117510   2.684   1.228   2.711
 5537SOL    HW217511   2.554   1.176   2.626
 5538SOL     OW17512   2.383   5.889   5.740
 5538SOL    HW117513   2.341   5.979   5.751
 5538SOL    HW217514   2.452   5.893   5.667
 5539SOL     OW17515   1.448   3.369   1.333
 5539SOL    HW117516   1.383   3.317   1.389
 5539SOL    HW217517   1.491   3.307   1.267
 5540SOL     OW17518   4.695   4.619   3.421
 5540SOL    HW117519   4.607   4.609   3.374
 5540SOL    HW217520   4.680   4.617   3.520
 5541SOL     OW17521   5.819   0.272   6.072
 5541SOL    HW117522   5.918   0.273   6.056
 5541SOL    HW217523   5.786   0.365   6.086
 5542SOL     OW17524   5.468   3.467   6.051
 5542SOL    HW117525   5.472   3.379   6.099
 5542SOL    HW217526   5.485   3.452   5.954
 5543SOL     OW17527   3.839   4.916   5.956
 5543SOL    HW117528   3.825   4.849   5.884
 5543SOL    HW217529   3.763   4.981   5.957
 5544SOL     OW17530   4.763   5.993   6.075
 5544SOL    HW117531   4.860   5.989   6.049
 5544SOL    HW217532   4.752   5.957   6.167
 5545SOL     OW17533   4.195   1.259   2.102
 5545SOL    HW117534   4.276   1.215   2.064
 5545SOL    HW217535   4.158   1.323   2.035
 5546SOL     OW17536   0.521   5.069   4.426
 5546SOL    HW117537   0.604   5.059   4.480
 5546SOL    HW217538   0.502   4.983   4.378
 5547SOL     OW17539   2.567   6.200   5.176
 5547SOL    HW117540   2.577   6.299   5.181
 5547SOL    HW217541   2.533   6.174   5.085
 5548SOL     OW17542   6.309   2.544   4.835
 5548SOL    HW117543   6.311   2.637   4.798
 5548SOL    HW217544   6.357   2.482   4.774
 5549SOL     OW17545   4.586   4.312   6.377
 5549SOL    HW117546   4.503   4.264   6.407
 5549SOL    HW217547   4.573   4.347   6.285
 5550SOL     OW17548   2.686   5.363   2.017
 5550SOL    HW117549   2.720   5.457   2.018
 5550SOL    HW217550   2.589   5.362   1.992
 5551SOL     OW17551   2.187   0.853   3.032
 5551SOL    HW117552   2.109   0.863   2.971
 5551SOL    HW217553   2.215   0.943   3.066
 5552SOL     OW17554   6.489   0.966   6.874
 5552SOL    HW117555   6.517   0.927   6.787
 5552SOL    HW217556   6.502   1.065   6.872
 5553SOL     OW17557   4.454   6.418   0.068
 5553SOL    HW117558   4.521   6.409   7.018
 5553SOL    HW217559   4.459   6.337   0.127
 5554SOL     OW17560   3.633   0.967   5.412
 5554SOL    HW117561   3.714   1.024   5.425
 5554SOL    HW217562   3.581   0.965   5.497
 5555SOL     OW17563   0.886   4.243   3.890
 5555SOL    HW117564   0.845   4.274   3.976
 5555SOL    HW217565   0.818   4.247   3.817
 5556SOL     OW17566   0.287   2.280   3.961
 5556SOL    HW117567   0.300   2.213   3.887
 5556SOL    HW217568   0.191   2.307   3.964
 5557SOL     OW17569   3.663   6.077   3.055
 5557SOL    HW117570   3.723   5.999   3.037
 5557SOL    HW217571   3.708   6.141   3.117
 5558SOL     OW17572   5.040   3.695   6.382
 5558SOL    HW117573   5.018   3.697   6.480
 5558SOL    HW217574   5.038   3.788   6.346
 5559SOL     OW17575   2.403   6.845   2.174
 5559SOL    HW117576   2.324   6.803   2.218
 5559SOL    HW217577   2.391   6.842   2.074
 5560SOL     OW17578   0.438   6.750   3.917
 5560SOL    HW117579   0.400   6.743   3.824
 5560SOL    HW217580   0.499   6.672   3.934
 5561SOL     OW17581   2.187   2.420   4.114
 5561SOL    HW117582   2.253   2.469   4.171
 5561SOL    HW217583   2.106   2.397   4.169
 5562SOL     OW17584   2.882   2.423   0.191
 5562SOL    HW117585   2.876   2.352   0.121
 5562SOL    HW217586   2.791   2.460   0.208
 5563SOL     OW17587   4.650   6.317   2.452
 5563SOL    HW117588   4.570   6.329   2.394
 5563SOL    HW217589   4.663   6.219   2.471
 5564SOL     OW17590   4.229   1.697   1.746
 5564SOL    HW117591   4.184   1.783   1.770
 5564SOL    HW217592   4.163   1.636   1.702
 5565SOL     OW17593   5.073   1.724   6.776
 5565SOL    HW117594   5.116   1.649   6.825
 5565SOL    HW217595   5.078   1.707   6.678
 5566SOL     OW17596   1.645   5.054   0.575
 5566SOL    HW117597   1.547   5.069   0.590
 5566SOL    HW217598   1.674   4.972   0.624
 5567SOL     OW17599   0.704   4.756   2.018
 5567SOL    HW117600   0.707   4.758   1.918
 5567SOL    HW217601   0.796   4.743   2.054
 5568SOL     OW17602   4.682   2.602   2.404
 5568SOL    HW117603   4.642   2.597   2.496
 5568SOL    HW217604   4.781   2.591   2.410
 5569SOL     OW17605   3.080   1.100   1.563
 5569SOL    HW117606   3.128   1.177   1.520
 5569SOL    HW217607   3.029   1.050   1.493
 5570SOL     OW17608   5.816   4.383   4.920
 5570SOL    HW117609   5.812   4.483   4.923
 5570SOL    HW217610   5.740   4.348   4.866
 5571SOL     OW17611   0.480   6.916   6.895
 5571SOL    HW117612   0.405   6.873   6.946
 5571SOL    HW217613   0.451   6.933   6.801
 5572SOL     OW17614   2.052   2.716   6.236
 5572SOL    HW117615   1.985   2.787   6.214
 5572SOL    HW217616   2.035   2.636   6.179
 5573SOL     OW17617   2.008   3.008   0.040
 5573SOL    HW117618   1.949   2.937   0.078
 5573SOL    HW217619   2.099   3.002   0.082
 5574SOL     OW17620   6.428   1.144   4.039
 5574SOL    HW117621   6.361   1.213   4.066
 5574SOL    HW217622   6.465   1.167   3.949
 5575SOL     OW17623   0.859   1.252   1.861
 5575SOL    HW117624   0.767   1.264   1.824
 5575SOL    HW217625   0.897   1.166   1.828
 5576SOL     OW17626   0.052   6.029   2.162
 5576SOL    HW117627   0.076   6.124   2.182
 5576SOL    HW217628   0.094   5.969   2.230
 5577SOL     OW17629   3.052   2.523   6.479
 5577SOL    HW117630   3.003   2.450   6.430
 5577SOL    HW217631   2.994   2.560   6.551
 5578SOL     OW17632   4.467   3.610   0.734
 5578SOL    HW117633   4.430   3.521   0.758
 5578SOL    HW217634   4.567   3.606   0.731
 5579SOL     OW17635   6.225   3.969   0.030
 5579SOL    HW117636   6.173   4.034   7.000
 5579SOL    HW217637   6.256   3.894   6.996
 5580SOL     OW17638   4.753   1.969   6.180
 5580SOL    HW117639   4.673   1.909   6.173
 5580SOL    HW217640   4.736   2.041   6.247
 5581SOL     OW17641   2.127   6.774   1.046
 5581SOL    HW117642   2.148   6.858   1.097
 5581SOL    HW217643   2.035   6.780   1.008
 5582SOL     OW17644   3.350   3.061   3.667
 5582SOL    HW117645   3.375   3.130   3.735
 5582SOL    HW217646   3.250   3.056   3.659
 5583SOL     OW17647   3.720   6.627   2.781
 5583SOL    HW117648   3.727   6.651   2.684
 5583SOL    HW217649   3.807   6.648   2.827
 5584SOL     OW17650   5.614   4.230   4.383
 5584SOL    HW117651   5.526   4.203   4.423
 5584SOL    HW217652   5.688   4.176   4.424
 5585SOL     OW17653   4.896   0.321   3.781
 5585SOL    HW117654   4.797   0.306   3.772
 5585SOL    HW217655   4.915   0.419   3.773
 5586SOL     OW17656   1.204   2.211   6.974
 5586SOL    HW117657   1.254   2.136   7.017
 5586SOL    HW217658   1.165   2.269   0.021
 5587SOL     OW17659   4.695   6.664   1.900
 5587SOL    HW117660   4.666   6.692   1.991
 5587SOL    HW217661   4.735   6.742   1.852
 5588SOL     OW17662   1.150   6.637   3.914
 5588SOL    HW117663   1.071   6.625   3.854
 5588SOL    HW217664   1.180   6.548   3.948
 5589SOL     OW17665   5.091   2.846   6.495
 5589SOL    HW117666   5.166   2.795   6.538
 5589SOL    HW217667   5.004   2.802   6.516
 5590SOL     OW17668   6.939   5.367   2.803
 5590SOL    HW117669   6.861   5.390   2.860
 5590SOL    HW217670   6.987   5.451   2.776
 5591SOL     OW17671   5.821   1.307   6.571
 5591SOL    HW117672   5.801   1.356   6.656
 5591SOL    HW217673   5.750   1.327   6.503
 5592SOL     OW17674   2.135   4.857   2.824
 5592SOL    HW117675   2.145   4.776   2.883
 5592SOL    HW217676   2.181   4.840   2.737
 5593SOL     OW17677   0.105   2.535   5.634
 5593SOL    HW117678   0.120   2.629   5.664
 5593SOL    HW217679   0.007   2.520   5.621
 5594SOL     OW17680   2.922   1.003   6.678
 5594SOL    HW117681   2.902   1.101   6.682
 5594SOL    HW217682   2.861   0.954   6.740
 5595SOL     OW17683   5.919   0.750   5.281
 5595SOL    HW117684   5.944   0.752   5.184
 5595SOL    HW217685   5.878   0.662   5.303
 5596SOL     OW17686   5.201   0.340   2.736
 5596SOL    HW117687   5.206   0.348   2.836
 5596SOL    HW217688   5.237   0.423   2.694
 5597SOL     OW17689   5.440   2.244   5.033
 5597SOL    HW117690   5.347   2.226   5.066
 5597SOL    HW217691   5.437   2.263   4.935
 5598SOL     OW17692   5.260   2.511   4.091
 5598SOL    HW117693   5.302   2.429   4.053
 5598SOL    HW217694   5.321   2.551   4.159
 5599SOL     OW17695   6.487   3.821   2.387
 5599SOL    HW117696   6.485   3.722   2.397
 5599SOL    HW217697   6.579   3.849   2.358
 5600SOL     OW17698   2.143   0.192   2.401
 5600SOL    HW117699   2.162   0.108   2.350
 5600SOL    HW217700   2.070   0.243   2.355
 5601SOL     OW17701   4.337   2.041   5.752
 5601SOL    HW117702   4.395   2.121   5.772
 5601SOL    HW217703   4.376   1.991   5.675
 5602SOL     OW17704   6.919   0.599   3.108
 5602SOL    HW117705   6.963   0.688   3.120
 5602SOL    HW217706   6.829   0.601   3.150
 5603SOL     OW17707   4.815   2.409   5.124
 5603SOL    HW117708   4.728   2.364   5.146
 5603SOL    HW217709   4.881   2.390   5.196
 5604SOL     OW17710   1.243   1.914   4.578
 5604SOL    HW117711   1.279   2.006   4.595
 5604SOL    HW217712   1.292   1.873   4.502
 5605SOL     OW17713   1.225   6.796   5.244
 5605SOL    HW117714   1.162   6.736   5.195
 5605SOL    HW217715   1.211   6.788   5.342
 5606SOL     OW17716   4.237   0.951   0.450
 5606SOL    HW117717   4.149   0.908   0.467
 5606SOL    HW217718   4.244   1.034   0.506
 5607SOL     OW17719   5.652   2.174   3.599
 5607SOL    HW117720   5.732   2.119   3.572
 5607SOL    HW217721   5.573   2.145   3.545
 5608SOL     OW17722   5.788   1.689   3.236
 5608SOL    HW117723   5.746   1.599   3.246
 5608SOL    HW217724   5.799   1.709   3.138
 5609SOL     OW17725   4.775   5.986   0.139
 5609SOL    HW117726   4.811   6.058   0.080
 5609SOL    HW217727   4.686   5.955   0.104
 5610SOL     OW17728   5.852   3.687   1.270
 5610SOL    HW117729   5.780   3.755   1.258
 5610SOL    HW217730   5.834   3.633   1.353
 5611SOL     OW17731   1.136   4.897   2.128
 5611SOL    HW117732   1.143   4.804   2.163
 5611SOL    HW217733   1.040   4.925   2.127
 5612SOL     OW17734   3.301   2.609   0.485
 5612SOL    HW117735   3.289   2.651   0.575
 5612SOL    HW217736   3.216   2.617   0.434
 5613SOL     OW17737   6.898   4.923   5.346
 5613SOL    HW117738   6.908   4.961   5.254
 5613SOL    HW217739   6.826   4.973   5.395
 5614SOL     OW17740   6.098   2.511   4.110
 5614SOL    HW117741   6.163   2.530   4.036
 5614SOL    HW217742   6.139   2.539   4.197
 5615SOL     OW17743   0.258   1.228   3.019
 5615SOL    HW117744   0.290   1.234   2.925
 5615SOL    HW217745   0.278   1.314   3.067
 5616SOL     OW17746   2.403   2.480   5.083
 5616SOL    HW117747   2.459   2.447   5.007
 5616SOL    HW217748   2.350   2.559   5.052
 5617SOL     OW17749   1.728   3.925   4.884
 5617SOL    HW117750   1.742   3.851   4.950
 5617SOL    HW217751   1.811   3.979   4.877
 5618SOL     OW17752   6.605   5.037   3.249
 5618SOL    HW117753   6.682   5.079   3.201
 5618SOL    HW217754   6.562   5.106   3.308
 5619SOL     OW17755   3.499   2.884   3.515
 5619SOL    HW117756   3.417   2.908   3.566
 5619SOL    HW217757   3.580   2.901   3.573
 5620SOL     OW17758   5.188   3.913   6.277
 5620SOL    HW117759   5.166   3.972   6.200
 5620SOL    HW217760   5.184   3.817   6.247
 5621SOL     OW17761   1.253   3.253   6.490
 5621SOL    HW117762   1.158   3.280   6.504
 5621SOL    HW217763   1.312   3.311   6.546
 5622SOL     OW17764   4.726   6.971   5.192
 5622SOL    HW117765   4.769   0.029   5.156
 5622SOL    HW217766   4.740   6.967   5.291
 5623SOL     OW17767   5.009   6.493   5.198
 5623SOL    HW117768   4.931   6.449   5.152
 5623SOL    HW217769   4.976   6.541   5.280
 5624SOL     OW17770   1.095   5.316   3.769
 5624SOL    HW117771   1.109   5.245   3.701
 5624SOL    HW217772   0.997   5.325   3.788
 5625SOL     OW17773   0.444   4.775   5.272
 5625SOL    HW117774   0.543   4.790   5.283
 5625SOL    HW217775   0.429   4.693   5.216
 5626SOL     OW17776   2.624   5.084   4.357
 5626SOL    HW117777   2.574   5.106   4.441
 5626SOL    HW217778   2.559   5.067   4.283
 5627SOL     OW17779   6.756   5.680   6.094
 5627SOL    HW117780   6.729   5.628   6.012
 5627SOL    HW217781   6.737   5.777   6.080
 5628SOL     OW17782   3.022   2.926   1.389
 5628SOL    HW117783   3.025   2.926   1.489
 5628SOL    HW217784   3.057   3.013   1.354
 5629SOL     OW17785   4.144   2.859   1.677
 5629SOL    HW117786   4.065   2.882   1.734
 5629SOL    HW217787   4.120   2.875   1.581
 5630SOL     OW17788   1.949   3.871   5.979
 5630SOL    HW117789   2.037   3.864   5.933
 5630SOL    HW217790   1.937   3.963   6.015
 5631SOL     OW17791   5.189   1.401   1.861
 5631SOL    HW117792   5.157   1.494   1.882
 5631SOL    HW217793   5.111   1.338   1.862
 5632SOL     OW17794   5.443   1.662   5.348
 5632SOL    HW117795   5.391   1.745   5.371
 5632SOL    HW217796   5.382   1.583   5.350
 5633SOL     OW17797   6.754   5.226   4.710
 5633SOL    HW117798   6.769   5.317   4.747
 5633SOL    HW217799   6.724   5.233   4.615
 5634SOL     OW17800   1.835   4.771   3.655
 5634SOL    HW117801   1.781   4.689   3.674
 5634SOL    HW217802   1.774   4.844   3.622
 5635SOL     OW17803   2.685   6.486   0.023
 5635SOL    HW117804   2.592   6.450   0.013
 5635SOL    HW217805   2.734   6.433   0.092
 5636SOL     OW17806   5.604   0.998   5.645
 5636SOL    HW117807   5.660   1.038   5.573
 5636SOL    HW217808   5.515   0.974   5.608
 5637SOL     OW17809   5.062   6.900   3.756
 5637SOL    HW117810   5.151   6.942   3.736
 5637SOL    HW217811   5.074   6.828   3.825
 5638SOL     OW17812   6.050   5.641   1.085
 5638SOL    HW117813   6.054   5.597   1.174
 5638SOL    HW217814   6.139   5.680   1.062
 5639SOL     OW17815   1.434   0.815   1.589
 5639SOL    HW117816   1.465   0.846   1.679
 5639SOL    HW217817   1.439   0.716   1.584
 5640SOL     OW17818   2.836   0.077   2.430
 5640SOL    HW117819   2.893   0.158   2.437
 5640SOL    HW217820   2.876   0.012   2.365
 5641SOL     OW17821   0.502   4.395   6.220
 5641SOL    HW117822   0.469   4.424   6.310
 5641SOL    HW217823   0.491   4.470   6.155
 5642SOL     OW17824   1.399   4.827   5.604
 5642SOL    HW117825   1.300   4.835   5.619
 5642SOL    HW217826   1.421   4.853   5.510
 5643SOL     OW17827   3.694   0.708   4.792
 5643SOL    HW117828   3.608   0.658   4.789
 5643SOL    HW217829   3.676   0.804   4.815
 5644SOL     OW17830   3.738   0.530   3.812
 5644SOL    HW117831   3.803   0.594   3.771
 5644SOL    HW217832   3.774   0.496   3.898
 5645SOL     OW17833   6.697   4.395   3.068
 5645SOL    HW117834   6.603   4.378   3.038
 5645SOL    HW217835   6.721   4.490   3.049
 5646SOL     OW17836   2.627   5.652   3.374
 5646SOL    HW117837   2.628   5.749   3.398
 5646SOL    HW217838   2.713   5.627   3.330
 5647SOL     OW17839   5.984   6.769   0.056
 5647SOL    HW117840   5.922   6.691   0.046
 5647SOL    HW217841   6.017   6.774   0.150
 5648SOL     OW17842   1.459   1.595   2.687
 5648SOL    HW117843   1.461   1.540   2.603
 5648SOL    HW217844   1.540   1.654   2.690
 5649SOL     OW17845   0.414   6.644   5.810
 5649SOL    HW117846   0.421   6.669   5.907
 5649SOL    HW217847   0.490   6.685   5.760
 5650SOL     OW17848   0.695   5.590   1.135
 5650SOL    HW117849   0.626   5.654   1.168
 5650SOL    HW217850   0.778   5.599   1.190
 5651SOL     OW17851   0.542   1.048   1.734
 5651SOL    HW117852   0.484   1.005   1.664
 5651SOL    HW217853   0.535   1.147   1.726
 5652SOL     OW17854   5.699   6.635   2.206
 5652SOL    HW117855   5.604   6.649   2.179
 5652SOL    HW217856   5.757   6.698   2.155
 5653SOL     OW17857   0.589   6.524   6.537
 5653SOL    HW117858   0.592   6.548   6.440
 5653SOL    HW217859   0.501   6.552   6.576
 5654SOL     OW17860   6.394   6.957   5.359
 5654SOL    HW117861   6.430   6.992   5.445
 5654SOL    HW217862   6.326   7.021   5.322
 5655SOL     OW17863   1.062   3.269   4.462
 5655SOL    HW117864   1.074   3.345   4.526
 5655SOL    HW217865   1.116   3.190   4.493
 5656SOL     OW17866   1.584   3.661   0.343
 5656SOL    HW117867   1.613   3.631   0.253
 5656SOL    HW217868   1.586   3.584   0.407
 5657SOL     OW17869   5.487   0.502   1.028
 5657SOL    HW117870   5.396   0.470   1.053
 5657SOL    HW217871   5.555   0.432   1.051
 5658SOL     OW17872   3.228   5.833   5.979
 5658SOL    HW117873   3.222   5.755   6.042
 5658SOL    HW217874   3.297   5.897   6.012
 5659SOL     OW17875   3.800   4.071   3.542
 5659SOL    HW117876   3.734   4.077   3.467
 5659SOL    HW217877   3.874   4.137   3.526
 5660SOL     OW17878   5.806   0.326   5.536
 5660SOL    HW117879   5.811   0.250   5.472
 5660SOL    HW217880   5.883   0.322   5.600
 5661SOL     OW17881   6.966   4.271   5.797
 5661SOL    HW117882   6.918   4.316   5.872
 5661SOL    HW217883   6.947   4.173   5.799
 5662SOL     OW17884   2.845   5.459   3.481
 5662SOL    HW117885   2.751   5.425   3.479
 5662SOL    HW217886   2.869   5.485   3.575
 5663SOL     OW17887   2.146   3.876   6.729
 5663SOL    HW117888   2.082   3.834   6.665
 5663SOL    HW217889   2.125   3.846   6.822
 5664SOL     OW17890   6.716   4.219   4.180
 5664SOL    HW117891   6.700   4.212   4.082
 5664SOL    HW217892   6.628   4.227   4.228
 5665SOL     OW17893   1.525   2.151   6.911
 5665SOL    HW117894   1.458   2.119   6.977
 5665SOL    HW217895   1.584   2.075   6.883
 5666SOL     OW17896   5.523   6.095   0.750
 5666SOL    HW117897   5.423   6.090   0.742
 5666SOL    HW217898   5.563   6.103   0.658
 5667SOL     OW17899   1.179   4.253   3.818
 5667SOL    HW117900   1.091   4.275   3.860
 5667SOL    HW217901   1.181   4.156   3.793
 5668SOL     OW17902   5.355   1.887   5.001
 5668SOL    HW117903   5.329   1.977   5.037
 5668SOL    HW217904   5.446   1.863   5.035
 5669SOL     OW17905   0.403   2.876   6.903
 5669SOL    HW117906   0.314   2.915   6.926
 5669SOL    HW217907   0.462   2.879   6.983
 5670SOL     OW17908   0.111   2.859   3.777
 5670SOL    HW117909   0.162   2.776   3.799
 5670SOL    HW217910   0.101   2.915   3.859
 5671SOL     OW17911   0.843   6.499   6.339
 5671SOL    HW117912   0.866   6.484   6.435
 5671SOL    HW217913   0.829   6.596   6.322
 5672SOL     OW17914   4.205   4.525   6.748
 5672SOL    HW117915   4.190   4.621   6.772
 5672SOL    HW217916   4.190   4.513   6.649
 5673SOL     OW17917   1.109   5.974   1.942
 5673SOL    HW117918   1.039   6.007   2.005
 5673SOL    HW217919   1.069   5.906   1.881
 5674SOL     OW17920   6.668   4.232   3.925
 5674SOL    HW117921   6.622   4.317   3.898
 5674SOL    HW217922   6.638   4.157   3.866
 5675SOL     OW17923   4.290   2.285   5.863
 5675SOL    HW117924   4.384   2.313   5.844
 5675SOL    HW217925   4.271   2.295   5.960
 5676SOL     OW17926   2.179   2.069   2.428
 5676SOL    HW117927   2.275   2.083   2.403
 5676SOL    HW217928   2.128   2.153   2.414
 5677SOL     OW17929   0.667   2.722   2.619
 5677SOL    HW117930   0.624   2.631   2.624
 5677SOL    HW217931   0.765   2.711   2.603
 5678SOL     OW17932   2.662   6.472   2.573
 5678SOL    HW117933   2.741   6.440   2.521
 5678SOL    HW217934   2.682   6.466   2.671
 5679SOL     OW17935   1.253   0.682   3.518
 5679SOL    HW117936   1.283   0.624   3.443
 5679SOL    HW217937   1.331   0.732   3.555
 5680SOL     OW17938   1.282   5.727   0.750
 5680SOL    HW117939   1.365   5.777   0.774
 5680SOL    HW217940   1.306   5.633   0.724
 5681SOL     OW17941   0.153   3.491   0.009
 5681SOL    HW117942   0.095   3.492   0.090
 5681SOL    HW217943   0.245   3.459   0.034
 5682SOL     OW17944   2.603   4.712   5.344
 5682SOL    HW117945   2.534   4.782   5.322
 5682SOL    HW217946   2.694   4.747   5.322
 5683SOL     OW17947   3.432   1.186   0.181
 5683SOL    HW117948   3.421   1.151   0.088
 5683SOL    HW217949   3.377   1.269   0.192
 5684SOL     OW17950   3.827   2.969   4.847
 5684SOL    HW117951   3.878   2.901   4.793
 5684SOL    HW217952   3.774   3.027   4.786
 5685SOL     OW17953   1.872   3.336   2.067
 5685SOL    HW117954   1.902   3.273   1.995
 5685SOL    HW217955   1.952   3.373   2.114
 5686SOL     OW17956   2.449   0.008   6.366
 5686SOL    HW117957   2.500   7.020   6.281
 5686SOL    HW217958   2.387   6.955   6.380
 5687SOL     OW17959   0.460   4.014   5.407
 5687SOL    HW117960   0.535   4.073   5.377
 5687SOL    HW217961   0.483   3.919   5.386
 5688SOL     OW17962   0.003   2.182   7.003
 5688SOL    HW117963   0.059   2.172   0.061
 5688SOL    HW217964   0.001   2.095   6.954
 5689SOL     OW17965   4.392   0.558   0.532
 5689SOL    HW117966   4.457   0.483   0.525
 5689SOL    HW217967   4.317   0.532   0.592
 5690SOL     OW17968   2.160   6.104   0.537
 5690SOL    HW117969   2.060   6.098   0.537
 5690SOL    HW217970   2.187   6.200   0.547
 5691SOL     OW17971   2.606   6.080   1.640
 5691SOL    HW117972   2.577   6.124   1.725
 5691SOL    HW217973   2.526   6.044   1.592
 5692SOL     OW17974   6.940   3.068   6.134
 5692SOL    HW117975   6.936   3.168   6.140
 5692SOL    HW217976   6.964   3.041   6.041
 5693SOL     OW17977   5.985   2.462   2.606
 5693SOL    HW117978   5.936   2.478   2.519
 5693SOL    HW217979   6.031   2.374   2.603
 5694SOL     OW17980   0.867   1.813   3.682
 5694SOL    HW117981   0.788   1.775   3.731
 5694SOL    HW217982   0.881   1.908   3.709
 5695SOL     OW17983   1.034   2.737   3.171
 5695SOL    HW117984   0.970   2.783   3.232
 5695SOL    HW217985   1.108   2.801   3.146
 5696SOL     OW17986   1.352   0.863   3.298
 5696SOL    HW117987   1.425   0.844   3.362
 5696SOL    HW217988   1.311   0.778   3.266
 5697SOL     OW17989   6.202   2.217   1.124
 5697SOL    HW117990   6.219   2.293   1.061
 5697SOL    HW217991   6.247   2.236   1.211
 5698SOL     OW17992   0.518   3.029   2.440
 5698SOL    HW117993   0.527   3.083   2.357
 5698SOL    HW217994   0.599   3.041   2.497
 5699SOL     OW17995   6.202   1.876   3.012
 5699SOL    HW117996   6.187   1.827   2.926
 5699SOL    HW217997   6.126   1.939   3.028
 5700SOL     OW17998   6.494   6.637   4.352
 5700SOL    HW117999   6.545   6.622   4.437
 5700SOL    HW218000   6.403   6.674   4.375
 5701SOL     OW18001   1.460   6.504   3.574
 5701SOL    HW118002   1.553   6.473   3.596
 5701SOL    HW218003   1.394   6.436   3.604
 5702SOL     OW18004   1.605   6.933   5.430
 5702SOL    HW118005   1.582   6.871   5.355
 5702SOL    HW218006   1.535   7.004   5.438
 5703SOL     OW18007   5.373   4.495   1.312
 5703SOL    HW118008   5.438   4.422   1.292
 5703SOL    HW218009   5.281   4.457   1.317
 5704SOL     OW18010   4.305   5.593   1.978
 5704SOL    HW118011   4.231   5.568   1.916
 5704SOL    HW218012   4.382   5.629   1.926
 5705SOL     OW18013   4.919   1.092   0.890
 5705SOL    HW118014   4.851   1.021   0.909
 5705SOL    HW218015   4.993   1.053   0.835
 5706SOL     OW18016   0.623   2.134   0.242
 5706SOL    HW118017   0.560   2.143   0.164
 5706SOL    HW218018   0.717   2.152   0.211
 5707SOL     OW18019   0.202   0.139   0.503
 5707SOL    HW118020   0.256   0.100   0.429
 5707SOL    HW218021   0.253   0.214   0.546
 5708SOL     OW18022   5.138   6.457   1.042
 5708SOL    HW118023   5.137   6.557   1.050
 5708SOL    HW218024   5.232   6.425   1.057
 5709SOL     OW18025   1.359   0.271   3.509
 5709SOL    HW118026   1.418   0.348   3.486
 5709SOL    HW218027   1.412   0.202   3.559
 5710SOL     OW18028   2.758   3.346   6.461
 5710SOL    HW118029   2.693   3.422   6.469
 5710SOL    HW218030   2.783   3.334   6.365
 5711SOL     OW18031   4.471   0.732   3.023
 5711SOL    HW118032   4.516   0.649   3.055
 5711SOL    HW218033   4.372   0.720   3.027
 5712SOL     OW18034   0.479   5.551   5.711
 5712SOL    HW118035   0.573   5.538   5.740
 5712SOL    HW218036   0.418   5.548   5.791
 5713SOL     OW18037   1.867   2.146   1.773
 5713SOL    HW118038   1.799   2.076   1.750
 5713SOL    HW218039   1.889   2.199   1.692
 5714SOL     OW18040   0.461   6.510   6.290
 5714SOL    HW118041   0.384   6.517   6.227
 5714SOL    HW218042   0.467   6.417   6.326
 5715SOL     OW18043   1.457   6.653   3.343
 5715SOL    HW118044   1.454   6.587   3.418
 5715SOL    HW218045   1.480   6.607   3.258
 5716SOL     OW18046   1.426   4.784   6.979
 5716SOL    HW118047   1.460   4.694   6.954
 5716SOL    HW218048   1.426   4.843   6.898
 5717SOL     OW18049   1.881   6.142   0.902
 5717SOL    HW118050   1.980   6.152   0.891
 5717SOL    HW218051   1.858   6.134   0.999
 5718SOL     OW18052   1.301   3.587   5.996
 5718SOL    HW118053   1.289   3.488   6.008
 5718SOL    HW218054   1.334   3.605   5.903
 5719SOL     OW18055   2.473   1.228   6.242
 5719SOL    HW118056   2.557   1.211   6.191
 5719SOL    HW218057   2.418   1.296   6.194
 5720SOL     OW18058   0.898   4.704   4.530
 5720SOL    HW118059   0.918   4.784   4.587
 5720SOL    HW218060   0.957   4.706   4.449
 5721SOL     OW18061   0.585   3.487   0.572
 5721SOL    HW118062   0.673   3.441   0.560
 5721SOL    HW218063   0.600   3.581   0.602
 5722SOL     OW18064   6.386   1.741   4.881
 5722SOL    HW118065   6.472   1.773   4.920
 5722SOL    HW218066   6.310   1.769   4.939
 5723SOL     OW18067   4.589   3.649   6.809
 5723SOL    HW118068   4.656   3.694   6.868
 5723SOL    HW218069   4.635   3.583   6.751
 5724SOL     OW18070   4.217   2.704   5.336
 5724SOL    HW118071   4.160   2.787   5.335
 5724SOL    HW218072   4.163   2.627   5.302
 5725SOL     OW18073   6.471   5.670   4.117
 5725SOL    HW118074   6.508   5.646   4.206
 5725SOL    HW218075   6.531   5.736   4.072
 5726SOL     OW18076   6.559   3.775   3.866
 5726SOL    HW118077   6.612   3.853   3.832
 5726SOL    HW218078   6.617   3.693   3.865
 5727SOL     OW18079   0.853   2.735   4.226
 5727SOL    HW118080   0.883   2.830   4.228
 5727SOL    HW218081   0.855   2.701   4.132
 5728SOL     OW18082   4.715   1.144   6.999
 5728SOL    HW118083   4.764   1.118   0.057
 5728SOL    HW218084   4.621   1.169   7.023
 5729SOL     OW18085   0.850   1.335   0.251
 5729SOL    HW118086   0.830   1.420   0.203
 5729SOL    HW218087   0.764   1.293   0.282
 5730SOL     OW18088   4.495   5.290   5.841
 5730SOL    HW118089   4.535   5.222   5.902
 5730SOL    HW218090   4.443   5.245   5.769
 5731SOL     OW18091   1.897   6.708   4.282
 5731SOL    HW118092   1.890   6.755   4.194
 5731SOL    HW218093   1.851   6.620   4.276
 5732SOL     OW18094   6.680   5.057   5.447
 5732SOL    HW118095   6.593   5.097   5.419
 5732SOL    HW218096   6.712   5.101   5.531
 5733SOL     OW18097   3.467   0.343   5.664
 5733SOL    HW118098   3.535   0.371   5.597
 5733SOL    HW218099   3.464   0.243   5.669
 5734SOL     OW18100   1.539   6.177   5.958
 5734SOL    HW118101   1.563   6.264   5.915
 5734SOL    HW218102   1.578   6.102   5.904
 5735SOL     OW18103   4.110   1.273   2.537
 5735SOL    HW118104   4.040   1.262   2.466
 5735SOL    HW218105   4.082   1.224   2.619
 5736SOL     OW18106   5.975   4.346   1.321
 5736SOL    HW118107   5.888   4.392   1.335
 5736SOL    HW218108   6.005   4.361   1.226
 5737SOL     OW18109   5.504   5.910   6.825
 5737SOL    HW118110   5.455   5.850   6.889
 5737SOL    HW218111   5.522   5.861   6.740
 5738SOL     OW18112   3.408   2.325   6.725
 5738SOL    HW118113   3.423   2.247   6.664
 5738SOL    HW218114   3.343   2.389   6.683
 5739SOL     OW18115   0.662   6.261   5.410
 5739SOL    HW118116   0.669   6.178   5.464
 5739SOL    HW218117   0.615   6.240   5.324
 5740SOL     OW18118   3.894   3.871   1.101
 5740SOL    HW118119   3.973   3.899   1.046
 5740SOL    HW218120   3.842   3.951   1.129
 5741SOL     OW18121   6.860   3.644   4.810
 5741SOL    HW118122   6.844   3.549   4.839
 5741SOL    HW218123   6.804   3.664   4.730
 5742SOL     OW18124   4.458   6.312   2.189
 5742SOL    HW118125   4.362   6.296   2.213
 5742SOL    HW218126   4.463   6.350   2.097
 5743SOL     OW18127   2.072   5.847   5.748
 5743SOL    HW118128   2.040   5.868   5.656
 5743SOL    HW218129   2.041   5.918   5.811
 5744SOL     OW18130   4.744   1.500   1.226
 5744SOL    HW118131   4.723   1.410   1.265
 5744SOL    HW218132   4.705   1.571   1.285
 5745SOL     OW18133   1.948   1.560   3.512
 5745SOL    HW118134   1.968   1.632   3.578
 5745SOL    HW218135   1.925   1.476   3.560
 5746SOL     OW18136   5.009   0.366   2.042
 5746SOL    HW118137   4.976   0.421   2.118
 5746SOL    HW218138   5.026   0.425   1.963
 5747SOL     OW18139   1.594   5.139   1.765
 5747SOL    HW118140   1.661   5.070   1.738
 5747SOL    HW218141   1.591   5.145   1.864
 5748SOL     OW18142   1.372   0.541   1.103
 5748SOL    HW118143   1.377   0.640   1.117
 5748SOL    HW218144   1.283   0.519   1.063
 5749SOL     OW18145   1.164   6.206   5.021
 5749SOL    HW118146   1.159   6.149   4.939
 5749SOL    HW218147   1.234   6.277   5.008
 5750SOL     OW18148   6.497   6.537   4.946
 5750SOL    HW118149   6.470   6.586   4.863
 5750SOL    HW218150   6.512   6.441   4.925
 5751SOL     OW18151   2.239   2.903   4.723
 5751SOL    HW118152   2.271   2.932   4.814
 5751SOL    HW218153   2.283   2.817   4.698
 5752SOL     OW18154   5.510   0.348   0.192
 5752SOL    HW118155   5.412   0.329   0.195
 5752SOL    HW218156   5.532   0.426   0.250
 5753SOL     OW18157   3.626   4.205   4.483
 5753SOL    HW118158   3.695   4.259   4.532
 5753SOL    HW218159   3.548   4.188   4.543
 5754SOL     OW18160   0.153   5.413   2.293
 5754SOL    HW118161   0.215   5.492   2.284
 5754SOL    HW218162   0.123   5.385   2.202
 5755SOL     OW18163   2.150   2.423   6.850
 5755SOL    HW118164   2.138   2.519   6.826
 5755SOL    HW218165   2.158   2.415   6.950
 5756SOL     OW18166   6.541   0.396   3.158
 5756SOL    HW118167   6.609   0.345   3.211
 5756SOL    HW218168   6.454   0.397   3.207
 5757SOL     OW18169   0.604   5.598   2.893
 5757SOL    HW118170   0.628   5.694   2.880
 5757SOL    HW218171   0.539   5.570   2.822
 5758SOL     OW18172   2.526   1.249   3.938
 5758SOL    HW118173   2.622   1.235   3.913
 5758SOL    HW218174   2.492   1.331   3.893
 5759SOL     OW18175   4.894   1.094   6.786
 5759SOL    HW118176   4.865   1.161   6.854
 5759SOL    HW218177   4.814   1.060   6.736
 5760SOL     OW18178   6.873   3.233   0.671
 5760SOL    HW118179   6.909   3.218   0.763
 5760SOL    HW218180   6.847   3.329   0.661
 5761SOL     OW18181   5.764   5.005   5.950
 5761SOL    HW118182   5.740   5.044   5.861
 5761SOL    HW218183   5.837   4.938   5.938
 5762SOL     OW18184   4.901   4.157   0.846
 5762SOL    HW118185   4.937   4.138   0.755
 5762SOL    HW218186   4.904   4.074   0.901
 5763SOL     OW18187   6.529   5.666   0.477
 5763SOL    HW118188   6.629   5.673   0.488
 5763SOL    HW218189   6.486   5.660   0.567
 5764SOL     OW18190   5.377   4.875   5.255
 5764SOL    HW118191   5.468   4.913   5.242
 5764SOL    HW218192   5.351   4.881   5.351
 5765SOL     OW18193   6.338   2.964   1.003
 5765SOL    HW118194   6.388   2.995   1.083
 5765SOL    HW218195   6.241   2.986   1.014
 5766SOL     OW18196   1.633   1.550   5.889
 5766SOL    HW118197   1.671   1.638   5.917
 5766SOL    HW218198   1.568   1.517   5.958
 5767SOL     OW18199   1.871   0.819   0.843
 5767SOL    HW118200   1.811   0.801   0.766
 5767SOL    HW218201   1.928   0.738   0.861
 5768SOL     OW18202   1.342   6.044   4.067
 5768SOL    HW118203   1.247   6.060   4.041
 5768SOL    HW218204   1.357   6.076   4.160
 5769SOL     OW18205   2.562   5.502   4.368
 5769SOL    HW118206   2.623   5.547   4.433
 5769SOL    HW218207   2.501   5.570   4.328
 5770SOL     OW18208   6.395   6.149   6.509
 5770SOL    HW118209   6.333   6.159   6.587
 5770SOL    HW218210   6.483   6.114   6.541
 5771SOL     OW18211   1.080   6.994   4.066
 5771SOL    HW118212   1.169   6.974   4.023
 5771SOL    HW218213   1.083   6.968   4.162
 5772SOL     OW18214   5.263   1.341   2.135
 5772SOL    HW118215   5.248   1.303   2.043
 5772SOL    HW218216   5.220   1.431   2.141
 5773SOL     OW18217   3.883   0.486   3.456
 5773SOL    HW118218   3.944   0.559   3.429
 5773SOL    HW218219   3.936   0.410   3.495
 5774SOL     OW18220   3.050   6.183   3.915
 5774SOL    HW118221   3.103   6.248   3.860
 5774SOL    HW218222   3.106   6.102   3.933
 5775SOL     OW18223   1.718   0.919   2.491
 5775SOL    HW118224   1.659   0.884   2.564
 5775SOL    HW218225   1.811   0.885   2.504
 5776SOL     OW18226   0.058   0.561   4.181
 5776SOL    HW118227   0.113   0.498   4.236
 5776SOL    HW218228   6.996   0.579   4.227
 5777SOL     OW18229   6.802   0.411   4.888
 5777SOL    HW118230   6.714   0.427   4.843
 5777SOL    HW218231   6.789   0.414   4.987
 5778SOL     OW18232   1.425   0.828   1.149
 5778SOL    HW118233   1.497   0.817   1.081
 5778SOL    HW218234   1.351   0.884   1.112
 5779SOL     OW18235   4.212   2.779   0.482
 5779SOL    HW118236   4.138   2.733   0.433
 5779SOL    HW218237   4.180   2.806   0.573
 5780SOL     OW18238   6.252   5.725   4.267
 5780SOL    HW118239   6.170   5.752   4.217
 5780SOL    HW218240   6.326   5.705   4.203
 5781SOL     OW18241   6.518   4.604   4.307
 5781SOL    HW118242   6.560   4.597   4.397
 5781SOL    HW218243   6.420   4.587   4.314
 5782SOL     OW18244   1.673   1.260   0.202
 5782SOL    HW118245   1.705   1.286   0.111
 5782SOL    HW218246   1.738   1.292   0.270
 5783SOL     OW18247   1.518   0.548   1.744
 5783SOL    HW118248   1.457   0.469   1.742
 5783SOL    HW218249   1.569   0.549   1.831
 5784SOL     OW18250   6.741   5.772   6.779
 5784SOL    HW118251   6.675   5.704   6.746
 5784SOL    HW218252   6.715   5.863   6.746
 5785SOL     OW18253   2.473   1.601   0.636
 5785SOL    HW118254   2.391   1.634   0.589
 5785SOL    HW218255   2.541   1.572   0.568
 5786SOL     OW18256   0.991   3.723   0.561
 5786SOL    HW118257   0.956   3.630   0.568
 5786SOL    HW218258   0.948   3.769   0.484
 5787SOL     OW18259   3.501   1.895   4.872
 5787SOL    HW118260   3.463   1.960   4.938
 5787SOL    HW218261   3.450   1.901   4.786
 5788SOL     OW18262   3.039   1.466   1.092
 5788SOL    HW118263   2.987   1.442   1.010
 5788SOL    HW218264   3.022   1.398   1.163
 5789SOL     OW18265   3.021   4.784   6.761
 5789SOL    HW118266   3.058   4.721   6.830
 5789SOL    HW218267   2.922   4.775   6.757
 5790SOL     OW18268   0.840   4.692   4.799
 5790SOL    HW118269   0.909   4.626   4.826
 5790SOL    HW218270   0.819   4.681   4.701
 5791SOL     OW18271   3.113   1.154   2.472
 5791SOL    HW118272   3.158   1.237   2.506
 5791SOL    HW218273   3.024   1.179   2.433
 5792SOL     OW18274   6.291   3.324   2.531
 5792SOL    HW118275   6.289   3.224   2.534
 5792SOL    HW218276   6.204   3.358   2.496
 5793SOL     OW18277   5.000   0.851   3.645
 5793SOL    HW118278   5.076   0.881   3.702
 5793SOL    HW218279   5.021   0.869   3.549
 5794SOL     OW18280   2.596   0.970   0.163
 5794SOL    HW118281   2.549   1.058   0.170
 5794SOL    HW218282   2.528   0.898   0.143
 5795SOL     OW18283   6.565   0.081   6.770
 5795SOL    HW118284   6.516   7.018   6.769
 5795SOL    HW218285   6.500   0.156   6.782
 5796SOL     OW18286   4.995   1.477   6.064
 5796SOL    HW118287   5.047   1.397   6.090
 5796SOL    HW218288   4.988   1.481   5.964
 5797SOL     OW18289   4.924   2.428   6.932
 5797SOL    HW118290   4.836   2.475   6.935
 5797SOL    HW218291   4.968   2.433   7.022
 5798SOL     OW18292   0.944   5.235   4.962
 5798SOL    HW118293   0.970   5.141   4.940
 5798SOL    HW218294   0.980   5.259   5.053
 5799SOL     OW18295   0.343   0.607   3.847
 5799SOL    HW118296   0.372   0.523   3.800
 5799SOL    HW218297   0.250   0.595   3.881
 5800SOL     OW18298   6.395   6.296   2.224
 5800SOL    HW118299   6.345   6.237   2.287
 5800SOL    HW218300   6.492   6.296   2.247
 5801SOL     OW18301   1.620   2.499   3.141
 5801SOL    HW118302   1.682   2.421   3.133
 5801SOL    HW218303   1.646   2.569   3.075
 5802SOL     OW18304   0.484   3.942   2.285
 5802SOL    HW118305   0.454   3.975   2.374
 5802SOL    HW218306   0.469   3.844   2.279
 5803SOL     OW18307   2.552   5.568   1.633
 5803SOL    HW118308   2.622   5.598   1.699
 5803SOL    HW218309   2.473   5.533   1.682
 5804SOL     OW18310   0.676   5.897   3.664
 5804SOL    HW118311   0.774   5.887   3.683
 5804SOL    HW218312   0.661   5.979   3.609
 5805SOL     OW18313   2.085   3.236   0.410
 5805SOL    HW118314   2.114   3.280   0.325
 5805SOL    HW218315   2.082   3.137   0.398
 5806SOL     OW18316   6.520   5.186   5.147
 5806SOL    HW118317   6.615   5.215   5.152
 5806SOL    HW218318   6.484   5.205   5.056
 5807SOL     OW18319   0.917   3.757   1.081
 5807SOL    HW118320   1.001   3.781   1.033
 5807SOL    HW218321   0.938   3.735   1.176
 5808SOL     OW18322   6.481   5.650   4.626
 5808SOL    HW118323   6.443   5.730   4.673
 5808SOL    HW218324   6.489   5.575   4.691
 5809SOL     OW18325   6.206   2.257   4.515
 5809SOL    HW118326   6.162   2.190   4.574
 5809SOL    HW218327   6.195   2.230   4.419
 5810SOL     OW18328   4.096   1.471   4.747
 5810SOL    HW118329   4.091   1.530   4.666
 5810SOL    HW218330   4.128   1.380   4.719
 5811SOL     OW18331   3.195   0.588   5.360
 5811SOL    HW118332   3.261   0.662   5.347
 5811SOL    HW218333   3.138   0.580   5.279
 5812SOL     OW18334   5.970   3.139   4.640
 5812SOL    HW118335   6.011   3.065   4.694
 5812SOL    HW218336   6.016   3.225   4.661
 5813SOL     OW18337   1.870   1.608   0.724
 5813SOL    HW118338   1.947   1.548   0.747
 5813SOL    HW218339   1.784   1.561   0.740
 5814SOL     OW18340   6.618   4.388   2.307
 5814SOL    HW118341   6.560   4.467   2.286
 5814SOL    HW218342   6.705   4.397   2.259
 5815SOL     OW18343   4.010   1.790   4.933
 5815SOL    HW118344   3.973   1.754   5.019
 5815SOL    HW218345   3.934   1.823   4.877
 5816SOL     OW18346   4.850   5.186   0.213
 5816SOL    HW118347   4.846   5.173   0.312
 5816SOL    HW218348   4.766   5.151   0.171
 5817SOL     OW18349   5.815   3.884   5.688
 5817SOL    HW118350   5.878   3.940   5.635
 5817SOL    HW218351   5.785   3.805   5.634
 5818SOL     OW18352   7.016   5.771   5.281
 5818SOL    HW118353   0.090   5.787   5.290
 5818SOL    HW218354   6.970   5.858   5.262
 5819SOL     OW18355   3.200   6.955   6.542
 5819SOL    HW118356   3.157   6.877   6.587
 5819SOL    HW218357   3.292   6.931   6.514
 5820SOL     OW18358   4.565   5.433   3.472
 5820SOL    HW118359   4.504   5.421   3.393
 5820SOL    HW218360   4.511   5.433   3.556
 5821SOL     OW18361   6.944   6.837   1.347
 5821SOL    HW118362   0.007   6.854   1.302
 5821SOL    HW218363   6.959   6.821   1.445
 5822SOL     OW18364   1.504   2.695   1.162
 5822SOL    HW118365   1.433   2.651   1.107
 5822SOL    HW218366   1.585   2.635   1.166
 5823SOL     OW18367   2.107   0.502   5.310
 5823SOL    HW118368   2.086   0.556   5.229
 5823SOL    HW218369   2.112   0.405   5.285
 5824SOL     OW18370   6.935   5.387   2.111
 5824SOL    HW118371   6.858   5.345   2.159
 5824SOL    HW218372   6.914   5.482   2.090
 5825SOL     OW18373   6.928   1.651   5.288
 5825SOL    HW118374   6.927   1.602   5.375
 5825SOL    HW218375   7.016   1.639   5.243
 5826SOL     OW18376   0.068   4.894   6.125
 5826SOL    HW118377   0.030   4.899   6.032
 5826SOL    HW218378   0.165   4.873   6.120
 5827SOL     OW18379   1.971   4.036   4.842
 5827SOL    HW118380   1.962   3.984   4.756
 5827SOL    HW218381   2.067   4.051   4.862
 5828SOL     OW18382   6.183   1.721   1.827
 5828SOL    HW118383   6.237   1.707   1.910
 5828SOL    HW218384   6.146   1.633   1.797
 5829SOL     OW18385   0.924   0.488   3.266
 5829SOL    HW118386   0.999   0.515   3.207
 5829SOL    HW218387   0.940   0.521   3.359
 5830SOL     OW18388   5.027   6.618   5.684
 5830SOL    HW118389   5.019   6.717   5.688
 5830SOL    HW218390   4.955   6.576   5.740
 5831SOL     OW18391   1.288   1.545   5.537
 5831SOL    HW118392   1.206   1.506   5.579
 5831SOL    HW218393   1.291   1.520   5.440
 5832SOL     OW18394   2.414   4.671   6.876
 5832SOL    HW118395   2.484   4.722   6.926
 5832SOL    HW218396   2.421   4.574   6.900
 5833SOL     OW18397   3.632   3.834   5.169
 5833SOL    HW118398   3.647   3.925   5.132
 5833SOL    HW218399   3.705   3.812   5.233
 5834SOL     OW18400   7.005   2.850   0.760
 5834SOL    HW118401   0.026   2.760   0.753
 5834SOL    HW218402   6.998   2.877   0.856
 5835SOL     OW18403   5.573   3.155   3.287
 5835SOL    HW118404   5.519   3.208   3.222
 5835SOL    HW218405   5.655   3.120   3.240
 5836SOL     OW18406   2.697   6.464   1.764
 5836SOL    HW118407   2.651   6.550   1.739
 5836SOL    HW218408   2.794   6.481   1.780
 5837SOL     OW18409   3.530   4.120   6.583
 5837SOL    HW118410   3.457   4.120   6.651
 5837SOL    HW218411   3.492   4.135   6.492
 5838SOL     OW18412   2.905   1.665   0.683
 5838SOL    HW118413   2.939   1.661   0.590
 5838SOL    HW218414   2.960   1.730   0.736
 5839SOL     OW18415   0.641   2.056   2.387
 5839SOL    HW118416   0.715   1.994   2.360
 5839SOL    HW218417   0.578   2.008   2.449
 5840SOL     OW18418   0.368   5.259   6.439
 5840SOL    HW118419   0.405   5.167   6.443
 5840SOL    HW218420   0.343   5.281   6.344
 5841SOL     OW18421   4.966   1.973   2.326
 5841SOL    HW118422   4.940   1.945   2.233
 5841SOL    HW218423   4.915   2.055   2.351
 5842SOL     OW18424   4.954   2.869   1.429
 5842SOL    HW118425   4.863   2.871   1.387
 5842SOL    HW218426   4.980   2.962   1.455
 5843SOL     OW18427   1.266   3.898   3.210
 5843SOL    HW118428   1.170   3.878   3.193
 5843SOL    HW218429   1.295   3.858   3.296
 5844SOL     OW18430   2.123   5.967   5.994
 5844SOL    HW118431   2.204   5.932   5.947
 5844SOL    HW218432   2.124   5.938   6.090
 5845SOL     OW18433   0.675   0.273   2.808
 5845SOL    HW118434   0.591   0.221   2.824
 5845SOL    HW218435   0.651   0.369   2.791
 5846SOL     OW18436   6.250   2.792   5.115
 5846SOL    HW118437   6.229   2.794   5.017
 5846SOL    HW218438   6.346   2.766   5.127
 5847SOL     OW18439   2.969   2.151   1.667
 5847SOL    HW118440   2.913   2.228   1.636
 5847SOL    HW218441   2.965   2.077   1.600
 5848SOL     OW18442   1.613   5.921   3.236
 5848SOL    HW118443   1.597   6.014   3.204
 5848SOL    HW218444   1.636   5.862   3.158
 5849SOL     OW18445   0.865   0.709   5.791
 5849SOL    HW118446   0.827   0.781   5.849
 5849SOL    HW218447   0.831   0.620   5.821
 5850SOL     OW18448   6.797   3.637   1.868
 5850SOL    HW118449   6.865   3.669   1.803
 5850SOL    HW218450   6.746   3.715   1.904
 5851SOL     OW18451   4.946   3.655   3.029
 5851SOL    HW118452   5.044   3.672   3.040
 5851SOL    HW218453   4.928   3.557   3.036
 5852SOL     OW18454   6.138   6.014   3.309
 5852SOL    HW118455   6.175   6.086   3.251
 5852SOL    HW218456   6.082   6.054   3.381
 5853SOL     OW18457   3.594   5.328   4.903
 5853SOL    HW118458   3.495   5.319   4.914
 5853SOL    HW218459   3.638   5.243   4.932
 5854SOL     OW18460   4.847   4.358   6.092
 5854SOL    HW118461   4.840   4.406   6.179
 5854SOL    HW218462   4.904   4.410   6.029
 5855SOL     OW18463   0.784   1.973   4.835
 5855SOL    HW118464   0.807   1.947   4.742
 5855SOL    HW218465   0.740   1.896   4.881
 5856SOL     OW18466   1.970   5.615   3.806
 5856SOL    HW118467   1.895   5.552   3.783
 5856SOL    HW218468   1.933   5.696   3.850
 5857SOL     OW18469   6.362   2.247   6.314
 5857SOL    HW118470   6.316   2.158   6.320
 5857SOL    HW218471   6.404   2.257   6.224
 5858SOL     OW18472   2.885   1.790   2.222
 5858SOL    HW118473   2.826   1.743   2.288
 5858SOL    HW218474   2.980   1.782   2.251
 5859SOL     OW18475   5.825   6.268   1.685
 5859SOL    HW118476   5.873   6.219   1.612
 5859SOL    HW218477   5.815   6.207   1.764
 5860SOL     OW18478   0.469   3.464   1.770
 5860SOL    HW118479   0.501   3.507   1.855
 5860SOL    HW218480   0.536   3.480   1.698
 5861SOL     OW18481   4.269   1.728   4.570
 5861SOL    HW118482   4.206   1.655   4.543
 5861SOL    HW218483   4.276   1.730   4.670
 5862SOL     OW18484   6.351   5.536   1.275
 5862SOL    HW118485   6.429   5.573   1.324
 5862SOL    HW218486   6.334   5.591   1.192
 5863SOL     OW18487   3.344   2.026   5.545
 5863SOL    HW118488   3.274   1.986   5.605
 5863SOL    HW218489   3.302   2.055   5.459
 5864SOL     OW18490   4.144   3.672   2.241
 5864SOL    HW118491   4.066   3.672   2.303
 5864SOL    HW218492   4.224   3.636   2.288
 5865SOL     OW18493   6.060   0.399   4.616
 5865SOL    HW118494   6.125   0.326   4.595
 5865SOL    HW218495   5.967   0.366   4.596
 5866SOL     OW18496   3.907   4.537   6.955
 5866SOL    HW118497   3.991   4.561   7.004
 5866SOL    HW218498   3.896   4.438   6.955
 5867SOL     OW18499   2.026   3.396   0.616
 5867SOL    HW118500   2.034   3.354   0.525
 5867SOL    HW218501   1.982   3.332   0.678
 5868SOL     OW18502   1.099   1.836   5.525
 5868SOL    HW118503   1.045   1.782   5.461
 5868SOL    HW218504   1.180   1.784   5.553
 5869SOL     OW18505   1.764   6.437   3.572
 5869SOL    HW118506   1.775   6.376   3.493
 5869SOL    HW218507   1.802   6.392   3.653
 5870SOL     OW18508   4.652   5.993   4.463
 5870SOL    HW118509   4.612   6.049   4.390
 5870SOL    HW218510   4.626   6.032   4.551
 5871SOL     OW18511   3.686   2.816   1.315
 5871SOL    HW118512   3.606   2.786   1.367
 5871SOL    HW218513   3.665   2.901   1.268
 5872SOL     OW18514   4.104   5.821   0.934
 5872SOL    HW118515   4.015   5.834   0.890
 5872SOL    HW218516   4.164   5.897   0.910
 5873SOL     OW18517   3.173   1.610   1.394
 5873SOL    HW118518   3.221   1.651   1.471
 5873SOL    HW218519   3.207   1.648   1.309
 5874SOL     OW18520   3.222   3.852   6.842
 5874SOL    HW118521   3.186   3.767   6.802
 5874SOL    HW218522   3.322   3.851   6.838
 5875SOL     OW18523   4.480   0.877   6.708
 5875SOL    HW118524   4.460   0.827   6.793
 5875SOL    HW218525   4.453   0.820   6.630
 5876SOL     OW18526   3.726   3.512   0.513
 5876SOL    HW118527   3.723   3.458   0.429
 5876SOL    HW218528   3.643   3.566   0.521
 5877SOL     OW18529   0.205   0.722   1.228
 5877SOL    HW118530   0.258   0.669   1.294
 5877SOL    HW218531   0.127   0.667   1.196
 5878SOL     OW18532   6.003   5.129   3.985
 5878SOL    HW118533   5.959   5.212   4.020
 5878SOL    HW218534   6.094   5.152   3.951
 5879SOL     OW18535   1.768   3.994   6.713
 5879SOL    HW118536   1.820   4.053   6.652
 5879SOL    HW218537   1.789   4.018   6.808
 5880SOL     OW18538   5.122   4.877   6.769
 5880SOL    HW118539   5.194   4.811   6.788
 5880SOL    HW218540   5.070   4.849   6.689
 5881SOL     OW18541   0.880   6.634   2.469
 5881SOL    HW118542   0.936   6.672   2.542
 5881SOL    HW218543   0.928   6.557   2.426
 5882SOL     OW18544   0.264   5.623   6.700
 5882SOL    HW118545   0.165   5.638   6.707
 5882SOL    HW218546   0.292   5.555   6.767
 5883SOL     OW18547   0.293   1.609   6.808
 5883SOL    HW118548   0.350   1.627   6.889
 5883SOL    HW218549   0.266   1.696   6.767
 5884SOL     OW18550   4.889   0.910   4.067
 5884SOL    HW118551   4.903   1.006   4.042
 5884SOL    HW218552   4.816   0.871   4.012
 5885SOL     OW18553   0.213   5.829   2.288
 5885SOL    HW118554   0.220   5.813   2.190
 5885SOL    HW218555   0.285   5.892   2.317
 5886SOL     OW18556   0.558   2.120   3.693
 5886SOL    HW118557   0.575   2.212   3.658
 5886SOL    HW218558   0.623   2.100   3.767
 5887SOL     OW18559   2.406   2.315   1.839
 5887SOL    HW118560   2.442   2.408   1.839
 5887SOL    HW218561   2.460   2.259   1.776
 5888SOL     OW18562   1.730   0.472   1.544
 5888SOL    HW118563   1.688   0.524   1.470
 5888SOL    HW218564   1.743   0.531   1.623
 5889SOL     OW18565   6.868   0.884   0.371
 5889SOL    HW118566   6.835   0.871   0.465
 5889SOL    HW218567   6.968   0.887   0.372
 5890SOL     OW18568   1.859   1.186   2.943
 5890SOL    HW118569   1.929   1.154   3.008
 5890SOL    HW218570   1.843   1.284   2.957
 5891SOL     OW18571   3.163   3.781   0.226
 5891SOL    HW118572   3.170   3.853   0.158
 5891SOL    HW218573   3.107   3.706   0.190
 5892SOL     OW18574   1.338   4.969   2.344
 5892SOL    HW118575   1.270   4.986   2.272
 5892SOL    HW218576   1.292   4.933   2.425
 5893SOL     OW18577   1.883   4.143   3.230
 5893SOL    HW118578   1.809   4.152   3.164
 5893SOL    HW218579   1.871   4.059   3.283
 5894SOL     OW18580   0.470   5.571   4.153
 5894SOL    HW118581   0.377   5.545   4.178
 5894SOL    HW218582   0.467   5.637   4.077
 5895SOL     OW18583   5.152   3.361   3.845
 5895SOL    HW118584   5.182   3.453   3.871
 5895SOL    HW218585   5.066   3.367   3.794
 5896SOL     OW18586   3.578   1.254   1.382
 5896SOL    HW118587   3.570   1.268   1.284
 5896SOL    HW218588   3.583   1.156   1.401
 5897SOL     OW18589   4.039   0.438   1.853
 5897SOL    HW118590   3.971   0.424   1.925
 5897SOL    HW218591   4.013   0.387   1.771
 5898SOL     OW18592   2.784   0.561   4.898
 5898SOL    HW118593   2.786   0.660   4.881
 5898SOL    HW218594   2.738   0.515   4.821
 5899SOL     OW18595   6.585   5.250   6.880
 5899SOL    HW118596   6.681   5.274   6.864
 5899SOL    HW218597   6.563   5.265   6.976
 5900SOL     OW18598   6.391   5.203   3.439
 5900SOL    HW118599   6.345   5.270   3.497
 5900SOL    HW218600   6.430   5.130   3.496
 5901SOL     OW18601   3.143   0.455   0.617
 5901SOL    HW118602   3.168   0.541   0.663
 5901SOL    HW218603   3.168   0.460   0.521
 5902SOL     OW18604   6.015   2.665   5.695
 5902SOL    HW118605   6.004   2.723   5.614
 5902SOL    HW218606   5.935   2.606   5.705
 5903SOL     OW18607   4.829   3.951   6.377
 5903SOL    HW118608   4.787   3.864   6.403
 5903SOL    HW218609   4.851   3.949   6.279
 5904SOL     OW18610   1.357   4.984   0.775
 5904SOL    HW118611   1.372   4.905   0.716
 5904SOL    HW218612   1.352   4.955   0.871
 5905SOL     OW18613   6.146   0.603   4.402
 5905SOL    HW118614   6.180   0.524   4.453
 5905SOL    HW218615   6.201   0.683   4.427
 5906SOL     OW18616   3.863   2.083   3.487
 5906SOL    HW118617   3.907   2.014   3.544
 5906SOL    HW218618   3.933   2.142   3.446
 5907SOL     OW18619   0.890   5.922   0.432
 5907SOL    HW118620   0.799   5.885   0.412
 5907SOL    HW218621   0.955   5.847   0.440
 5908SOL     OW18622   6.719   3.040   0.474
 5908SOL    HW118623   6.805   3.057   0.427
 5908SOL    HW218624   6.732   2.968   0.543
 5909SOL     OW18625   6.804   5.043   0.290
 5909SOL    HW118626   6.858   4.987   0.353
 5909SOL    HW218627   6.755   5.114   0.340
 5910SOL     OW18628   0.393   4.573   2.551
 5910SOL    HW118629   0.330   4.563   2.474
 5910SOL    HW218630   0.436   4.485   2.571
 5911SOL     OW18631   6.722   4.814   6.113
 5911SOL    HW118632   6.687   4.877   6.183
 5911SOL    HW218633   6.789   4.752   6.154
 5912SOL     OW18634   5.862   3.283   6.597
 5912SOL    HW118635   5.941   3.289   6.535
 5912SOL    HW218636   5.838   3.186   6.610
 5913SOL     OW18637   4.375   3.357   6.544
 5913SOL    HW118638   4.378   3.455   6.562
 5913SOL    HW218639   4.412   3.308   6.623
 5914SOL     OW18640   1.990   5.232   6.523
 5914SOL    HW118641   1.939   5.243   6.438
 5914SOL    HW218642   1.954   5.153   6.574
 5915SOL     OW18643   5.554   4.962   1.499
 5915SOL    HW118644   5.483   4.902   1.462
 5915SOL    HW218645   5.541   4.972   1.598
 5916SOL     OW18646   3.827   5.295   5.247
 5916SOL    HW118647   3.926   5.279   5.249
 5916SOL    HW218648   3.793   5.311   5.339
 5917SOL     OW18649   3.692   3.229   3.846
 5917SOL    HW118650   3.598   3.237   3.879
 5917SOL    HW218651   3.728   3.139   3.869
 5918SOL     OW18652   1.885   3.234   5.615
 5918SOL    HW118653   1.819   3.159   5.607
 5918SOL    HW218654   1.938   3.241   5.530
 5919SOL     OW18655   4.272   3.074   1.246
 5919SOL    HW118656   4.190   3.032   1.209
 5919SOL    HW218657   4.248   3.131   1.325
 5920SOL     OW18658   3.659   0.396   6.886
 5920SOL    HW118659   3.718   0.459   6.837
 5920SOL    HW218660   3.670   0.304   6.848
 5921SOL     OW18661   4.166   5.394   5.816
 5921SOL    HW118662   4.226   5.333   5.765
 5921SOL    HW218663   4.221   5.453   5.875
 5922SOL     OW18664   6.577   5.460   3.194
 5922SOL    HW118665   6.557   5.553   3.162
 5922SOL    HW218666   6.505   5.398   3.163
 5923SOL     OW18667   5.441   1.073   1.192
 5923SOL    HW118668   5.353   1.115   1.169
 5923SOL    HW218669   5.425   0.985   1.236
 5924SOL     OW18670   0.055   1.237   3.779
 5924SOL    HW118671   0.125   1.295   3.736
 5924SOL    HW218672   6.989   1.263   3.744
 5925SOL     OW18673   3.904   5.494   1.678
 5925SOL    HW118674   3.843   5.423   1.646
 5925SOL    HW218675   3.851   5.571   1.714
 5926SOL     OW18676   3.957   5.346   1.175
 5926SOL    HW118677   3.866   5.339   1.215
 5926SOL    HW218678   4.016   5.400   1.234
 5927SOL     OW18679   1.106   4.029   2.915
 5927SOL    HW118680   1.205   4.043   2.917
 5927SOL    HW218681   1.059   4.114   2.940
 5928SOL     OW18682   3.426   6.954   0.635
 5928SOL    HW118683   3.469   7.009   0.563
 5928SOL    HW218684   3.341   6.998   0.664
 5929SOL     OW18685   0.634   6.631   6.117
 5929SOL    HW118686   0.561   6.596   6.175
 5929SOL    HW218687   0.654   6.566   6.044
 5930SOL     OW18688   6.734   2.589   3.393
 5930SOL    HW118689   6.756   2.633   3.306
 5930SOL    HW218690   6.817   2.582   3.448
 5931SOL     OW18691   0.074   5.239   3.669
 5931SOL    HW118692   0.090   5.156   3.723
 5931SOL    HW218693   6.999   5.254   3.660
 5932SOL     OW18694   1.859   0.034   0.701
 5932SOL    HW118695   1.795   0.106   0.676
 5932SOL    HW218696   1.942   0.043   0.647
 5933SOL     OW18697   0.095   6.319   3.744
 5933SOL    HW118698   0.188   6.327   3.708
 5933SOL    HW218699   0.035   6.382   3.695
 5934SOL     OW18700   4.081   3.361   4.390
 5934SOL    HW118701   4.070   3.400   4.482
 5934SOL    HW218702   4.111   3.432   4.327
 5935SOL     OW18703   4.801   4.040   6.094
 5935SOL    HW118704   4.793   4.140   6.099
 5935SOL    HW218705   4.843   4.014   6.008
 5936SOL     OW18706   4.056   3.414   0.540
 5936SOL    HW118707   4.005   3.445   0.459
 5936SOL    HW218708   4.024   3.464   0.620
 5937SOL     OW18709   0.926   4.604   2.962
 5937SOL    HW118710   0.924   4.570   3.056
 5937SOL    HW218711   0.997   4.674   2.953
 5938SOL     OW18712   0.872   5.088   4.005
 5938SOL    HW118713   0.851   5.041   4.091
 5938SOL    HW218714   0.795   5.079   3.942
 5939SOL     OW18715   2.839   6.457   3.081
 5939SOL    HW118716   2.938   6.451   3.072
 5939SOL    HW218717   2.815   6.471   3.177
 5940SOL     OW18718   4.624   5.617   0.861
 5940SOL    HW118719   4.542   5.654   0.906
 5940SOL    HW218720   4.706   5.654   0.905
 5941SOL     OW18721   5.805   3.422   1.735
 5941SOL    HW118722   5.721   3.456   1.694
 5941SOL    HW218723   5.871   3.497   1.745
 5942SOL     OW18724   5.181   2.886   0.742
 5942SOL    HW118725   5.117   2.821   0.700
 5942SOL    HW218726   5.254   2.835   0.787
 5943SOL     OW18727   3.689   5.439   0.396
 5943SOL    HW118728   3.605   5.492   0.398
 5943SOL    HW218729   3.730   5.437   0.487
 5944SOL     OW18730   6.519   2.870   1.546
 5944SOL    HW118731   6.572   2.789   1.571
 5944SOL    HW218732   6.521   2.882   1.446
 5945SOL     OW18733   6.239   5.508   5.257
 5945SOL    HW118734   6.174   5.461   5.317
 5945SOL    HW218735   6.330   5.506   5.297
 5946SOL     OW18736   3.644   3.490   5.957
 5946SOL    HW118737   3.643   3.514   6.054
 5946SOL    HW218738   3.550   3.484   5.924
 5947SOL     OW18739   3.789   3.644   1.878
 5947SOL    HW118740   3.709   3.695   1.912
 5947SOL    HW218741   3.864   3.654   1.943
 5948SOL     OW18742   4.340   5.129   3.123
 5948SOL    HW118743   4.394   5.062   3.072
 5948SOL    HW218744   4.285   5.083   3.192
 5949SOL     OW18745   4.771   3.482   1.778
 5949SOL    HW118746   4.771   3.574   1.817
 5949SOL    HW218747   4.801   3.416   1.847
 5950SOL     OW18748   4.544   2.327   5.718
 5950SOL    HW118749   4.581   2.409   5.676
 5950SOL    HW218750   4.553   2.250   5.654
 5951SOL     OW18751   0.800   5.679   3.973
 5951SOL    HW118752   0.732   5.752   3.983
 5951SOL    HW218753   0.817   5.637   4.062
 5952SOL     OW18754   5.524   4.712   4.390
 5952SOL    HW118755   5.606   4.764   4.412
 5952SOL    HW218756   5.549   4.620   4.360
 5953SOL     OW18757   6.235   3.025   5.260
 5953SOL    HW118758   6.152   3.022   5.315
 5953SOL    HW218759   6.237   2.947   5.198
 5954SOL     OW18760   0.818   4.168   5.503
 5954SOL    HW118761   0.888   4.232   5.537
 5954SOL    HW218762   0.744   4.162   5.570
 5955SOL     OW18763   5.315   6.088   2.860
 5955SOL    HW118764   5.399   6.041   2.888
 5955SOL    HW218765   5.269   6.124   2.942
 5956SOL     OW18766   4.248   0.733   6.081
 5956SOL    HW118767   4.313   0.685   6.022
 5956SOL    HW218768   4.296   0.765   6.163
 5957SOL     OW18769   4.010   0.733   5.488
 5957SOL    HW118770   4.078   0.660   5.488
 5957SOL    HW218771   4.032   0.800   5.417
 5958SOL     OW18772   5.898   6.778   2.863
 5958SOL    HW118773   5.991   6.800   2.892
 5958SOL    HW218774   5.892   6.783   2.764
 5959SOL     OW18775   4.032   2.305   5.611
 5959SOL    HW118776   3.990   2.342   5.528
 5959SOL    HW218777   4.026   2.372   5.685
 5960SOL     OW18778   3.778   5.523   4.814
 5960SOL    HW118779   3.736   5.614   4.822
 5960SOL    HW218780   3.721   5.456   4.861
 5961SOL     OW18781   5.399   1.379   3.218
 5961SOL    HW118782   5.328   1.316   3.252
 5961SOL    HW218783   5.383   1.396   3.121
 5962SOL     OW18784   5.014   6.128   0.863
 5962SOL    HW118785   4.959   6.060   0.814
 5962SOL    HW218786   5.039   6.091   0.952
 5963SOL     OW18787   3.303   3.478   5.303
 5963SOL    HW118788   3.380   3.417   5.322
 5963SOL    HW218789   3.335   3.571   5.292
 5964SOL     OW18790   0.134   5.726   5.672
 5964SOL    HW118791   0.203   5.797   5.658
 5964SOL    HW218792   0.170   5.638   5.639
 5965SOL     OW18793   1.088   2.198   6.714
 5965SOL    HW118794   1.012   2.258   6.691
 5965SOL    HW218795   1.112   2.210   6.810
 5966SOL     OW18796   2.568   5.993   5.546
 5966SOL    HW118797   2.492   6.041   5.502
 5966SOL    HW218798   2.650   6.051   5.543
 5967SOL     OW18799   4.347   6.646   6.979
 5967SOL    HW118800   4.331   6.703   0.035
 5967SOL    HW218801   4.373   6.554   7.008
 5968SOL     OW18802   4.568   1.204   1.210
 5968SOL    HW118803   4.512   1.256   1.145
 5968SOL    HW218804   4.527   1.114   1.225
 5969SOL     OW18805   0.172   0.255   6.606
 5969SOL    HW118806   0.092   0.215   6.650
 5969SOL    HW218807   0.206   0.332   6.661
 5970SOL     OW18808   0.675   4.703   2.973
 5970SOL    HW118809   0.667   4.763   2.893
 5970SOL    HW218810   0.771   4.678   2.986
 5971SOL     OW18811   1.145   0.996   2.313
 5971SOL    HW118812   1.101   1.001   2.403
 5971SOL    HW218813   1.077   1.014   2.242
 5972SOL     OW18814   5.456   5.693   7.008
 5972SOL    HW118815   5.396   5.653   0.054
 5972SOL    HW218816   5.472   5.626   6.936
 5973SOL     OW18817   2.160   3.244   2.387
 5973SOL    HW118818   2.063   3.269   2.378
 5973SOL    HW218819   2.167   3.145   2.400
 5974SOL     OW18820   5.710   5.135   6.388
 5974SOL    HW118821   5.681   5.134   6.293
 5974SOL    HW218822   5.640   5.091   6.445
 5975SOL     OW18823   3.573   1.393   0.337
 5975SOL    HW118824   3.499   1.408   0.403
 5975SOL    HW218825   3.559   1.306   0.290
 5976SOL     OW18826   3.020   3.209   5.057
 5976SOL    HW118827   2.960   3.240   4.984
 5976SOL    HW218828   3.115   3.230   5.034
 5977SOL     OW18829   2.661   5.734   6.951
 5977SOL    HW118830   2.582   5.780   6.990
 5977SOL    HW218831   2.639   5.701   6.859
 5978SOL     OW18832   5.508   5.721   2.782
 5978SOL    HW118833   5.601   5.742   2.751
 5978SOL    HW218834   5.503   5.730   2.882
 5979SOL     OW18835   5.442   0.701   2.829
 5979SOL    HW118836   5.518   0.685   2.766
 5979SOL    HW218837   5.367   0.746   2.781
 5980SOL     OW18838   4.309   3.782   0.851
 5980SOL    HW118839   4.352   3.725   0.782
 5980SOL    HW218840   4.379   3.819   0.912
 5981SOL     OW18841   5.851   1.640   1.023
 5981SOL    HW118842   5.772   1.664   1.078
 5981SOL    HW218843   5.894   1.557   1.060
 5982SOL     OW18844   6.576   3.335   2.139
 5982SOL    HW118845   6.532   3.422   2.117
 5982SOL    HW218846   6.575   3.320   2.237
 5983SOL     OW18847   1.236   1.582   4.574
 5983SOL    HW118848   1.219   1.512   4.505
 5983SOL    HW218849   1.296   1.653   4.537
 5984SOL     OW18850   6.686   5.786   4.803
 5984SOL    HW118851   6.615   5.802   4.871
 5984SOL    HW218852   6.648   5.735   4.726
 5985SOL     OW18853   0.277   3.026   4.125
 5985SOL    HW118854   0.269   3.104   4.063
 5985SOL    HW218855   0.314   3.056   4.213
 5986SOL     OW18856   3.303   3.299   5.055
 5986SOL    HW118857   3.311   3.375   5.120
 5986SOL    HW218858   3.382   3.300   4.994
 5987SOL     OW18859   4.260   0.183   4.450
 5987SOL    HW118860   4.225   0.142   4.366
 5987SOL    HW218861   4.307   0.113   4.505
 5988SOL     OW18862   5.119   6.913   5.422
 5988SOL    HW118863   5.064   6.930   5.503
 5988SOL    HW218864   5.103   6.985   5.355
 5989SOL     OW18865   3.052   6.192   0.104
 5989SOL    HW118866   3.005   6.120   0.155
 5989SOL    HW218867   3.012   6.200   0.013
 5990SOL     OW18868   3.383   4.155   0.081
 5990SOL    HW118869   3.295   4.198   0.063
 5990SOL    HW218870   3.455   4.225   0.078
 5991SOL     OW18871   3.360   5.341   6.650
 5991SOL    HW118872   3.441   5.296   6.687
 5991SOL    HW218873   3.331   5.294   6.566
 5992SOL     OW18874   3.426   0.275   3.218
 5992SOL    HW118875   3.411   0.343   3.146
 5992SOL    HW218876   3.339   0.237   3.247
 5993SOL     OW18877   2.733   6.151   6.612
 5993SOL    HW118878   2.795   6.228   6.592
 5993SOL    HW218879   2.784   6.065   6.606
 5994SOL     OW18880   6.287   2.341   2.455
 5994SOL    HW118881   6.240   2.405   2.394
 5994SOL    HW218882   6.349   2.283   2.402
 5995SOL     OW18883   5.313   4.652   3.329
 5995SOL    HW118884   5.306   4.739   3.378
 5995SOL    HW218885   5.353   4.583   3.390
 5996SOL     OW18886   1.110   6.572   0.589
 5996SOL    HW118887   1.053   6.502   0.633
 5996SOL    HW218888   1.071   6.662   0.608
 5997SOL     OW18889   1.030   5.486   2.509
 5997SOL    HW118890   1.041   5.405   2.452
 5997SOL    HW218891   0.947   5.478   2.564
 5998SOL     OW18892   6.174   1.809   2.726
 5998SOL    HW118893   6.210   1.777   2.638
 5998SOL    HW218894   6.111   1.884   2.710
 5999SOL     OW18895   1.775   1.742   2.346
 5999SOL    HW118896   1.682   1.727   2.381
 5999SOL    HW218897   1.772   1.810   2.273
 6000SOL     OW18898   4.397   6.908   1.485
 6000SOL    HW118899   4.417   6.812   1.468
 6000SOL    HW218900   4.329   6.940   1.419
 6001SOL     OW18901   0.274   3.721   6.945
 6001SOL    HW118902   0.228   3.638   6.977
 6001SOL    HW218903   0.252   3.797   7.006
 6002SOL     OW18904   6.063   0.061   1.103
 6002SOL    HW118905   6.130   7.014   1.125
 6002SOL    HW218906   6.076   0.091   1.008
 6003SOL     OW18907   7.010   2.254   3.678
 6003SOL    HW118908   6.913   2.232   3.677
 6003SOL    HW218909   0.018   2.259   3.772
 6004SOL     OW18910   0.741   3.864   3.110
 6004SOL    HW118911   0.792   3.789   3.066
 6004SOL    HW218912   0.651   3.873   3.068
 6005SOL     OW18913   4.576   5.409   4.521
 6005SOL    HW118914   4.652   5.473   4.506
 6005SOL    HW218915   4.608   5.316   4.508
 6006SOL     OW18916   3.318   0.588   6.445
 6006SOL    HW118917   3.379   0.536   6.506
 6006SOL    HW218918   3.254   0.525   6.401
 6007SOL     OW18919   4.910   3.456   5.327
 6007SOL    HW118920   4.858   3.467   5.243
 6007SOL    HW218921   4.863   3.502   5.402
 6008SOL     OW18922   2.081   4.964   5.444
 6008SOL    HW118923   2.097   4.866   5.445
 6008SOL    HW218924   2.142   5.008   5.510
 6009SOL     OW18925   3.540   0.575   4.026
 6009SOL    HW118926   3.609   0.563   3.954
 6009SOL    HW218927   3.452   0.544   3.991
 6010SOL     OW18928   1.790   4.251   3.802
 6010SOL    HW118929   1.755   4.175   3.748
 6010SOL    HW218930   1.782   4.228   3.900
 6011SOL     OW18931   5.205   3.401   2.527
 6011SOL    HW118932   5.108   3.375   2.520
 6011SOL    HW218933   5.223   3.437   2.618
 6012SOL     OW18934   5.203   1.354   0.355
 6012SOL    HW118935   5.222   1.351   0.257
 6012SOL    HW218936   5.151   1.273   0.381
 6013SOL     OW18937   5.395   2.418   3.455
 6013SOL    HW118938   5.304   2.457   3.442
 6013SOL    HW218939   5.404   2.335   3.399
 6014SOL     OW18940   4.301   3.598   1.128
 6014SOL    HW118941   4.309   3.655   1.046
 6014SOL    HW218942   4.380   3.537   1.134
 6015SOL     OW18943   5.359   2.840   4.406
 6015SOL    HW118944   5.295   2.884   4.469
 6015SOL    HW218945   5.451   2.841   4.445
 6016SOL     OW18946   5.980   1.776   6.021
 6016SOL    HW118947   5.913   1.794   6.094
 6016SOL    HW218948   6.007   1.680   6.024
 6017SOL     OW18949   0.042   4.303   2.779
 6017SOL    HW118950   0.015   4.221   2.829
 6017SOL    HW218951   0.057   4.378   2.844
 6018SOL     OW18952   2.989   0.619   6.117
 6018SOL    HW118953   2.987   0.615   6.217
 6018SOL    HW218954   2.899   0.646   6.083
 6019SOL     OW18955   6.503   1.776   4.211
 6019SOL    HW118956   6.459   1.834   4.143
 6019SOL    HW218957   6.596   1.754   4.183
 6020SOL     OW18958   1.992   4.981   1.147
 6020SOL    HW118959   2.035   4.954   1.233
 6020SOL    HW218960   1.930   4.907   1.117
 6021SOL     OW18961   4.597   0.820   2.520
 6021SOL    HW118962   4.568   0.842   2.613
 6021SOL    HW218963   4.559   0.887   2.456
 6022SOL     OW18964   4.361   2.420   3.900
 6022SOL    HW118965   4.307   2.396   3.982
 6022SOL    HW218966   4.301   2.419   3.820
 6023SOL     OW18967   6.653   0.289   2.144
 6023SOL    HW118968   6.718   0.281   2.220
 6023SOL    HW218969   6.698   0.263   2.059
 6024SOL     OW18970   1.015   4.853   3.235
 6024SOL    HW118971   0.956   4.895   3.304
 6024SOL    HW218972   1.053   4.768   3.271
 6025SOL     OW18973   3.673   1.532   2.723
 6025SOL    HW118974   3.645   1.449   2.675
 6025SOL    HW218975   3.756   1.568   2.680
 6026SOL     OW18976   0.100   4.330   5.370
 6026SOL    HW118977   0.168   4.261   5.346
 6026SOL    HW218978   0.059   4.307   5.458
 6027SOL     OW18979   1.447   4.144   6.375
 6027SOL    HW118980   1.370   4.177   6.321
 6027SOL    HW218981   1.504   4.222   6.402
 6028SOL     OW18982   0.601   4.710   6.536
 6028SOL    HW118983   0.659   4.778   6.581
 6028SOL    HW218984   0.575   4.743   6.445
 6029SOL     OW18985   2.471   6.109   4.930
 6029SOL    HW118986   2.468   6.178   4.858
 6029SOL    HW218987   2.471   6.017   4.889
 6030SOL     OW18988   3.981   6.040   2.895
 6030SOL    HW118989   3.915   5.970   2.919
 6030SOL    HW218990   3.934   6.119   2.857
 6031SOL     OW18991   3.601   5.260   3.149
 6031SOL    HW118992   3.517   5.277   3.098
 6031SOL    HW218993   3.580   5.237   3.243
 6032SOL     OW18994   2.740   4.690   3.021
 6032SOL    HW118995   2.688   4.774   3.036
 6032SOL    HW218996   2.756   4.677   2.923
 6033SOL     OW18997   3.021   1.520   2.677
 6033SOL    HW118998   3.035   1.537   2.774
 6033SOL    HW218999   3.090   1.571   2.625
 6034SOL     OW19000   1.027   4.918   4.695
 6034SOL    HW119001   1.068   4.996   4.742
 6034SOL    HW219002   1.085   4.837   4.707
 6035SOL     OW19003   6.783   0.765   2.640
 6035SOL    HW119004   6.704   0.739   2.697
 6035SOL    HW219005   6.845   0.822   2.694
 6036SOL     OW19006   6.424   5.964   4.487
 6036SOL    HW119007   6.350   5.987   4.424
 6036SOL    HW219008   6.388   5.955   4.580
 6037SOL     OW19009   4.740   4.695   6.050
 6037SOL    HW119010   4.757   4.642   6.133
 6037SOL    HW219011   4.811   4.764   6.039
 6038SOL     OW19012   1.543   2.583   6.138
 6038SOL    HW119013   1.514   2.560   6.231
 6038SOL    HW219014   1.584   2.674   6.138
 6039SOL     OW19015   3.155   3.099   2.339
 6039SOL    HW119016   3.092   3.115   2.415
 6039SOL    HW219017   3.247   3.130   2.364
 6040SOL     OW19018   0.890   1.783   6.227
 6040SOL    HW119019   0.876   1.827   6.138
 6040SOL    HW219020   0.913   1.852   6.295
 6041SOL     OW19021   2.379   0.364   4.988
 6041SOL    HW119022   2.450   0.407   5.043
 6041SOL    HW219023   2.303   0.336   5.047
 6042SOL     OW19024   5.640   5.685   1.765
 6042SOL    HW119025   5.733   5.675   1.800
 6042SOL    HW219026   5.578   5.626   1.818
 6043SOL     OW19027   0.958   4.406   5.579
 6043SOL    HW119028   0.971   4.431   5.483
 6043SOL    HW219029   0.866   4.432   5.608
 6044SOL     OW19030   1.207   2.301   1.662
 6044SOL    HW119031   1.300   2.289   1.627
 6044SOL    HW219032   1.143   2.250   1.607
 6045SOL     OW19033   6.467   4.800   1.726
 6045SOL    HW119034   6.401   4.731   1.755
 6045SOL    HW219035   6.554   4.785   1.772
 6046SOL     OW19036   4.180   2.262   0.027
 6046SOL    HW119037   4.277   2.269   0.003
 6046SOL    HW219038   4.125   2.315   6.987
 6047SOL     OW19039   5.434   2.374   2.281
 6047SOL    HW119040   5.337   2.366   2.258
 6047SOL    HW219041   5.488   2.322   2.215
 6048SOL     OW19042   4.896   5.738   4.247
 6048SOL    HW119043   4.833   5.672   4.290
 6048SOL    HW219044   4.843   5.814   4.209
 6049SOL     OW19045   5.916   3.379   6.085
 6049SOL    HW119046   5.856   3.373   6.166
 6049SOL    HW219047   5.916   3.474   6.052
 6050SOL     OW19048   3.163   5.194   4.335
 6050SOL    HW119049   3.204   5.212   4.245
 6050SOL    HW219050   3.064   5.203   4.329
 6051SOL     OW19051   2.706   1.348   4.433
 6051SOL    HW119052   2.635   1.418   4.440
 6051SOL    HW219053   2.703   1.307   4.342
 6052SOL     OW19054   5.942   0.143   0.449
 6052SOL    HW119055   5.874   0.070   0.451
 6052SOL    HW219056   5.950   0.179   0.356
 6053SOL     OW19057   4.135   0.974   6.351
 6053SOL    HW119058   4.101   1.002   6.261
 6053SOL    HW219059   4.191   1.048   6.390
 6054SOL     OW19060   2.562   3.685   0.461
 6054SOL    HW119061   2.467   3.661   0.481
 6054SOL    HW219062   2.607   3.713   0.545
 6055SOL     OW19063   4.802   0.930   5.630
 6055SOL    HW119064   4.829   1.018   5.670
 6055SOL    HW219065   4.857   0.913   5.548
 6056SOL     OW19066   4.705   2.825   4.781
 6056SOL    HW119067   4.656   2.767   4.716
 6056SOL    HW219068   4.684   2.921   4.761
 6057SOL     OW19069   4.964   2.559   4.148
 6057SOL    HW119070   4.990   2.481   4.205
 6057SOL    HW219071   5.045   2.592   4.099
 6058SOL     OW19072   4.896   3.090   1.220
 6058SOL    HW119073   4.813   3.075   1.272
 6058SOL    HW219074   4.918   3.008   1.167
 6059SOL     OW19075   5.279   5.105   5.084
 6059SOL    HW119076   5.306   5.060   4.999
 6059SOL    HW219077   5.288   5.040   5.160
 6060SOL     OW19078   2.955   3.972   6.452
 6060SOL    HW119079   2.951   4.002   6.357
 6060SOL    HW219080   2.877   3.912   6.471
 6061SOL     OW19081   3.616   2.221   1.333
 6061SOL    HW119082   3.587   2.188   1.423
 6061SOL    HW219083   3.556   2.184   1.263
 6062SOL     OW19084   2.480   1.662   5.208
 6062SOL    HW119085   2.568   1.700   5.237
 6062SOL    HW219086   2.405   1.718   5.244
 6063SOL     OW19087   3.949   1.593   6.334
 6063SOL    HW119088   3.947   1.692   6.329
 6063SOL    HW219089   3.863   1.560   6.373
 6064SOL     OW19090   1.838   6.109   1.161
 6064SOL    HW119091   1.915   6.046   1.166
 6064SOL    HW219092   1.857   6.191   1.216
 6065SOL     OW19093   5.777   6.894   1.909
 6065SOL    HW119094   5.837   6.829   1.955
 6065SOL    HW219095   5.749   6.965   1.974
 6066SOL     OW19096   5.053   2.045   6.011
 6066SOL    HW119097   5.086   2.123   5.958
 6066SOL    HW219098   4.959   2.064   6.042
 6067SOL     OW19099   5.391   1.482   6.030
 6067SOL    HW119100   5.310   1.462   5.976
 6067SOL    HW219101   5.364   1.500   6.125
 6068SOL     OW19102   5.631   2.994   4.795
 6068SOL    HW119103   5.663   3.061   4.728
 6068SOL    HW219104   5.605   3.040   4.879
 6069SOL     OW19105   6.864   3.420   5.075
 6069SOL    HW119106   6.863   3.375   4.986
 6069SOL    HW219107   6.817   3.362   5.142
 6070SOL     OW19108   2.374   2.205   0.674
 6070SOL    HW119109   2.359   2.195   0.772
 6070SOL    HW219110   2.427   2.128   0.640
 6071SOL     OW19111   5.895   4.877   4.794
 6071SOL    HW119112   5.968   4.850   4.731
 6071SOL    HW219113   5.923   4.958   4.845
 6072SOL     OW19114   0.227   6.872   1.800
 6072SOL    HW119115   0.313   6.921   1.791
 6072SOL    HW219116   0.178   6.904   1.881
 6073SOL     OW19117   6.249   4.236   0.809
 6073SOL    HW119118   6.271   4.183   0.891
 6073SOL    HW219119   6.265   4.333   0.828
 6074SOL     OW19120   1.253   5.816   4.280
 6074SOL    HW119121   1.350   5.836   4.265
 6074SOL    HW219122   1.208   5.898   4.316
 6075SOL     OW19123   6.770   1.671   6.356
 6075SOL    HW119124   6.709   1.641   6.429
 6075SOL    HW219125   6.716   1.712   6.283
 6076SOL     OW19126   2.005   5.761   4.232
 6076SOL    HW119127   2.074   5.829   4.256
 6076SOL    HW219128   2.047   5.670   4.232
 6077SOL     OW19129   5.559   5.909   1.597
 6077SOL    HW119130   5.617   5.929   1.518
 6077SOL    HW219131   5.589   5.824   1.640
 6078SOL     OW19132   3.657   5.261   1.111
 6078SOL    HW119133   3.634   5.278   1.208
 6078SOL    HW219134   3.643   5.165   1.090
 6079SOL     OW19135   4.179   3.057   6.657
 6079SOL    HW119136   4.182   3.044   6.558
 6079SOL    HW219137   4.086   3.038   6.690
 6080SOL     OW19138   6.906   0.904   1.727
 6080SOL    HW119139   6.840   0.835   1.696
 6080SOL    HW219140   6.985   0.859   1.768
 6081SOL     OW19141   6.510   3.075   5.305
 6081SOL    HW119142   6.412   3.057   5.295
 6081SOL    HW219143   6.557   2.991   5.333
 6082SOL     OW19144   2.159   1.888   3.406
 6082SOL    HW119145   2.206   1.854   3.487
 6082SOL    HW219146   2.212   1.964   3.366
 6083SOL     OW19147   0.392   4.589   6.987
 6083SOL    HW119148   0.326   4.520   7.017
 6083SOL    HW219149   0.431   4.634   0.043
 6084SOL     OW19150   0.532   5.996   3.115
 6084SOL    HW119151   0.521   6.075   3.176
 6084SOL    HW219152   0.470   5.923   3.143
 6085SOL     OW19153   0.699   4.417   0.095
 6085SOL    HW119154   0.620   4.374   0.053
 6085SOL    HW219155   0.775   4.353   0.097
 6086SOL     OW19156   3.602   1.061   6.102
 6086SOL    HW119157   3.620   1.132   6.034
 6086SOL    HW219158   3.513   1.020   6.084
 6087SOL     OW19159   4.098   5.753   0.505
 6087SOL    HW119160   4.151   5.835   0.481
 6087SOL    HW219161   4.001   5.769   0.487
 6088SOL     OW19162   5.792   6.061   4.489
 6088SOL    HW119163   5.838   6.126   4.429
 6088SOL    HW219164   5.710   6.026   4.444
 6089SOL     OW19165   6.421   3.624   1.022
 6089SOL    HW119166   6.363   3.543   1.019
 6089SOL    HW219167   6.409   3.671   1.109
 6090SOL     OW19168   2.503   6.243   5.468
 6090SOL    HW119169   2.595   6.215   5.497
 6090SOL    HW219170   2.502   6.258   5.369
 6091SOL     OW19171   1.618   1.603   1.657
 6091SOL    HW119172   1.614   1.553   1.744
 6091SOL    HW219173   1.538   1.662   1.650
 6092SOL     OW19174   3.665   6.793   3.033
 6092SOL    HW119175   3.755   6.822   3.001
 6092SOL    HW219176   3.605   6.773   2.955
 6093SOL     OW19177   1.760   2.669   2.966
 6093SOL    HW119178   1.810   2.752   2.992
 6093SOL    HW219179   1.822   2.606   2.919
 6094SOL     OW19180   3.902   0.814   1.506
 6094SOL    HW119181   3.879   0.890   1.445
 6094SOL    HW219182   3.822   0.756   1.520
 6095SOL     OW19183   4.831   3.196   6.792
 6095SOL    HW119184   4.926   3.211   6.767
 6095SOL    HW219185   4.825   3.183   6.891
 6096SOL     OW19186   5.872   0.479   3.789
 6096SOL    HW119187   5.958   0.453   3.745
 6096SOL    HW219188   5.826   0.548   3.734
 6097SOL     OW19189   2.111   0.013   2.177
 6097SOL    HW119190   2.019   0.010   2.137
 6097SOL    HW219191   2.179   0.012   2.104
 6098SOL     OW19192   1.326   2.914   6.208
 6098SOL    HW119193   1.291   2.820   6.204
 6098SOL    HW219194   1.251   2.977   6.229
 6099SOL     OW19195   6.810   5.691   0.483
 6099SOL    HW119196   6.901   5.655   0.462
 6099SOL    HW219197   6.814   5.748   0.565
 6100SOL     OW19198   5.017   3.683   0.497
 6100SOL    HW119199   5.080   3.612   0.531
 6100SOL    HW219200   4.927   3.642   0.483
 6101SOL     OW19201   5.971   2.048   4.131
 6101SOL    HW119202   6.048   2.097   4.171
 6101SOL    HW219203   5.886   2.094   4.156
 6102SOL     OW19204   3.323   6.427   3.527
 6102SOL    HW119205   3.384   6.374   3.469
 6102SOL    HW219206   3.365   6.516   3.547
 6103SOL     OW19207   0.013   2.397   2.446
 6103SOL    HW119208   6.977   2.440   2.514
 6103SOL    HW219209   0.103   2.381   2.486
 6104SOL     OW19210   6.012   1.302   5.485
 6104SOL    HW119211   5.913   1.297   5.472
 6104SOL    HW219212   6.055   1.216   5.456
 6105SOL     OW19213   1.603   0.242   5.596
 6105SOL    HW119214   1.700   0.240   5.571
 6105SOL    HW219215   1.552   0.183   5.535
 6106SOL     OW19216   2.397   4.078   5.434
 6106SOL    HW119217   2.403   4.014   5.358
 6106SOL    HW219218   2.426   4.033   5.519
 6107SOL     OW19219   2.516   4.708   4.728
 6107SOL    HW119220   2.440   4.659   4.686
 6107SOL    HW219221   2.585   4.729   4.658
 6108SOL     OW19222   0.611   2.491   1.946
 6108SOL    HW119223   0.517   2.493   1.912
 6108SOL    HW219224   0.622   2.559   2.019
 6109SOL     OW19225   5.033   3.043   6.321
 6109SOL    HW119226   5.051   2.962   6.378
 6109SOL    HW219227   5.070   3.027   6.229
 6110SOL     OW19228   4.486   3.353   0.369
 6110SOL    HW119229   4.475   3.290   0.293
 6110SOL    HW219230   4.429   3.434   0.353
 6111SOL     OW19231   2.255   4.070   2.088
 6111SOL    HW119232   2.197   4.008   2.141
 6111SOL    HW219233   2.293   4.021   2.009
 6112SOL     OW19234   3.309   6.876   3.053
 6112SOL    HW119235   3.294   6.843   3.146
 6112SOL    HW219236   3.337   6.799   2.995
 6113SOL     OW19237   1.741   1.204   6.074
 6113SOL    HW119238   1.709   1.218   5.980
 6113SOL    HW219239   1.839   1.224   6.078
 6114SOL     OW19240   5.045   4.998   1.122
 6114SOL    HW119241   5.075   5.036   1.210
 6114SOL    HW219242   5.096   4.914   1.103
 6115SOL     OW19243   4.878   6.917   3.546
 6115SOL    HW119244   4.954   6.941   3.606
 6115SOL    HW219245   4.791   6.943   3.589
 6116SOL     OW19246   2.748   0.050   0.663
 6116SOL    HW119247   2.734   0.132   0.607
 6116SOL    HW219248   2.841   0.015   0.650
 6117SOL     OW19249   0.496   0.727   5.639
 6117SOL    HW119250   0.534   0.668   5.710
 6117SOL    HW219251   0.528   0.697   5.549
 6118SOL     OW19252   6.190   0.195   1.882
 6118SOL    HW119253   6.200   0.235   1.973
 6118SOL    HW219254   6.127   0.117   1.887
 6119SOL     OW19255   1.520   3.679   5.604
 6119SOL    HW119256   1.436   3.634   5.574
 6119SOL    HW219257   1.498   3.756   5.663
 6120SOL     OW19258   3.807   6.779   3.917
 6120SOL    HW119259   3.867   6.725   3.858
 6120SOL    HW219260   3.740   6.719   3.961
 6121SOL     OW19261   0.841   2.993   4.910
 6121SOL    HW119262   0.759   2.935   4.907
 6121SOL    HW219263   0.871   3.012   4.816
 6122SOL     OW19264   3.841   0.079   1.516
 6122SOL    HW119265   3.871   0.174   1.508
 6122SOL    HW219266   3.886   0.037   1.595
 6123SOL     OW19267   6.370   0.808   6.174
 6123SOL    HW119268   6.309   0.731   6.154
 6123SOL    HW219269   6.454   0.774   6.216
 6124SOL     OW19270   2.436   1.150   6.660
 6124SOL    HW119271   2.500   1.216   6.620
 6124SOL    HW219272   2.342   1.177   6.639
 6125SOL     OW19273   1.310   5.795   0.023
 6125SOL    HW119274   1.382   5.801   6.979
 6125SOL    HW219275   1.351   5.785   0.114
 6126SOL     OW19276   6.838   6.838   4.406
 6126SOL    HW119277   6.842   6.785   4.322
 6126SOL    HW219278   6.837   6.936   4.385
 6127SOL     OW19279   3.313   0.086   2.344
 6127SOL    HW119280   3.267   0.073   2.431
 6127SOL    HW219281   3.410   0.061   2.353
 6128SOL     OW19282   6.686   3.001   6.969
 6128SOL    HW119283   6.640   2.922   7.009
 6128SOL    HW219284   6.746   3.042   0.014
 6129SOL     OW19285   6.857   3.740   2.699
 6129SOL    HW119286   6.786   3.789   2.750
 6129SOL    HW219287   6.905   3.679   2.761
 6130SOL     OW19288   6.465   2.255   3.632
 6130SOL    HW119289   6.558   2.267   3.596
 6130SOL    HW219290   6.409   2.209   3.563
 6131SOL     OW19291   6.930   1.526   5.540
 6131SOL    HW119292   6.998   1.534   5.613
 6131SOL    HW219293   6.939   1.437   5.496
 6132SOL     OW19294   4.705   1.255   0.814
 6132SOL    HW119295   4.709   1.342   0.864
 6132SOL    HW219296   4.782   1.198   0.839
 6133SOL     OW19297   0.939   2.239   2.175
 6133SOL    HW119298   0.986   2.197   2.253
 6133SOL    HW219299   0.855   2.284   2.208
 6134SOL     OW19300   3.497   4.459   6.516
 6134SOL    HW119301   3.492   4.371   6.468
 6134SOL    HW219302   3.580   4.462   6.571
 6135SOL     OW19303   0.399   0.143   2.065
 6135SOL    HW119304   0.416   0.045   2.059
 6135SOL    HW219305   0.483   0.193   2.044
 6136SOL     OW19306   0.669   2.418   2.522
 6136SOL    HW119307   0.666   2.378   2.431
 6136SOL    HW219308   0.685   2.347   2.590
 6137SOL     OW19309   5.771   2.751   3.866
 6137SOL    HW119310   5.785   2.804   3.950
 6137SOL    HW219311   5.673   2.733   3.854
 6138SOL     OW19312   4.978   6.239   2.305
 6138SOL    HW119313   4.976   6.156   2.249
 6138SOL    HW219314   4.901   6.298   2.279
 6139SOL     OW19315   1.694   2.023   5.765
 6139SOL    HW119316   1.648   2.077   5.836
 6139SOL    HW219317   1.745   1.949   5.808
 6140SOL     OW19318   0.576   6.629   1.707
 6140SOL    HW119319   0.635   6.552   1.730
 6140SOL    HW219320   0.484   6.596   1.685
 6141SOL     OW19321   6.287   5.471   6.404
 6141SOL    HW119322   6.324   5.509   6.489
 6141SOL    HW219323   6.189   5.492   6.398
 6142SOL     OW19324   0.554   5.354   1.063
 6142SOL    HW119325   0.613   5.407   1.124
 6142SOL    HW219326   0.553   5.395   0.973
 6143SOL     OW19327   6.635   4.212   0.738
 6143SOL    HW119328   6.707   4.281   0.723
 6143SOL    HW219329   6.612   4.168   0.652
 6144SOL     OW19330   6.666   4.801   3.455
 6144SOL    HW119331   6.631   4.772   3.366
 6144SOL    HW219332   6.611   4.878   3.489
 6145SOL     OW19333   4.388   5.426   3.668
 6145SOL    HW119334   4.311   5.487   3.681
 6145SOL    HW219335   4.356   5.337   3.636
 6146SOL     OW19336   3.459   6.941   3.959
 6146SOL    HW119337   3.541   6.903   3.916
 6146SOL    HW219338   3.470   6.938   4.058
 6147SOL     OW19339   1.449   3.491   4.759
 6147SOL    HW119340   1.417   3.502   4.665
 6147SOL    HW219341   1.373   3.505   4.822
 6148SOL     OW19342   6.736   0.420   4.563
 6148SOL    HW119343   6.677   0.422   4.644
 6148SOL    HW219344   6.807   0.351   4.575
 6149SOL     OW19345   3.213   5.260   1.548
 6149SOL    HW119346   3.164   5.278   1.634
 6149SOL    HW219347   3.291   5.322   1.541
 6150SOL     OW19348   4.357   4.773   6.686
 6150SOL    HW119349   4.276   4.763   6.630
 6150SOL    HW219350   4.425   4.829   6.638
 6151SOL     OW19351   5.952   4.032   5.526
 6151SOL    HW119352   6.046   3.999   5.517
 6151SOL    HW219353   5.948   4.129   5.503
 6152SOL     OW19354   5.978   5.881   5.106
 6152SOL    HW119355   5.930   5.903   5.191
 6152SOL    HW219356   5.932   5.924   5.029
 6153SOL     OW19357   5.139   3.961   1.993
 6153SOL    HW119358   5.172   4.041   2.043
 6153SOL    HW219359   5.208   3.888   1.996
 6154SOL     OW19360   5.288   1.777   2.535
 6154SOL    HW119361   5.196   1.744   2.515
 6154SOL    HW219362   5.326   1.822   2.454
 6155SOL     OW19363   2.092   2.280   4.635
 6155SOL    HW119364   2.068   2.374   4.612
 6155SOL    HW219365   2.137   2.238   4.556
 6156SOL     OW19366   4.314   4.767   1.776
 6156SOL    HW119367   4.322   4.688   1.836
 6156SOL    HW219368   4.395   4.771   1.716
 6157SOL     OW19369   1.263   1.007   4.733
 6157SOL    HW119370   1.221   1.080   4.786
 6157SOL    HW219371   1.219   1.001   4.643
 6158SOL     OW19372   4.279   0.815   5.673
 6158SOL    HW119373   4.290   0.737   5.734
 6158SOL    HW219374   4.225   0.886   5.718
 6159SOL     OW19375   4.794   2.058   1.925
 6159SOL    HW119376   4.696   2.077   1.923
 6159SOL    HW219377   4.836   2.108   2.001
 6160SOL     OW19378   5.032   0.418   6.607
 6160SOL    HW119379   5.010   0.325   6.634
 6160SOL    HW219380   5.009   0.431   6.510
 6161SOL     OW19381   5.207   1.360   4.398
 6161SOL    HW119382   5.188   1.373   4.496
 6161SOL    HW219383   5.130   1.394   4.345
 6162SOL     OW19384   1.390   6.731   3.786
 6162SOL    HW119385   1.316   6.724   3.852
 6162SOL    HW219386   1.370   6.673   3.707
 6163SOL     OW19387   6.206   6.201   1.618
 6163SOL    HW119388   6.131   6.209   1.552
 6163SOL    HW219389   6.260   6.119   1.599
 6164SOL     OW19390   3.167   2.361   1.722
 6164SOL    HW119391   3.146   2.276   1.674
 6164SOL    HW219392   3.087   2.388   1.776
 6165SOL     OW19393   4.853   0.818   6.502
 6165SOL    HW119394   4.841   0.750   6.574
 6165SOL    HW219395   4.797   0.898   6.522
 6166SOL     OW19396   4.637   1.208   6.442
 6166SOL    HW119397   4.599   1.270   6.511
 6166SOL    HW219398   4.576   1.205   6.363
 6167SOL     OW19399   0.641   3.975   3.348
 6167SOL    HW119400   0.679   3.898   3.297
 6167SOL    HW219401   0.552   3.950   3.387
 6168SOL     OW19402   0.889   3.478   0.586
 6168SOL    HW119403   0.893   3.382   0.558
 6168SOL    HW219404   0.878   3.483   0.685
 6169SOL     OW19405   2.001   2.875   1.363
 6169SOL    HW119406   2.037   2.784   1.381
 6169SOL    HW219407   1.901   2.871   1.356
 6170SOL     OW19408   0.945   3.431   4.928
 6170SOL    HW119409   1.026   3.404   4.876
 6170SOL    HW219410   0.954   3.525   4.959
 6171SOL     OW19411   0.234   2.700   0.453
 6171SOL    HW119412   0.265   2.608   0.430
 6171SOL    HW219413   0.300   2.742   0.517
 6172SOL     OW19414   2.019   2.910   2.336
 6172SOL    HW119415   1.976   2.946   2.253
 6172SOL    HW219416   2.059   2.820   2.316
 6173SOL     OW19417   0.468   5.298   2.659
 6173SOL    HW119418   0.489   5.205   2.691
 6173SOL    HW219419   0.375   5.321   2.686
 6174SOL     OW19420   5.252   5.598   3.820
 6174SOL    HW119421   5.180   5.591   3.751
 6174SOL    HW219422   5.222   5.661   3.892
 6175SOL     OW19423   3.752   0.816   3.851
 6175SOL    HW119424   3.777   0.908   3.881
 6175SOL    HW219425   3.657   0.816   3.821
 6176SOL     OW19426   5.172   4.596   5.389
 6176SOL    HW119427   5.171   4.503   5.425
 6176SOL    HW219428   5.266   4.622   5.366
 6177SOL     OW19429   5.777   1.505   1.750
 6177SOL    HW119430   5.737   1.590   1.783
 6177SOL    HW219431   5.765   1.433   1.818
 6178SOL     OW19432   5.474   5.096   1.757
 6178SOL    HW119433   5.374   5.105   1.761
 6178SOL    HW219434   5.511   5.098   1.850
 6179SOL     OW19435   6.467   4.482   3.521
 6179SOL    HW119436   6.414   4.455   3.440
 6179SOL    HW219437   6.565   4.473   3.501
 6180SOL     OW19438   2.479   4.773   0.572
 6180SOL    HW119439   2.403   4.732   0.520
 6180SOL    HW219440   2.468   4.872   0.574
 6181SOL     OW19441   5.024   6.384   6.100
 6181SOL    HW119442   5.044   6.472   6.142
 6181SOL    HW219443   4.929   6.383   6.067
 6182SOL     OW19444   4.667   3.123   5.650
 6182SOL    HW119445   4.694   3.027   5.651
 6182SOL    HW219446   4.713   3.170   5.574
 6183SOL     OW19447   1.300   2.271   3.807
 6183SOL    HW119448   1.262   2.307   3.893
 6183SOL    HW219449   1.242   2.299   3.731
 6184SOL     OW19450   3.158   6.170   6.742
 6184SOL    HW119451   3.149   6.207   6.649
 6184SOL    HW219452   3.078   6.198   6.796
 6185SOL     OW19453   0.005   3.876   6.358
 6185SOL    HW119454   0.077   3.822   6.315
 6185SOL    HW219455   0.046   3.950   6.410
 6186SOL     OW19456   6.605   0.821   0.292
 6186SOL    HW119457   6.693   0.862   0.316
 6186SOL    HW219458   6.585   0.838   0.196
 6187SOL     OW19459   5.319   4.235   4.455
 6187SOL    HW119460   5.375   4.193   4.527
 6187SOL    HW219461   5.253   4.168   4.421
 6188SOL     OW19462   1.635   1.273   5.834
 6188SOL    HW119463   1.537   1.252   5.836
 6188SOL    HW219464   1.647   1.372   5.837
 6189SOL     OW19465   4.040   5.221   2.352
 6189SOL    HW119466   4.089   5.134   2.348
 6189SOL    HW219467   4.097   5.293   2.311
 6190SOL     OW19468   0.373   3.704   5.753
 6190SOL    HW119469   0.340   3.675   5.663
 6190SOL    HW219470   0.385   3.803   5.753
 6191SOL     OW19471   2.897   2.507   6.814
 6191SOL    HW119472   2.879   2.554   6.728
 6191SOL    HW219473   2.985   2.538   6.851
 6192SOL     OW19474   3.065   2.208   6.345
 6192SOL    HW119475   3.145   2.267   6.354
 6192SOL    HW219476   3.088   2.129   6.287
 6193SOL     OW19477   4.979   6.333   1.302
 6193SOL    HW119478   4.960   6.422   1.259
 6193SOL    HW219479   5.023   6.273   1.235
 6194SOL     OW19480   0.167   1.085   6.618
 6194SOL    HW119481   0.176   1.147   6.696
 6194SOL    HW219482   0.206   1.129   6.537
 6195SOL     OW19483   4.327   5.508   4.604
 6195SOL    HW119484   4.410   5.479   4.557
 6195SOL    HW219485   4.269   5.559   4.541
 6196SOL     OW19486   5.588   4.353   1.644
 6196SOL    HW119487   5.494   4.319   1.640
 6196SOL    HW219488   5.651   4.276   1.648
 6197SOL     OW19489   2.579   5.855   1.303
 6197SOL    HW119490   2.676   5.881   1.298
 6197SOL    HW219491   2.523   5.928   1.265
 6198SOL     OW19492   4.195   6.811   0.916
 6198SOL    HW119493   4.227   6.820   0.822
 6198SOL    HW219494   4.096   6.798   0.916
 6199SOL     OW19495   0.499   0.780   0.362
 6199SOL    HW119496   0.573   0.763   0.427
 6199SOL    HW219497   0.537   0.812   0.276
 6200SOL     OW19498   1.073   1.238   5.863
 6200SOL    HW119499   1.040   1.312   5.804
 6200SOL    HW219500   1.025   1.242   5.951
 6201SOL     OW19501   0.847   3.486   6.023
 6201SOL    HW119502   0.783   3.471   5.948
 6201SOL    HW219503   0.868   3.583   6.031
 6202SOL     OW19504   4.753   1.488   1.950
 6202SOL    HW119505   4.659   1.515   1.927
 6202SOL    HW219506   4.813   1.511   1.874
 6203SOL     OW19507   6.227   5.994   2.015
 6203SOL    HW119508   6.317   5.956   1.994
 6203SOL    HW219509   6.213   5.996   2.114
 6204SOL     OW19510   0.868   5.601   4.238
 6204SOL    HW119511   0.799   5.645   4.295
 6204SOL    HW219512   0.950   5.584   4.292
 6205SOL     OW19513   6.311   5.620   1.629
 6205SOL    HW119514   6.269   5.611   1.719
 6205SOL    HW219515   6.253   5.578   1.560
 6206SOL     OW19516   6.297   1.561   2.327
 6206SOL    HW119517   6.377   1.554   2.268
 6206SOL    HW219518   6.222   1.604   2.278
 6207SOL     OW19519   1.835   5.659   5.218
 6207SOL    HW119520   1.762   5.658   5.149
 6207SOL    HW219521   1.923   5.667   5.172
 6208SOL     OW19522   3.875   2.469   5.359
 6208SOL    HW119523   3.941   2.486   5.286
 6208SOL    HW219524   3.855   2.554   5.407
 6209SOL     OW19525   2.940   5.566   6.622
 6209SOL    HW119526   2.978   5.658   6.625
 6209SOL    HW219527   2.938   5.533   6.528
 6210SOL     OW19528   4.854   3.850   3.208
 6210SOL    HW119529   4.855   3.781   3.135
 6210SOL    HW219530   4.810   3.933   3.174
 6211SOL     OW19531   2.766   6.276   5.934
 6211SOL    HW119532   2.749   6.179   5.947
 6211SOL    HW219533   2.696   6.315   5.875
 6212SOL     OW19534   2.956   5.118   4.604
 6212SOL    HW119535   3.011   5.035   4.595
 6212SOL    HW219536   2.995   5.190   4.547
 6213SOL     OW19537   4.895   6.946   6.830
 6213SOL    HW119538   4.824   6.876   6.837
 6213SOL    HW219539   4.968   6.925   6.895
 6214SOL     OW19540   5.308   5.745   5.307
 6214SOL    HW119541   5.370   5.695   5.247
 6214SOL    HW219542   5.237   5.684   5.340
 6215SOL     OW19543   4.071   2.548   0.099
 6215SOL    HW119544   3.979   2.531   0.134
 6215SOL    HW219545   4.082   2.505   0.009
 6216SOL     OW19546   6.002   2.701   2.747
 6216SOL    HW119547   5.988   2.694   2.846
 6216SOL    HW219548   6.000   2.610   2.706
 6217SOL     OW19549   0.692   3.835   2.086
 6217SOL    HW119550   0.734   3.868   2.170
 6217SOL    HW219551   0.593   3.837   2.095
 6218SOL     OW19552   3.694   6.814   6.916
 6218SOL    HW119553   3.627   6.764   6.972
 6218SOL    HW219554   3.786   6.781   6.936
 6219SOL     OW19555   1.037   1.637   4.733
 6219SOL    HW119556   1.039   1.720   4.789
 6219SOL    HW219557   1.122   1.631   4.681
 6220SOL     OW19558   2.746   1.887   5.536
 6220SOL    HW119559   2.782   1.981   5.542
 6220SOL    HW219560   2.766   1.839   5.621
 6221SOL     OW19561   5.400   0.343   6.709
 6221SOL    HW119562   5.359   0.433   6.721
 6221SOL    HW219563   5.467   0.347   6.635
 6222SOL     OW19564   1.164   0.403   2.169
 6222SOL    HW119565   1.214   0.389   2.254
 6222SOL    HW219566   1.120   0.493   2.170
 6223SOL     OW19567   1.325   5.017   3.224
 6223SOL    HW119568   1.337   4.919   3.210
 6223SOL    HW219569   1.412   5.059   3.248
 6224SOL     OW19570   4.479   1.178   5.736
 6224SOL    HW119571   4.472   1.277   5.743
 6224SOL    HW219572   4.393   1.140   5.702
 6225SOL     OW19573   3.617   2.427   6.540
 6225SOL    HW119574   3.601   2.360   6.468
 6225SOL    HW219575   3.538   2.430   6.601
 6226SOL     OW19576   1.109   1.467   3.997
 6226SOL    HW119577   1.190   1.425   3.956
 6226SOL    HW219578   1.084   1.548   3.946
 6227SOL     OW19579   3.640   5.160   5.586
 6227SOL    HW119580   3.642   5.077   5.642
 6227SOL    HW219581   3.562   5.156   5.523
 6228SOL     OW19582   0.273   2.779   2.071
 6228SOL    HW119583   0.280   2.707   2.002
 6228SOL    HW219584   0.329   2.857   2.044
 6229SOL     OW19585   0.802   2.393   5.395
 6229SOL    HW119586   0.732   2.421   5.329
 6229SOL    HW219587   0.759   2.372   5.483
 6230SOL     OW19588   0.960   2.064   3.753
 6230SOL    HW119589   1.053   2.086   3.725
 6230SOL    HW219590   0.928   2.134   3.818
 6231SOL     OW19591   5.761   4.992   0.487
 6231SOL    HW119592   5.674   4.947   0.465
 6231SOL    HW219593   5.824   4.982   0.411
 6232SOL     OW19594   6.856   1.686   0.632
 6232SOL    HW119595   6.778   1.623   0.634
 6232SOL    HW219596   6.880   1.712   0.725
 6233SOL     OW19597   5.826   2.589   1.827
 6233SOL    HW119598   5.873   2.571   1.741
 6233SOL    HW219599   5.738   2.543   1.828
 6234SOL     OW19600   6.617   0.245   5.406
 6234SOL    HW119601   6.587   0.184   5.480
 6234SOL    HW219602   6.668   0.193   5.338
 6235SOL     OW19603   0.131   0.580   1.666
 6235SOL    HW119604   0.053   0.531   1.704
 6235SOL    HW219605   0.129   0.676   1.695
 6236SOL     OW19606   0.482   4.272   0.886
 6236SOL    HW119607   0.487   4.321   0.799
 6236SOL    HW219608   0.474   4.174   0.869
 6237SOL     OW19609   3.224   0.242   0.097
 6237SOL    HW119610   3.162   0.189   0.154
 6237SOL    HW219611   3.194   0.238   0.002
 6238SOL     OW19612   4.851   6.060   2.636
 6238SOL    HW119613   4.839   6.152   2.673
 6238SOL    HW219614   4.762   6.020   2.614
 6239SOL     OW19615   3.518   1.059   1.140
 6239SOL    HW119616   3.588   1.117   1.098
 6239SOL    HW219617   3.537   0.963   1.119
 6240SOL     OW19618   2.897   3.323   4.845
 6240SOL    HW119619   2.945   3.373   4.773
 6240SOL    HW219620   2.798   3.333   4.833
 6241SOL     OW19621   3.252   0.611   3.401
 6241SOL    HW119622   3.333   0.659   3.366
 6241SOL    HW219623   3.213   0.555   3.328
 6242SOL     OW19624   3.676   6.773   3.297
 6242SOL    HW119625   3.584   6.786   3.334
 6242SOL    HW219626   3.675   6.792   3.199
 6243SOL     OW19627   0.008   6.972   5.314
 6243SOL    HW119628   0.071   6.915   5.262
 6243SOL    HW219629   6.969   6.913   5.365
 6244SOL     OW19630   5.347   3.501   3.552
 6244SOL    HW119631   5.294   3.434   3.500
 6244SOL    HW219632   5.430   3.457   3.587
 6245SOL     OW19633   1.357   3.913   1.558
 6245SOL    HW119634   1.330   3.858   1.479
 6245SOL    HW219635   1.457   3.911   1.566
 6246SOL     OW19636   1.066   1.352   5.087
 6246SOL    HW119637   1.112   1.440   5.098
 6246SOL    HW219638   0.992   1.344   5.154
 6247SOL     OW19639   1.498   6.119   3.689
 6247SOL    HW119640   1.546   6.083   3.609
 6247SOL    HW219641   1.558   6.113   3.769
 6248SOL     OW19642   3.516   3.930   0.126
 6248SOL    HW119643   3.486   3.889   0.212
 6248SOL    HW219644   3.465   4.014   0.110
 6249SOL     OW19645   0.020   3.044   0.583
 6249SOL    HW119646   6.983   3.119   0.606
 6249SOL    HW219647   0.000   2.964   0.640
 6250SOL     OW19648   6.330   6.546   1.160
 6250SOL    HW119649   6.286   6.471   1.209
 6250SOL    HW219650   6.328   6.629   1.216
 6251SOL     OW19651   4.437   6.543   4.675
 6251SOL    HW119652   4.347   6.505   4.697
 6251SOL    HW219653   4.465   6.513   4.584
 6252SOL     OW19654   2.523   4.501   5.905
 6252SOL    HW119655   2.532   4.429   5.974
 6252SOL    HW219656   2.426   4.516   5.885
 6253SOL     OW19657   2.577   4.718   4.169
 6253SOL    HW119658   2.483   4.691   4.188
 6253SOL    HW219659   2.579   4.782   4.093
 6254SOL     OW19660   5.710   0.375   1.066
 6254SOL    HW119661   5.769   0.417   1.135
 6254SOL    HW219662   5.733   0.413   0.976
 6255SOL     OW19663   2.680   1.771   1.067
 6255SOL    HW119664   2.767   1.748   1.109
 6255SOL    HW219665   2.608   1.770   1.137
 6256SOL     OW19666   3.985   5.330   2.052
 6256SOL    HW119667   4.030   5.355   1.967
 6256SOL    HW219668   3.942   5.411   2.093
 6257SOL     OW19669   4.120   3.447   7.009
 6257SOL    HW119670   4.158   3.536   6.984
 6257SOL    HW219671   4.077   3.453   0.075
 6258SOL     OW19672   3.269   6.746   4.589
 6258SOL    HW119673   3.240   6.786   4.676
 6258SOL    HW219674   3.313   6.658   4.606
 6259SOL     OW19675   2.070   0.626   6.449
 6259SOL    HW119676   1.992   0.658   6.503
 6259SOL    HW219677   2.061   0.528   6.433
 6260SOL     OW19678   3.764   6.155   0.042
 6260SOL    HW119679   3.717   6.126   0.125
 6260SOL    HW219680   3.851   6.199   0.066
 6261SOL     OW19681   5.256   0.273   0.206
 6261SOL    HW119682   5.216   0.294   0.295
 6261SOL    HW219683   5.203   0.199   0.164
 6262SOL     OW19684   2.064   6.082   2.173
 6262SOL    HW119685   1.968   6.085   2.146
 6262SOL    HW219686   2.103   6.174   2.168
 6263SOL     OW19687   1.164   6.546   4.570
 6263SOL    HW119688   1.250   6.587   4.539
 6263SOL    HW219689   1.143   6.466   4.513
 6264SOL     OW19690   2.211   0.475   1.957
 6264SOL    HW119691   2.122   0.508   1.926
 6264SOL    HW219692   2.278   0.549   1.952
 6265SOL     OW19693   4.322   3.379   0.763
 6265SOL    HW119694   4.342   3.281   0.760
 6265SOL    HW219695   4.254   3.401   0.693
 6266SOL     OW19696   4.588   0.104   3.385
 6266SOL    HW119697   4.529   0.101   3.465
 6266SOL    HW219698   4.532   0.101   3.302
 6267SOL     OW19699   2.323   6.862   4.828
 6267SOL    HW119700   2.385   6.802   4.878
 6267SOL    HW219701   2.265   6.912   4.892
 6268SOL     OW19702   2.397   0.670   1.987
 6268SOL    HW119703   2.458   0.743   1.958
 6268SOL    HW219704   2.440   0.617   2.060
 6269SOL     OW19705   6.531   0.269   2.735
 6269SOL    HW119706   6.477   0.353   2.743
 6269SOL    HW219707   6.528   0.236   2.640
 6270SOL     OW19708   0.088   6.908   0.067
 6270SOL    HW119709   0.012   6.963   0.101
 6270SOL    HW219710   0.174   6.958   0.078
 6271SOL     OW19711   6.362   2.922   5.798
 6271SOL    HW119712   6.376   3.018   5.820
 6271SOL    HW219713   6.395   2.903   5.705
 6272SOL     OW19714   0.475   1.800   0.362
 6272SOL    HW119715   0.483   1.899   0.377
 6272SOL    HW219716   0.485   1.780   0.265
 6273SOL     OW19717   0.559   6.012   2.838
 6273SOL    HW119718   0.626   5.940   2.823
 6273SOL    HW219719   0.538   6.018   2.936
 6274SOL     OW19720   3.375   0.085   4.625
 6274SOL    HW119721   3.300   0.030   4.588
 6274SOL    HW219722   3.342   0.139   4.702
 6275SOL     OW19723   1.470   6.072   0.241
 6275SOL    HW119724   1.412   6.153   0.233
 6275SOL    HW219725   1.412   5.991   0.252
 6276SOL     OW19726   2.898   5.661   3.307
 6276SOL    HW119727   2.916   5.760   3.299
 6276SOL    HW219728   2.951   5.624   3.383
 6277SOL     OW19729   4.704   2.871   0.847
 6277SOL    HW119730   4.608   2.882   0.874
 6277SOL    HW219731   4.715   2.903   0.753
 6278SOL     OW19732   3.820   0.585   4.603
 6278SOL    HW119733   3.765   0.645   4.661
 6278SOL    HW219734   3.849   0.635   4.521
 6279SOL     OW19735   3.892   5.963   0.646
 6279SOL    HW119736   3.870   5.945   0.742
 6279SOL    HW219737   3.875   5.882   0.592
 6280SOL     OW19738   6.976   1.283   6.482
 6280SOL    HW119739   7.016   1.227   6.555
 6280SOL    HW219740   0.021   1.347   6.448
 6281SOL     OW19741   6.707   4.812   4.167
 6281SOL    HW119742   6.781   4.834   4.230
 6281SOL    HW219743   6.652   4.737   4.205
 6282SOL     OW19744   5.983   3.534   5.016
 6282SOL    HW119745   6.009   3.603   5.083
 6282SOL    HW219746   5.884   3.518   5.021
 6283SOL     OW19747   0.208   4.008   4.213
 6283SOL    HW119748   0.110   3.988   4.213
 6283SOL    HW219749   0.250   3.969   4.131
 6284SOL     OW19750   1.441   5.200   6.393
 6284SOL    HW119751   1.346   5.224   6.373
 6284SOL    HW219752   1.473   5.254   6.470
 6285SOL     OW19753   1.407   3.067   3.231
 6285SOL    HW119754   1.368   3.145   3.183
 6285SOL    HW219755   1.379   3.068   3.327
 6286SOL     OW19756   0.105   3.504   4.846
 6286SOL    HW119757   0.181   3.507   4.911
 6286SOL    HW219758   0.097   3.593   4.800
 6287SOL     OW19759   3.445   4.900   5.320
 6287SOL    HW119760   3.409   4.870   5.408
 6287SOL    HW219761   3.377   4.883   5.249
 6288SOL     OW19762   5.752   5.188   1.312
 6288SOL    HW119763   5.748   5.165   1.409
 6288SOL    HW219764   5.846   5.182   1.280
 6289SOL     OW19765   2.329   5.007   6.993
 6289SOL    HW119766   2.337   5.091   0.023
 6289SOL    HW219767   2.371   5.021   6.904
 6290SOL     OW19768   5.750   5.653   6.217
 6290SOL    HW119769   5.807   5.734   6.200
 6290SOL    HW219770   5.675   5.677   6.278
 6291SOL     OW19771   3.346   4.093   3.829
 6291SOL    HW119772   3.271   4.088   3.896
 6291SOL    HW219773   3.323   4.037   3.749
 6292SOL     OW19774   2.622   2.437   5.495
 6292SOL    HW119775   2.541   2.424   5.438
 6292SOL    HW219776   2.699   2.465   5.438
 6293SOL     OW19777   4.861   1.649   0.869
 6293SOL    HW119778   4.783   1.591   0.895
 6293SOL    HW219779   4.852   1.738   0.913
 6294SOL     OW19780   4.054   0.220   3.536
 6294SOL    HW119781   4.097   0.306   3.565
 6294SOL    HW219782   4.053   0.156   3.612
 6295SOL     OW19783   5.224   4.475   4.552
 6295SOL    HW119784   5.255   4.392   4.506
 6295SOL    HW219785   5.205   4.455   4.648
 6296SOL     OW19786   6.986   4.471   6.031
 6296SOL    HW119787   0.048   4.422   6.037
 6296SOL    HW219788   6.998   4.554   5.976
 6297SOL     OW19789   6.209   0.611   5.234
 6297SOL    HW119790   6.134   0.567   5.185
 6297SOL    HW219791   6.267   0.662   5.170
 6298SOL     OW19792   0.405   3.473   6.699
 6298SOL    HW119793   0.407   3.376   6.721
 6298SOL    HW219794   0.489   3.517   6.732
 6299SOL     OW19795   6.034   3.348   2.206
 6299SOL    HW119796   5.966   3.335   2.134
 6299SOL    HW219797   6.108   3.282   2.195
 6300SOL     OW19798   6.648   0.996   0.068
 6300SOL    HW119799   6.592   0.969   7.014
 6300SOL    HW219800   6.615   1.083   0.104
 6301SOL     OW19801   2.424   6.285   0.184
 6301SOL    HW119802   2.485   6.342   0.239
 6301SOL    HW219803   2.401   6.331   0.099
 6302SOL     OW19804   1.857   2.193   5.398
 6302SOL    HW119805   1.893   2.204   5.491
 6302SOL    HW219806   1.876   2.101   5.366
 6303SOL     OW19807   0.415   6.946   5.988
 6303SOL    HW119808   0.499   6.900   6.016
 6303SOL    HW219809   0.424   0.020   6.002
 6304SOL     OW19810   3.466   1.423   2.172
 6304SOL    HW119811   3.459   1.443   2.074
 6304SOL    HW219812   3.553   1.457   2.207
 6305SOL     OW19813   6.131   6.179   0.022
 6305SOL    HW119814   6.152   6.206   0.117
 6305SOL    HW219815   6.213   6.186   6.991
 6306SOL     OW19816   6.982   3.948   4.247
 6306SOL    HW119817   6.943   4.039   4.263
 6306SOL    HW219818   7.004   3.906   4.335
 6307SOL     OW19819   2.968   3.830   3.557
 6307SOL    HW119820   3.007   3.765   3.492
 6307SOL    HW219821   3.010   3.920   3.544
 6308SOL     OW19822   1.465   2.349   5.084
 6308SOL    HW119823   1.451   2.429   5.143
 6308SOL    HW219824   1.515   2.279   5.135
 6309SOL     OW19825   6.915   6.581   4.003
 6309SOL    HW119826   6.984   6.636   4.050
 6309SOL    HW219827   6.833   6.574   4.059
 6310SOL     OW19828   1.590   6.498   2.836
 6310SOL    HW119829   1.530   6.525   2.911
 6310SOL    HW219830   1.606   6.399   2.840
 6311SOL     OW19831   4.793   2.108   5.621
 6311SOL    HW119832   4.805   2.036   5.690
 6311SOL    HW219833   4.708   2.091   5.570
 6312SOL     OW19834   0.323   6.905   5.521
 6312SOL    HW119835   0.247   6.938   5.578
 6312SOL    HW219836   0.344   6.973   5.451
 6313SOL     OW19837   6.427   6.507   3.451
 6313SOL    HW119838   6.381   6.451   3.382
 6313SOL    HW219839   6.434   6.455   3.536
 6314SOL     OW19840   3.435   6.870   2.590
 6314SOL    HW119841   3.437   6.821   2.502
 6314SOL    HW219842   3.339   6.889   2.614
 6315SOL     OW19843   3.365   1.847   5.198
 6315SOL    HW119844   3.411   1.929   5.166
 6315SOL    HW219845   3.269   1.848   5.169
 6316SOL     OW19846   4.903   2.221   5.303
 6316SOL    HW119847   4.815   2.177   5.324
 6316SOL    HW219848   4.963   2.213   5.383
 6317SOL     OW19849   4.978   4.494   2.087
 6317SOL    HW119850   5.060   4.496   2.145
 6317SOL    HW219851   4.898   4.519   2.142
 6318SOL     OW19852   4.693   0.289   6.381
 6318SOL    HW119853   4.709   0.274   6.284
 6318SOL    HW219854   4.595   0.293   6.398
 6319SOL     OW19855   6.768   2.276   5.306
 6319SOL    HW119856   6.805   2.264   5.214
 6319SOL    HW219857   6.680   2.325   5.301
 6320SOL     OW19858   6.770   6.474   5.136
 6320SOL    HW119859   6.707   6.518   5.072
 6320SOL    HW219860   6.846   6.433   5.086
 6321SOL     OW19861   4.655   2.992   0.609
 6321SOL    HW119862   4.717   3.068   0.625
 6321SOL    HW219863   4.675   2.950   0.521
 6322SOL     OW19864   3.102   2.807   0.692
 6322SOL    HW119865   3.115   2.757   0.778
 6322SOL    HW219866   3.011   2.785   0.655
 6323SOL     OW19867   1.447   2.266   1.524
 6323SOL    HW119868   1.480   2.176   1.495
 6323SOL    HW219869   1.513   2.336   1.496
 6324SOL     OW19870   4.047   1.488   0.535
 6324SOL    HW119871   4.002   1.466   0.448
 6324SOL    HW219872   4.112   1.563   0.521
 6325SOL     OW19873   1.950   3.098   2.795
 6325SOL    HW119874   1.890   3.164   2.842
 6325SOL    HW219875   1.897   3.049   2.725
 6326SOL     OW19876   5.596   4.883   0.149
 6326SOL    HW119877   5.576   4.980   0.141
 6326SOL    HW219878   5.595   4.856   0.245
 6327SOL     OW19879   0.331   2.055   3.832
 6327SOL    HW119880   0.411   2.074   3.775
 6327SOL    HW219881   0.360   2.003   3.913
 6328SOL     OW19882   4.996   3.672   6.653
 6328SOL    HW119883   4.903   3.641   6.673
 6328SOL    HW219884   5.002   3.771   6.670
 6329SOL     OW19885   1.604   2.698   5.082
 6329SOL    HW119886   1.684   2.665   5.132
 6329SOL    HW219887   1.627   2.783   5.035
 6330SOL     OW19888   5.924   6.720   2.041
 6330SOL    HW119889   5.930   6.620   2.050
 6330SOL    HW219890   6.006   6.761   2.082
 6331SOL     OW19891   0.087   3.744   4.724
 6331SOL    HW119892   7.017   3.721   4.749
 6331SOL    HW219893   0.124   3.809   4.790
 6332SOL     OW19894   0.376   2.634   0.870
 6332SOL    HW119895   0.396   2.684   0.955
 6332SOL    HW219896   0.446   2.656   0.802
 6333SOL     OW19897   4.868   0.563   5.593
 6333SOL    HW119898   4.959   0.546   5.556
 6333SOL    HW219899   4.831   0.646   5.551
 6334SOL     OW19900   2.634   0.867   2.609
 6334SOL    HW119901   2.595   0.824   2.690
 6334SOL    HW219902   2.725   0.903   2.630
 6335SOL     OW19903   4.017   0.358   0.508
 6335SOL    HW119904   3.935   0.376   0.453
 6335SOL    HW219905   3.999   0.284   0.572
 6336SOL     OW19906   0.549   1.894   6.513
 6336SOL    HW119907   0.548   1.858   6.420
 6336SOL    HW219908   0.523   1.990   6.513
 6337SOL     OW19909   4.035   4.913   4.558
 6337SOL    HW119910   3.965   4.897   4.489
 6337SOL    HW219911   4.005   4.986   4.619
 6338SOL     OW19912   2.557   2.523   4.007
 6338SOL    HW119913   2.512   2.524   4.097
 6338SOL    HW219914   2.637   2.464   4.010
 6339SOL     OW19915   0.958   3.246   4.164
 6339SOL    HW119916   1.052   3.280   4.168
 6339SOL    HW219917   0.956   3.150   4.191
 6340SOL     OW19918   2.466   3.967   1.139
 6340SOL    HW119919   2.546   3.944   1.195
 6340SOL    HW219920   2.423   3.884   1.106
 6341SOL     OW19921   6.420   3.295   4.793
 6341SOL    HW119922   6.500   3.260   4.744
 6341SOL    HW219923   6.378   3.221   4.845
 6342SOL     OW19924   3.267   1.001   0.850
 6342SOL    HW119925   3.220   1.089   0.855
 6342SOL    HW219926   3.201   0.928   0.832
 6343SOL     OW19927   3.789   0.362   0.111
 6343SOL    HW119928   3.779   0.263   0.118
 6343SOL    HW219929   3.733   0.395   0.035
 6344SOL     OW19930   5.270   2.006   4.390
 6344SOL    HW119931   5.290   1.912   4.364
 6344SOL    HW219932   5.186   2.008   4.444
 6345SOL     OW19933   5.147   3.164   1.975
 6345SOL    HW119934   5.199   3.139   1.893
 6345SOL    HW219935   5.050   3.165   1.954
 6346SOL     OW19936   0.253   5.443   4.852
 6346SOL    HW119937   0.340   5.438   4.802
 6346SOL    HW219938   0.221   5.538   4.854
 6347SOL     OW19939   1.760   1.662   0.459
 6347SOL    HW119940   1.762   1.661   0.559
 6347SOL    HW219941   1.773   1.570   0.424
 6348SOL     OW19942   0.993   3.061   6.576
 6348SOL    HW119943   1.048   3.029   6.653
 6348SOL    HW219944   1.025   3.151   6.546
 6349SOL     OW19945   2.243   1.300   0.830
 6349SOL    HW119946   2.230   1.255   0.742
 6349SOL    HW219947   2.329   1.269   0.871
 6350SOL     OW19948   0.949   5.358   4.054
 6350SOL    HW119949   0.904   5.395   3.974
 6350SOL    HW219950   0.944   5.258   4.052
 6351SOL     OW19951   6.173   3.425   3.505
 6351SOL    HW119952   6.151   3.521   3.490
 6351SOL    HW219953   6.153   3.400   3.600
 6352SOL     OW19954   2.547   0.542   5.095
 6352SOL    HW119955   2.491   0.623   5.079
 6352SOL    HW219956   2.630   0.546   5.040
 6353SOL     OW19957   1.488   6.139   6.233
 6353SOL    HW119958   1.538   6.124   6.148
 6353SOL    HW219959   1.476   6.238   6.248
 6354SOL     OW19960   3.654   5.999   2.570
 6354SOL    HW119961   3.571   5.986   2.625
 6354SOL    HW219962   3.727   6.034   2.628
 6355SOL     OW19963   2.787   5.342   6.698
 6355SOL    HW119964   2.842   5.424   6.686
 6355SOL    HW219965   2.844   5.261   6.683
 6356SOL     OW19966   5.797   4.566   0.738
 6356SOL    HW119967   5.778   4.564   0.640
 6356SOL    HW219968   5.787   4.660   0.772
 6357SOL     OW19969   5.534   3.577   2.337
 6357SOL    HW119970   5.514   3.486   2.372
 6357SOL    HW219971   5.586   3.569   2.252
 6358SOL     OW19972   0.315   1.913   6.183
 6358SOL    HW119973   0.271   1.848   6.122
 6358SOL    HW219974   0.246   1.972   6.226
 6359SOL     OW19975   6.092   6.486   0.293
 6359SOL    HW119976   6.183   6.520   0.320
 6359SOL    HW219977   6.031   6.490   0.372
 6360SOL     OW19978   0.923   3.883   4.727
 6360SOL    HW119979   0.960   3.932   4.648
 6360SOL    HW219980   0.928   3.784   4.710
 6361SOL     OW19981   1.122   0.920   0.478
 6361SOL    HW119982   1.199   0.921   0.414
 6361SOL    HW219983   1.134   0.992   0.546
 6362SOL     OW19984   0.539   5.709   6.427
 6362SOL    HW119985   0.476   5.653   6.374
 6362SOL    HW219986   0.621   5.727   6.372
 6363SOL     OW19987   2.844   6.005   3.699
 6363SOL    HW119988   2.853   5.948   3.780
 6363SOL    HW219989   2.935   6.023   3.661
 6364SOL     OW19990   3.091   2.698   5.645
 6364SOL    HW119991   3.188   2.700   5.619
 6364SOL    HW219992   3.036   2.738   5.572
 6365SOL     OW19993   5.107   5.950   3.874
 6365SOL    HW119994   5.186   6.002   3.907
 6365SOL    HW219995   5.113   5.855   3.907
 6366SOL     OW19996   0.608   5.981   5.545
 6366SOL    HW119997   0.645   5.957   5.455
 6366SOL    HW219998   0.512   5.953   5.550
 6367SOL     OW19999   3.536   2.120   3.144
 6367SOL    HW120000   3.521   2.077   3.055
 6367SOL    HW220001   3.449   2.126   3.193
 6368SOL     OW20002   3.896   4.873   4.073
 6368SOL    HW120003   3.905   4.838   3.980
 6368SOL    HW220004   3.980   4.853   4.124
 6369SOL     OW20005   1.365   0.712   4.744
 6369SOL    HW120006   1.354   0.806   4.713
 6369SOL    HW220007   1.452   0.703   4.793
 6370SOL     OW20008   4.969   4.002   3.430
 6370SOL    HW120009   4.889   4.043   3.475
 6370SOL    HW220010   4.940   3.950   3.350
 6371SOL     OW20011   5.552   4.574   2.729
 6371SOL    HW120012   5.564   4.620   2.641
 6371SOL    HW220013   5.560   4.475   2.716
 6372SOL     OW20014   1.206   0.696   2.054
 6372SOL    HW120015   1.252   0.785   2.050
 6372SOL    HW220016   1.154   0.689   2.139
 6373SOL     OW20017   5.545   4.382   3.071
 6373SOL    HW120018   5.602   4.344   3.144
 6373SOL    HW220019   5.580   4.471   3.044
 6374SOL     OW20020   4.384   3.454   1.464
 6374SOL    HW120021   4.434   3.429   1.381
 6374SOL    HW220022   4.448   3.458   1.541
 6375SOL     OW20023   7.004   2.668   2.264
 6375SOL    HW120024   0.037   2.623   2.332
 6375SOL    HW220025   7.021   2.767   2.266
 6376SOL     OW20026   4.408   2.237   6.312
 6376SOL    HW120027   4.479   2.307   6.300
 6376SOL    HW220028   4.319   2.275   6.289
 6377SOL     OW20029   6.511   1.321   5.350
 6377SOL    HW120030   6.531   1.412   5.315
 6377SOL    HW220031   6.438   1.327   5.418
 6378SOL     OW20032   5.443   4.863   3.839
 6378SOL    HW120033   5.537   4.842   3.813
 6378SOL    HW220034   5.381   4.799   3.792
 6379SOL     OW20035   0.733   4.398   5.316
 6379SOL    HW120036   0.700   4.308   5.287
 6379SOL    HW220037   0.689   4.424   5.402
 6380SOL     OW20038   0.237   2.285   4.969
 6380SOL    HW120039   0.334   2.265   4.982
 6380SOL    HW220040   0.201   2.227   4.895
 6381SOL     OW20041   4.528   3.217   1.053
 6381SOL    HW120042   4.583   3.160   0.991
 6381SOL    HW220043   4.441   3.172   1.071
 6382SOL     OW20044   3.315   1.912   0.088
 6382SOL    HW120045   3.226   1.956   0.104
 6382SOL    HW220046   3.302   1.813   0.080
 6383SOL     OW20047   2.407   2.645   2.332
 6383SOL    HW120048   2.448   2.588   2.404
 6383SOL    HW220049   2.470   2.651   2.255
 6384SOL     OW20050   6.090   3.467   3.020
 6384SOL    HW120051   6.027   3.508   2.954
 6384SOL    HW220052   6.039   3.403   3.078
 6385SOL     OW20053   6.758   3.879   3.250
 6385SOL    HW120054   6.678   3.922   3.209
 6385SOL    HW220055   6.770   3.787   3.211
 6386SOL     OW20056   2.543   3.512   6.504
 6386SOL    HW120057   2.464   3.451   6.512
 6386SOL    HW220058   2.514   3.606   6.521
 6387SOL     OW20059   6.051   1.804   0.136
 6387SOL    HW120060   5.997   1.720   0.146
 6387SOL    HW220061   5.990   1.883   0.131
 6388SOL     OW20062   5.057   5.709   1.431
 6388SOL    HW120063   5.090   5.631   1.484
 6388SOL    HW220064   5.060   5.792   1.487
 6389SOL     OW20065   0.806   0.027   0.598
 6389SOL    HW120066   0.862   6.973   0.626
 6389SOL    HW220067   0.710   0.008   0.618
 6390SOL     OW20068   6.220   0.686   5.501
 6390SOL    HW120069   6.181   0.664   5.411
 6390SOL    HW220070   6.239   0.602   5.551
 6391SOL     OW20071   1.793   0.983   6.239
 6391SOL    HW120072   1.880   1.012   6.280
 6391SOL    HW220073   1.749   1.060   6.194
 6392SOL     OW20074   3.135   5.126   2.987
 6392SOL    HW120075   3.066   5.193   3.011
 6392SOL    HW220076   3.112   5.037   3.027
 6393SOL     OW20077   6.892   5.617   1.964
 6393SOL    HW120078   6.942   5.702   1.980
 6393SOL    HW220079   6.903   5.589   1.869
 6394SOL     OW20080   1.792   5.201   0.836
 6394SOL    HW120081   1.717   5.261   0.807
 6394SOL    HW220082   1.790   5.117   0.782
 6395SOL     OW20083   6.585   3.487   1.747
 6395SOL    HW120084   6.494   3.529   1.739
 6395SOL    HW220085   6.649   3.555   1.782
 6396SOL     OW20086   6.553   3.779   6.196
 6396SOL    HW120087   6.505   3.866   6.179
 6396SOL    HW220088   6.651   3.796   6.205
 6397SOL     OW20089   5.726   1.344   1.975
 6397SOL    HW120090   5.651   1.368   2.037
 6397SOL    HW220091   5.787   1.279   2.020
 6398SOL     OW20092   2.819   7.024   1.834
 6398SOL    HW120093   2.917   0.003   1.818
 6398SOL    HW220094   2.770   7.017   1.747
 6399SOL     OW20095   1.316   0.238   6.474
 6399SOL    HW120096   1.323   0.253   6.573
 6399SOL    HW220097   1.391   0.179   6.444
 6400SOL     OW20098   1.879   4.657   2.457
 6400SOL    HW120099   1.964   4.660   2.510
 6400SOL    HW220100   1.901   4.641   2.361
 6401SOL     OW20101   5.351   5.318   3.060
 6401SOL    HW120102   5.447   5.299   3.080
 6401SOL    HW220103   5.313   5.378   3.130
 6402SOL     OW20104   2.149   3.041   3.534
 6402SOL    HW120105   2.118   2.963   3.479
 6402SOL    HW220106   2.182   3.113   3.473
 6403SOL     OW20107   6.070   6.197   5.857
 6403SOL    HW120108   6.108   6.290   5.856
 6403SOL    HW220109   5.970   6.202   5.847
 6404SOL     OW20110   4.678   1.323   2.964
 6404SOL    HW120111   4.703   1.358   2.874
 6404SOL    HW220112   4.583   1.292   2.962
 6405SOL     OW20113   4.214   0.842   4.299
 6405SOL    HW120114   4.138   0.874   4.243
 6405SOL    HW220115   4.300   0.855   4.250
 6406SOL     OW20116   0.684   2.710   2.111
 6406SOL    HW120117   0.650   2.694   2.203
 6406SOL    HW220118   0.784   2.712   2.112
 6407SOL     OW20119   2.284   0.355   4.467
 6407SOL    HW120120   2.253   0.298   4.391
 6407SOL    HW220121   2.246   0.321   4.553
 6408SOL     OW20122   5.220   1.317   1.589
 6408SOL    HW120123   5.210   1.337   1.687
 6408SOL    HW220124   5.137   1.275   1.555
 6409SOL     OW20125   6.946   4.933   3.445
 6409SOL    HW120126   6.894   4.872   3.505
 6409SOL    HW220127   6.887   5.007   3.413
 6410SOL     OW20128   2.345   0.999   6.341
 6410SOL    HW120129   2.440   0.980   6.364
 6410SOL    HW220130   2.339   1.084   6.290
 6411SOL     OW20131   0.871   2.634   2.439
 6411SOL    HW120132   0.857   2.535   2.437
 6411SOL    HW220133   0.922   2.659   2.521
 6412SOL     OW20134   2.196   0.759   6.205
 6412SOL    HW120135   2.223   0.854   6.186
 6412SOL    HW220136   2.181   0.747   6.303
 6413SOL     OW20137   3.382   4.929   3.818
 6413SOL    HW120138   3.288   4.896   3.816
 6413SOL    HW220139   3.415   4.931   3.913
 6414SOL     OW20140   5.145   1.012   6.812
 6414SOL    HW120141   5.052   1.042   6.792
 6414SOL    HW220142   5.183   0.965   6.732
 6415SOL     OW20143   1.430   3.076   4.099
 6415SOL    HW120144   1.387   3.150   4.048
 6415SOL    HW220145   1.498   3.113   4.162
 6416SOL     OW20146   2.329   6.706   5.954
 6416SOL    HW120147   2.234   6.678   5.947
 6416SOL    HW220148   2.347   6.781   5.891
 6417SOL     OW20149   6.025   3.754   0.796
 6417SOL    HW120150   6.020   3.821   0.722
 6417SOL    HW220151   6.089   3.787   0.866
 6418SOL     OW20152   4.830   4.097   3.093
 6418SOL    HW120153   4.792   4.155   3.020
 6418SOL    HW220154   4.929   4.111   3.098
 6419SOL     OW20155   1.224   5.270   3.196
 6419SOL    HW120156   1.286   5.342   3.225
 6419SOL    HW220157   1.273   5.183   3.193
 6420SOL     OW20158   2.326   1.203   4.140
 6420SOL    HW120159   2.405   1.219   4.082
 6420SOL    HW220160   2.356   1.177   4.232
 6421SOL     OW20161   4.527   0.192   1.361
 6421SOL    HW120162   4.562   0.280   1.330
 6421SOL    HW220163   4.602   0.126   1.366
 6422SOL     OW20164   6.651   1.744   4.997
 6422SOL    HW120165   6.729   1.691   4.963
 6422SOL    HW220166   6.684   1.814   5.061
 6423SOL     OW20167   4.927   5.026   4.941
 6423SOL    HW120168   4.827   5.027   4.938
 6423SOL    HW220169   4.963   5.062   4.855
 6424SOL     OW20170   0.879   4.202   4.871
 6424SOL    HW120171   0.946   4.178   4.942
 6424SOL    HW220172   0.788   4.171   4.899
 6425SOL     OW20173   6.895   6.057   2.986
 6425SOL    HW120174   6.809   6.097   2.956
 6425SOL    HW220175   6.899   6.059   3.086
 6426SOL     OW20176   6.821   5.475   3.310
 6426SOL    HW120177   6.739   5.467   3.253
 6426SOL    HW220178   6.881   5.396   3.293
 6427SOL     OW20179   3.502   4.092   3.484
 6427SOL    HW120180   3.454   4.114   3.399
 6427SOL    HW220181   3.454   4.018   3.531
 6428SOL     OW20182   6.274   3.486   0.219
 6428SOL    HW120183   6.291   3.416   0.288
 6428SOL    HW220184   6.237   3.568   0.263
 6429SOL     OW20185   6.963   1.239   5.505
 6429SOL    HW120186   6.999   1.196   5.588
 6429SOL    HW220187   6.879   1.192   5.477
 6430SOL     OW20188   6.605   1.361   4.378
 6430SOL    HW120189   6.556   1.434   4.329
 6430SOL    HW220190   6.661   1.310   4.314
 6431SOL     OW20191   4.265   5.966   3.461
 6431SOL    HW120192   4.353   5.992   3.420
 6431SOL    HW220193   4.263   5.867   3.475
 6432SOL     OW20194   4.308   4.817   5.890
 6432SOL    HW120195   4.375   4.864   5.831
 6432SOL    HW220196   4.259   4.749   5.836
 6433SOL     OW20197   2.622   4.817   6.985
 6433SOL    HW120198   2.683   4.793   0.036
 6433SOL    HW220199   2.623   4.917   6.973
 6434SOL     OW20200   3.152   0.382   6.333
 6434SOL    HW120201   3.154   0.334   6.245
 6434SOL    HW220202   3.068   0.358   6.382
 6435SOL     OW20203   5.935   6.496   0.551
 6435SOL    HW120204   5.873   6.553   0.605
 6435SOL    HW220205   5.915   6.400   0.569
 6436SOL     OW20206   1.526   3.381   2.677
 6436SOL    HW120207   1.463   3.304   2.689
 6436SOL    HW220208   1.570   3.402   2.764
 6437SOL     OW20209   1.500   2.161   0.548
 6437SOL    HW120210   1.550   2.109   0.479
 6437SOL    HW220211   1.538   2.253   0.555
 6438SOL     OW20212   0.610   4.822   5.771
 6438SOL    HW120213   0.593   4.920   5.782
 6438SOL    HW220214   0.522   4.775   5.761
 6439SOL     OW20215   5.178   0.670   2.335
 6439SOL    HW120216   5.230   0.650   2.252
 6439SOL    HW220217   5.191   0.766   2.361
 6440SOL     OW20218   3.074   1.318   5.694
 6440SOL    HW120219   3.027   1.391   5.744
 6440SOL    HW220220   3.014   1.285   5.621
 6441SOL     OW20221   0.389   0.942   1.520
 6441SOL    HW120222   0.407   0.845   1.533
 6441SOL    HW220223   0.414   0.969   1.427
 6442SOL     OW20224   3.103   1.854   5.148
 6442SOL    HW120225   3.007   1.825   5.143
 6442SOL    HW220226   3.108   1.954   5.140
 6443SOL     OW20227   3.350   3.089   5.667
 6443SOL    HW120228   3.408   3.014   5.637
 6443SOL    HW220229   3.297   3.124   5.589
 6444SOL     OW20230   5.720   2.647   4.372
 6444SOL    HW120231   5.733   2.616   4.278
 6444SOL    HW220232   5.719   2.568   4.433
 6445SOL     OW20233   3.821   3.370   3.291
 6445SOL    HW120234   3.795   3.432   3.217
 6445SOL    HW220235   3.768   3.391   3.373
 6446SOL     OW20236   0.218   1.498   0.322
 6446SOL    HW120237   0.260   1.513   0.411
 6446SOL    HW220238   0.290   1.492   0.252
 6447SOL     OW20239   0.209   4.616   2.883
 6447SOL    HW120240   0.290   4.635   2.939
 6447SOL    HW220241   0.216   4.667   2.797
 6448SOL     OW20242   5.681   4.901   1.226
 6448SOL    HW120243   5.728   4.979   1.269
 6448SOL    HW220244   5.730   4.817   1.248
 6449SOL     OW20245   3.515   5.469   1.849
 6449SOL    HW120246   3.497   5.457   1.947
 6449SOL    HW220247   3.493   5.385   1.800
 6450SOL     OW20248   1.333   3.184   0.552
 6450SOL    HW120249   1.311   3.113   0.485
 6450SOL    HW220250   1.432   3.186   0.566
 6451SOL     OW20251   2.458   0.994   5.975
 6451SOL    HW120252   2.516   1.015   6.053
 6451SOL    HW220253   2.364   1.023   5.995
 6452SOL     OW20254   4.822   4.021   2.593
 6452SOL    HW120255   4.903   4.078   2.580
 6452SOL    HW220256   4.841   3.953   2.665
 6453SOL     OW20257   2.326   0.455   1.603
 6453SOL    HW120258   2.291   0.549   1.605
 6453SOL    HW220259   2.414   0.452   1.650
 6454SOL     OW20260   1.074   0.996   2.991
 6454SOL    HW120261   1.030   1.005   3.081
 6454SOL    HW220262   1.172   1.012   3.001
 6455SOL     OW20263   6.407   3.083   3.460
 6455SOL    HW120264   6.329   3.040   3.506
 6455SOL    HW220265   6.376   3.167   3.415
 6456SOL     OW20266   1.348   1.333   3.904
 6456SOL    HW120267   1.337   1.246   3.952
 6456SOL    HW220268   1.445   1.352   3.892
 6457SOL     OW20269   5.577   0.388   1.514
 6457SOL    HW120270   5.670   0.420   1.493
 6457SOL    HW220271   5.582   0.299   1.558
 6458SOL     OW20272   1.611   4.831   4.270
 6458SOL    HW120273   1.691   4.790   4.227
 6458SOL    HW220274   1.640   4.891   4.344
 6459SOL     OW20275   6.180   3.118   2.187
 6459SOL    HW120276   6.138   3.054   2.122
 6459SOL    HW220277   6.277   3.130   2.163
 6460SOL     OW20278   5.911   6.013   6.052
 6460SOL    HW120279   5.840   6.082   6.065
 6460SOL    HW220280   5.998   6.058   6.031
 6461SOL     OW20281   2.693   4.463   6.972
 6461SOL    HW120282   2.762   4.473   6.901
 6461SOL    HW220283   2.607   4.433   6.931
 6462SOL     OW20284   1.484   2.776   4.666
 6462SOL    HW120285   1.534   2.692   4.682
 6462SOL    HW220286   1.516   2.819   4.582
 6463SOL     OW20287   5.349   0.375   0.645
 6463SOL    HW120288   5.416   0.305   0.618
 6463SOL    HW220289   5.335   0.371   0.744
 6464SOL     OW20290   2.143   5.621   5.187
 6464SOL    HW120291   2.146   5.531   5.143
 6464SOL    HW220292   2.197   5.619   5.271
 6465SOL     OW20293   6.996   2.940   2.663
 6465SOL    HW120294   7.018   2.908   2.571
 6465SOL    HW220295   6.990   3.040   2.662
 6466SOL     OW20296   5.965   1.341   6.350
 6466SOL    HW120297   5.910   1.326   6.432
 6466SOL    HW220298   5.942   1.271   6.281
 6467SOL     OW20299   3.982   0.451   1.023
 6467SOL    HW120300   3.942   0.489   1.107
 6467SOL    HW220301   4.072   0.492   1.008
 6468SOL     OW20302   3.438   6.602   1.592
 6468SOL    HW120303   3.404   6.511   1.569
 6468SOL    HW220304   3.513   6.594   1.657
 6469SOL     OW20305   4.108   2.261   3.434
 6469SOL    HW120306   4.117   2.317   3.516
 6469SOL    HW220307   4.183   2.281   3.371
 6470SOL     OW20308   6.098   3.065   1.091
 6470SOL    HW120309   6.020   3.068   1.154
 6470SOL    HW220310   6.070   3.102   1.003
 6471SOL     OW20311   0.313   6.646   5.354
 6471SOL    HW120312   0.233   6.593   5.381
 6471SOL    HW220313   0.331   6.716   5.423
 6472SOL     OW20314   6.543   6.076   2.430
 6472SOL    HW120315   6.511   5.991   2.387
 6472SOL    HW220316   6.491   6.092   2.514
 6473SOL     OW20317   2.562   1.702   4.944
 6473SOL    HW120318   2.639   1.762   4.920
 6473SOL    HW220319   2.522   1.731   5.031
 6474SOL     OW20320   4.644   6.150   5.462
 6474SOL    HW120321   4.703   6.230   5.450
 6474SOL    HW220322   4.690   6.084   5.522
 6475SOL     OW20323   5.855   4.439   3.937
 6475SOL    HW120324   5.781   4.496   3.971
 6475SOL    HW220325   5.937   4.453   3.993
 6476SOL     OW20326   5.489   3.191   0.301
 6476SOL    HW120327   5.580   3.196   0.342
 6476SOL    HW220328   5.474   3.099   0.265
 6477SOL     OW20329   6.515   5.281   0.115
 6477SOL    HW120330   6.580   5.264   0.189
 6477SOL    HW220331   6.422   5.275   0.151
 6478SOL     OW20332   2.994   6.551   2.554
 6478SOL    HW120333   2.975   6.488   2.479
 6478SOL    HW220334   2.980   6.505   2.641
 6479SOL     OW20335   3.901   5.616   4.178
 6479SOL    HW120336   3.838   5.691   4.156
 6479SOL    HW220337   3.939   5.631   4.270
 6480SOL     OW20338   2.737   0.901   6.909
 6480SOL    HW120339   2.772   0.809   6.893
 6480SOL    HW220340   2.702   0.908   7.002
 6481SOL     OW20341   3.422   2.216   1.712
 6481SOL    HW120342   3.341   2.274   1.713
 6481SOL    HW220343   3.471   2.223   1.799
 6482SOL     OW20344   6.192   1.949   6.580
 6482SOL    HW120345   6.173   2.035   6.533
 6482SOL    HW220346   6.115   1.926   6.640
 6483SOL     OW20347   6.718   6.994   3.273
 6483SOL    HW120348   6.770   6.996   3.187
 6483SOL    HW220349   6.732   6.906   3.318
 6484SOL     OW20350   3.128   0.721   2.793
 6484SOL    HW120351   3.102   0.782   2.718
 6484SOL    HW220352   3.159   0.776   2.871
 6485SOL     OW20353   2.321   5.181   3.644
 6485SOL    HW120354   2.237   5.154   3.692
 6485SOL    HW220355   2.304   5.264   3.591
 6486SOL     OW20356   1.153   4.643   2.231
 6486SOL    HW120357   1.147   4.652   2.331
 6486SOL    HW220358   1.209   4.564   2.208
 6487SOL     OW20359   1.176   6.764   5.529
 6487SOL    HW120360   1.253   6.759   5.593
 6487SOL    HW220361   1.116   6.685   5.543
 6488SOL     OW20362   4.018   5.712   4.399
 6488SOL    HW120363   4.083   5.639   4.375
 6488SOL    HW220364   4.038   5.745   4.492
 6489SOL     OW20365   3.669   3.063   6.344
 6489SOL    HW120366   3.580   3.026   6.370
 6489SOL    HW220367   3.684   3.151   6.390
 6490SOL     OW20368   4.015   1.041   6.119
 6490SOL    HW120369   4.025   1.106   6.043
 6490SOL    HW220370   3.952   0.968   6.092
 6491SOL     OW20371   3.322   0.446   1.082
 6491SOL    HW120372   3.302   0.438   1.180
 6491SOL    HW220373   3.262   0.386   1.030
 6492SOL     OW20374   3.773   4.069   5.595
 6492SOL    HW120375   3.843   4.001   5.575
 6492SOL    HW220376   3.798   4.119   5.678
 6493SOL     OW20377   1.169   4.198   6.300
 6493SOL    HW120378   1.153   4.210   6.202
 6493SOL    HW220379   1.119   4.117   6.332
 6494SOL     OW20380   0.185   6.994   2.886
 6494SOL    HW120381   0.256   7.013   2.954
 6494SOL    HW220382   0.220   7.011   2.794
 6495SOL     OW20383   0.120   0.975   4.425
 6495SOL    HW120384   0.140   1.072   4.438
 6495SOL    HW220385   0.063   0.963   4.344
 6496SOL     OW20386   5.772   1.329   2.833
 6496SOL    HW120387   5.687   1.316   2.783
 6496SOL    HW220388   5.845   1.354   2.769
 6497SOL     OW20389   0.758   0.545   1.570
 6497SOL    HW120390   0.803   0.541   1.659
 6497SOL    HW220391   0.822   0.518   1.499
 6498SOL     OW20392   0.842   3.612   4.635
 6498SOL    HW120393   0.800   3.569   4.714
 6498SOL    HW220394   0.778   3.678   4.595
 6499SOL     OW20395   5.376   3.971   5.467
 6499SOL    HW120396   5.457   3.968   5.526
 6499SOL    HW220397   5.365   4.064   5.432
 6500SOL     OW20398   6.721   3.997   3.763
 6500SOL    HW120399   6.723   3.999   3.663
 6500SOL    HW220400   6.781   4.069   3.799
 6501SOL     OW20401   6.634   1.115   0.538
 6501SOL    HW120402   6.606   1.024   0.568
 6501SOL    HW220403   6.555   1.164   0.501
 6502SOL     OW20404   7.022   3.951   2.659
 6502SOL    HW120405   6.951   3.882   2.648
 6502SOL    HW220406   6.989   4.039   2.624
 6503SOL     OW20407   5.283   1.131   3.624
 6503SOL    HW120408   5.272   1.167   3.717
 6503SOL    HW220409   5.198   1.143   3.573
 6504SOL     OW20410   3.676   6.459   6.069
 6504SOL    HW120411   3.729   6.508   6.000
 6504SOL    HW220412   3.676   6.510   6.155
 6505SOL     OW20413   5.962   6.484   6.107
 6505SOL    HW120414   5.902   6.493   6.186
 6505SOL    HW220415   5.974   6.574   6.064
 6506SOL     OW20416   0.066   2.760   2.879
 6506SOL    HW120417   0.114   2.713   2.804
 6506SOL    HW220418   0.024   2.844   2.843
 6507SOL     OW20419   2.633   5.603   6.660
 6507SOL    HW120420   2.575   5.681   6.683
 6507SOL    HW220421   2.724   5.635   6.634
 6508SOL     OW20422   1.466   0.590   2.753
 6508SOL    HW120423   1.456   0.498   2.791
 6508SOL    HW220424   1.377   0.623   2.723
 6509SOL     OW20425   4.641   2.192   4.652
 6509SOL    HW120426   4.722   2.212   4.597
 6509SOL    HW220427   4.654   2.226   4.745
 6510SOL     OW20428   6.199   4.654   6.838
 6510SOL    HW120429   6.265   4.717   6.878
 6510SOL    HW220430   6.112   4.661   6.887
 6511SOL     OW20431   4.130   0.679   4.508
 6511SOL    HW120432   4.204   0.623   4.548
 6511SOL    HW220433   4.170   0.760   4.465
 6512SOL     OW20434   3.648   6.745   2.064
 6512SOL    HW120435   3.669   6.722   2.159
 6512SOL    HW220436   3.595   6.829   2.060
 6513SOL     OW20437   2.567   5.466   3.558
 6513SOL    HW120438   2.478   5.423   3.539
 6513SOL    HW220439   2.574   5.552   3.507
 6514SOL     OW20440   5.543   1.271   4.657
 6514SOL    HW120441   5.472   1.327   4.700
 6514SOL    HW220442   5.612   1.248   4.726
 6515SOL     OW20443   1.255   3.447   3.362
 6515SOL    HW120444   1.204   3.471   3.445
 6515SOL    HW220445   1.230   3.510   3.289
 6516SOL     OW20446   0.564   3.130   1.423
 6516SOL    HW120447   0.566   3.154   1.326
 6516SOL    HW220448   0.473   3.150   1.461
 6517SOL     OW20449   6.914   1.679   1.919
 6517SOL    HW120450   6.965   1.764   1.933
 6517SOL    HW220451   6.943   1.637   1.833
 6518SOL     OW20452   0.290   0.553   1.460
 6518SOL    HW120453   0.260   0.469   1.414
 6518SOL    HW220454   0.238   0.565   1.544
 6519SOL     OW20455   0.300   1.266   2.746
 6519SOL    HW120456   0.389   1.309   2.761
 6519SOL    HW220457   0.263   1.295   2.658
 6520SOL     OW20458   0.239   5.039   0.119
 6520SOL    HW120459   0.301   4.969   0.154
 6520SOL    HW220460   0.145   5.003   0.120
 6521SOL     OW20461   1.926   2.616   4.446
 6521SOL    HW120462   1.834   2.613   4.407
 6521SOL    HW220463   1.928   2.563   4.531
 6522SOL     OW20464   3.547   4.938   5.704
 6522SOL    HW120465   3.608   4.872   5.748
 6522SOL    HW220466   3.477   4.890   5.652
 6523SOL     OW20467   3.929   0.791   6.916
 6523SOL    HW120468   3.845   0.846   6.916
 6523SOL    HW220469   3.974   0.799   7.004
 6524SOL     OW20470   2.345   3.479   1.140
 6524SOL    HW120471   2.433   3.497   1.182
 6524SOL    HW220472   2.335   3.380   1.124
 6525SOL     OW20473   2.135   4.597   2.583
 6525SOL    HW120474   2.202   4.669   2.567
 6525SOL    HW220475   2.098   4.604   2.676
 6526SOL     OW20476   1.278   0.352   1.815
 6526SOL    HW120477   1.243   0.261   1.791
 6526SOL    HW220478   1.201   0.412   1.838
 6527SOL     OW20479   6.871   2.275   6.518
 6527SOL    HW120480   6.771   2.284   6.519
 6527SOL    HW220481   6.913   2.361   6.546
 6528SOL     OW20482   5.932   1.513   5.299
 6528SOL    HW120483   5.954   1.470   5.387
 6528SOL    HW220484   5.833   1.526   5.293
 6529SOL     OW20485   1.933   0.531   2.478
 6529SOL    HW120486   1.991   0.452   2.497
 6529SOL    HW220487   1.923   0.543   2.379
 6530SOL     OW20488   6.996   2.004   1.079
 6530SOL    HW120489   6.990   1.989   1.178
 6530SOL    HW220490   6.955   2.092   1.055
 6531SOL     OW20491   4.908   3.217   4.941
 6531SOL    HW120492   4.974   3.292   4.947
 6531SOL    HW220493   4.844   3.224   5.018
 6532SOL     OW20494   1.036   1.352   1.069
 6532SOL    HW120495   0.980   1.434   1.056
 6532SOL    HW220496   1.006   1.303   1.151
 6533SOL     OW20497   4.443   6.181   0.229
 6533SOL    HW120498   4.497   6.160   0.311
 6533SOL    HW220499   4.458   6.109   0.160
 6534SOL     OW20500   5.303   4.749   1.679
 6534SOL    HW120501   5.213   4.770   1.641
 6534SOL    HW220502   5.365   4.720   1.607
 6535SOL     OW20503   6.777   4.521   4.229
 6535SOL    HW120504   6.678   4.519   4.220
 6535SOL    HW220505   6.814   4.429   4.214
 6536SOL     OW20506   0.767   2.030   5.335
 6536SOL    HW120507   0.796   2.121   5.307
 6536SOL    HW220508   0.776   2.021   5.434
 6537SOL     OW20509   0.034   4.526   6.480
 6537SOL    HW120510   7.021   4.440   6.513
 6537SOL    HW220511   6.995   4.566   6.413
 6538SOL     OW20512   1.972   3.772   5.350
 6538SOL    HW120513   2.056   3.811   5.312
 6538SOL    HW220514   1.991   3.734   5.441
 6539SOL     OW20515   5.064   0.985   0.041
 6539SOL    HW120516   5.126   1.030   7.000
 6539SOL    HW220517   5.026   1.053   0.103
 6540SOL     OW20518   3.928   2.353   6.331
 6540SOL    HW120519   3.918   2.376   6.428
 6540SOL    HW220520   4.010   2.297   6.319
 6541SOL     OW20521   4.961   1.333   5.096
 6541SOL    HW120522   4.979   1.250   5.148
 6541SOL    HW220523   5.045   1.386   5.087
 6542SOL     OW20524   0.264   2.644   3.848
 6542SOL    HW120525   0.337   2.692   3.897
 6542SOL    HW220526   0.304   2.585   3.778
 6543SOL     OW20527   4.433   3.144   5.349
 6543SOL    HW120528   4.455   3.051   5.319
 6543SOL    HW220529   4.334   3.156   5.354
 6544SOL     OW20530   1.673   6.702   3.567
 6544SOL    HW120531   1.695   6.605   3.567
 6544SOL    HW220532   1.575   6.714   3.581
 6545SOL     OW20533   4.186   0.489   0.681
 6545SOL    HW120534   4.232   0.414   0.729
 6545SOL    HW220535   4.127   0.451   0.609
 6546SOL     OW20536   2.592   3.957   5.876
 6546SOL    HW120537   2.620   3.873   5.830
 6546SOL    HW220538   2.672   4.014   5.893
 6547SOL     OW20539   4.775   0.819   6.894
 6547SOL    HW120540   4.874   0.813   6.881
 6547SOL    HW220541   4.742   0.908   6.863
 6548SOL     OW20542   1.361   3.980   1.271
 6548SOL    HW120543   1.377   3.992   1.173
 6548SOL    HW220544   1.448   3.962   1.317
 6549SOL     OW20545   4.633   0.906   2.027
 6549SOL    HW120546   4.537   0.914   2.054
 6549SOL    HW220547   4.660   0.809   2.028
 6550SOL     OW20548   6.866   6.627   4.722
 6550SOL    HW120549   6.926   6.689   4.772
 6550SOL    HW220550   6.921   6.572   4.658
 6551SOL     OW20551   2.153   3.748   1.876
 6551SOL    HW120552   2.066   3.752   1.827
 6551SOL    HW220553   2.173   3.654   1.903
 6552SOL     OW20554   1.296   0.292   0.186
 6552SOL    HW120555   1.229   0.228   0.222
 6552SOL    HW220556   1.374   0.241   0.148
 6553SOL     OW20557   6.984   2.000   3.264
 6553SOL    HW120558   0.032   2.015   3.332
 6553SOL    HW220559   6.968   1.902   3.253
 6554SOL     OW20560   1.393   0.424   4.463
 6554SOL    HW120561   1.402   0.360   4.386
 6554SOL    HW220562   1.345   0.379   4.538
 6555SOL     OW20563   4.886   2.037   2.741
 6555SOL    HW120564   4.839   1.950   2.727
 6555SOL    HW220565   4.828   2.099   2.794
 6556SOL     OW20566   5.693   4.600   3.532
 6556SOL    HW120567   5.702   4.656   3.614
 6556SOL    HW220568   5.765   4.626   3.467
 6557SOL     OW20569   2.433   0.335   2.988
 6557SOL    HW120570   2.529   0.334   3.016
 6557SOL    HW220571   2.395   0.426   3.002
 6558SOL     OW20572   6.918   4.860   0.482
 6558SOL    HW120573   6.866   4.776   0.467
 6558SOL    HW220574   6.994   4.863   0.417
 6559SOL     OW20575   0.991   4.032   0.167
 6559SOL    HW120576   1.069   4.044   0.228
 6559SOL    HW220577   0.964   4.122   0.131
 6560SOL     OW20578   4.248   5.091   1.487
 6560SOL    HW120579   4.155   5.075   1.457
 6560SOL    HW220580   4.310   5.025   1.444
 6561SOL     OW20581   3.588   4.271   1.260
 6561SOL    HW120582   3.524   4.199   1.235
 6561SOL    HW220583   3.630   4.308   1.177
 6562SOL     OW20584   5.791   2.232   0.827
 6562SOL    HW120585   5.771   2.265   0.735
 6562SOL    HW220586   5.721   2.167   0.856
 6563SOL     OW20587   5.285   5.626   6.142
 6563SOL    HW120588   5.212   5.672   6.192
 6563SOL    HW220589   5.254   5.536   6.113
 6564SOL     OW20590   6.720   3.489   2.627
 6564SOL    HW120591   6.635   3.497   2.679
 6564SOL    HW220592   6.776   3.571   2.643
 6565SOL     OW20593   5.707   1.196   2.446
 6565SOL    HW120594   5.673   1.248   2.525
 6565SOL    HW220595   5.785   1.140   2.474
 6566SOL     OW20596   3.939   6.602   2.228
 6566SOL    HW120597   3.957   6.684   2.174
 6566SOL    HW220598   3.848   6.607   2.269
 6567SOL     OW20599   4.667   0.613   2.371
 6567SOL    HW120600   4.638   0.666   2.451
 6567SOL    HW220601   4.762   0.583   2.384
 6568SOL     OW20602   3.781   1.752   4.023
 6568SOL    HW120603   3.824   1.790   4.105
 6568SOL    HW220604   3.842   1.684   3.982
 6569SOL     OW20605   2.449   3.326   0.185
 6569SOL    HW120606   2.397   3.240   0.185
 6569SOL    HW220607   2.387   3.402   0.204
 6570SOL     OW20608   2.885   0.572   2.452
 6570SOL    HW120609   2.851   0.480   2.468
 6570SOL    HW220610   2.915   0.613   2.538
 6571SOL     OW20611   3.206   5.107   1.942
 6571SOL    HW120612   3.233   5.130   2.035
 6571SOL    HW220613   3.138   5.033   1.943
 6572SOL     OW20614   6.921   4.205   4.347
 6572SOL    HW120615   6.841   4.199   4.287
 6572SOL    HW220616   6.994   4.254   4.300
 6573SOL     OW20617   0.340   1.715   2.394
 6573SOL    HW120618   0.382   1.652   2.327
 6573SOL    HW220619   0.300   1.662   2.468
 6574SOL     OW20620   2.333   5.630   2.703
 6574SOL    HW120621   2.355   5.613   2.798
 6574SOL    HW220622   2.373   5.558   2.646
 6575SOL     OW20623   0.652   6.889   3.786
 6575SOL    HW120624   0.582   6.858   3.850
 6575SOL    HW220625   0.730   6.925   3.836
 6576SOL     OW20626   2.157   6.664   7.014
 6576SOL    HW120627   2.120   6.572   0.005
 6576SOL    HW220628   2.243   6.674   0.040
 6577SOL     OW20629   0.951   1.965   3.293
 6577SOL    HW120630   0.942   1.875   3.335
 6577SOL    HW220631   1.032   2.012   3.329
 6578SOL     OW20632   0.590   5.980   2.531
 6578SOL    HW120633   0.531   6.015   2.604
 6578SOL    HW220634   0.682   6.017   2.542
 6579SOL     OW20635   0.254   3.468   3.391
 6579SOL    HW120636   0.203   3.539   3.439
 6579SOL    HW220637   0.214   3.379   3.412
 6580SOL     OW20638   0.128   1.923   0.448
 6580SOL    HW120639   0.113   1.842   0.392
 6580SOL    HW220640   0.050   1.984   0.441
 6581SOL     OW20641   2.184   0.501   0.587
 6581SOL    HW120642   2.154   0.516   0.681
 6581SOL    HW220643   2.141   0.417   0.552
 6582SOL     OW20644   6.857   1.290   3.091
 6582SOL    HW120645   6.814   1.343   3.017
 6582SOL    HW220646   6.889   1.352   3.162
 6583SOL     OW20647   5.014   0.389   6.343
 6583SOL    HW120648   5.073   0.310   6.359
 6583SOL    HW220649   4.938   0.362   6.283
 6584SOL     OW20650   4.545   2.032   0.562
 6584SOL    HW120651   4.602   2.012   0.482
 6584SOL    HW220652   4.544   2.130   0.579
 6585SOL     OW20653   6.453   5.940   0.135
 6585SOL    HW120654   6.427   5.945   0.231
 6585SOL    HW220655   6.544   5.980   0.122
 6586SOL     OW20656   5.794   1.107   6.261
 6586SOL    HW120657   5.892   1.087   6.254
 6586SOL    HW220658   5.764   1.158   6.181
 6587SOL     OW20659   2.121   4.999   5.754
 6587SOL    HW120660   2.107   4.903   5.778
 6587SOL    HW220661   2.161   5.047   5.831
 6588SOL     OW20662   7.016   2.788   1.843
 6588SOL    HW120663   6.967   2.704   1.863
 6588SOL    HW220664   6.958   2.867   1.863
 6589SOL     OW20665   4.765   0.147   1.635
 6589SOL    HW120666   4.860   0.178   1.644
 6589SOL    HW220667   4.704   0.225   1.642
 6590SOL     OW20668   6.881   1.106   6.898
 6590SOL    HW120669   6.964   1.143   6.858
 6590SOL    HW220670   6.893   1.097   6.997
 6591SOL     OW20671   6.606   5.769   3.408
 6591SOL    HW120672   6.620   5.779   3.507
 6591SOL    HW220673   6.537   5.699   3.392
 6592SOL     OW20674   5.381   6.731   3.114
 6592SOL    HW120675   5.422   6.774   3.033
 6592SOL    HW220676   5.422   6.768   3.197
 6593SOL     OW20677   2.366   2.341   2.956
 6593SOL    HW120678   2.384   2.243   2.950
 6593SOL    HW220679   2.409   2.388   2.878
 6594SOL     OW20680   3.872   1.335   6.148
 6594SOL    HW120681   3.850   1.253   6.202
 6594SOL    HW220682   3.908   1.406   6.208
 6595SOL     OW20683   1.391   4.324   6.685
 6595SOL    HW120684   1.461   4.357   6.621
 6595SOL    HW220685   1.431   4.255   6.745
 6596SOL     OW20686   3.424   6.873   4.223
 6596SOL    HW120687   3.389   6.780   4.238
 6596SOL    HW220688   3.350   6.932   4.194
 6597SOL     OW20689   0.997   5.764   1.031
 6597SOL    HW120690   0.952   5.709   0.961
 6597SOL    HW220691   1.095   5.768   1.013
 6598SOL     OW20692   1.878   4.565   3.958
 6598SOL    HW120693   1.911   4.485   4.007
 6598SOL    HW220694   1.832   4.627   4.021
 6599SOL     OW20695   4.277   6.319   6.315
 6599SOL    HW120696   4.365   6.347   6.277
 6599SOL    HW220697   4.217   6.399   6.322
 6600SOL     OW20698   3.654   6.283   5.446
 6600SOL    HW120699   3.575   6.338   5.473
 6600SOL    HW220700   3.704   6.328   5.372
 6601SOL     OW20701   1.723   1.950   5.091
 6601SOL    HW120702   1.792   1.997   5.036
 6601SOL    HW220703   1.735   1.851   5.081
 6602SOL     OW20704   1.767   1.022   2.076
 6602SOL    HW120705   1.707   1.049   2.151
 6602SOL    HW220706   1.730   1.056   1.990
 6603SOL     OW20707   0.410   3.156   3.152
 6603SOL    HW120708   0.448   3.186   3.240
 6603SOL    HW220709   0.410   3.233   3.088
 6604SOL     OW20710   1.057   6.709   1.585
 6604SOL    HW120711   1.095   6.796   1.615
 6604SOL    HW220712   1.074   6.698   1.487
 6605SOL     OW20713   5.593   5.579   1.431
 6605SOL    HW120714   5.511   5.602   1.484
 6605SOL    HW220715   5.614   5.482   1.442
 6606SOL     OW20716   0.422   5.570   2.285
 6606SOL    HW120717   0.449   5.653   2.236
 6606SOL    HW220718   0.469   5.566   2.373
 6607SOL     OW20719   1.243   4.470   2.944
 6607SOL    HW120720   1.253   4.432   2.852
 6607SOL    HW220721   1.243   4.397   3.011
 6608SOL     OW20722   6.383   6.812   0.289
 6608SOL    HW120723   6.313   6.883   0.293
 6608SOL    HW220724   6.455   6.839   0.225
 6609SOL     OW20725   5.538   1.043   0.385
 6609SOL    HW120726   5.526   1.135   0.422
 6609SOL    HW220727   5.630   1.011   0.403
 6610SOL     OW20728   1.940   6.521   0.305
 6610SOL    HW120729   1.874   6.448   0.323
 6610SOL    HW220730   1.943   6.539   0.206
 6611SOL     OW20731   4.873   3.112   3.231
 6611SOL    HW120732   4.812   3.041   3.195
 6611SOL    HW220733   4.949   3.125   3.167
 6612SOL     OW20734   6.440   2.050   6.690
 6612SOL    HW120735   6.399   1.961   6.713
 6612SOL    HW220736   6.369   2.120   6.689
 6613SOL     OW20737   6.628   6.309   5.352
 6613SOL    HW120738   6.555   6.265   5.300
 6613SOL    HW220739   6.651   6.397   5.310
 6614SOL     OW20740   4.591   5.117   0.091
 6614SOL    HW120741   4.514   5.173   0.060
 6614SOL    HW220742   4.556   5.039   0.143
 6615SOL     OW20743   1.286   5.976   1.393
 6615SOL    HW120744   1.251   5.905   1.454
 6615SOL    HW220745   1.214   6.005   1.330
 6616SOL     OW20746   4.822   0.087   6.542
 6616SOL    HW120747   4.867   0.116   6.627
 6616SOL    HW220748   4.775   0.165   6.501
 6617SOL     OW20749   4.642   5.167   3.160
 6617SOL    HW120750   4.629   5.071   3.181
 6617SOL    HW220751   4.565   5.200   3.104
 6618SOL     OW20752   1.576   2.374   2.454
 6618SOL    HW120753   1.529   2.352   2.540
 6618SOL    HW220754   1.517   2.354   2.377
 6619SOL     OW20755   5.520   0.301   3.025
 6619SOL    HW120756   5.566   0.309   3.113
 6619SOL    HW220757   5.421   0.311   3.037
 6620SOL     OW20758   1.797   2.651   5.295
 6620SOL    HW120759   1.729   2.638   5.367
 6620SOL    HW220760   1.839   2.563   5.273
 6621SOL     OW20761   3.290   3.190   6.324
 6621SOL    HW120762   3.272   3.215   6.229
 6621SOL    HW220763   3.371   3.240   6.356
 6622SOL     OW20764   5.872   6.107   2.237
 6622SOL    HW120765   5.898   6.201   2.214
 6622SOL    HW220766   5.948   6.046   2.219
 6623SOL     OW20767   3.640   2.927   4.558
 6623SOL    HW120768   3.614   2.998   4.623
 6623SOL    HW220769   3.562   2.905   4.499
 6624SOL     OW20770   6.983   4.578   5.575
 6624SOL    HW120771   7.002   4.490   5.618
 6624SOL    HW220772   0.005   4.584   5.487
 6625SOL     OW20773   5.048   1.985   5.220
 6625SOL    HW120774   5.004   2.052   5.279
 6625SOL    HW220775   5.025   2.003   5.124
 6626SOL     OW20776   3.703   6.704   5.687
 6626SOL    HW120777   3.611   6.708   5.648
 6626SOL    HW220778   3.767   6.671   5.618
 6627SOL     OW20779   1.754   6.382   5.339
 6627SOL    HW120780   1.760   6.284   5.318
 6627SOL    HW220781   1.817   6.404   5.414
 6628SOL     OW20782   6.192   4.729   4.718
 6628SOL    HW120783   6.152   4.706   4.807
 6628SOL    HW220784   6.278   4.680   4.706
 6629SOL     OW20785   4.748   6.712   6.374
 6629SOL    HW120786   4.778   6.638   6.434
 6629SOL    HW220787   4.699   6.781   6.427
 6630SOL     OW20788   3.583   2.063   1.573
 6630SOL    HW120789   3.574   1.967   1.599
 6630SOL    HW220790   3.528   2.119   1.635
 6631SOL     OW20791   2.542   5.757   3.818
 6631SOL    HW120792   2.630   5.712   3.799
 6631SOL    HW220793   2.492   5.705   3.888
 6632SOL     OW20794   1.116   0.372   1.016
 6632SOL    HW120795   1.117   0.448   0.952
 6632SOL    HW220796   1.078   0.404   1.104
 6633SOL     OW20797   2.156   4.863   6.487
 6633SOL    HW120798   2.077   4.917   6.517
 6633SOL    HW220799   2.220   4.852   6.563
 6634SOL     OW20800   5.030   1.458   4.616
 6634SOL    HW120801   4.932   1.469   4.631
 6634SOL    HW220802   5.074   1.548   4.616
 6635SOL     OW20803   4.742   4.228   2.839
 6635SOL    HW120804   4.807   4.212   2.765
 6635SOL    HW220805   4.666   4.284   2.805
 6636SOL     OW20806   4.891   1.886   6.903
 6636SOL    HW120807   4.941   1.826   6.840
 6636SOL    HW220808   4.811   1.837   6.938
 6637SOL     OW20809   0.751   0.033   6.651
 6637SOL    HW120810   0.831   0.081   6.615
 6637SOL    HW220811   0.689   0.099   6.694
 6638SOL     OW20812   3.286   3.792   3.073
 6638SOL    HW120813   3.189   3.785   3.052
 6638SOL    HW220814   3.317   3.886   3.061
 6639SOL     OW20815   4.783   4.627   6.576
 6639SOL    HW120816   4.841   4.546   6.586
 6639SOL    HW220817   4.742   4.650   6.664
 6640SOL     OW20818   6.675   2.195   4.727
 6640SOL    HW120819   6.758   2.140   4.731
 6640SOL    HW220820   6.628   2.192   4.815
 6641SOL     OW20821   2.896   1.140   6.935
 6641SOL    HW120822   2.841   1.059   6.913
 6641SOL    HW220823   2.878   1.168   0.004
 6642SOL     OW20824   2.363   6.386   6.946
 6642SOL    HW120825   2.265   6.369   6.931
 6642SOL    HW220826   2.415   6.347   6.870
 6643SOL     OW20827   5.230   6.302   0.269
 6643SOL    HW120828   5.314   6.269   0.225
 6643SOL    HW220829   5.188   6.372   0.210
 6644SOL     OW20830   2.724   5.329   1.024
 6644SOL    HW120831   2.700   5.329   1.121
 6644SOL    HW220832   2.823   5.318   1.014
 6645SOL     OW20833   5.725   4.215   0.833
 6645SOL    HW120834   5.810   4.228   0.783
 6645SOL    HW220835   5.711   4.291   0.897
 6646SOL     OW20836   4.439   1.045   5.051
 6646SOL    HW120837   4.341   1.036   5.031
 6646SOL    HW220838   4.478   0.955   5.068
 6647SOL     OW20839   4.880   0.417   1.499
 6647SOL    HW120840   4.924   0.506   1.492
 6647SOL    HW220841   4.927   0.362   1.569
 6648SOL     OW20842   3.433   6.373   4.085
 6648SOL    HW120843   3.523   6.391   4.123
 6648SOL    HW220844   3.443   6.338   3.992
 6649SOL     OW20845   5.593   1.731   6.476
 6649SOL    HW120846   5.683   1.774   6.477
 6649SOL    HW220847   5.542   1.760   6.395
 6650SOL     OW20848   3.718   1.269   5.949
 6650SOL    HW120849   3.755   1.286   5.858
 6650SOL    HW220850   3.784   1.297   6.019
 6651SOL     OW20851   2.513   0.655   5.894
 6651SOL    HW120852   2.536   0.587   5.964
 6651SOL    HW220853   2.583   0.727   5.894
 6652SOL     OW20854   0.260   4.193   6.864
 6652SOL    HW120855   0.295   4.201   6.958
 6652SOL    HW220856   0.186   4.258   6.851
 6653SOL     OW20857   3.891   4.233   1.617
 6653SOL    HW120858   3.914   4.142   1.650
 6653SOL    HW220859   3.842   4.283   1.688
 6654SOL     OW20860   2.068   5.330   1.336
 6654SOL    HW120861   1.999   5.269   1.375
 6654SOL    HW220862   2.023   5.395   1.275
 6655SOL     OW20863   0.628   6.582   3.968
 6655SOL    HW120864   0.598   6.486   3.973
 6655SOL    HW220865   0.668   6.608   4.056
 6656SOL     OW20866   5.638   2.206   3.164
 6656SOL    HW120867   5.538   2.208   3.173
 6656SOL    HW220868   5.671   2.113   3.182
 6657SOL     OW20869   5.500   4.771   6.137
 6657SOL    HW120870   5.461   4.863   6.135
 6657SOL    HW220871   5.426   4.704   6.128
 6658SOL     OW20872   4.968   1.028   4.946
 6658SOL    HW120873   5.065   1.046   4.932
 6658SOL    HW220874   4.917   1.114   4.944
 6659SOL     OW20875   2.359   2.613   0.698
 6659SOL    HW120876   2.450   2.599   0.738
 6659SOL    HW220877   2.299   2.538   0.723
 6660SOL     OW20878   1.592   4.278   1.290
 6660SOL    HW120879   1.675   4.334   1.290
 6660SOL    HW220880   1.532   4.308   1.363
 6661SOL     OW20881   1.442   0.138   5.161
 6661SOL    HW120882   1.542   0.139   5.172
 6661SOL    HW220883   1.412   0.223   5.118
 6662SOL     OW20884   0.885   0.353   0.573
 6662SOL    HW120885   0.972   0.391   0.607
 6662SOL    HW220886   0.880   0.256   0.596
 6663SOL     OW20887   6.578   6.359   4.460
 6663SOL    HW120888   6.662   6.308   4.447
 6663SOL    HW220889   6.591   6.426   4.533
 6664SOL     OW20890   2.098   7.012   0.510
 6664SOL    HW120891   2.058   6.973   0.427
 6664SOL    HW220892   2.189   6.973   0.524
 6665SOL     OW20893   1.698   6.259   4.440
 6665SOL    HW120894   1.684   6.181   4.380
 6665SOL    HW220895   1.677   6.234   4.534
 6666SOL     OW20896   5.920   6.491   6.698
 6666SOL    HW120897   6.003   6.541   6.671
 6666SOL    HW220898   5.911   6.408   6.643
 6667SOL     OW20899   6.631   6.836   5.845
 6667SOL    HW120900   6.533   6.854   5.851
 6667SOL    HW220901   6.664   6.861   5.754
 6668SOL     OW20902   6.973   5.729   0.979
 6668SOL    HW120903   7.021   5.811   1.013
 6668SOL    HW220904   0.012   5.651   0.980
 6669SOL     OW20905   2.515   2.117   2.049
 6669SOL    HW120906   2.435   2.081   2.097
 6669SOL    HW220907   2.498   2.212   2.023
 6670SOL     OW20908   3.278   1.595   5.294
 6670SOL    HW120909   3.262   1.617   5.390
 6670SOL    HW220910   3.324   1.671   5.249
 6671SOL     OW20911   4.273   6.783   0.637
 6671SOL    HW120912   4.197   6.769   0.574
 6671SOL    HW220913   4.359   6.778   0.586
 6672SOL     OW20914   6.295   2.912   6.656
 6672SOL    HW120915   6.340   2.909   6.745
 6672SOL    HW220916   6.361   2.938   6.586
 6673SOL     OW20917   4.704   4.459   3.965
 6673SOL    HW120918   4.673   4.365   3.950
 6673SOL    HW220919   4.625   4.521   3.964
 6674SOL     OW20920   0.753   3.377   6.901
 6674SOL    HW120921   0.778   3.324   6.982
 6674SOL    HW220922   0.765   3.475   6.920
 6675SOL     OW20923   5.901   3.729   0.421
 6675SOL    HW120924   5.939   3.644   0.458
 6675SOL    HW220925   5.929   3.806   0.478
 6676SOL     OW20926   0.496   3.699   5.364
 6676SOL    HW120927   0.542   3.720   5.277
 6676SOL    HW220928   0.564   3.679   5.434
 6677SOL     OW20929   1.131   2.050   6.131
 6677SOL    HW120930   1.066   1.974   6.125
 6677SOL    HW220931   1.224   2.014   6.142
 6678SOL     OW20932   3.659   3.649   0.259
 6678SOL    HW120933   3.737   3.679   0.314
 6678SOL    HW220934   3.683   3.650   0.162
 6679SOL     OW20935   3.125   0.723   4.432
 6679SOL    HW120936   3.171   0.671   4.360
 6679SOL    HW220937   3.108   0.663   4.510
 6680SOL     OW20938   4.620   6.885   6.995
 6680SOL    HW120939   4.546   6.925   0.025
 6680SOL    HW220940   4.587   6.865   6.903
 6681SOL     OW20941   4.029   5.524   0.914
 6681SOL    HW120942   4.088   5.586   0.862
 6681SOL    HW220943   4.075   5.435   0.923
 6682SOL     OW20944   1.530   4.284   1.038
 6682SOL    HW120945   1.542   4.277   1.137
 6682SOL    HW220946   1.496   4.197   1.002
 6683SOL     OW20947   5.923   3.014   5.301
 6683SOL    HW120948   5.955   3.020   5.207
 6683SOL    HW220949   5.825   3.033   5.304
 6684SOL     OW20950   3.527   6.160   2.078
 6684SOL    HW120951   3.551   6.106   2.159
 6684SOL    HW220952   3.492   6.249   2.107
 6685SOL     OW20953   5.366   2.814   6.132
 6685SOL    HW120954   5.461   2.793   6.158
 6685SOL    HW220955   5.350   2.912   6.144
 6686SOL     OW20956   4.948   5.322   4.269
 6686SOL    HW120957   5.002   5.406   4.269
 6686SOL    HW220958   5.010   5.243   4.265
 6687SOL     OW20959   0.833   3.234   1.483
 6687SOL    HW120960   0.749   3.185   1.507
 6687SOL    HW220961   0.909   3.170   1.480
 6688SOL     OW20962   5.708   4.396   1.389
 6688SOL    HW120963   5.668   4.369   1.476
 6688SOL    HW220964   5.663   4.346   1.315
 6689SOL     OW20965   3.875   3.530   6.458
 6689SOL    HW120966   3.961   3.577   6.435
 6689SOL    HW220967   3.845   3.560   6.549
 6690SOL     OW20968   6.990   0.468   1.253
 6690SOL    HW120969   6.957   0.561   1.270
 6690SOL    HW220970   6.928   0.402   1.295
 6691SOL     OW20971   2.589   0.277   2.181
 6691SOL    HW120972   2.615   0.188   2.219
 6691SOL    HW220973   2.534   0.326   2.248
 6692SOL     OW20974   4.124   3.697   3.911
 6692SOL    HW120975   4.112   3.601   3.937
 6692SOL    HW220976   4.117   3.754   3.993
 6693SOL     OW20977   3.664   2.243   5.253
 6693SOL    HW120978   3.716   2.309   5.307
 6693SOL    HW220979   3.566   2.263   5.261
 6694SOL     OW20980   4.098   5.479   1.369
 6694SOL    HW120981   4.165   5.410   1.396
 6694SOL    HW220982   4.106   5.559   1.428
 6695SOL     OW20983   3.079   2.097   6.839
 6695SOL    HW120984   3.161   2.055   6.800
 6695SOL    HW220985   3.079   2.086   6.938
 6696SOL     OW20986   3.392   3.091   4.486
 6696SOL    HW120987   3.439   3.024   4.428
 6696SOL    HW220988   3.328   3.043   4.546
 6697SOL     OW20989   4.525   2.075   3.105
 6697SOL    HW120990   4.446   2.125   3.069
 6697SOL    HW220991   4.588   2.140   3.149
 6698SOL     OW20992   3.372   1.955   0.399
 6698SOL    HW120993   3.366   1.933   0.301
 6698SOL    HW220994   3.310   1.894   0.450
 6699SOL     OW20995   2.658   5.752   5.574
 6699SOL    HW120996   2.620   5.843   5.559
 6699SOL    HW220997   2.662   5.734   5.672
 6700SOL     OW20998   0.103   1.163   1.315
 6700SOL    HW120999   0.057   1.114   1.241
 6700SOL    HW221000   0.173   1.223   1.276
 6701SOL     OW21001   5.763   5.261   1.791
 6701SOL    HW121002   5.765   5.360   1.807
 6701SOL    HW221003   5.677   5.237   1.745
 6702SOL     OW21004   2.996   2.208   1.355
 6702SOL    HW121005   3.080   2.217   1.408
 6702SOL    HW221006   2.975   2.111   1.341
 6703SOL     OW21007   6.000   0.808   0.626
 6703SOL    HW121008   6.005   0.803   0.725
 6703SOL    HW221009   5.907   0.786   0.596
 6704SOL     OW21010   3.932   1.738   3.279
 6704SOL    HW121011   3.874   1.742   3.361
 6704SOL    HW221012   4.006   1.804   3.287
 6705SOL     OW21013   6.385   3.838   1.526
 6705SOL    HW121014   6.408   3.742   1.546
 6705SOL    HW221015   6.382   3.890   1.611
 6706SOL     OW21016   1.493   4.852   1.322
 6706SOL    HW121017   1.437   4.769   1.328
 6706SOL    HW221018   1.483   4.905   1.407
 6707SOL     OW21019   6.046   6.662   3.183
 6707SOL    HW121020   6.077   6.654   3.088
 6707SOL    HW221021   5.981   6.589   3.204
 6708SOL     OW21022   6.710   4.636   0.667
 6708SOL    HW121023   6.698   4.651   0.569
 6708SOL    HW221024   6.763   4.552   0.682
 6709SOL     OW21025   2.156   6.688   2.246
 6709SOL    HW121026   2.113   6.670   2.157
 6709SOL    HW221027   2.085   6.715   2.311
 6710SOL     OW21028   4.259   1.506   6.383
 6710SOL    HW121029   4.168   1.546   6.376
 6710SOL    HW221030   4.328   1.579   6.378
 6711SOL     OW21031   5.030   6.402   5.551
 6711SOL    HW121032   5.101   6.343   5.590
 6711SOL    HW221033   5.039   6.494   5.589
 6712SOL     OW21034   5.564   4.353   0.526
 6712SOL    HW121035   5.568   4.331   0.623
 6712SOL    HW221036   5.622   4.290   0.475
 6713SOL     OW21037   2.179   0.561   2.756
 6713SOL    HW121038   2.141   0.502   2.685
 6713SOL    HW221039   2.268   0.596   2.726
 6714SOL     OW21040   6.477   0.957   5.921
 6714SOL    HW121041   6.509   0.924   5.832
 6714SOL    HW221042   6.422   0.886   5.965
 6715SOL     OW21043   0.534   0.454   0.732
 6715SOL    HW121044   0.493   0.530   0.782
 6715SOL    HW221045   0.609   0.415   0.787
 6716SOL     OW21046   0.453   5.305   2.154
 6716SOL    HW121047   0.497   5.373   2.096
 6716SOL    HW221048   0.520   5.269   2.219
 6717SOL     OW21049   3.915   2.959   6.929
 6717SOL    HW121050   3.831   2.950   6.982
 6717SOL    HW221051   3.980   3.016   6.979
 6718SOL     OW21052   5.189   0.903   0.962
 6718SOL    HW121053   5.285   0.893   0.934
 6718SOL    HW221054   5.184   0.964   1.041
 6719SOL     OW21055   2.890   6.591   6.875
 6719SOL    HW121056   2.821   6.581   6.946
 6719SOL    HW221057   2.969   6.640   6.911
 6720SOL     OW21058   1.708   0.235   4.564
 6720SOL    HW121059   1.726   0.218   4.467
 6720SOL    HW221060   1.639   0.171   4.597
 6721SOL     OW21061   6.903   6.310   0.435
 6721SOL    HW121062   6.830   6.284   0.371
 6721SOL    HW221063   6.967   6.371   0.389
 6722SOL     OW21064   6.659   3.114   1.579
 6722SOL    HW121065   6.746   3.100   1.627
 6722SOL    HW221066   6.612   3.026   1.570
 6723SOL     OW21067   1.804   6.621   4.777
 6723SOL    HW121068   1.846   6.539   4.738
 6723SOL    HW221069   1.755   6.597   4.861
 6724SOL     OW21070   2.166   3.839   5.815
 6724SOL    HW121071   2.189   3.745   5.837
 6724SOL    HW221072   2.168   3.851   5.715
 6725SOL     OW21073   0.363   3.763   1.372
 6725SOL    HW121074   0.456   3.789   1.397
 6725SOL    HW221075   0.361   3.666   1.347
 6726SOL     OW21076   1.038   2.480   4.901
 6726SOL    HW121077   1.087   2.412   4.955
 6726SOL    HW221078   0.982   2.536   4.961
 6727SOL     OW21079   0.774   4.671   5.285
 6727SOL    HW121080   0.784   4.572   5.279
 6727SOL    HW221081   0.751   4.698   5.378
 6728SOL     OW21082   3.466   1.991   2.182
 6728SOL    HW121083   3.426   2.027   2.266
 6728SOL    HW221084   3.513   2.065   2.133
 6729SOL     OW21085   6.203   0.583   2.295
 6729SOL    HW121086   6.200   0.660   2.231
 6729SOL    HW221087   6.206   0.497   2.243
 6730SOL     OW21088   1.754   6.858   1.582
 6730SOL    HW121089   1.808   6.798   1.524
 6730SOL    HW221090   1.729   6.940   1.531
 6731SOL     OW21091   1.321   6.383   1.229
 6731SOL    HW121092   1.246   6.372   1.163
 6731SOL    HW221093   1.376   6.300   1.232
 6732SOL     OW21094   5.585   4.562   5.333
 6732SOL    HW121095   5.612   4.639   5.390
 6732SOL    HW221096   5.579   4.479   5.389
 6733SOL     OW21097   3.299   5.488   6.370
 6733SOL    HW121098   3.326   5.433   6.449
 6733SOL    HW221099   3.358   5.568   6.363
 6734SOL     OW21100   5.852   2.336   3.927
 6734SOL    HW121101   5.767   2.340   3.874
 6734SOL    HW221102   5.908   2.261   3.893
 6735SOL     OW21103   6.650   4.087   4.742
 6735SOL    HW121104   6.675   4.175   4.701
 6735SOL    HW221105   6.553   4.089   4.766
 6736SOL     OW21106   2.976   3.846   0.420
 6736SOL    HW121107   2.892   3.847   0.366
 6736SOL    HW221108   3.055   3.846   0.358
 6737SOL     OW21109   1.452   2.538   0.712
 6737SOL    HW121110   1.436   2.531   0.811
 6737SOL    HW221111   1.543   2.503   0.691
 6738SOL     OW21112   1.636   5.977   3.497
 6738SOL    HW121113   1.657   5.891   3.543
 6738SOL    HW221114   1.630   5.962   3.398
 6739SOL     OW21115   4.302   5.949   4.441
 6739SOL    HW121116   4.382   5.969   4.385
 6739SOL    HW221117   4.223   5.999   4.406
 6740SOL     OW21118   0.573   6.954   5.019
 6740SOL    HW121119   0.487   6.913   4.990
 6740SOL    HW221120   0.623   6.889   5.076
 6741SOL     OW21121   4.290   1.857   5.198
 6741SOL    HW121122   4.197   1.866   5.163
 6741SOL    HW221123   4.319   1.762   5.194
 6742SOL     OW21124   5.509   5.929   3.102
 6742SOL    HW121125   5.601   5.943   3.139
 6742SOL    HW221126   5.493   5.831   3.088
 6743SOL     OW21127   3.891   4.492   6.540
 6743SOL    HW121128   3.864   4.559   6.609
 6743SOL    HW221129   3.974   4.523   6.494
 6744SOL     OW21130   6.048   4.351   5.971
 6744SOL    HW121131   5.982   4.407   6.021
 6744SOL    HW221132   6.007   4.262   5.951
 6745SOL     OW21133   0.156   6.871   3.823
 6745SOL    HW121134   0.193   6.799   3.764
 6745SOL    HW221135   0.225   6.943   3.834
 6746SOL     OW21136   0.804   1.035   3.567
 6746SOL    HW121137   0.802   1.106   3.637
 6746SOL    HW221138   0.899   1.014   3.543
 6747SOL     OW21139   5.372   1.432   4.819
 6747SOL    HW121140   5.336   1.525   4.825
 6747SOL    HW221141   5.304   1.367   4.854
 6748SOL     OW21142   3.061   1.793   3.860
 6748SOL    HW121143   2.984   1.847   3.826
 6748SOL    HW221144   3.143   1.815   3.807
 6749SOL     OW21145   3.628   4.689   0.470
 6749SOL    HW121146   3.641   4.604   0.523
 6749SOL    HW221147   3.557   4.744   0.515
 6750SOL     OW21148   3.525   1.906   4.344
 6750SOL    HW121149   3.427   1.888   4.347
 6750SOL    HW221150   3.544   1.998   4.377
 6751SOL     OW21151   4.949   6.919   3.127
 6751SOL    HW121152   4.920   6.981   3.200
 6751SOL    HW221153   4.980   6.973   3.048
 6752SOL     OW21154   1.338   1.068   3.094
 6752SOL    HW121155   1.382   1.013   3.166
 6752SOL    HW221156   1.403   1.084   3.020
 6753SOL     OW21157   3.001   0.662   6.437
 6753SOL    HW121158   3.013   0.760   6.418
 6753SOL    HW221159   3.074   0.631   6.498
 6754SOL     OW21160   6.851   2.036   0.727
 6754SOL    HW121161   6.901   2.120   0.705
 6754SOL    HW221162   6.861   2.016   0.825
 6755SOL     OW21163   4.086   0.944   2.466
 6755SOL    HW121164   4.164   0.888   2.491
 6755SOL    HW221165   4.090   0.966   2.368
 6756SOL     OW21166   3.677   6.047   5.285
 6756SOL    HW121167   3.605   6.008   5.227
 6756SOL    HW221168   3.635   6.098   5.360
 6757SOL     OW21169   3.892   2.101   0.651
 6757SOL    HW121170   3.938   2.157   0.720
 6757SOL    HW221171   3.925   2.007   0.655
 6758SOL     OW21172   6.216   1.791   2.456
 6758SOL    HW121173   6.283   1.862   2.433
 6758SOL    HW221174   6.239   1.707   2.407
 6759SOL     OW21175   1.212   4.252   4.324
 6759SOL    HW121176   1.299   4.221   4.364
 6759SOL    HW221177   1.170   4.176   4.274
 6760SOL     OW21178   6.543   4.168   2.417
 6760SOL    HW121179   6.565   4.249   2.364
 6760SOL    HW221180   6.581   4.087   2.372
 6761SOL     OW21181   6.579   2.531   5.646
 6761SOL    HW121182   6.479   2.523   5.646
 6761SOL    HW221183   6.608   2.584   5.726
 6762SOL     OW21184   0.918   4.975   4.995
 6762SOL    HW121185   0.844   5.016   5.048
 6762SOL    HW221186   0.880   4.919   4.922
 6763SOL     OW21187   0.298   5.384   3.589
 6763SOL    HW121188   0.230   5.326   3.633
 6763SOL    HW221189   0.281   5.389   3.491
 6764SOL     OW21190   1.338   5.761   1.072
 6764SOL    HW121191   1.397   5.779   0.993
 6764SOL    HW221192   1.392   5.768   1.156
 6765SOL     OW21193   5.270   4.673   3.704
 6765SOL    HW121194   5.323   4.626   3.633
 6765SOL    HW221195   5.289   4.631   3.793
 6766SOL     OW21196   5.063   6.640   6.197
 6766SOL    HW121197   5.096   6.733   6.215
 6766SOL    HW221198   4.968   6.644   6.166
 6767SOL     OW21199   2.221   1.723   1.016
 6767SOL    HW121200   2.219   1.725   1.116
 6767SOL    HW221201   2.314   1.702   0.985
 6768SOL     OW21202   1.392   6.693   4.473
 6768SOL    HW121203   1.345   6.780   4.456
 6768SOL    HW221204   1.487   6.711   4.498
 6769SOL     OW21205   2.557   0.499   6.136
 6769SOL    HW121206   2.490   0.455   6.196
 6769SOL    HW221207   2.595   0.431   6.073
 6770SOL     OW21208   5.583   1.850   3.507
 6770SOL    HW121209   5.564   1.805   3.420
 6770SOL    HW221210   5.674   1.890   3.505
 6771SOL     OW21211   3.721   1.294   2.570
 6771SOL    HW121212   3.780   1.364   2.530
 6771SOL    HW221213   3.773   1.242   2.638
 6772SOL     OW21214   4.587   2.561   2.657
 6772SOL    HW121215   4.656   2.492   2.681
 6772SOL    HW221216   4.496   2.519   2.658
 6773SOL     OW21217   0.114   5.827   1.749
 6773SOL    HW121218   0.169   5.900   1.709
 6773SOL    HW221219   0.174   5.760   1.793
 6774SOL     OW21220   1.064   3.916   5.314
 6774SOL    HW121221   1.141   3.969   5.279
 6774SOL    HW221222   1.087   3.819   5.313
 6775SOL     OW21223   2.662   2.325   2.369
 6775SOL    HW121224   2.656   2.370   2.280
 6775SOL    HW221225   2.670   2.226   2.355
 6776SOL     OW21226   4.629   3.595   0.141
 6776SOL    HW121227   4.721   3.600   0.101
 6776SOL    HW221228   4.585   3.510   0.113
 6777SOL     OW21229   4.861   4.737   0.812
 6777SOL    HW121230   4.797   4.780   0.748
 6777SOL    HW221231   4.953   4.740   0.773
 6778SOL     OW21232   6.693   5.563   2.128
 6778SOL    HW121233   6.678   5.626   2.204
 6778SOL    HW221234   6.768   5.596   2.071
 6779SOL     OW21235   5.482   6.104   5.728
 6779SOL    HW121236   5.413   6.038   5.757
 6779SOL    HW221237   5.535   6.133   5.808
 6780SOL     OW21238   1.739   2.602   2.403
 6780SOL    HW121239   1.681   2.524   2.427
 6780SOL    HW221240   1.703   2.685   2.444
 6781SOL     OW21241   6.711   2.296   4.059
 6781SOL    HW121242   6.805   2.283   4.027
 6781SOL    HW221243   6.693   2.394   4.071
 6782SOL     OW21244   0.763   0.765   2.988
 6782SOL    HW121245   0.781   0.762   3.086
 6782SOL    HW221246   0.712   0.848   2.965
 6783SOL     OW21247   6.616   1.182   5.986
 6783SOL    HW121248   6.564   1.098   5.971
 6783SOL    HW221249   6.711   1.159   6.011
 6784SOL     OW21250   1.808   3.247   1.085
 6784SOL    HW121251   1.768   3.333   1.116
 6784SOL    HW221252   1.908   3.257   1.081
 6785SOL     OW21253   6.141   5.781   4.836
 6785SOL    HW121254   6.140   5.776   4.935
 6785SOL    HW221255   6.136   5.689   4.797
 6786SOL     OW21256   1.868   2.031   0.517
 6786SOL    HW121257   1.965   2.047   0.500
 6786SOL    HW221258   1.856   1.980   0.602
 6787SOL     OW21259   2.654   2.584   0.180
 6787SOL    HW121260   2.654   2.684   0.181
 6787SOL    HW221261   2.579   2.552   0.121
 6788SOL     OW21262   1.392   4.340   1.472
 6788SOL    HW121263   1.351   4.345   1.563
 6788SOL    HW221264   1.321   4.324   1.404
 6789SOL     OW21265   0.845   4.984   3.472
 6789SOL    HW121266   0.787   4.956   3.548
 6789SOL    HW221267   0.886   5.073   3.492
 6790SOL     OW21268   0.669   3.775   0.614
 6790SOL    HW121269   0.696   3.870   0.596
 6790SOL    HW221270   0.708   3.746   0.701
 6791SOL     OW21271   3.643   1.960   1.868
 6791SOL    HW121272   3.630   2.056   1.890
 6791SOL    HW221273   3.569   1.928   1.810
 6792SOL     OW21274   5.703   6.747   4.510
 6792SOL    HW121275   5.725   6.735   4.413
 6792SOL    HW221276   5.611   6.713   4.528
 6793SOL     OW21277   2.027   1.270   0.333
 6793SOL    HW121278   1.993   1.297   0.243
 6793SOL    HW221279   2.042   1.172   0.336
 6794SOL     OW21280   5.187   1.223   5.481
 6794SOL    HW121281   5.135   1.206   5.397
 6794SOL    HW221282   5.143   1.175   5.557
 6795SOL     OW21283   1.546   6.572   0.844
 6795SOL    HW121284   1.532   6.613   0.934
 6795SOL    HW221285   1.459   6.569   0.794
 6796SOL     OW21286   5.635   1.456   3.325
 6796SOL    HW121287   5.554   1.415   3.283
 6796SOL    HW221288   5.612   1.491   3.416
 6797SOL     OW21289   6.687   2.217   1.592
 6797SOL    HW121290   6.776   2.205   1.636
 6797SOL    HW221291   6.646   2.127   1.576
 6798SOL     OW21292   6.217   6.300   1.983
 6798SOL    HW121293   6.271   6.322   2.065
 6798SOL    HW221294   6.229   6.204   1.960
 6799SOL     OW21295   6.909   0.401   1.974
 6799SOL    HW121296   6.823   0.377   1.928
 6799SOL    HW221297   6.902   0.494   2.010
 6800SOL     OW21298   2.179   2.402   2.089
 6800SOL    HW121299   2.142   2.354   2.010
 6800SOL    HW221300   2.273   2.430   2.070
 6801SOL     OW21301   0.909   0.134   3.145
 6801SOL    HW121302   0.894   0.039   3.120
 6801SOL    HW221303   0.856   0.156   3.227
 6802SOL     OW21304   3.785   6.071   1.655
 6802SOL    HW121305   3.771   6.012   1.575
 6802SOL    HW221306   3.828   6.156   1.626
 6803SOL     OW21307   4.038   3.477   5.655
 6803SOL    HW121308   4.038   3.507   5.750
 6803SOL    HW221309   4.081   3.547   5.597
 6804SOL     OW21310   3.464   5.176   3.678
 6804SOL    HW121311   3.448   5.077   3.684
 6804SOL    HW221312   3.431   5.220   3.761
 6805SOL     OW21313   0.284   4.752   6.434
 6805SOL    HW121314   0.185   4.763   6.423
 6805SOL    HW221315   0.304   4.656   6.455
 6806SOL     OW21316   6.612   0.697   2.866
 6806SOL    HW121317   6.687   0.690   2.932
 6806SOL    HW221318   6.537   0.748   2.907
 6807SOL     OW21319   3.188   3.180   1.278
 6807SOL    HW121320   3.253   3.236   1.328
 6807SOL    HW221321   3.100   3.228   1.271
 6808SOL     OW21322   6.601   1.957   6.492
 6808SOL    HW121323   6.546   1.926   6.414
 6808SOL    HW221324   6.541   1.996   6.562
 6809SOL     OW21325   0.727   3.146   1.159
 6809SOL    HW121326   0.795   3.212   1.191
 6809SOL    HW221327   0.748   3.118   1.066
 6810SOL     OW21328   2.163   1.116   2.347
 6810SOL    HW121329   2.220   1.173   2.288
 6810SOL    HW221330   2.121   1.043   2.293
 6811SOL     OW21331   5.590   3.923   1.879
 6811SOL    HW121332   5.535   3.966   1.808
 6811SOL    HW221333   5.561   3.828   1.891
 6812SOL     OW21334   3.160   3.591   4.430
 6812SOL    HW121335   3.076   3.643   4.415
 6812SOL    HW221336   3.170   3.571   4.527
 6813SOL     OW21337   5.680   3.824   2.995
 6813SOL    HW121338   5.754   3.849   2.932
 6813SOL    HW221339   5.710   3.751   3.055
 6814SOL     OW21340   3.994   2.027   6.215
 6814SOL    HW121341   3.975   2.103   6.154
 6814SOL    HW221342   4.044   1.956   6.166
 6815SOL     OW21343   3.532   5.905   0.638
 6815SOL    HW121344   3.484   5.917   0.725
 6815SOL    HW221345   3.608   5.840   0.651
 6816SOL     OW21346   6.648   0.929   6.323
 6816SOL    HW121347   6.628   0.877   6.240
 6816SOL    HW221348   6.740   0.908   6.354
 6817SOL     OW21349   2.195   2.351   2.554
 6817SOL    HW121350   2.228   2.276   2.612
 6817SOL    HW221351   2.118   2.397   2.598
 6818SOL     OW21352   2.498   6.420   1.095
 6818SOL    HW121353   2.427   6.490   1.082
 6818SOL    HW221354   2.525   6.418   1.191
 6819SOL     OW21355   3.922   1.490   3.130
 6819SOL    HW121356   3.931   1.581   3.171
 6819SOL    HW221357   3.832   1.481   3.087
 6820SOL     OW21358   1.985   6.227   1.389
 6820SOL    HW121359   2.078   6.243   1.357
 6820SOL    HW221360   1.984   6.147   1.449
 6821SOL     OW21361   4.026   2.139   5.235
 6821SOL    HW121362   4.062   2.068   5.295
 6821SOL    HW221363   3.948   2.103   5.183
 6822SOL     OW21364   5.756   2.502   5.589
 6822SOL    HW121365   5.662   2.517   5.559
 6822SOL    HW221366   5.791   2.419   5.546
 6823SOL     OW21367   5.334   3.703   5.524
 6823SOL    HW121368   5.426   3.665   5.513
 6823SOL    HW221369   5.332   3.796   5.487
 6824SOL     OW21370   1.278   1.501   0.054
 6824SOL    HW121371   1.242   1.430   0.115
 6824SOL    HW221372   1.304   1.581   0.107
 6825SOL     OW21373   5.552   0.034   0.338
 6825SOL    HW121374   5.566   0.132   0.323
 6825SOL    HW221375   5.456   0.017   0.363
 6826SOL     OW21376   2.159   3.429   3.411
 6826SOL    HW121377   2.151   3.505   3.347
 6826SOL    HW221378   2.166   3.343   3.360
 6827SOL     OW21379   4.559   5.087   6.031
 6827SOL    HW121380   4.588   5.152   6.101
 6827SOL    HW221381   4.481   5.034   6.064
 6828SOL     OW21382   3.356   1.159   1.790
 6828SOL    HW121383   3.359   1.081   1.727
 6828SOL    HW221384   3.332   1.127   1.882
 6829SOL     OW21385   4.762   5.725   4.636
 6829SOL    HW121386   4.767   5.728   4.537
 6829SOL    HW221387   4.812   5.802   4.675
 6830SOL     OW21388   4.753   0.599   3.183
 6830SOL    HW121389   4.687   0.528   3.159
 6830SOL    HW221390   4.833   0.557   3.225
 6831SOL     OW21391   1.286   0.465   6.716
 6831SOL    HW121392   1.272   0.530   6.642
 6831SOL    HW221393   1.204   0.409   6.727
 6832SOL     OW21394   2.157   4.268   0.887
 6832SOL    HW121395   2.060   4.247   0.899
 6832SOL    HW221396   2.167   4.356   0.841
 6833SOL     OW21397   3.345   4.880   6.024
 6833SOL    HW121398   3.251   4.850   6.042
 6833SOL    HW221399   3.402   4.800   6.004
 6834SOL     OW21400   4.987   7.000   0.692
 6834SOL    HW121401   4.987   6.922   0.628
 6834SOL    HW221402   5.060   6.989   0.758
 6835SOL     OW21403   4.253   0.469   4.680
 6835SOL    HW121404   4.275   0.381   4.722
 6835SOL    HW221405   4.172   0.508   4.724
 6836SOL     OW21406   2.835   4.238   0.606
 6836SOL    HW121407   2.825   4.294   0.689
 6836SOL    HW221408   2.835   4.298   0.526
 6837SOL     OW21409   0.723   2.232   2.706
 6837SOL    HW121410   0.781   2.155   2.680
 6837SOL    HW221411   0.765   2.281   2.783
 6838SOL     OW21412   3.608   6.394   0.113
 6838SOL    HW121413   3.590   6.320   0.049
 6838SOL    HW221414   3.574   6.368   0.204
 6839SOL     OW21415   5.737   1.521   6.176
 6839SOL    HW121416   5.661   1.568   6.132
 6839SOL    HW221417   5.757   1.565   6.264
 6840SOL     OW21418   3.270   0.563   4.226
 6840SOL    HW121419   3.364   0.545   4.252
 6840SOL    HW221420   3.267   0.610   4.137
 6841SOL     OW21421   4.344   4.613   0.407
 6841SOL    HW121422   4.312   4.519   0.391
 6841SOL    HW221423   4.444   4.614   0.411
 6842SOL     OW21424   2.743   3.727   0.665
 6842SOL    HW121425   2.828   3.775   0.685
 6842SOL    HW221426   2.693   3.712   0.751
 6843SOL     OW21427   5.980   6.434   1.992
 6843SOL    HW121428   6.072   6.395   2.002
 6843SOL    HW221429   5.951   6.427   1.897
 6844SOL     OW21430   4.623   0.277   3.750
 6844SOL    HW121431   4.642   0.190   3.704
 6844SOL    HW221432   4.535   0.271   3.798
 6845SOL     OW21433   6.205   4.877   3.985
 6845SOL    HW121434   6.165   4.890   4.075
 6845SOL    HW221435   6.292   4.926   3.979
 6846SOL     OW21436   3.877   2.923   0.437
 6846SOL    HW121437   3.801   2.982   0.466
 6846SOL    HW221438   3.944   2.978   0.387
 6847SOL     OW21439   0.196   4.113   3.511
 6847SOL    HW121440   0.200   4.195   3.454
 6847SOL    HW221441   0.251   4.127   3.593
 6848SOL     OW21442   4.432   6.792   3.700
 6848SOL    HW121443   4.356   6.760   3.643
 6848SOL    HW221444   4.485   6.713   3.732
 6849SOL     OW21445   4.132   4.827   5.000
 6849SOL    HW121446   4.149   4.827   4.902
 6849SOL    HW221447   4.067   4.899   5.023
 6850SOL     OW21448   6.232   4.457   2.132
 6850SOL    HW121449   6.185   4.503   2.056
 6850SOL    HW221450   6.285   4.524   2.184
 6851SOL     OW21451   0.832   2.310   2.964
 6851SOL    HW121452   0.892   2.291   3.042
 6851SOL    HW221453   0.737   2.310   2.994
 6852SOL     OW21454   2.674   5.068   0.395
 6852SOL    HW121455   2.666   5.161   0.429
 6852SOL    HW221456   2.745   5.063   0.325
 6853SOL     OW21457   6.370   4.024   0.475
 6853SOL    HW121458   6.271   4.020   0.465
 6853SOL    HW221459   6.414   3.976   0.399
 6854SOL     OW21460   4.726   2.131   6.394
 6854SOL    HW121461   4.759   2.182   6.474
 6854SOL    HW221462   4.707   2.196   6.320
 6855SOL     OW21463   3.971   5.483   3.314
 6855SOL    HW121464   3.914   5.463   3.235
 6855SOL    HW221465   3.918   5.473   3.398
 6856SOL     OW21466   5.648   3.442   5.248
 6856SOL    HW121467   5.662   3.349   5.214
 6856SOL    HW221468   5.677   3.508   5.178
 6857SOL     OW21469   3.285   2.603   0.161
 6857SOL    HW121470   3.242   2.604   0.071
 6857SOL    HW221471   3.217   2.582   0.231
 6858SOL     OW21472   3.919   3.757   3.470
 6858SOL    HW121473   3.846   3.709   3.518
 6858SOL    HW221474   3.951   3.834   3.525
 6859SOL     OW21475   7.004   1.087   1.095
 6859SOL    HW121476   6.914   1.092   1.050
 6859SOL    HW221477   0.035   1.017   1.050
 6860SOL     OW21478   0.070   4.927   1.278
 6860SOL    HW121479   0.156   4.922   1.226
 6860SOL    HW221480   0.089   4.958   1.371
 6861SOL     OW21481   4.474   4.808   0.194
 6861SOL    HW121482   4.418   4.795   0.277
 6861SOL    HW221483   4.505   4.719   0.161
 6862SOL     OW21484   1.813   5.021   5.411
 6862SOL    HW121485   1.911   5.028   5.429
 6862SOL    HW221486   1.785   4.925   5.417
 6863SOL     OW21487   5.756   0.023   5.828
 6863SOL    HW121488   5.721   0.014   5.921
 6863SOL    HW221489   5.843   0.073   5.829
 6864SOL     OW21490   2.879   5.438   4.394
 6864SOL    HW121491   2.834   5.398   4.314
 6864SOL    HW221492   2.826   5.415   4.477
 6865SOL     OW21493   1.331   6.320   3.733
 6865SOL    HW121494   1.243   6.273   3.730
 6865SOL    HW221495   1.404   6.256   3.708
 6866SOL     OW21496   6.189   4.941   3.674
 6866SOL    HW121497   6.177   4.964   3.577
 6866SOL    HW221498   6.193   5.026   3.728
 6867SOL     OW21499   2.405   3.952   1.565
 6867SOL    HW121500   2.489   4.001   1.544
 6867SOL    HW221501   2.333   3.980   1.501
 6868SOL     OW21502   1.151   5.386   6.026
 6868SOL    HW121503   1.113   5.313   5.969
 6868SOL    HW221504   1.184   5.460   5.968
 6869SOL     OW21505   6.288   1.602   5.693
 6869SOL    HW121506   6.331   1.548   5.765
 6869SOL    HW221507   6.215   1.658   5.731
 6870SOL     OW21508   0.467   5.135   1.846
 6870SOL    HW121509   0.504   5.131   1.753
 6870SOL    HW221510   0.424   5.224   1.860
 6871SOL     OW21511   6.004   4.425   3.467
 6871SOL    HW121512   6.085   4.458   3.418
 6871SOL    HW221513   6.016   4.441   3.565
 6872SOL     OW21514   0.156   2.434   1.411
 6872SOL    HW121515   0.135   2.469   1.320
 6872SOL    HW221516   0.072   2.426   1.464
 6873SOL     OW21517   6.697   3.631   5.164
 6873SOL    HW121518   6.608   3.626   5.210
 6873SOL    HW221519   6.722   3.541   5.129
 6874SOL     OW21520   0.391   5.669   2.728
 6874SOL    HW121521   0.368   5.727   2.806
 6874SOL    HW221522   0.463   5.712   2.674
 6875SOL     OW21523   2.510   2.530   2.774
 6875SOL    HW121524   2.434   2.579   2.817
 6875SOL    HW221525   2.480   2.492   2.687
 6876SOL     OW21526   3.406   6.659   3.687
 6876SOL    HW121527   3.382   6.756   3.679
 6876SOL    HW221528   3.372   6.624   3.775
 6877SOL     OW21529   2.912   3.827   1.068
 6877SOL    HW121530   2.953   3.791   0.984
 6877SOL    HW221531   2.858   3.755   1.112
 6878SOL     OW21532   3.234   1.096   4.609
 6878SOL    HW121533   3.321   1.113   4.655
 6878SOL    HW221534   3.252   1.062   4.516
 6879SOL     OW21535   0.957   2.436   0.785
 6879SOL    HW121536   0.960   2.401   0.879
 6879SOL    HW221537   1.041   2.411   0.737
 6880SOL     OW21538   1.588   4.834   4.609
 6880SOL    HW121539   1.682   4.843   4.577
 6880SOL    HW221540   1.585   4.771   4.686
 6881SOL     OW21541   1.662   4.380   0.620
 6881SOL    HW121542   1.738   4.315   0.618
 6881SOL    HW221543   1.655   4.426   0.531
 6882SOL     OW21544   2.683   0.268   6.997
 6882SOL    HW121545   2.606   0.264   6.933
 6882SOL    HW221546   2.712   0.363   7.008
 6883SOL     OW21547   4.979   1.164   0.390
 6883SOL    HW121548   4.903   1.110   0.425
 6883SOL    HW221549   4.961   1.189   0.295
 6884SOL     OW21550   2.038   4.373   3.817
 6884SOL    HW121551   1.951   4.329   3.838
 6884SOL    HW221552   2.030   4.424   3.731
 6885SOL     OW21553   4.030   5.119   3.885
 6885SOL    HW121554   4.041   5.198   3.824
 6885SOL    HW221555   4.077   5.138   3.972
 6886SOL     OW21556   6.988   0.987   4.182
 6886SOL    HW121557   6.893   0.996   4.210
 6886SOL    HW221558   7.017   1.070   4.134
 6887SOL     OW21559   5.105   5.769   6.305
 6887SOL    HW121560   5.019   5.793   6.351
 6887SOL    HW221561   5.160   5.852   6.292
 6888SOL     OW21562   5.195   6.330   6.988
 6888SOL    HW121563   5.190   6.356   6.891
 6888SOL    HW221564   5.290   6.316   7.014
 6889SOL     OW21565   2.097   2.355   5.080
 6889SOL    HW121566   2.100   2.425   5.009
 6889SOL    HW221567   2.042   2.389   5.157
 6890SOL     OW21568   4.656   6.328   1.848
 6890SOL    HW121569   4.701   6.385   1.780
 6890SOL    HW221570   4.594   6.383   1.903
 6891SOL     OW21571   2.245   4.682   3.049
 6891SOL    HW121572   2.155   4.647   3.073
 6891SOL    HW221573   2.286   4.725   3.129
 6892SOL     OW21574   3.276   2.153   3.271
 6892SOL    HW121575   3.213   2.229   3.284
 6892SOL    HW221576   3.260   2.083   3.340
 6893SOL     OW21577   4.284   4.354   0.039
 6893SOL    HW121578   4.358   4.405   7.020
 6893SOL    HW221579   4.313   4.323   0.129
 6894SOL     OW21580   6.652   4.663   1.457
 6894SOL    HW121581   6.575   4.645   1.396
 6894SOL    HW221582   6.654   4.595   1.530
 6895SOL     OW21583   3.312   4.744   0.334
 6895SOL    HW121584   3.253   4.807   0.284
 6895SOL    HW221585   3.337   4.783   0.423
 6896SOL     OW21586   2.251   6.857   4.128
 6896SOL    HW121587   2.153   6.855   4.105
 6896SOL    HW221588   2.287   6.764   4.125
 6897SOL     OW21589   5.138   3.745   5.933
 6897SOL    HW121590   5.079   3.664   5.929
 6897SOL    HW221591   5.196   3.740   6.014
 6898SOL     OW21592   3.544   1.499   1.588
 6898SOL    HW121593   3.567   1.427   1.522
 6898SOL    HW221594   3.554   1.464   1.681
 6899SOL     OW21595   5.417   6.196   1.371
 6899SOL    HW121596   5.352   6.232   1.439
 6899SOL    HW221597   5.399   6.099   1.355
 6900SOL     OW21598   6.296   6.364   5.411
 6900SOL    HW121599   6.197   6.361   5.397
 6900SOL    HW221600   6.342   6.317   5.337
 6901SOL     OW21601   6.992   6.500   6.326
 6901SOL    HW121602   6.922   6.493   6.255
 6901SOL    HW221603   6.964   6.449   6.407
 6902SOL     OW21604   5.617   6.114   6.488
 6902SOL    HW121605   5.563   6.186   6.447
 6902SOL    HW221606   5.556   6.042   6.523
 6903SOL     OW21607   2.830   5.413   4.691
 6903SOL    HW121608   2.920   5.427   4.733
 6903SOL    HW221609   2.793   5.325   4.720
 6904SOL     OW21610   5.746   0.934   4.822
 6904SOL    HW121611   5.728   0.906   4.916
 6904SOL    HW221612   5.669   0.987   4.787
 6905SOL     OW21613   6.008   6.750   6.349
 6905SOL    HW121614   6.089   6.732   6.405
 6905SOL    HW221615   5.927   6.714   6.395
 6906SOL     OW21616   4.328   1.238   4.025
 6906SOL    HW121617   4.277   1.263   3.942
 6906SOL    HW221618   4.263   1.212   4.096
 6907SOL     OW21619   5.116   2.793   1.916
 6907SOL    HW121620   5.022   2.807   1.887
 6907SOL    HW221621   5.178   2.838   1.851
 6908SOL     OW21622   0.792   5.490   6.308
 6908SOL    HW121623   0.875   5.454   6.351
 6908SOL    HW221624   0.727   5.416   6.294
 6909SOL     OW21625   5.158   4.352   1.312
 6909SOL    HW121626   5.063   4.381   1.312
 6909SOL    HW221627   5.163   4.252   1.315
 6910SOL     OW21628   0.249   2.323   3.391
 6910SOL    HW121629   0.345   2.302   3.371
 6910SOL    HW221630   0.210   2.376   3.317
 6911SOL     OW21631   4.457   5.823   3.798
 6911SOL    HW121632   4.385   5.834   3.730
 6911SOL    HW221633   4.438   5.882   3.877
 6912SOL     OW21634   3.999   3.901   6.568
 6912SOL    HW121635   3.903   3.925   6.579
 6912SOL    HW221636   4.024   3.908   6.471
 6913SOL     OW21637   5.100   5.735   4.038
 6913SOL    HW121638   5.014   5.745   4.088
 6913SOL    HW221639   5.177   5.746   4.101
 6914SOL     OW21640   5.785   3.660   4.376
 6914SOL    HW121641   5.717   3.728   4.403
 6914SOL    HW221642   5.874   3.705   4.364
 6915SOL     OW21643   5.919   2.711   2.204
 6915SOL    HW121644   5.828   2.751   2.202
 6915SOL    HW221645   5.986   2.778   2.174
 6916SOL     OW21646   6.102   2.654   0.039
 6916SOL    HW121647   6.172   2.604   0.090
 6916SOL    HW221648   6.108   2.630   6.967
 6917SOL     OW21649   3.545   6.346   1.037
 6917SOL    HW121650   3.533   6.438   1.002
 6917SOL    HW221651   3.637   6.335   1.075
 6918SOL     OW21652   0.406   2.797   4.028
 6918SOL    HW121653   0.320   2.832   4.065
 6918SOL    HW221654   0.464   2.767   4.104
 6919SOL     OW21655   6.978   5.920   3.253
 6919SOL    HW121656   6.914   5.848   3.227
 6919SOL    HW221657   6.994   5.918   3.351
 6920SOL     OW21658   4.267   6.221   5.582
 6920SOL    HW121659   4.344   6.255   5.636
 6920SOL    HW221660   4.297   6.141   5.529
 6921SOL     OW21661   5.371   5.222   3.560
 6921SOL    HW121662   5.344   5.193   3.651
 6921SOL    HW221663   5.471   5.215   3.551
 6922SOL     OW21664   1.923   5.969   5.190
 6922SOL    HW121665   1.968   5.924   5.113
 6922SOL    HW221666   1.962   5.935   5.276
 6923SOL     OW21667   4.760   5.491   3.041
 6923SOL    HW121668   4.768   5.456   3.134
 6923SOL    HW221669   4.847   5.478   2.993
 6924SOL     OW21670   2.626   3.876   6.728
 6924SOL    HW121671   2.575   3.850   6.646
 6924SOL    HW221672   2.712   3.825   6.731
 6925SOL     OW21673   4.984   6.223   3.858
 6925SOL    HW121674   5.050   6.255   3.926
 6925SOL    HW221675   4.954   6.131   3.881
 6926SOL     OW21676   3.499   2.810   0.704
 6926SOL    HW121677   3.597   2.816   0.691
 6926SOL    HW221678   3.462   2.902   0.720
 6927SOL     OW21679   4.196   2.983   6.124
 6927SOL    HW121680   4.117   3.041   6.105
 6927SOL    HW221681   4.176   2.889   6.097
 6928SOL     OW21682   6.102   5.517   0.807
 6928SOL    HW121683   6.008   5.495   0.833
 6928SOL    HW221684   6.136   5.592   0.864
 6929SOL     OW21685   5.752   5.570   1.162
 6929SOL    HW121686   5.665   5.539   1.202
 6929SOL    HW221687   5.815   5.595   1.235
 6930SOL     OW21688   0.535   0.103   2.370
 6930SOL    HW121689   0.549   0.034   2.299
 6930SOL    HW221690   0.553   0.194   2.332
 6931SOL     OW21691   2.203   0.769   2.302
 6931SOL    HW121692   2.146   0.810   2.231
 6931SOL    HW221693   2.299   0.789   2.283
 6932SOL     OW21694   4.477   6.774   0.460
 6932SOL    HW121695   4.527   6.717   0.526
 6932SOL    HW221696   4.430   6.716   0.394
 6933SOL     OW21697   3.553   6.131   4.863
 6933SOL    HW121698   3.564   6.122   4.764
 6933SOL    HW221699   3.487   6.063   4.895
 6934SOL     OW21700   5.117   3.455   6.202
 6934SOL    HW121701   5.106   3.397   6.283
 6934SOL    HW221702   5.123   3.398   6.120
 6935SOL     OW21703   4.668   5.444   2.446
 6935SOL    HW121704   4.742   5.418   2.384
 6935SOL    HW221705   4.706   5.477   2.532
 6936SOL     OW21706   6.203   1.523   3.401
 6936SOL    HW121707   6.232   1.504   3.307
 6936SOL    HW221708   6.134   1.596   3.399
 6937SOL     OW21709   6.678   6.119   0.036
 6937SOL    HW121710   6.755   6.167   7.018
 6937SOL    HW221711   6.689   6.020   0.023
 6938SOL     OW21712   5.357   3.305   5.042
 6938SOL    HW121713   5.339   3.370   5.116
 6938SOL    HW221714   5.326   3.214   5.070
 6939SOL     OW21715   1.585   4.763   1.715
 6939SOL    HW121716   1.493   4.744   1.681
 6939SOL    HW221717   1.580   4.782   1.814
 6940SOL     OW21718   4.173   0.331   6.548
 6940SOL    HW121719   4.255   0.385   6.532
 6940SOL    HW221720   4.182   0.243   6.500
 6941SOL     OW21721   3.383   3.782   1.760
 6941SOL    HW121722   3.456   3.716   1.781
 6941SOL    HW221723   3.395   3.864   1.816
 6942SOL     OW21724   5.641   0.120   1.089
 6942SOL    HW121725   5.684   0.205   1.058
 6942SOL    HW221726   5.649   0.113   1.189
 6943SOL     OW21727   3.826   5.680   0.250
 6943SOL    HW121728   3.845   5.584   0.229
 6943SOL    HW221729   3.742   5.708   0.204
 6944SOL     OW21730   0.740   4.173   6.404
 6944SOL    HW121731   0.666   4.174   6.336
 6944SOL    HW221732   0.723   4.101   6.471
 6945SOL     OW21733   6.058   0.980   6.883
 6945SOL    HW121734   6.127   0.912   6.908
 6945SOL    HW221735   6.080   1.019   6.794
 6946SOL     OW21736   5.367   6.450   0.874
 6946SOL    HW121737   5.337   6.387   0.802
 6946SOL    HW221738   5.365   6.403   0.962
 6947SOL     OW21739   3.436   6.071   6.452
 6947SOL    HW121740   3.357   6.050   6.394
 6947SOL    HW221741   3.405   6.127   6.529
 6948SOL     OW21742   0.549   0.081   1.095
 6948SOL    HW121743   0.627   0.133   1.061
 6948SOL    HW221744   0.466   0.136   1.084
 6949SOL     OW21745   3.887   6.999   3.047
 6949SOL    HW121746   3.956   0.048   3.040
 6949SOL    HW221747   3.802   0.013   3.082
 6950SOL     OW21748   1.957   2.104   5.031
 6950SOL    HW121749   2.025   2.069   4.967
 6950SOL    HW221750   1.970   2.203   5.042
 6951SOL     OW21751   6.448   5.783   6.195
 6951SOL    HW121752   6.372   5.800   6.259
 6951SOL    HW221753   6.472   5.686   6.199
 6952SOL     OW21754   0.965   6.356   3.108
 6952SOL    HW121755   1.013   6.315   3.030
 6952SOL    HW221756   0.926   6.283   3.165
 6953SOL     OW21757   4.429   6.673   0.902
 6953SOL    HW121758   4.498   6.742   0.923
 6953SOL    HW221759   4.338   6.708   0.927
 6954SOL     OW21760   6.921   3.584   2.914
 6954SOL    HW121761   6.963   3.495   2.899
 6954SOL    HW221762   6.945   3.618   3.005
 6955SOL     OW21763   6.208   0.269   2.461
 6955SOL    HW121764   6.140   0.221   2.406
 6955SOL    HW221765   6.236   0.212   2.538
 6956SOL     OW21766   5.720   5.753   3.738
 6956SOL    HW121767   5.621   5.746   3.720
 6956SOL    HW221768   5.757   5.662   3.755
 6957SOL     OW21769   6.625   5.213   0.916
 6957SOL    HW121770   6.569   5.221   0.998
 6957SOL    HW221771   6.617   5.121   0.878
 6958SOL     OW21772   3.492   2.926   4.307
 6958SOL    HW121773   3.578   2.948   4.261
 6958SOL    HW221774   3.422   2.904   4.239
 6959SOL     OW21775   1.718   2.279   4.315
 6959SOL    HW121776   1.771   2.200   4.345
 6959SOL    HW221777   1.664   2.254   4.234
 6960SOL     OW21778   2.685   4.287   1.315
 6960SOL    HW121779   2.737   4.372   1.319
 6960SOL    HW221780   2.679   4.256   1.220
 6961SOL     OW21781   6.111   1.712   3.771
 6961SOL    HW121782   6.141   1.805   3.753
 6961SOL    HW221783   6.110   1.696   3.870
 6962SOL     OW21784   5.124   6.315   1.767
 6962SOL    HW121785   5.055   6.349   1.831
 6962SOL    HW221786   5.158   6.227   1.799
 6963SOL     OW21787   5.258   5.976   1.058
 6963SOL    HW121788   5.178   6.012   1.106
 6963SOL    HW221789   5.240   5.883   1.026
 6964SOL     OW21790   3.204   1.127   5.114
 6964SOL    HW121791   3.259   1.070   5.053
 6964SOL    HW221792   3.110   1.131   5.080
 6965SOL     OW21793   0.793   1.660   0.741
 6965SOL    HW121794   0.888   1.671   0.771
 6965SOL    HW221795   0.782   1.697   0.649
 6966SOL     OW21796   0.824   2.256   3.370
 6966SOL    HW121797   0.889   2.244   3.295
 6966SOL    HW221798   0.732   2.237   3.338
 6967SOL     OW21799   2.531   1.073   5.502
 6967SOL    HW121800   2.542   1.046   5.598
 6967SOL    HW221801   2.513   0.992   5.447
 6968SOL     OW21802   3.937   6.734   2.912
 6968SOL    HW121803   3.933   6.822   2.959
 6968SOL    HW221804   4.032   6.710   2.893
 6969SOL     OW21805   3.528   2.508   1.314
 6969SOL    HW121806   3.613   2.463   1.339
 6969SOL    HW221807   3.514   2.588   1.373
 6970SOL     OW21808   4.299   4.165   5.330
 6970SOL    HW121809   4.352   4.086   5.301
 6970SOL    HW221810   4.279   4.223   5.251
 6971SOL     OW21811   6.750   4.198   1.994
 6971SOL    HW121812   6.836   4.199   1.942
 6971SOL    HW221813   6.673   4.184   1.931
 6972SOL     OW21814   5.281   4.348   3.078
 6972SOL    HW121815   5.379   4.350   3.059
 6972SOL    HW221816   5.237   4.429   3.039
 6973SOL     OW21817   1.088   2.792   4.041
 6973SOL    HW121818   1.000   2.746   4.031
 6973SOL    HW221819   1.151   2.733   4.092
 6974SOL     OW21820   3.023   3.790   3.020
 6974SOL    HW121821   2.976   3.715   3.065
 6974SOL    HW221822   3.019   3.777   2.921
 6975SOL     OW21823   1.952   6.361   6.496
 6975SOL    HW121824   2.025   6.415   6.537
 6975SOL    HW221825   1.991   6.293   6.435
 6976SOL     OW21826   5.025   5.525   4.990
 6976SOL    HW121827   5.047   5.449   5.051
 6976SOL    HW221828   4.962   5.494   4.919
 6977SOL     OW21829   3.878   2.836   1.817
 6977SOL    HW121830   3.856   2.738   1.808
 6977SOL    HW221831   3.822   2.875   1.891
 6978SOL     OW21832   5.586   1.420   2.199
 6978SOL    HW121833   5.627   1.489   2.259
 6978SOL    HW221834   5.535   1.466   2.126
 6979SOL     OW21835   0.774   4.393   0.924
 6979SOL    HW121836   0.832   4.385   1.005
 6979SOL    HW221837   0.680   4.370   0.949
 6980SOL     OW21838   1.786   0.524   4.224
 6980SOL    HW121839   1.691   0.535   4.195
 6980SOL    HW221840   1.846   0.570   4.159
 6981SOL     OW21841   3.580   2.862   5.741
 6981SOL    HW121842   3.619   2.882   5.831
 6981SOL    HW221843   3.635   2.904   5.670
 6982SOL     OW21844   1.366   0.393   5.077
 6982SOL    HW121845   1.420   0.477   5.079
 6982SOL    HW221846   1.275   0.413   5.040
 6983SOL     OW21847   3.525   2.106   3.648
 6983SOL    HW121848   3.494   2.079   3.557
 6983SOL    HW221849   3.446   2.133   3.704
 6984SOL     OW21850   2.300   2.121   3.281
 6984SOL    HW121851   2.335   2.068   3.205
 6984SOL    HW221852   2.346   2.211   3.283
 6985SOL     OW21853   6.147   5.415   1.391
 6985SOL    HW121854   6.220   5.473   1.358
 6985SOL    HW221855   6.118   5.352   1.319
 6986SOL     OW21856   2.293   0.287   5.557
 6986SOL    HW121857   2.353   0.359   5.522
 6986SOL    HW221858   2.227   0.327   5.621
 6987SOL     OW21859   6.064   1.040   6.262
 6987SOL    HW121860   6.161   1.065   6.258
 6987SOL    HW221861   6.055   0.944   6.290
 6988SOL     OW21862   0.639   0.619   5.410
 6988SOL    HW121863   0.711   0.675   5.451
 6988SOL    HW221864   0.597   0.670   5.334
 6989SOL     OW21865   1.013   3.809   3.263
 6989SOL    HW121866   0.928   3.819   3.211
 6989SOL    HW221867   1.002   3.739   3.333
 6990SOL     OW21868   4.878   2.344   1.195
 6990SOL    HW121869   4.864   2.438   1.227
 6990SOL    HW221870   4.791   2.307   1.162
 6991SOL     OW21871   3.995   4.843   2.930
 6991SOL    HW121872   4.085   4.845   2.887
 6991SOL    HW221873   3.931   4.897   2.876
 6992SOL     OW21874   5.304   6.698   6.510
 6992SOL    HW121875   5.364   6.768   6.550
 6992SOL    HW221876   5.209   6.726   6.521
 6993SOL     OW21877   5.257   0.423   2.977
 6993SOL    HW121878   5.218   0.478   3.052
 6993SOL    HW221879   5.324   0.477   2.928
 6994SOL     OW21880   7.000   2.153   4.229
 6994SOL    HW121881   0.037   2.229   4.251
 6994SOL    HW221882   6.932   2.143   4.302
 6995SOL     OW21883   6.944   4.664   6.225
 6995SOL    HW121884   6.950   4.593   6.154
 6995SOL    HW221885   7.008   4.738   6.204
 6996SOL     OW21886   1.457   6.763   6.998
 6996SOL    HW121887   1.384   6.832   7.008
 6996SOL    HW221888   1.420   6.672   7.018
 6997SOL     OW21889   6.879   5.958   5.153
 6997SOL    HW121890   6.904   6.045   5.194
 6997SOL    HW221891   6.914   5.955   5.059
 6998SOL     OW21892   2.004   0.991   1.579
 6998SOL    HW121893   1.922   0.941   1.549
 6998SOL    HW221894   2.046   0.943   1.656
 6999SOL     OW21895   2.512   2.049   0.051
 6999SOL    HW121896   2.468   2.095   6.998
 6999SOL    HW221897   2.610   2.046   0.036
 7000SOL     OW21898   4.582   6.917   0.853
 7000SOL    HW121899   4.513   6.974   0.895
 7000SOL    HW221900   4.601   6.949   0.760
 7001SOL     OW21901   1.454   3.283   5.530
 7001SOL    HW121902   1.383   3.253   5.466
 7001SOL    HW221903   1.504   3.203   5.565
 7002SOL     OW21904   1.730   5.454   3.814
 7002SOL    HW121905   1.768   5.442   3.722
 7002SOL    HW221906   1.638   5.414   3.817
 7003SOL     OW21907   3.840   5.009   0.496
 7003SOL    HW121908   3.888   5.077   0.441
 7003SOL    HW221909   3.872   4.918   0.472
 7004SOL     OW21910   1.459   5.205   2.305
 7004SOL    HW121911   1.387   5.274   2.304
 7004SOL    HW221912   1.419   5.115   2.323
 7005SOL     OW21913   1.415   0.197   0.790
 7005SOL    HW121914   1.356   0.218   0.711
 7005SOL    HW221915   1.435   0.281   0.839
 7006SOL     OW21916   5.090   4.877   4.127
 7006SOL    HW121917   5.066   4.855   4.222
 7006SOL    HW221918   5.075   4.797   4.069
 7007SOL     OW21919   3.962   1.068   3.801
 7007SOL    HW121920   3.955   0.978   3.758
 7007SOL    HW221921   4.037   1.119   3.759
 7008SOL     OW21922   0.525   3.844   4.803
 7008SOL    HW121923   0.462   3.806   4.871
 7008SOL    HW221924   0.482   3.842   4.713
 7009SOL     OW21925   5.752   5.782   2.414
 7009SOL    HW121926   5.659   5.756   2.386
 7009SOL    HW221927   5.749   5.870   2.461
 7010SOL     OW21928   5.388   4.138   4.001
 7010SOL    HW121929   5.340   4.201   4.063
 7010SOL    HW221930   5.478   4.116   4.039
 7011SOL     OW21931   3.074   6.786   6.729
 7011SOL    HW121932   2.975   6.776   6.725
 7011SOL    HW221933   3.108   6.751   6.816
 7012SOL     OW21934   0.139   1.887   1.655
 7012SOL    HW121935   0.238   1.895   1.646
 7012SOL    HW221936   0.114   1.791   1.660
 7013SOL     OW21937   0.305   0.390   0.621
 7013SOL    HW121938   0.309   0.458   0.547
 7013SOL    HW221939   0.391   0.392   0.672
 7014SOL     OW21940   4.528   3.375   1.260
 7014SOL    HW121941   4.607   3.433   1.239
 7014SOL    HW221942   4.530   3.294   1.201
 7015SOL     OW21943   6.337   4.552   1.734
 7015SOL    HW121944   6.245   4.574   1.766
 7015SOL    HW221945   6.331   4.490   1.655
 7016SOL     OW21946   3.292   4.778   1.354
 7016SOL    HW121947   3.243   4.862   1.376
 7016SOL    HW221948   3.371   4.769   1.414
 7017SOL     OW21949   2.217   5.105   2.819
 7017SOL    HW121950   2.279   5.127   2.744
 7017SOL    HW221951   2.177   5.014   2.805
 7018SOL     OW21952   5.608   3.378   4.068
 7018SOL    HW121953   5.583   3.419   4.155
 7018SOL    HW221954   5.576   3.284   4.065
 7019SOL     OW21955   3.836   4.114   0.203
 7019SOL    HW121956   3.824   4.043   0.134
 7019SOL    HW221957   3.922   4.161   0.188
 7020SOL     OW21958   6.493   5.024   6.577
 7020SOL    HW121959   6.418   5.090   6.585
 7020SOL    HW221960   6.532   5.008   6.667
 7021SOL     OW21961   1.557   2.183   5.921
 7021SOL    HW121962   1.476   2.142   5.964
 7021SOL    HW221963   1.550   2.283   5.927
 7022SOL     OW21964   4.677   6.503   5.725
 7022SOL    HW121965   4.698   6.550   5.639
 7022SOL    HW221966   4.586   6.461   5.719
 7023SOL     OW21967   6.976   2.511   3.549
 7023SOL    HW121968   6.944   2.584   3.609
 7023SOL    HW221969   0.015   2.452   3.599
 7024SOL     OW21970   2.960   3.832   5.186
 7024SOL    HW121971   2.995   3.750   5.233
 7024SOL    HW221972   2.877   3.863   5.231
 7025SOL     OW21973   3.266   0.710   0.714
 7025SOL    HW121974   3.288   0.804   0.688
 7025SOL    HW221975   3.289   0.695   0.810
 7026SOL     OW21976   3.167   1.915   2.302
 7026SOL    HW121977   3.194   1.883   2.211
 7026SOL    HW221978   3.241   1.969   2.341
 7027SOL     OW21979   2.732   5.464   4.125
 7027SOL    HW121980   2.648   5.487   4.076
 7027SOL    HW221981   2.711   5.455   4.223
 7028SOL     OW21982   3.044   2.222   3.952
 7028SOL    HW121983   3.075   2.220   4.047
 7028SOL    HW221984   2.974   2.152   3.938
 7029SOL     OW21985   4.988   4.787   5.094
 7029SOL    HW121986   4.964   4.847   5.017
 7029SOL    HW221987   5.088   4.788   5.106
 7030SOL     OW21988   1.135   0.395   4.921
 7030SOL    HW121989   1.100   0.486   4.896
 7030SOL    HW221990   1.058   0.338   4.951
 7031SOL     OW21991   3.822   5.818   5.781
 7031SOL    HW121992   3.827   5.903   5.729
 7031SOL    HW221993   3.876   5.826   5.865
 7032SOL     OW21994   3.944   1.504   3.889
 7032SOL    HW121995   3.923   1.492   3.791
 7032SOL    HW221996   4.011   1.435   3.917
 7033SOL     OW21997   1.577   2.143   3.519
 7033SOL    HW121998   1.519   2.201   3.460
 7033SOL    HW221999   1.521   2.105   3.592
 7034SOL     OW22000   6.474   0.673   3.392
 7034SOL    HW122001   6.527   0.595   3.426
 7034SOL    HW222002   6.429   0.718   3.469
 7035SOL     OW22003   1.451   6.770   0.613
 7035SOL    HW122004   1.535   6.728   0.578
 7035SOL    HW222005   1.467   6.807   0.704
 7036SOL     OW22006   6.938   0.188   3.053
 7036SOL    HW122007   6.902   0.098   3.028
 7036SOL    HW222008   6.971   0.185   3.147
 7037SOL     OW22009   1.596   1.277   6.553
 7037SOL    HW122010   1.621   1.363   6.598
 7037SOL    HW222011   1.614   1.284   6.455
 7038SOL     OW22012   2.464   3.192   5.382
 7038SOL    HW122013   2.470   3.142   5.296
 7038SOL    HW222014   2.411   3.276   5.367
 7039SOL     OW22015   2.143   5.212   2.018
 7039SOL    HW122016   2.066   5.160   1.981
 7039SOL    HW222017   2.172   5.171   2.105
 7040SOL     OW22018   5.517   2.156   5.860
 7040SOL    HW122019   5.489   2.061   5.869
 7040SOL    HW222020   5.503   2.203   5.948
 7041SOL     OW22021   6.051   1.104   1.812
 7041SOL    HW122022   6.130   1.064   1.765
 7041SOL    HW222023   6.006   1.170   1.752
 7042SOL     OW22024   4.356   4.913   5.197
 7042SOL    HW122025   4.291   4.837   5.199
 7042SOL    HW222026   4.324   4.984   5.135
 7043SOL     OW22027   2.479   4.492   2.511
 7043SOL    HW122028   2.452   4.415   2.570
 7043SOL    HW222029   2.511   4.568   2.568
 7044SOL     OW22030   5.492   5.147   4.524
 7044SOL    HW122031   5.549   5.066   4.535
 7044SOL    HW222032   5.411   5.139   4.582
 7045SOL     OW22033   4.955   5.589   3.403
 7045SOL    HW122034   4.906   5.563   3.320
 7045SOL    HW222035   5.051   5.560   3.396
 7046SOL     OW22036   2.809   1.052   3.365
 7046SOL    HW122037   2.759   0.977   3.322
 7046SOL    HW222038   2.746   1.126   3.386
 7047SOL     OW22039   6.190   1.164   2.349
 7047SOL    HW122040   6.256   1.107   2.398
 7047SOL    HW222041   6.216   1.260   2.359
 7048SOL     OW22042   5.230   0.126   3.452
 7048SOL    HW122043   5.190   0.157   3.366
 7048SOL    HW222044   5.196   0.182   3.528
 7049SOL     OW22045   3.320   1.724   0.562
 7049SOL    HW122046   3.416   1.722   0.587
 7049SOL    HW222047   3.288   1.630   0.547
 7050SOL     OW22048   4.287   3.644   1.792
 7050SOL    HW122049   4.255   3.614   1.881
 7050SOL    HW222050   4.342   3.572   1.750
 7051SOL     OW22051   6.221   6.501   0.876
 7051SOL    HW122052   6.254   6.545   0.959
 7051SOL    HW222053   6.124   6.521   0.864
 7052SOL     OW22054   6.026   1.731   3.403
 7052SOL    HW122055   6.043   1.827   3.427
 7052SOL    HW222056   5.943   1.723   3.348
 7053SOL     OW22057   1.754   3.008   5.458
 7053SOL    HW122058   1.832   2.947   5.452
 7053SOL    HW222059   1.677   2.960   5.501
 7054SOL     OW22060   6.771   6.955   0.363
 7054SOL    HW122061   6.806   6.863   0.379
 7054SOL    HW222062   6.783   7.011   0.445
 7055SOL     OW22063   2.809   6.684   6.281
 7055SOL    HW122064   2.798   6.780   6.307
 7055SOL    HW222065   2.756   6.666   6.198
 7056SOL     OW22066   0.361   4.532   1.708
 7056SOL    HW122067   0.443   4.475   1.716
 7056SOL    HW222068   0.331   4.560   1.799
 7057SOL     OW22069   2.570   4.627   4.433
 7057SOL    HW122070   2.510   4.706   4.426
 7057SOL    HW222071   2.627   4.621   4.350
 7058SOL     OW22072   5.619   4.324   5.475
 7058SOL    HW122073   5.578   4.309   5.565
 7058SOL    HW222074   5.704   4.272   5.468
 7059SOL     OW22075   0.513   1.482   3.817
 7059SOL    HW122076   0.578   1.454   3.747
 7059SOL    HW222077   0.497   1.407   3.881
 7060SOL     OW22078   3.529   0.159   1.584
 7060SOL    HW122079   3.613   0.162   1.638
 7060SOL    HW222080   3.537   0.088   1.514
 7061SOL     OW22081   0.061   3.258   3.773
 7061SOL    HW122082   7.013   3.278   3.708
 7061SOL    HW222083   0.142   3.225   3.725
 7062SOL     OW22084   3.818   1.305   5.687
 7062SOL    HW122085   3.821   1.240   5.611
 7062SOL    HW222086   3.891   1.373   5.675
 7063SOL     OW22087   1.227   6.763   2.202
 7063SOL    HW122088   1.260   6.673   2.231
 7063SOL    HW222089   1.224   6.825   2.281
 7064SOL     OW22090   4.102   2.139   0.263
 7064SOL    HW122091   4.123   2.182   0.175
 7064SOL    HW222092   4.004   2.145   0.280
 7065SOL     OW22093   5.274   3.672   6.165
 7065SOL    HW122094   5.202   3.607   6.189
 7065SOL    HW222095   5.357   3.622   6.140
 7066SOL     OW22096   4.443   6.946   0.173
 7066SOL    HW122097   4.376   6.876   0.196
 7066SOL    HW222098   4.416   0.009   0.214
 7067SOL     OW22099   1.743   3.002   5.876
 7067SOL    HW122100   1.674   3.019   5.806
 7067SOL    HW222101   1.806   3.079   5.881
 7068SOL     OW22102   6.438   4.604   4.678
 7068SOL    HW122103   6.512   4.549   4.641
 7068SOL    HW222104   6.462   4.636   4.770
 7069SOL     OW22105   5.712   2.376   4.495
 7069SOL    HW122106   5.622   2.382   4.454
 7069SOL    HW222107   5.751   2.286   4.476
 7070SOL     OW22108   0.131   7.020   4.852
 7070SOL    HW122109   0.137   0.017   4.754
 7070SOL    HW222110   0.088   0.072   4.900
 7071SOL     OW22111   3.401   5.764   5.481
 7071SOL    HW122112   3.438   5.765   5.388
 7071SOL    HW222113   3.385   5.669   5.509
 7072SOL     OW22114   1.303   6.310   0.196
 7072SOL    HW122115   1.261   6.288   0.108
 7072SOL    HW222116   1.242   6.370   0.248
 7073SOL     OW22117   5.466   0.050   3.800
 7073SOL    HW122118   5.433   0.126   3.744
 7073SOL    HW222119   5.478   0.082   3.895
 7074SOL     OW22120   5.420   2.549   2.048
 7074SOL    HW122121   5.451   2.492   1.973
 7074SOL    HW222122   5.427   2.498   2.134
 7075SOL     OW22123   1.980   4.477   5.011
 7075SOL    HW122124   1.940   4.414   4.945
 7075SOL    HW222125   2.022   4.426   5.086
 7076SOL     OW22126   5.569   2.801   6.774
 7076SOL    HW122127   5.531   2.892   6.786
 7076SOL    HW222128   5.668   2.807   6.763
 7077SOL     OW22129   2.079   4.795   3.764
 7077SOL    HW122130   1.988   4.779   3.726
 7077SOL    HW222131   2.111   4.713   3.810
 7078SOL     OW22132   6.503   6.480   2.062
 7078SOL    HW122133   6.463   6.392   2.088
 7078SOL    HW222134   6.594   6.488   2.103
 7079SOL     OW22135   0.300   6.590   4.726
 7079SOL    HW122136   0.241   6.601   4.646
 7079SOL    HW222137   0.389   6.554   4.698
 7080SOL     OW22138   3.720   0.955   4.934
 7080SOL    HW122139   3.684   0.937   5.026
 7080SOL    HW222140   3.761   1.046   4.932
 7081SOL     OW22141   1.837   6.141   0.010
 7081SOL    HW122142   1.786   6.059   0.036
 7081SOL    HW222143   1.777   6.221   0.018
 7082SOL     OW22144   6.667   4.536   0.077
 7082SOL    HW122145   6.678   4.467   0.148
 7082SOL    HW222146   6.720   4.511   7.021
 7083SOL     OW22147   1.240   0.226   1.455
 7083SOL    HW122148   1.316   0.288   1.474
 7083SOL    HW222149   1.235   0.209   1.357
 7084SOL     OW22150   0.463   5.080   5.316
 7084SOL    HW122151   0.460   4.982   5.298
 7084SOL    HW222152   0.543   5.120   5.272
 7085SOL     OW22153   0.351   1.437   2.359
 7085SOL    HW122154   0.323   1.432   2.263
 7085SOL    HW222155   0.282   1.391   2.415
 7086SOL     OW22156   6.159   0.137   6.064
 7086SOL    HW122157   6.111   0.076   6.001
 7086SOL    HW222158   6.257   0.117   6.061
 7087SOL     OW22159   6.282   4.036   3.738
 7087SOL    HW122160   6.273   3.951   3.790
 7087SOL    HW222161   6.307   4.110   3.800
 7088SOL     OW22162   5.135   2.671   3.914
 7088SOL    HW122163   5.189   2.605   3.966
 7088SOL    HW222164   5.157   2.764   3.945
 7089SOL     OW22165   2.686   2.377   4.619
 7089SOL    HW122166   2.600   2.355   4.573
 7089SOL    HW222167   2.759   2.317   4.585
 7090SOL     OW22168   1.870   0.770   6.941
 7090SOL    HW122169   1.823   0.806   6.860
 7090SOL    HW222170   1.960   0.736   6.914
 7091SOL     OW22171   0.389   2.143   1.083
 7091SOL    HW122172   0.369   2.174   1.176
 7091SOL    HW222173   0.422   2.220   1.029
 7092SOL     OW22174   4.148   2.947   5.641
 7092SOL    HW122175   4.074   3.009   5.666
 7092SOL    HW222176   4.127   2.902   5.554
 7093SOL     OW22177   3.523   3.687   2.076
 7093SOL    HW122178   3.567   3.777   2.080
 7093SOL    HW222179   3.477   3.669   2.163
 7094SOL     OW22180   0.094   6.090   5.837
 7094SOL    HW122181   0.168   6.127   5.781
 7094SOL    HW222182   0.094   5.990   5.830
 7095SOL     OW22183   3.717   4.726   5.776
 7095SOL    HW122184   3.670   4.637   5.771
 7095SOL    HW222185   3.772   4.739   5.694
 7096SOL     OW22186   6.578   1.228   2.537
 7096SOL    HW122187   6.598   1.146   2.483
 7096SOL    HW222188   6.558   1.304   2.475
 7097SOL     OW22189   4.607   1.354   1.445
 7097SOL    HW122190   4.583   1.322   1.353
 7097SOL    HW222191   4.532   1.410   1.481
 7098SOL     OW22192   2.316   5.399   5.548
 7098SOL    HW122193   2.370   5.476   5.513
 7098SOL    HW222194   2.223   5.403   5.511
 7099SOL     OW22195   3.900   1.304   5.201
 7099SOL    HW122196   3.974   1.364   5.173
 7099SOL    HW222197   3.812   1.350   5.189
 7100SOL     OW22198   6.873   3.437   0.146
 7100SOL    HW122199   6.832   3.525   0.121
 7100SOL    HW222200   6.908   3.442   0.240
 7101SOL     OW22201   2.463   1.869   5.545
 7101SOL    HW122202   2.554   1.895   5.514
 7101SOL    HW222203   2.405   1.950   5.553
 7102SOL     OW22204   4.941   6.988   1.029
 7102SOL    HW122205   4.938   6.966   1.127
 7102SOL    HW222206   4.985   0.053   1.016
 7103SOL     OW22207   5.351   5.302   2.066
 7103SOL    HW122208   5.272   5.278   2.009
 7103SOL    HW222209   5.356   5.239   2.143
 7104SOL     OW22210   6.691   3.907   2.835
 7104SOL    HW122211   6.655   3.941   2.922
 7104SOL    HW222212   6.646   3.953   2.760
 7105SOL     OW22213   2.806   3.344   5.399
 7105SOL    HW122214   2.888   3.362   5.344
 7105SOL    HW222215   2.796   3.245   5.412
 7106SOL     OW22216   3.766   3.367   1.841
 7106SOL    HW122217   3.794   3.350   1.746
 7106SOL    HW222218   3.778   3.464   1.862
 7107SOL     OW22219   5.241   0.748   0.580
 7107SOL    HW122220   5.318   0.773   0.521
 7107SOL    HW222221   5.171   0.702   0.525
 7108SOL     OW22222   3.053   6.139   2.713
 7108SOL    HW122223   2.975   6.104   2.661
 7108SOL    HW222224   3.038   6.235   2.734
 7109SOL     OW22225   1.980   6.947   5.728
 7109SOL    HW122226   2.009   0.002   5.781
 7109SOL    HW222227   2.056   6.915   5.671
 7110SOL     OW22228   2.527   5.772   4.272
 7110SOL    HW122229   2.484   5.804   4.187
 7110SOL    HW222230   2.625   5.763   4.259
 7111SOL     OW22231   0.907   2.841   5.121
 7111SOL    HW122232   0.940   2.760   5.072
 7111SOL    HW222233   0.884   2.912   5.055
 7112SOL     OW22234   2.118   4.979   4.465
 7112SOL    HW122235   2.067   4.977   4.550
 7112SOL    HW222236   2.092   5.060   4.412
 7113SOL     OW22237   3.234   4.130   4.505
 7113SOL    HW122238   3.136   4.146   4.517
 7113SOL    HW222239   3.260   4.150   4.411
 7114SOL     OW22240   5.437   5.623   0.391
 7114SOL    HW122241   5.407   5.546   0.448
 7114SOL    HW222242   5.471   5.696   0.449
 7115SOL     OW22243   5.235   3.069   6.857
 7115SOL    HW122244   5.332   3.080   6.879
 7115SOL    HW222245   5.215   2.972   6.842
 7116SOL     OW22246   5.860   4.658   3.300
 7116SOL    HW122247   5.951   4.632   3.332
 7116SOL    HW222248   5.818   4.582   3.252
 7117SOL     OW22249   0.922   6.358   4.544
 7117SOL    HW122250   0.983   6.322   4.473
 7117SOL    HW222251   0.828   6.329   4.525
 7118SOL     OW22252   2.987   5.118   6.355
 7118SOL    HW122253   2.951   5.087   6.267
 7118SOL    HW222254   2.951   5.209   6.376
 7119SOL     OW22255   4.991   1.476   4.288
 7119SOL    HW122256   4.908   1.434   4.326
 7119SOL    HW222257   4.987   1.575   4.301
 7120SOL     OW22258   3.207   2.064   2.014
 7120SOL    HW122259   3.117   2.107   2.022
 7120SOL    HW222260   3.267   2.099   2.085
 7121SOL     OW22261   0.369   0.047   3.795
 7121SOL    HW122262   0.439   0.056   3.865
 7121SOL    HW222263   0.403   0.082   3.708
 7122SOL     OW22264   1.875   0.787   6.045
 7122SOL    HW122265   1.971   0.766   6.059
 7122SOL    HW222266   1.837   0.825   6.130
 7123SOL     OW22267   1.395   4.631   3.621
 7123SOL    HW122268   1.410   4.601   3.715
 7123SOL    HW222269   1.479   4.621   3.569
 7124SOL     OW22270   0.137   1.690   1.152
 7124SOL    HW122271   0.191   1.771   1.129
 7124SOL    HW222272   0.148   1.620   1.081
 7125SOL     OW22273   0.758   0.223   1.010
 7125SOL    HW122274   0.844   0.192   0.969
 7125SOL    HW222275   0.752   0.323   1.001
 7126SOL     OW22276   3.546   5.083   0.187
 7126SOL    HW122277   3.569   5.036   0.272
 7126SOL    HW222278   3.458   5.128   0.196
 7127SOL     OW22279   2.115   5.488   6.302
 7127SOL    HW122280   2.164   5.401   6.310
 7127SOL    HW222281   2.020   5.470   6.275
 7128SOL     OW22282   3.212   4.042   6.491
 7128SOL    HW122283   3.122   3.998   6.488
 7128SOL    HW222284   3.246   4.055   6.398
 7129SOL     OW22285   2.633   1.258   0.398
 7129SOL    HW122286   2.583   1.174   0.419
 7129SOL    HW222287   2.569   1.330   0.374
 7130SOL     OW22288   3.669   5.764   4.198
 7130SOL    HW122289   3.663   5.862   4.215
 7130SOL    HW222290   3.593   5.736   4.139
 7131SOL     OW22291   2.510   0.833   1.523
 7131SOL    HW122292   2.600   0.823   1.566
 7131SOL    HW222293   2.477   0.927   1.538
 7132SOL     OW22294   3.478   3.881   0.524
 7132SOL    HW122295   3.490   3.783   0.543
 7132SOL    HW222296   3.563   3.919   0.489
 7133SOL     OW22297   4.310   4.886   5.542
 7133SOL    HW122298   4.377   4.904   5.614
 7133SOL    HW222299   4.356   4.850   5.461
 7134SOL     OW22300   4.676   6.944   1.531
 7134SOL    HW122301   4.696   0.012   1.565
 7134SOL    HW222302   4.582   6.920   1.552
 7135SOL     OW22303   1.416   2.475   3.325
 7135SOL    HW122304   1.421   2.565   3.368
 7135SOL    HW222305   1.485   2.469   3.252
 7136SOL     OW22306   2.907   1.463   0.289
 7136SOL    HW122307   2.918   1.367   0.263
 7136SOL    HW222308   2.997   1.502   0.309
 7137SOL     OW22309   3.029   1.116   0.288
 7137SOL    HW122310   2.945   1.124   0.235
 7137SOL    HW222311   3.106   1.100   0.227
 7138SOL     OW22312   2.175   2.221   0.260
 7138SOL    HW122313   2.238   2.222   0.337
 7138SOL    HW222314   2.083   2.198   0.293
 7139SOL     OW22315   5.863   4.848   1.513
 7139SOL    HW122316   5.768   4.837   1.484
 7139SOL    HW222317   5.878   4.943   1.541
 7140SOL     OW22318   6.975   4.384   1.610
 7140SOL    HW122319   6.904   4.448   1.638
 7140SOL    HW222320   6.974   4.375   1.510
 7141SOL     OW22321   3.948   6.420   0.768
 7141SOL    HW122322   3.891   6.357   0.715
 7141SOL    HW222323   3.911   6.513   0.761
 7142SOL     OW22324   4.277   6.529   3.237
 7142SOL    HW122325   4.358   6.586   3.254
 7142SOL    HW222326   4.262   6.470   3.316
 7143SOL     OW22327   1.621   2.861   6.512
 7143SOL    HW122328   1.716   2.859   6.479
 7143SOL    HW222329   1.580   2.949   6.489
 7144SOL     OW22330   1.647   1.809   2.724
 7144SOL    HW122331   1.632   1.871   2.647
 7144SOL    HW222332   1.636   1.859   2.810
 7145SOL     OW22333   3.870   0.111   6.396
 7145SOL    HW122334   3.879   0.066   6.485
 7145SOL    HW222335   3.961   0.127   6.358
 7146SOL     OW22336   1.827   6.781   6.531
 7146SOL    HW122337   1.874   6.738   6.454
 7146SOL    HW222338   1.742   6.732   6.550
 7147SOL     OW22339   6.961   6.689   3.150
 7147SOL    HW122340   0.021   6.640   3.174
 7147SOL    HW222341   6.885   6.624   3.144
 7148SOL     OW22342   6.412   6.320   1.377
 7148SOL    HW122343   6.507   6.344   1.391
 7148SOL    HW222344   6.353   6.397   1.400
 7149SOL     OW22345   0.204   6.328   4.232
 7149SOL    HW122346   0.267   6.383   4.178
 7149SOL    HW222347   0.211   6.353   4.328
 7150SOL     OW22348   3.717   3.248   0.639
 7150SOL    HW122349   3.691   3.182   0.568
 7150SOL    HW222350   3.717   3.340   0.600
 7151SOL     OW22351   3.477   6.572   0.625
 7151SOL    HW122352   3.436   6.634   0.558
 7151SOL    HW222353   3.404   6.534   0.683
 7152SOL     OW22354   6.780   0.985   4.916
 7152SOL    HW122355   6.743   1.052   4.981
 7152SOL    HW222356   6.843   0.925   4.965
 7153SOL     OW22357   3.912   5.064   1.198
 7153SOL    HW122358   3.851   5.032   1.125
 7153SOL    HW222359   3.951   5.152   1.172
 7154SOL     OW22360   4.922   6.500   3.192
 7154SOL    HW122361   4.951   6.476   3.099
 7154SOL    HW222362   4.964   6.587   3.219
 7155SOL     OW22363   3.020   3.083   0.995
 7155SOL    HW122364   3.070   3.134   0.925
 7155SOL    HW222365   3.084   3.033   1.052
 7156SOL     OW22366   0.018   3.346   2.977
 7156SOL    HW122367   6.965   3.292   2.943
 7156SOL    HW222368   0.031   3.328   3.075
 7157SOL     OW22369   0.556   4.169   1.260
 7157SOL    HW122370   0.587   4.217   1.343
 7157SOL    HW222371   0.542   4.236   1.187
 7158SOL     OW22372   1.085   0.343   4.506
 7158SOL    HW122373   0.990   0.359   4.534
 7158SOL    HW222374   1.127   0.276   4.568
 7159SOL     OW22375   0.630   4.665   3.884
 7159SOL    HW122376   0.635   4.715   3.970
 7159SOL    HW222377   0.655   4.727   3.808
 7160SOL     OW22378   5.852   0.190   2.481
 7160SOL    HW122379   5.774   0.251   2.468
 7160SOL    HW222380   5.912   0.195   2.401
 7161SOL     OW22381   3.133   4.004   3.169
 7161SOL    HW122382   3.109   3.907   3.158
 7161SOL    HW222383   3.139   4.047   3.079
 7162SOL     OW22384   1.068   5.337   6.286
 7162SOL    HW122385   1.105   5.390   6.209
 7162SOL    HW222386   1.089   5.240   6.273
 7163SOL     OW22387   2.664   0.173   2.766
 7163SOL    HW122388   2.588   0.215   2.717
 7163SOL    HW222389   2.690   0.088   2.722
 7164SOL     OW22390   3.064   0.322   4.825
 7164SOL    HW122391   2.991   0.295   4.762
 7164SOL    HW222392   3.092   0.416   4.806
 7165SOL     OW22393   6.274   6.781   2.362
 7165SOL    HW122394   6.198   6.716   2.360
 7165SOL    HW222395   6.331   6.767   2.281
 7166SOL     OW22396   4.640   1.959   1.173
 7166SOL    HW122397   4.548   1.933   1.203
 7166SOL    HW222398   4.704   1.944   1.248
 7167SOL     OW22399   5.057   3.250   4.526
 7167SOL    HW122400   4.982   3.305   4.563
 7167SOL    HW222401   5.095   3.296   4.445
 7168SOL     OW22402   2.066   2.392   2.990
 7168SOL    HW122403   2.165   2.380   2.995
 7168SOL    HW222404   2.035   2.375   2.896
 7169SOL     OW22405   6.885   4.013   5.684
 7169SOL    HW122406   6.958   3.947   5.669
 7169SOL    HW222407   6.868   4.064   5.599
 7170SOL     OW22408   4.623   6.868   2.399
 7170SOL    HW122409   4.537   6.854   2.449
 7170SOL    HW222410   4.673   6.944   2.439
 7171SOL     OW22411   6.432   4.181   0.136
 7171SOL    HW122412   6.408   4.226   0.222
 7171SOL    HW222413   6.371   4.103   0.121
 7172SOL     OW22414   2.126   0.102   4.918
 7172SOL    HW122415   2.043   0.055   4.888
 7172SOL    HW222416   2.162   0.158   4.843
 7173SOL     OW22417   6.423   4.401   7.022
 7173SOL    HW122418   6.489   4.468   0.033
 7173SOL    HW222419   6.444   4.311   0.035
 7174SOL     OW22420   1.378   3.822   0.678
 7174SOL    HW122421   1.469   3.807   0.640
 7174SOL    HW222422   1.314   3.845   0.605
 7175SOL     OW22423   5.720   2.865   5.113
 7175SOL    HW122424   5.783   2.929   5.069
 7175SOL    HW222425   5.767   2.816   5.186
 7176SOL     OW22426   6.990   1.345   3.399
 7176SOL    HW122427   6.992   1.444   3.388
 7176SOL    HW222428   0.058   1.312   3.418
 7177SOL     OW22429   1.087   4.607   4.957
 7177SOL    HW122430   1.098   4.533   4.891
 7177SOL    HW222431   1.061   4.569   5.046
 7178SOL     OW22432   6.668   1.602   5.617
 7178SOL    HW122433   6.756   1.571   5.580
 7178SOL    HW222434   6.651   1.557   5.704
 7179SOL     OW22435   1.943   3.534   4.525
 7179SOL    HW122436   1.862   3.559   4.577
 7179SOL    HW222437   1.948   3.590   4.442
 7180SOL     OW22438   2.315   5.255   0.086
 7180SOL    HW122439   2.368   5.317   0.028
 7180SOL    HW222440   2.283   5.305   0.166
 7181SOL     OW22441   2.045   0.618   0.165
 7181SOL    HW122442   2.110   0.663   0.103
 7181SOL    HW222443   1.953   0.626   0.127
 7182SOL     OW22444   0.076   3.614   4.343
 7182SOL    HW122445   0.014   3.613   4.265
 7182SOL    HW222446   0.042   3.677   4.413
 7183SOL     OW22447   1.698   5.852   1.442
 7183SOL    HW122448   1.777   5.853   1.504
 7183SOL    HW222449   1.615   5.835   1.495
 7184SOL     OW22450   6.669   1.059   4.145
 7184SOL    HW122451   6.575   1.080   4.118
 7184SOL    HW222452   6.674   0.967   4.182
 7185SOL     OW22453   5.707   0.921   5.321
 7185SOL    HW122454   5.719   0.999   5.261
 7185SOL    HW222455   5.792   0.869   5.326
 7186SOL     OW22456   6.337   1.800   2.099
 7186SOL    HW122457   6.432   1.803   2.131
 7186SOL    HW222458   6.328   1.857   2.017
 7187SOL     OW22459   3.154   4.055   5.185
 7187SOL    HW122460   3.085   3.984   5.173
 7187SOL    HW222461   3.200   4.043   5.274
 7188SOL     OW22462   5.074   6.597   6.818
 7188SOL    HW122463   5.092   6.568   6.724
 7188SOL    HW222464   5.142   6.665   6.845
 7189SOL     OW22465   6.169   1.463   5.177
 7189SOL    HW122466   6.194   1.371   5.148
 7189SOL    HW222467   6.089   1.459   5.237
 7190SOL     OW22468   6.844   5.118   1.550
 7190SOL    HW122469   6.810   5.027   1.576
 7190SOL    HW222470   6.782   5.158   1.483
 7191SOL     OW22471   1.438   4.698   2.577
 7191SOL    HW122472   1.470   4.678   2.669
 7191SOL    HW222473   1.464   4.791   2.551
 7192SOL     OW22474   2.230   4.276   5.682
 7192SOL    HW122475   2.295   4.208   5.714
 7192SOL    HW222476   2.171   4.236   5.613
 7193SOL     OW22477   1.385   2.406   2.227
 7193SOL    HW122478   1.385   2.505   2.223
 7193SOL    HW222479   1.450   2.370   2.159
 7194SOL     OW22480   1.953   2.708   0.871
 7194SOL    HW122481   1.960   2.667   0.962
 7194SOL    HW222482   1.944   2.808   0.880
 7195SOL     OW22483   0.768   4.116   6.893
 7195SOL    HW122484   0.695   4.183   6.880
 7195SOL    HW222485   0.806   4.090   6.804
 7196SOL     OW22486   2.099   3.536   1.709
 7196SOL    HW122487   2.166   3.525   1.635
 7196SOL    HW222488   2.142   3.510   1.796
 7197SOL     OW22489   0.471   3.144   5.383
 7197SOL    HW122490   0.452   3.049   5.408
 7197SOL    HW222491   0.487   3.151   5.284
 7198SOL     OW22492   0.773   0.749   0.551
 7198SOL    HW122493   0.746   0.840   0.583
 7198SOL    HW222494   0.703   0.682   0.577
 7199SOL     OW22495   1.306   7.010   2.038
 7199SOL    HW122496   1.240   0.052   2.074
 7199SOL    HW222497   1.312   6.931   2.100
 7200SOL     OW22498   2.130   2.695   6.905
 7200SOL    HW122499   2.084   2.750   6.836
 7200SOL    HW222500   2.192   2.752   6.958
 7201SOL     OW22501   1.079   6.090   4.111
 7201SOL    HW122502   1.106   6.090   4.207
 7201SOL    HW222503   0.985   6.057   4.103
 7202SOL     OW22504   5.316   6.782   0.237
 7202SOL    HW122505   5.415   6.771   0.240
 7202SOL    HW222506   5.275   6.703   0.192
 7203SOL     OW22507   6.805   1.095   0.887
 7203SOL    HW122508   6.707   1.097   0.904
 7203SOL    HW222509   6.839   1.187   0.870
 7204SOL     OW22510   0.484   0.721   6.102
 7204SOL    HW122511   0.443   0.769   6.024
 7204SOL    HW222512   0.449   0.627   6.105
 7205SOL     OW22513   1.486   3.807   4.743
 7205SOL    HW122514   1.435   3.741   4.799
 7205SOL    HW222515   1.552   3.855   4.800
 7206SOL     OW22516   1.233   6.959   2.377
 7206SOL    HW122517   1.245   7.009   2.463
 7206SOL    HW222518   1.190   7.020   2.310
 7207SOL     OW22519   3.229   0.687   3.661
 7207SOL    HW122520   3.152   0.750   3.671
 7207SOL    HW222521   3.225   0.643   3.571
 7208SOL     OW22522   4.077   0.075   3.772
 7208SOL    HW122523   4.161   0.027   3.794
 7208SOL    HW222524   4.063   0.150   3.837
 7209SOL     OW22525   2.756   3.141   1.607
 7209SOL    HW122526   2.829   3.081   1.638
 7209SOL    HW222527   2.759   3.227   1.658
 7210SOL     OW22528   4.284   0.857   2.819
 7210SOL    HW122529   4.264   0.903   2.905
 7210SOL    HW222530   4.382   0.859   2.801
 7211SOL     OW22531   1.531   6.505   4.791
 7211SOL    HW122532   1.521   6.547   4.701
 7211SOL    HW222533   1.551   6.575   4.859
 7212SOL     OW22534   0.197   6.215   4.943
 7212SOL    HW122535   0.254   6.296   4.928
 7212SOL    HW222536   0.232   6.164   5.022
 7213SOL     OW22537   3.878   6.068   6.406
 7213SOL    HW122538   3.953   6.013   6.442
 7213SOL    HW222539   3.791   6.035   6.444
 7214SOL     OW22540   6.883   0.195   4.545
 7214SOL    HW122541   6.911   0.147   4.462
 7214SOL    HW222542   6.917   0.146   4.625
 7215SOL     OW22543   6.837   3.343   3.656
 7215SOL    HW122544   6.750   3.327   3.703
 7215SOL    HW222545   6.844   3.282   3.578
 7216SOL     OW22546   3.112   0.169   0.608
 7216SOL    HW122547   3.170   0.153   0.687
 7216SOL    HW222548   3.107   0.267   0.589
 7217SOL     OW22549   1.860   3.902   3.339
 7217SOL    HW122550   1.769   3.859   3.338
 7217SOL    HW222551   1.922   3.846   3.394
 7218SOL     OW22552   6.374   2.598   4.222
 7218SOL    HW122553   6.367   2.631   4.128
 7218SOL    HW222554   6.417   2.508   4.223
 7219SOL     OW22555   3.654   0.104   3.183
 7219SOL    HW122556   3.717   0.117   3.259
 7219SOL    HW222557   3.560   0.109   3.216
 7220SOL     OW22558   6.939   4.184   4.634
 7220SOL    HW122559   6.914   4.198   4.538
 7220SOL    HW222560   6.902   4.096   4.665
 7221SOL     OW22561   3.455   5.864   4.566
 7221SOL    HW122562   3.519   5.791   4.543
 7221SOL    HW222563   3.381   5.828   4.623
 7222SOL     OW22564   6.046   6.920   3.268
 7222SOL    HW122565   6.052   6.835   3.216
 7222SOL    HW222566   6.051   6.998   3.205
 7223SOL     OW22567   3.339   1.467   0.735
 7223SOL    HW122568   3.378   1.531   0.801
 7223SOL    HW222569   3.279   1.402   0.783
 7224SOL     OW22570   5.537   2.065   4.250
 7224SOL    HW122571   5.596   2.134   4.209
 7224SOL    HW222572   5.494   2.102   4.332
 7225SOL     OW22573   1.034   6.122   0.755
 7225SOL    HW122574   0.995   6.193   0.696
 7225SOL    HW222575   1.129   6.145   0.776
 7226SOL     OW22576   5.705   0.633   2.159
 7226SOL    HW122577   5.615   0.605   2.191
 7226SOL    HW222578   5.695   0.688   2.076
 7227SOL     OW22579   2.943   1.904   0.888
 7227SOL    HW122580   2.927   1.844   0.966
 7227SOL    HW222581   3.014   1.865   0.830
 7228SOL     OW22582   0.973   2.127   2.420
 7228SOL    HW122583   0.966   2.212   2.472
 7228SOL    HW222584   0.917   2.057   2.464
 7229SOL     OW22585   0.932   5.842   5.888
 7229SOL    HW122586   0.987   5.900   5.827
 7229SOL    HW222587   0.950   5.746   5.868
 7230SOL     OW22588   3.447   5.181   5.386
 7230SOL    HW122589   3.449   5.266   5.333
 7230SOL    HW222590   3.461   5.103   5.326
 7231SOL     OW22591   3.943   0.322   6.662
 7231SOL    HW122592   3.942   0.395   6.730
 7231SOL    HW222593   4.024   0.332   6.603
 7232SOL     OW22594   5.171   5.686   3.103
 7232SOL    HW122595   5.201   5.649   3.015
 7232SOL    HW222596   5.072   5.693   3.105
 7233SOL     OW22597   0.995   1.487   3.510
 7233SOL    HW122598   1.080   1.500   3.562
 7233SOL    HW222599   0.992   1.393   3.476
 7234SOL     OW22600   5.225   2.299   3.719
 7234SOL    HW122601   5.217   2.244   3.802
 7234SOL    HW222602   5.212   2.241   3.639
 7235SOL     OW22603   0.130   4.961   2.906
 7235SOL    HW122604   0.130   5.013   2.821
 7235SOL    HW222605   0.038   4.925   2.923
 7236SOL     OW22606   2.631   1.933   1.869
 7236SOL    HW122607   2.585   2.004   1.923
 7236SOL    HW222608   2.699   1.887   1.926
 7237SOL     OW22609   3.741   7.003   4.607
 7237SOL    HW122610   3.738   6.934   4.535
 7237SOL    HW222611   3.681   0.055   4.583
 7238SOL     OW22612   4.435   1.362   6.894
 7238SOL    HW122613   4.423   1.312   6.980
 7238SOL    HW222614   4.383   1.447   6.897
 7239SOL     OW22615   1.024   1.920   2.189
 7239SOL    HW122616   1.077   1.931   2.105
 7239SOL    HW222617   1.043   1.996   2.251
 7240SOL     OW22618   1.176   0.761   6.170
 7240SOL    HW122619   1.209   0.785   6.079
 7240SOL    HW222620   1.116   0.682   6.165
 7241SOL     OW22621   1.688   0.579   0.717
 7241SOL    HW122622   1.727   0.647   0.655
 7241SOL    HW222623   1.724   0.488   0.693
 7242SOL     OW22624   6.891   6.042   6.895
 7242SOL    HW122625   6.869   6.032   6.798
 7242SOL    HW222626   6.979   6.090   6.905
 7243SOL     OW22627   6.394   4.596   6.221
 7243SOL    HW122628   6.400   4.506   6.178
 7243SOL    HW222629   6.409   4.666   6.152
 7244SOL     OW22630   6.606   0.683   1.945
 7244SOL    HW122631   6.554   0.768   1.959
 7244SOL    HW222632   6.575   0.614   2.010
 7245SOL     OW22633   1.294   2.914   5.413
 7245SOL    HW122634   1.305   3.006   5.377
 7245SOL    HW222635   1.326   2.848   5.345
 7246SOL     OW22636   0.470   0.071   4.076
 7246SOL    HW122637   0.527   0.151   4.094
 7246SOL    HW222638   0.387   0.075   4.130
 7247SOL     OW22639   2.638   1.205   4.206
 7247SOL    HW122640   2.621   1.115   4.167
 7247SOL    HW222641   2.654   1.271   4.133
 7248SOL     OW22642   2.480   1.362   3.091
 7248SOL    HW122643   2.528   1.442   3.054
 7248SOL    HW222644   2.433   1.314   3.017
 7249SOL     OW22645   6.367   5.098   2.472
 7249SOL    HW122646   6.461   5.064   2.478
 7249SOL    HW222647   6.346   5.121   2.378
 7250SOL     OW22648   5.326   6.548   6.239
 7250SOL    HW122649   5.257   6.613   6.205
 7250SOL    HW222650   5.383   6.593   6.307
 7251SOL     OW22651   0.497   6.106   5.130
 7251SOL    HW122652   0.519   6.010   5.144
 7251SOL    HW222653   0.407   6.125   5.169
 7252SOL     OW22654   3.942   3.008   2.271
 7252SOL    HW122655   3.978   3.095   2.239
 7252SOL    HW222656   4.018   2.948   2.297
 7253SOL     OW22657   1.481   6.014   6.709
 7253SOL    HW122658   1.430   5.953   6.649
 7253SOL    HW222659   1.522   5.960   6.783
 7254SOL     OW22660   4.811   4.937   4.062
 7254SOL    HW122661   4.837   4.871   4.132
 7254SOL    HW222662   4.886   4.944   3.995
 7255SOL     OW22663   3.524   3.969   0.985
 7255SOL    HW122664   3.532   3.876   1.021
 7255SOL    HW222665   3.443   3.976   0.926
 7256SOL     OW22666   3.088   5.531   4.728
 7256SOL    HW122667   3.105   5.556   4.632
 7256SOL    HW222668   3.173   5.498   4.769
 7257SOL     OW22669   5.730   1.950   3.168
 7257SOL    HW122670   5.758   1.892   3.245
 7257SOL    HW222671   5.650   1.910   3.124
 7258SOL     OW22672   4.886   1.579   3.206
 7258SOL    HW122673   4.863   1.675   3.192
 7258SOL    HW222674   4.978   1.572   3.243
 7259SOL     OW22675   2.115   3.906   0.961
 7259SOL    HW122676   2.112   3.914   0.861
 7259SOL    HW222677   2.033   3.858   0.992
 7260SOL     OW22678   4.257   1.766   1.356
 7260SOL    HW122679   4.159   1.765   1.379
 7260SOL    HW222680   4.285   1.859   1.335
 7261SOL     OW22681   1.106   2.859   1.311
 7261SOL    HW122682   1.051   2.782   1.280
 7261SOL    HW222683   1.135   2.913   1.232
 7262SOL     OW22684   4.960   2.409   6.198
 7262SOL    HW122685   4.963   2.488   6.260
 7262SOL    HW222686   5.042   2.409   6.141
 7263SOL     OW22687   1.121   0.117   0.280
 7263SOL    HW122688   1.145   0.024   0.252
 7263SOL    HW222689   1.023   0.123   0.296
 7264SOL     OW22690   5.171   1.992   6.781
 7264SOL    HW122691   5.136   1.900   6.799
 7264SOL    HW222692   5.096   2.058   6.788
 7265SOL     OW22693   5.724   5.385   5.478
 7265SOL    HW122694   5.788   5.389   5.555
 7265SOL    HW222695   5.681   5.474   5.465
 7266SOL     OW22696   5.472   5.984   1.860
 7266SOL    HW122697   5.519   5.978   1.772
 7266SOL    HW222698   5.528   5.941   1.931
 7267SOL     OW22699   6.306   6.537   5.173
 7267SOL    HW122700   6.362   6.567   5.250
 7267SOL    HW222701   6.362   6.532   5.091
 7268SOL     OW22702   6.082   5.278   3.313
 7268SOL    HW122703   6.006   5.299   3.251
 7268SOL    HW222704   6.155   5.345   3.301
 7269SOL     OW22705   6.845   6.593   6.637
 7269SOL    HW122706   6.884   6.501   6.630
 7269SOL    HW222707   6.880   6.637   6.720
 7270SOL     OW22708   1.834   3.454   5.756
 7270SOL    HW122709   1.847   3.373   5.699
 7270SOL    HW222710   1.742   3.455   5.795
 7271SOL     OW22711   0.602   6.426   3.221
 7271SOL    HW122712   0.670   6.492   3.252
 7271SOL    HW222713   0.615   6.407   3.124
 7272SOL     OW22714   6.298   5.739   2.083
 7272SOL    HW122715   6.212   5.778   2.050
 7272SOL    HW222716   6.340   5.684   2.010
 7273SOL     OW22717   6.141   4.689   1.910
 7273SOL    HW122718   6.061   4.648   1.954
 7273SOL    HW222719   6.162   4.776   1.954
 7274SOL     OW22720   0.249   5.301   6.744
 7274SOL    HW122721   0.215   5.215   6.783
 7274SOL    HW222722   0.202   5.319   6.658
 7275SOL     OW22723   0.176   6.580   2.643
 7275SOL    HW122724   0.149   6.645   2.714
 7275SOL    HW222725   0.274   6.587   2.627
 7276SOL     OW22726   3.975   0.908   2.983
 7276SOL    HW122727   3.964   0.841   2.909
 7276SOL    HW222728   3.949   0.998   2.951
 7277SOL     OW22729   4.315   0.773   4.044
 7277SOL    HW122730   4.373   0.701   4.007
 7277SOL    HW222731   4.219   0.748   4.034
 7278SOL     OW22732   3.337   3.002   1.121
 7278SOL    HW122733   3.298   2.916   1.089
 7278SOL    HW222734   3.275   3.045   1.186
 7279SOL     OW22735   4.060   4.227   6.156
 7279SOL    HW122736   4.107   4.236   6.244
 7279SOL    HW222737   4.022   4.135   6.148
 7280SOL     OW22738   0.238   1.445   3.623
 7280SOL    HW122739   0.322   1.397   3.596
 7280SOL    HW222740   0.245   1.472   3.719
 7281SOL     OW22741   2.024   1.051   0.787
 7281SOL    HW122742   2.074   1.046   0.700
 7281SOL    HW222743   1.974   0.966   0.801
 7282SOL     OW22744   6.335   5.926   1.608
 7282SOL    HW122745   6.310   5.830   1.626
 7282SOL    HW222746   6.433   5.938   1.626
 7283SOL     OW22747   4.961   0.222   2.667
 7283SOL    HW122748   4.902   0.303   2.665
 7283SOL    HW222749   5.057   0.250   2.668
 7284SOL     OW22750   0.290   2.371   5.722
 7284SOL    HW122751   0.275   2.283   5.676
 7284SOL    HW222752   0.218   2.435   5.694
 7285SOL     OW22753   5.467   3.040   2.430
 7285SOL    HW122754   5.428   2.980   2.500
 7285SOL    HW222755   5.415   3.028   2.344
 7286SOL     OW22756   1.328   1.174   0.808
 7286SOL    HW122757   1.424   1.173   0.778
 7286SOL    HW222758   1.317   1.241   0.881
 7287SOL     OW22759   0.556   2.409   5.244
 7287SOL    HW122760   0.476   2.469   5.236
 7287SOL    HW222761   0.621   2.430   5.171
 7288SOL     OW22762   1.847   1.729   1.903
 7288SOL    HW122763   1.858   1.645   1.957
 7288SOL    HW222764   1.871   1.808   1.958
 7289SOL     OW22765   5.920   1.475   3.799
 7289SOL    HW122766   6.000   1.512   3.753
 7289SOL    HW222767   5.878   1.546   3.855
 7290SOL     OW22768   3.411   1.746   5.593
 7290SOL    HW122769   3.395   1.845   5.586
 7290SOL    HW222770   3.334   1.703   5.639
 7291SOL     OW22771   0.709   6.984   0.164
 7291SOL    HW122772   0.673   0.024   0.096
 7291SOL    HW222773   0.749   6.905   0.117
 7292SOL     OW22774   3.166   0.155   3.216
 7292SOL    HW122775   3.154   0.187   3.123
 7292SOL    HW222776   3.077   0.127   3.253
 7293SOL     OW22777   1.713   1.821   4.746
 7293SOL    HW122778   1.671   1.749   4.802
 7293SOL    HW222779   1.653   1.840   4.668
 7294SOL     OW22780   2.460   4.276   0.183
 7294SOL    HW122781   2.441   4.239   0.273
 7294SOL    HW222782   2.506   4.207   0.127
 7295SOL     OW22783   6.013   4.019   1.030
 7295SOL    HW122784   6.077   4.079   1.079
 7295SOL    HW222785   6.060   3.934   1.005
 7296SOL     OW22786   3.325   6.366   1.490
 7296SOL    HW122787   3.230   6.392   1.506
 7296SOL    HW222788   3.336   6.335   1.396
 7297SOL     OW22789   3.621   7.003   1.407
 7297SOL    HW122790   3.708   0.019   1.436
 7297SOL    HW222791   3.624   6.987   1.308
 7298SOL     OW22792   4.892   5.370   6.048
 7298SOL    HW122793   4.838   5.384   5.965
 7298SOL    HW222794   4.866   5.282   6.090
 7299SOL     OW22795   0.995   2.587   1.293
 7299SOL    HW122796   0.980   2.640   1.376
 7299SOL    HW222797   1.045   2.504   1.315
 7300SOL     OW22798   0.604   6.959   2.140
 7300SOL    HW122799   0.588   6.871   2.185
 7300SOL    HW222800   0.641   6.943   2.048
 7301SOL     OW22801   6.263   1.868   4.648
 7301SOL    HW122802   6.340   1.872   4.585
 7301SOL    HW222803   6.289   1.812   4.728
 7302SOL     OW22804   0.674   2.463   5.629
 7302SOL    HW122805   0.647   2.368   5.642
 7302SOL    HW222806   0.762   2.479   5.674
 7303SOL     OW22807   4.138   0.883   6.769
 7303SOL    HW122808   4.226   0.865   6.812
 7303SOL    HW222809   4.065   0.846   6.826
 7304SOL     OW22810   2.973   5.670   1.566
 7304SOL    HW122811   2.895   5.629   1.517
 7304SOL    HW222812   2.979   5.630   1.657
 7305SOL     OW22813   4.998   1.731   1.357
 7305SOL    HW122814   5.072   1.797   1.350
 7305SOL    HW222815   5.034   1.639   1.344
 7306SOL     OW22816   4.073   1.517   1.606
 7306SOL    HW122817   4.045   1.487   1.515
 7306SOL    HW222818   3.992   1.535   1.662
 7307SOL     OW22819   2.403   6.628   2.655
 7307SOL    HW122820   2.382   6.569   2.577
 7307SOL    HW222821   2.502   6.640   2.662
 7308SOL     OW22822   6.889   2.876   4.920
 7308SOL    HW122823   6.980   2.904   4.889
 7308SOL    HW222824   6.868   2.785   4.884
 7309SOL     OW22825   3.785   5.047   0.756
 7309SOL    HW122826   3.878   5.081   0.770
 7309SOL    HW222827   3.773   5.021   0.661
 7310SOL     OW22828   2.369   3.953   0.154
 7310SOL    HW122829   2.452   3.997   0.119
 7310SOL    HW222830   2.353   3.983   0.248
 7311SOL     OW22831   1.830   1.780   1.065
 7311SOL    HW122832   1.854   1.689   1.097
 7311SOL    HW222833   1.912   1.826   1.030
 7312SOL     OW22834   0.797   3.244   4.522
 7312SOL    HW122835   0.883   3.268   4.476
 7312SOL    HW222836   0.817   3.189   4.603
 7313SOL     OW22837   2.179   0.983   1.189
 7313SOL    HW122838   2.088   0.945   1.203
 7313SOL    HW222839   2.207   0.969   1.094
 7314SOL     OW22840   6.949   4.973   6.362
 7314SOL    HW122841   6.989   4.947   6.274
 7314SOL    HW222842   6.969   5.070   6.380
 7315SOL     OW22843   5.839   5.739   2.171
 7315SOL    HW122844   5.824   5.748   2.270
 7315SOL    HW222845   5.839   5.642   2.146
 7316SOL     OW22846   3.666   3.360   6.794
 7316SOL    HW122847   3.755   3.361   6.840
 7316SOL    HW222848   3.612   3.282   6.826
 7317SOL     OW22849   4.333   1.541   2.237
 7317SOL    HW122850   4.272   1.609   2.196
 7317SOL    HW222851   4.381   1.581   2.315
 7318SOL     OW22852   2.841   0.377   2.071
 7318SOL    HW122853   2.893   0.332   1.998
 7318SOL    HW222854   2.763   0.319   2.095
 7319SOL     OW22855   6.985   3.905   7.007
 7319SOL    HW122856   6.888   3.906   6.981
 7319SOL    HW222857   6.999   3.839   0.057
 7320SOL     OW22858   0.961   3.732   2.331
 7320SOL    HW122859   0.918   3.822   2.322
 7320SOL    HW222860   0.944   3.679   2.248
 7321SOL     OW22861   1.113   6.306   6.169
 7321SOL    HW122862   1.034   6.362   6.145
 7321SOL    HW222863   1.150   6.337   6.257
 7322SOL     OW22864   6.781   2.783   2.703
 7322SOL    HW122865   6.877   2.807   2.688
 7322SOL    HW222866   6.734   2.781   2.614
 7323SOL     OW22867   2.030   2.627   1.472
 7323SOL    HW122868   1.978   2.685   1.534
 7323SOL    HW222869   1.978   2.543   1.453
 7324SOL     OW22870   5.692   6.129   1.173
 7324SOL    HW122871   5.752   6.197   1.130
 7324SOL    HW222872   5.611   6.116   1.116
 7325SOL     OW22873   2.619   0.150   6.531
 7325SOL    HW122874   2.654   0.223   6.472
 7325SOL    HW222875   2.536   0.111   6.490
 7326SOL     OW22876   2.858   6.415   6.684
 7326SOL    HW122877   2.893   6.486   6.745
 7326SOL    HW222878   2.767   6.440   6.651
 7327SOL     OW22879   6.089   2.228   5.815
 7327SOL    HW122880   5.992   2.252   5.827
 7327SOL    HW222881   6.134   2.223   5.904
 7328SOL     OW22882   4.167   0.089   6.417
 7328SOL    HW122883   4.215   0.074   6.331
 7328SOL    HW222884   4.185   0.013   6.479
 7329SOL     OW22885   1.044   3.780   0.841
 7329SOL    HW122886   1.139   3.784   0.873
 7329SOL    HW222887   1.043   3.751   0.745
 7330SOL     OW22888   1.812   2.816   0.084
 7330SOL    HW122889   1.735   2.864   0.042
 7330SOL    HW222890   1.781   2.728   0.120
 7331SOL     OW22891   5.623   6.495   1.149
 7331SOL    HW122892   5.528   6.515   1.170
 7331SOL    HW222893   5.668   6.455   1.229
 7332SOL     OW22894   3.497   5.773   6.942
 7332SOL    HW122895   3.525   5.868   6.933
 7332SOL    HW222896   3.428   5.751   6.872
 7333SOL     OW22897   6.586   3.288   3.102
 7333SOL    HW122898   6.550   3.255   3.015
 7333SOL    HW222899   6.645   3.218   3.144
 7334SOL     OW22900   1.786   5.864   6.229
 7334SOL    HW122901   1.825   5.955   6.244
 7334SOL    HW222902   1.841   5.814   6.163
 7335SOL     OW22903   0.380   2.926   3.307
 7335SOL    HW122904   0.468   2.878   3.295
 7335SOL    HW222905   0.372   2.997   3.237
 7336SOL     OW22906   1.980   6.663   2.549
 7336SOL    HW122907   2.060   6.722   2.543
 7336SOL    HW222908   1.898   6.719   2.559
 7337SOL     OW22909   0.683   2.860   1.287
 7337SOL    HW122910   0.689   2.956   1.259
 7337SOL    HW222911   0.719   2.851   1.380
 7338SOL     OW22912   4.752   1.342   2.187
 7338SOL    HW122913   4.754   1.388   2.098
 7338SOL    HW222914   4.710   1.403   2.255
 7339SOL     OW22915   6.020   0.910   4.766
 7339SOL    HW122916   5.922   0.920   4.783
 7339SOL    HW222917   6.043   0.953   4.679
 7340SOL     OW22918   3.190   1.204   0.480
 7340SOL    HW122919   3.128   1.181   0.405
 7340SOL    HW222920   3.261   1.134   0.488
 7341SOL     OW22921   0.584   4.497   5.521
 7341SOL    HW122922   0.592   4.435   5.599
 7341SOL    HW222923   0.488   4.522   5.508
 7342SOL     OW22924   0.333   0.245   0.275
 7342SOL    HW122925   0.289   0.318   0.327
 7342SOL    HW222926   0.420   0.278   0.239
 7343SOL     OW22927   6.220   4.710   2.261
 7343SOL    HW122928   6.199   4.742   2.353
 7343SOL    HW222929   6.243   4.788   2.202
 7344SOL     OW22930   0.724   1.205   5.815
 7344SOL    HW122931   0.631   1.209   5.779
 7344SOL    HW222932   0.724   1.234   5.910
 7345SOL     OW22933   4.969   5.351   5.288
 7345SOL    HW122934   4.951   5.257   5.259
 7345SOL    HW222935   4.887   5.388   5.332
 7346SOL     OW22936   4.601   4.913   1.453
 7346SOL    HW122937   4.616   4.995   1.508
 7346SOL    HW222938   4.569   4.940   1.362
 7347SOL     OW22939   0.128   2.514   1.155
 7347SOL    HW122940   0.227   2.524   1.139
 7347SOL    HW222941   0.086   2.470   1.076
 7348SOL     OW22942   1.464   3.799   4.087
 7348SOL    HW122943   1.407   3.796   4.169
 7348SOL    HW222944   1.505   3.709   4.072
 7349SOL     OW22945   4.833   1.940   1.361
 7349SOL    HW122946   4.893   1.861   1.356
 7349SOL    HW222947   4.887   2.024   1.348
 7350SOL     OW22948   1.668   3.307   6.097
 7350SOL    HW122949   1.678   3.397   6.054
 7350SOL    HW222950   1.758   3.264   6.106
 7351SOL     OW22951   5.033   6.879   4.715
 7351SOL    HW122952   5.129   6.855   4.730
 7351SOL    HW222953   5.027   6.950   4.645
 7352SOL     OW22954   1.828   2.320   3.109
 7352SOL    HW122955   1.922   2.345   3.086
 7352SOL    HW222956   1.827   2.264   3.192
 7353SOL     OW22957   0.916   0.896   6.224
 7353SOL    HW122958   0.847   0.825   6.241
 7353SOL    HW222959   1.007   0.856   6.234
 7354SOL     OW22960   0.059   1.521   5.784
 7354SOL    HW122961   0.034   1.426   5.763
 7354SOL    HW222962   7.022   1.557   5.854
 7355SOL     OW22963   2.248   0.959   0.935
 7355SOL    HW122964   2.177   1.010   0.887
 7355SOL    HW222965   2.338   0.986   0.901
 7356SOL     OW22966   4.026   3.962   6.065
 7356SOL    HW122967   3.937   3.977   6.021
 7356SOL    HW222968   4.098   3.999   6.006
 7357SOL     OW22969   4.233   6.857   1.711
 7357SOL    HW122970   4.302   6.882   1.643
 7357SOL    HW222971   4.225   6.758   1.715
 7358SOL     OW22972   6.406   3.608   3.294
 7358SOL    HW122973   6.429   3.634   3.388
 7358SOL    HW222974   6.490   3.600   3.240
 7359SOL     OW22975   2.486   1.826   6.564
 7359SOL    HW122976   2.499   1.921   6.592
 7359SOL    HW222977   2.566   1.796   6.512
 7360SOL     OW22978   3.079   3.662   5.406
 7360SOL    HW122979   3.165   3.632   5.446
 7360SOL    HW222980   3.040   3.588   5.351
 7361SOL     OW22981   4.593   6.994   1.925
 7361SOL    HW122982   4.675   6.948   1.890
 7361SOL    HW222983   4.616   0.062   1.954
 7362SOL     OW22984   1.310   5.115   4.840
 7362SOL    HW122985   1.391   5.166   4.868
 7362SOL    HW222986   1.313   5.024   4.882
 7363SOL     OW22987   4.479   2.048   1.737
 7363SOL    HW122988   4.539   2.014   1.664
 7363SOL    HW222989   4.384   2.028   1.714
 7364SOL     OW22990   4.476   0.505   1.330
 7364SOL    HW122991   4.524   0.587   1.301
 7364SOL    HW222992   4.378   0.515   1.311
 7365SOL     OW22993   1.234   5.532   1.989
 7365SOL    HW122994   1.285   5.461   1.942
 7365SOL    HW222995   1.296   5.584   2.048
 7366SOL     OW22996   2.273   5.577   6.700
 7366SOL    HW122997   2.213   5.637   6.648
 7366SOL    HW222998   2.258   5.482   6.672
 7367SOL     OW22999   5.285   2.624   1.013
 7367SOL    HW123000   5.191   2.589   1.006
 7367SOL    HW223001   5.338   2.594   0.934
 7368SOL     OW23002   3.822   2.972   2.770
 7368SOL    HW123003   3.920   2.965   2.750
 7368SOL    HW223004   3.808   2.962   2.869
 7369SOL     OW23005   4.123   3.041   0.053
 7369SOL    HW123006   4.150   2.945   0.047
 7369SOL    HW223007   4.084   3.059   0.143
 7370SOL     OW23008   2.194   0.836   4.389
 7370SOL    HW123009   2.150   0.889   4.316
 7370SOL    HW223010   2.184   0.739   4.369
 7371SOL     OW23011   1.616   6.324   4.019
 7371SOL    HW123012   1.585   6.240   4.063
 7371SOL    HW223013   1.685   6.302   3.950
 7372SOL     OW23014   4.432   1.254   4.644
 7372SOL    HW123015   4.488   1.241   4.726
 7372SOL    HW223016   4.436   1.349   4.615
 7373SOL     OW23017   6.144   2.237   3.777
 7373SOL    HW123018   6.092   2.304   3.725
 7373SOL    HW223019   6.232   2.277   3.805
 7374SOL     OW23020   2.475   1.635   5.670
 7374SOL    HW123021   2.496   1.572   5.596
 7374SOL    HW223022   2.485   1.729   5.638
 7375SOL     OW23023   2.039   2.652   3.102
 7375SOL    HW123024   2.103   2.719   3.064
 7375SOL    HW223025   2.048   2.566   3.052
 7376SOL     OW23026   2.727   1.075   0.683
 7376SOL    HW123027   2.733   1.174   0.668
 7376SOL    HW223028   2.751   1.026   0.600
 7377SOL     OW23029   5.753   4.559   0.476
 7377SOL    HW123030   5.809   4.532   0.398
 7377SOL    HW223031   5.667   4.508   0.474
 7378SOL     OW23032   6.911   1.034   5.968
 7378SOL    HW123033   6.947   0.947   6.000
 7378SOL    HW223034   6.986   1.100   5.957
 7379SOL     OW23035   3.184   1.459   2.972
 7379SOL    HW123036   3.126   1.465   3.054
 7379SOL    HW223037   3.150   1.387   2.912
 7380SOL     OW23038   6.768   4.641   4.730
 7380SOL    HW123039   6.844   4.594   4.777
 7380SOL    HW223040   6.743   4.590   4.648
 7381SOL     OW23041   4.518   3.902   1.337
 7381SOL    HW123042   4.432   3.853   1.354
 7381SOL    HW223043   4.556   3.934   1.424
 7382SOL     OW23044   6.814   6.442   6.121
 7382SOL    HW123045   6.883   6.389   6.071
 7382SOL    HW223046   6.763   6.500   6.057
 7383SOL     OW23047   1.752   0.055   1.427
 7383SOL    HW123048   1.784   0.149   1.428
 7383SOL    HW223049   1.786   0.009   1.344
 7384SOL     OW23050   5.868   0.299   3.034
 7384SOL    HW123051   5.813   0.216   3.026
 7384SOL    HW223052   5.811   0.379   3.014
 7385SOL     OW23053   4.146   6.226   2.089
 7385SOL    HW123054   4.189   6.253   2.174
 7385SOL    HW223055   4.117   6.130   2.094
 7386SOL     OW23056   0.865   1.959   6.026
 7386SOL    HW123057   0.879   2.057   6.011
 7386SOL    HW223058   0.772   1.934   5.998
 7387SOL     OW23059   5.502   6.179   4.332
 7387SOL    HW123060   5.514   6.088   4.370
 7387SOL    HW223061   5.534   6.247   4.398
 7388SOL     OW23062   0.292   4.962   2.425
 7388SOL    HW123063   0.345   4.916   2.354
 7388SOL    HW223064   0.286   5.059   2.404
 7389SOL     OW23065   6.498   3.937   6.729
 7389SOL    HW123066   6.535   3.904   6.643
 7389SOL    HW223067   6.445   3.865   6.773
 7390SOL     OW23068   0.980   1.659   6.980
 7390SOL    HW123069   1.068   1.636   7.020
 7390SOL    HW223070   0.990   1.742   6.924
 7391SOL     OW23071   3.968   3.888   4.074
 7391SOL    HW123072   3.966   3.925   4.167
 7391SOL    HW223073   3.931   3.957   4.011
 7392SOL     OW23074   2.189   6.100   0.229
 7392SOL    HW123075   2.273   6.155   0.227
 7392SOL    HW223076   2.141   6.116   0.315
 7393SOL     OW23077   5.986   4.945   3.110
 7393SOL    HW123078   5.927   4.956   3.190
 7393SOL    HW223079   6.075   4.908   3.138
 7394SOL     OW23080   2.471   2.754   6.083
 7394SOL    HW123081   2.440   2.685   6.017
 7394SOL    HW223082   2.432   2.843   6.060
 7395SOL     OW23083   1.681   2.443   0.647
 7395SOL    HW123084   1.767   2.436   0.596
 7395SOL    HW223085   1.701   2.439   0.745
 7396SOL     OW23086   1.031   6.886   0.726
 7396SOL    HW123087   1.115   6.907   0.674
 7396SOL    HW223088   1.054   6.873   0.822
 7397SOL     OW23089   4.234   5.294   4.758
 7397SOL    HW123090   4.283   5.208   4.741
 7397SOL    HW223091   4.282   5.369   4.713
 7398SOL     OW23092   2.350   4.813   4.448
 7398SOL    HW123093   2.325   4.902   4.487
 7398SOL    HW223094   2.278   4.783   4.386
 7399SOL     OW23095   1.315   2.484   5.305
 7399SOL    HW123096   1.342   2.466   5.400
 7399SOL    HW223097   1.232   2.434   5.284
 7400SOL     OW23098   3.879   2.111   5.500
 7400SOL    HW123099   3.785   2.140   5.513
 7400SOL    HW223100   3.941   2.179   5.539
 7401SOL     OW23101   1.590   1.590   4.898
 7401SOL    HW123102   1.549   1.570   4.988
 7401SOL    HW223103   1.537   1.544   4.827
 7402SOL     OW23104   2.569   5.857   6.704
 7402SOL    HW123105   2.473   5.853   6.677
 7402SOL    HW223106   2.615   5.930   6.654
 7403SOL     OW23107   2.054   3.858   2.149
 7403SOL    HW123108   2.006   3.770   2.155
 7403SOL    HW223109   2.081   3.875   2.054
 7404SOL     OW23110   2.598   5.089   1.710
 7404SOL    HW123111   2.573   5.003   1.754
 7404SOL    HW223112   2.548   5.164   1.753
 7405SOL     OW23113   3.838   4.900   4.376
 7405SOL    HW123114   3.739   4.895   4.384
 7405SOL    HW223115   3.869   4.836   4.306
 7406SOL     OW23116   0.059   2.803   3.147
 7406SOL    HW123117   0.095   2.777   3.058
 7406SOL    HW223118   0.058   2.723   3.207
 7407SOL     OW23119   0.980   6.979   5.082
 7407SOL    HW123120   1.077   6.974   5.106
 7407SOL    HW223121   0.956   6.901   5.023
 7408SOL     OW23122   3.108   3.980   0.050
 7408SOL    HW123123   3.150   3.963   6.985
 7408SOL    HW223124   3.047   4.059   0.043
 7409SOL     OW23125   6.347   2.523   0.076
 7409SOL    HW123126   6.400   2.573   0.008
 7409SOL    HW223127   6.403   2.506   0.157
 7410SOL     OW23128   6.807   0.071   0.649
 7410SOL    HW123129   6.867   0.129   0.593
 7410SOL    HW223130   6.737   0.127   0.692
 7411SOL     OW23131   2.113   0.104   5.882
 7411SOL    HW123132   2.169   0.099   5.965
 7411SOL    HW223133   2.130   0.191   5.836
 7412SOL     OW23134   4.903   0.284   2.312
 7412SOL    HW123135   4.822   0.230   2.333
 7412SOL    HW223136   4.983   0.224   2.308
 7413SOL     OW23137   5.479   5.603   3.693
 7413SOL    HW123138   5.491   5.530   3.760
 7413SOL    HW223139   5.383   5.630   3.690
 7414SOL     OW23140   0.558   0.747   3.974
 7414SOL    HW123141   0.495   0.820   4.001
 7414SOL    HW223142   0.516   0.692   3.902
 7415SOL     OW23143   2.069   5.030   3.612
 7415SOL    HW123144   2.056   5.015   3.514
 7415SOL    HW223145   2.092   4.944   3.657
 7416SOL     OW23146   1.621   1.337   2.802
 7416SOL    HW123147   1.647   1.312   2.709
 7416SOL    HW223148   1.668   1.421   2.829
 7417SOL     OW23149   1.810   0.913   0.151
 7417SOL    HW123150   1.846   0.870   0.068
 7417SOL    HW223151   1.715   0.942   0.136
 7418SOL     OW23152   2.352   5.925   0.484
 7418SOL    HW123153   2.291   6.002   0.505
 7418SOL    HW223154   2.417   5.952   0.413
 7419SOL     OW23155   6.309   2.819   4.755
 7419SOL    HW123156   6.300   2.813   4.656
 7419SOL    HW223157   6.407   2.821   4.779
 7420SOL     OW23158   0.531   0.001   1.372
 7420SOL    HW123159   0.500   0.024   1.280
 7420SOL    HW223160   0.468   6.958   1.412
 7421SOL     OW23161   3.971   4.249   0.738
 7421SOL    HW123162   3.975   4.151   0.758
 7421SOL    HW223163   3.877   4.275   0.717
 7422SOL     OW23164   0.254   3.318   2.148
 7422SOL    HW123165   0.183   3.253   2.120
 7422SOL    HW223166   0.259   3.320   2.248
 7423SOL     OW23167   5.640   3.015   5.620
 7423SOL    HW123168   5.633   2.989   5.717
 7423SOL    HW223169   5.627   2.934   5.563
 7424SOL     OW23170   6.657   6.586   5.602
 7424SOL    HW123171   6.718   6.529   5.657
 7424SOL    HW223172   6.687   6.682   5.607
 7425SOL     OW23173   4.339   5.751   6.765
 7425SOL    HW123174   4.254   5.799   6.748
 7425SOL    HW223175   4.324   5.680   6.835
 7426SOL     OW23176   3.230   1.512   5.564
 7426SOL    HW123177   3.172   1.447   5.612
 7426SOL    HW223178   3.319   1.470   5.547
 7427SOL     OW23179   4.164   0.438   3.629
 7427SOL    HW123180   4.152   0.392   3.717
 7427SOL    HW223181   4.258   0.472   3.622
 7428SOL     OW23182   4.055   1.463   5.616
 7428SOL    HW123183   4.002   1.503   5.541
 7428SOL    HW223184   4.097   1.536   5.669
 7429SOL     OW23185   0.474   6.377   4.393
 7429SOL    HW123186   0.468   6.430   4.309
 7429SOL    HW223187   0.418   6.421   4.464
 7430SOL     OW23188   1.272   2.914   0.390
 7430SOL    HW123189   1.190   2.880   0.344
 7430SOL    HW223190   1.314   2.840   0.443
 7431SOL     OW23191   1.507   2.713   3.480
 7431SOL    HW123192   1.558   2.799   3.474
 7431SOL    HW223193   1.450   2.714   3.563
 7432SOL     OW23194   0.659   1.049   3.146
 7432SOL    HW123195   0.613   1.024   3.061
 7432SOL    HW223196   0.734   1.113   3.126
 7433SOL     OW23197   4.459   6.318   5.774
 7433SOL    HW123198   4.409   6.384   5.830
 7433SOL    HW223199   4.491   6.243   5.832
 7434SOL     OW23200   5.160   6.028   5.560
 7434SOL    HW123201   5.182   5.932   5.576
 7434SOL    HW223202   5.159   6.046   5.461
 7435SOL     OW23203   3.369   5.646   0.778
 7435SOL    HW123204   3.378   5.741   0.807
 7435SOL    HW223205   3.322   5.643   0.690
 7436SOL     OW23206   5.315   3.882   5.770
 7436SOL    HW123207   5.264   3.806   5.810
 7436SOL    HW223208   5.307   3.879   5.670
 7437SOL     OW23209   1.687   5.923   0.149
 7437SOL    HW123210   1.613   5.965   0.202
 7437SOL    HW223211   1.760   5.895   0.210
 7438SOL     OW23212   1.052   5.793   0.016
 7438SOL    HW123213   1.149   5.813   0.034
 7438SOL    HW223214   1.038   5.787   6.942
 7439SOL     OW23215   2.258   6.124   5.722
 7439SOL    HW123216   2.199   6.141   5.643
 7439SOL    HW223217   2.286   6.211   5.762
 7440SOL     OW23218   6.947   2.626   4.194
 7440SOL    HW123219   6.924   2.650   4.288
 7440SOL    HW223220   6.863   2.601   4.145
 7441SOL     OW23221   5.490   6.685   3.814
 7441SOL    HW123222   5.440   6.683   3.728
 7441SOL    HW223223   5.558   6.612   3.815
 7442SOL     OW23224   6.302   1.411   5.931
 7442SOL    HW123225   6.287   1.327   5.878
 7442SOL    HW223226   6.361   1.392   6.009
 7443SOL     OW23227   0.196   6.117   1.751
 7443SOL    HW123228   0.226   6.212   1.741
 7443SOL    HW223229   0.107   6.114   1.795
 7444SOL     OW23230   5.379   2.293   5.626
 7444SOL    HW123231   5.368   2.233   5.546
 7444SOL    HW223232   5.439   2.249   5.692
 7445SOL     OW23233   4.217   0.654   1.088
 7445SOL    HW123234   4.316   0.665   1.092
 7445SOL    HW223235   4.178   0.722   1.025
 7446SOL     OW23236   6.034   3.496   0.872
 7446SOL    HW123237   6.022   3.596   0.875
 7446SOL    HW223238   5.955   3.455   0.827
 7447SOL     OW23239   0.090   3.353   6.803
 7447SOL    HW123240   0.172   3.363   6.746
 7447SOL    HW223241   0.108   3.393   6.893
 7448SOL     OW23242   6.379   6.842   4.982
 7448SOL    HW123243   6.304   6.797   4.935
 7448SOL    HW223244   6.416   6.782   5.052
 7449SOL     OW23245   0.688   4.064   1.888
 7449SOL    HW123246   0.607   4.098   1.935
 7449SOL    HW223247   0.665   3.981   1.837
 7450SOL     OW23248   5.377   2.514   4.653
 7450SOL    HW123249   5.316   2.532   4.576
 7450SOL    HW223250   5.374   2.592   4.717
 7451SOL     OW23251   6.874   6.935   3.059
 7451SOL    HW123252   6.909   6.853   3.105
 7451SOL    HW223253   6.889   6.927   2.961
 7452SOL     OW23254   6.613   6.613   4.581
 7452SOL    HW123255   6.552   6.688   4.608
 7452SOL    HW223256   6.699   6.620   4.631
 7453SOL     OW23257   5.071   6.871   5.759
 7453SOL    HW123258   5.077   6.817   5.842
 7453SOL    HW223259   5.163   6.901   5.732
 7454SOL     OW23260   0.863   2.575   1.838
 7454SOL    HW123261   0.918   2.513   1.893
 7454SOL    HW223262   0.769   2.540   1.831
 7455SOL     OW23263   6.598   2.397   2.233
 7455SOL    HW123264   6.587   2.427   2.139
 7455SOL    HW223265   6.597   2.476   2.294
 7456SOL     OW23266   0.803   1.189   3.852
 7456SOL    HW123267   0.742   1.264   3.827
 7456SOL    HW223268   0.755   1.126   3.913
 7457SOL     OW23269   3.770   0.211   6.011
 7457SOL    HW123270   3.729   0.123   6.034
 7457SOL    HW223271   3.860   0.218   6.054
 7458SOL     OW23272   1.192   6.390   5.638
 7458SOL    HW123273   1.195   6.333   5.721
 7458SOL    HW223274   1.283   6.394   5.598
 7459SOL     OW23275   4.395   0.521   2.303
 7459SOL    HW123276   4.399   0.426   2.273
 7459SOL    HW223277   4.488   0.556   2.315
 7460SOL     OW23278   1.139   5.409   0.807
 7460SOL    HW123279   1.046   5.439   0.785
 7460SOL    HW223280   1.168   5.450   0.893
 7461SOL     OW23281   5.597   0.973   6.391
 7461SOL    HW123282   5.665   1.018   6.333
 7461SOL    HW223283   5.520   1.035   6.407
 7462SOL     OW23284   1.715   4.029   2.177
 7462SOL    HW123285   1.744   4.003   2.085
 7462SOL    HW223286   1.632   3.978   2.201
 7463SOL     OW23287   2.791   5.007   0.884
 7463SOL    HW123288   2.729   5.082   0.906
 7463SOL    HW223289   2.795   4.995   0.784
 7464SOL     OW23290   5.499   0.132   5.808
 7464SOL    HW123291   5.453   0.141   5.897
 7464SOL    HW223292   5.588   0.089   5.821
 7465SOL     OW23293   1.695   5.629   6.922
 7465SOL    HW123294   1.735   5.666   6.838
 7465SOL    HW223295   1.688   5.530   6.915
 7466SOL     OW23296   6.970   0.838   5.041
 7466SOL    HW123297   6.970   0.743   5.073
 7466SOL    HW223298   0.040   0.866   5.022
 7467SOL     OW23299   0.910   1.608   1.028
 7467SOL    HW123300   0.940   1.637   1.119
 7467SOL    HW223301   0.849   1.676   0.990
 7468SOL     OW23302   6.039   2.894   3.293
 7468SOL    HW123303   6.119   2.837   3.312
 7468SOL    HW223304   5.956   2.838   3.299
 7469SOL     OW23305   6.547   0.622   0.742
 7469SOL    HW123306   6.608   0.544   0.756
 7469SOL    HW223307   6.456   0.590   0.716
 7470SOL     OW23308   6.557   3.948   3.066
 7470SOL    HW123309   6.503   3.865   3.055
 7470SOL    HW223310   6.496   4.027   3.070
 7471SOL     OW23311   5.315   6.594   5.892
 7471SOL    HW123312   5.234   6.577   5.835
 7471SOL    HW223313   5.352   6.507   5.924
 7472SOL     OW23314   5.924   0.060   5.185
 7472SOL    HW123315   5.999   0.080   5.122
 7472SOL    HW223316   5.856   0.002   5.140
 7473SOL     OW23317   6.126   5.442   3.818
 7473SOL    HW123318   6.175   5.513   3.869
 7473SOL    HW223319   6.179   5.357   3.821
 7474SOL     OW23320   0.890   1.701   5.790
 7474SOL    HW123321   0.967   1.739   5.841
 7474SOL    HW223322   0.807   1.709   5.846
 7475SOL     OW23323   5.070   2.309   2.484
 7475SOL    HW123324   5.093   2.289   2.389
 7475SOL    HW223325   5.056   2.408   2.495
 7476SOL     OW23326   3.236   0.721   4.020
 7476SOL    HW123327   3.311   0.762   3.969
 7476SOL    HW223328   3.150   0.764   3.992
 7477SOL     OW23329   0.494   1.083   5.468
 7477SOL    HW123330   0.493   1.083   5.568
 7477SOL    HW223331   0.483   1.177   5.435
 7478SOL     OW23332   5.574   4.330   5.767
 7478SOL    HW123333   5.670   4.342   5.741
 7478SOL    HW223334   5.568   4.317   5.866
 7479SOL     OW23335   3.768   2.049   2.268
 7479SOL    HW123336   3.706   2.095   2.205
 7479SOL    HW223337   3.763   2.094   2.358
 7480SOL     OW23338   1.036   4.057   2.215
 7480SOL    HW123339   0.957   4.013   2.257
 7480SOL    HW223340   1.058   4.141   2.264
 7481SOL     OW23341   6.326   5.704   1.035
 7481SOL    HW123342   6.400   5.650   0.995
 7481SOL    HW223343   6.359   5.797   1.052
 7482SOL     OW23344   4.799   2.805   3.108
 7482SOL    HW123345   4.771   2.799   3.204
 7482SOL    HW223346   4.744   2.741   3.053
 7483SOL     OW23347   4.839   2.983   4.329
 7483SOL    HW123348   4.791   2.895   4.323
 7483SOL    HW223349   4.924   2.978   4.277
 7484SOL     OW23350   1.548   7.004   4.266
 7484SOL    HW123351   1.590   6.989   4.355
 7484SOL    HW223352   1.511   6.917   4.232
 7485SOL     OW23353   3.525   6.878   4.859
 7485SOL    HW123354   3.505   6.966   4.815
 7485SOL    HW223355   3.538   6.808   4.789
 7486SOL     OW23356   1.817   6.366   0.601
 7486SOL    HW123357   1.748   6.322   0.659
 7486SOL    HW223358   1.788   6.363   0.506
 7487SOL     OW23359   2.058   0.005   3.455
 7487SOL    HW123360   2.104   0.008   3.366
 7487SOL    HW223361   1.978   6.971   3.448
 7488SOL     OW23362   2.723   6.473   4.223
 7488SOL    HW123363   2.823   6.471   4.229
 7488SOL    HW223364   2.688   6.379   4.226
 7489SOL     OW23365   5.390   2.635   5.287
 7489SOL    HW123366   5.358   2.730   5.285
 7489SOL    HW223367   5.408   2.604   5.194
 7490SOL     OW23368   1.314   0.126   2.561
 7490SOL    HW123369   1.248   0.144   2.634
 7490SOL    HW223370   1.392   0.076   2.599
 7491SOL     OW23371   5.360   2.745   0.028
 7491SOL    HW123372   5.280   2.765   6.995
 7491SOL    HW223373   5.433   2.707   6.996
 7492SOL     OW23374   1.666   0.584   3.302
 7492SOL    HW123375   1.701   0.518   3.236
 7492SOL    HW223376   1.742   0.635   3.342
 7493SOL     OW23377   0.195   3.746   6.667
 7493SOL    HW123378   0.238   3.717   6.752
 7493SOL    HW223379   0.136   3.824   6.684
 7494SOL     OW23380   5.365   1.469   2.931
 7494SOL    HW123381   5.306   1.542   2.966
 7494SOL    HW223382   5.311   1.385   2.919
 7495SOL     OW23383   1.633   2.005   6.538
 7495SOL    HW123384   1.657   1.997   6.441
 7495SOL    HW223385   1.555   2.067   6.549
 7496SOL     OW23386   6.297   3.304   4.485
 7496SOL    HW123387   6.236   3.327   4.560
 7496SOL    HW223388   6.366   3.238   4.516
 7497SOL     OW23389   2.278   4.369   6.406
 7497SOL    HW123390   2.241   4.446   6.458
 7497SOL    HW223391   2.266   4.285   6.459
 7498SOL     OW23392   3.379   0.673   5.047
 7498SOL    HW123393   3.317   0.604   5.084
 7498SOL    HW223394   3.419   0.726   5.121
 7499SOL     OW23395   3.426   1.293   2.944
 7499SOL    HW123396   3.509   1.336   2.979
 7499SOL    HW223397   3.352   1.360   2.943
 7500SOL     OW23398   3.499   5.985   2.827
 7500SOL    HW123399   3.554   6.006   2.908
 7500SOL    HW223400   3.514   5.889   2.801
 7501SOL     OW23401   5.200   3.758   4.860
 7501SOL    HW123402   5.103   3.778   4.870
 7501SOL    HW223403   5.237   3.727   4.948
 7502SOL     OW23404   3.043   0.566   4.727
 7502SOL    HW123405   2.945   0.554   4.712
 7502SOL    HW223406   3.060   0.653   4.773
 7503SOL     OW23407   1.568   0.338   0.953
 7503SOL    HW123408   1.660   0.362   0.922
 7503SOL    HW223409   1.523   0.419   0.991
 7504SOL     OW23410   1.008   6.858   3.310
 7504SOL    HW123411   1.095   6.849   3.358
 7504SOL    HW223412   0.947   6.918   3.363
 7505SOL     OW23413   1.591   2.902   6.131
 7505SOL    HW123414   1.497   2.920   6.157
 7505SOL    HW223415   1.616   2.959   6.053
 7506SOL     OW23416   4.851   1.256   3.666
 7506SOL    HW123417   4.832   1.174   3.720
 7506SOL    HW223418   4.796   1.254   3.583
 7507SOL     OW23419   0.006   1.139   2.933
 7507SOL    HW123420   0.105   1.144   2.949
 7507SOL    HW223421   6.983   1.198   2.999
 7508SOL     OW23422   1.104   0.162   1.676
 7508SOL    HW123423   1.171   0.185   1.605
 7508SOL    HW223424   1.022   0.124   1.634
 7509SOL     OW23425   6.124   4.302   0.552
 7509SOL    HW123426   6.166   4.333   0.466
 7509SOL    HW223427   6.196   4.275   0.616
 7510SOL     OW23428   3.767   3.477   5.587
 7510SOL    HW123429   3.721   3.561   5.616
 7510SOL    HW223430   3.866   3.489   5.596
 7511SOL     OW23431   2.508   6.378   3.834
 7511SOL    HW123432   2.459   6.352   3.917
 7511SOL    HW223433   2.484   6.472   3.810
 7512SOL     OW23434   2.624   6.550   6.641
 7512SOL    HW123435   2.671   6.638   6.640
 7512SOL    HW223436   2.639   6.503   6.554
 7513SOL     OW23437   1.755   1.109   1.613
 7513SOL    HW123438   1.835   1.145   1.564
 7513SOL    HW223439   1.719   1.030   1.564
 7514SOL     OW23440   2.748   5.674   1.778
 7514SOL    HW123441   2.834   5.624   1.794
 7514SOL    HW223442   2.769   5.762   1.734
 7515SOL     OW23443   6.955   5.627   4.650
 7515SOL    HW123444   6.955   5.720   4.613
 7515SOL    HW223445   6.922   5.563   4.580
 7516SOL     OW23446   6.609   6.005   5.503
 7516SOL    HW123447   6.669   6.077   5.468
 7516SOL    HW223448   6.657   5.918   5.502
 7517SOL     OW23449   0.418   2.443   0.530
 7517SOL    HW123450   0.454   2.534   0.553
 7517SOL    HW223451   0.445   2.377   0.600
 7518SOL     OW23452   4.289   4.765   3.847
 7518SOL    HW123453   4.306   4.804   3.756
 7518SOL    HW223454   4.301   4.836   3.916
 7519SOL     OW23455   0.351   6.345   3.643
 7519SOL    HW123456   0.449   6.363   3.654
 7519SOL    HW223457   0.338   6.280   3.568
 7520SOL     OW23458   1.994   6.892   2.393
 7520SOL    HW123459   1.908   6.859   2.353
 7520SOL    HW223460   2.045   6.943   2.324
 7521SOL     OW23461   4.633   3.707   5.756
 7521SOL    HW123462   4.680   3.795   5.748
 7521SOL    HW223463   4.689   3.644   5.810
 7522SOL     OW23464   1.562   1.604   5.610
 7522SOL    HW123465   1.594   1.600   5.704
 7522SOL    HW223466   1.462   1.606   5.609
 7523SOL     OW23467   6.160   0.276   6.577
 7523SOL    HW123468   6.066   0.285   6.611
 7523SOL    HW223469   6.162   0.203   6.508
 7524SOL     OW23470   1.370   2.744   5.206
 7524SOL    HW123471   1.352   2.651   5.238
 7524SOL    HW223472   1.452   2.744   5.149
 7525SOL     OW23473   3.760   0.674   6.456
 7525SOL    HW123474   3.691   0.601   6.463
 7525SOL    HW223475   3.720   0.752   6.408
 7526SOL     OW23476   3.490   3.276   1.673
 7526SOL    HW123477   3.468   3.263   1.770
 7526SOL    HW223478   3.589   3.277   1.661
 7527SOL     OW23479   3.078   6.002   3.534
 7527SOL    HW123480   3.064   5.956   3.446
 7527SOL    HW223481   3.105   6.097   3.517
 7528SOL     OW23482   5.963   2.533   0.916
 7528SOL    HW123483   5.920   2.595   0.981
 7528SOL    HW223484   5.923   2.547   0.825
 7529SOL     OW23485   5.125   1.711   4.608
 7529SOL    HW123486   5.086   1.803   4.602
 7529SOL    HW223487   5.196   1.700   4.539
 7530SOL     OW23488   0.124   3.057   2.053
 7530SOL    HW123489   0.186   3.024   1.982
 7530SOL    HW223490   0.039   3.090   2.010
 7531SOL     OW23491   5.736   3.303   4.763
 7531SOL    HW123492   5.834   3.280   4.761
 7531SOL    HW223493   5.713   3.359   4.684
 7532SOL     OW23494   4.868   5.671   6.972
 7532SOL    HW123495   4.917   5.752   6.940
 7532SOL    HW223496   4.772   5.679   6.948
 7533SOL     OW23497   3.389   0.972   1.604
 7533SOL    HW123498   3.455   0.982   1.530
 7533SOL    HW223499   3.314   0.913   1.574
 7534SOL     OW23500   4.203   6.771   5.283
 7534SOL    HW123501   4.152   6.697   5.240
 7534SOL    HW223502   4.257   6.819   5.214
 7535SOL     OW23503   2.197   0.727   4.819
 7535SOL    HW123504   2.210   0.809   4.764
 7535SOL    HW223505   2.107   0.688   4.800
 7536SOL     OW23506   5.059   4.657   3.969
 7536SOL    HW123507   5.015   4.567   3.967
 7536SOL    HW223508   5.035   4.707   3.886
 7537SOL     OW23509   2.828   5.926   1.713
 7537SOL    HW123510   2.737   5.959   1.690
 7537SOL    HW223511   2.897   5.989   1.676
 7538SOL     OW23512   1.717   2.549   1.124
 7538SOL    HW123513   1.809   2.585   1.108
 7538SOL    HW223514   1.689   2.492   1.048
 7539SOL     OW23515   1.745   3.645   3.957
 7539SOL    HW123516   1.824   3.632   3.896
 7539SOL    HW223517   1.731   3.742   3.973
 7540SOL     OW23518   4.086   0.405   4.416
 7540SOL    HW123519   4.101   0.452   4.503
 7540SOL    HW223520   4.137   0.319   4.416
 7541SOL     OW23521   0.410   4.471   5.218
 7541SOL    HW123522   0.414   4.451   5.316
 7541SOL    HW223523   0.442   4.392   5.166
 7542SOL     OW23524   1.200   5.016   6.943
 7542SOL    HW123525   1.292   5.003   6.981
 7542SOL    HW223526   1.197   5.103   6.893
 7543SOL     OW23527   4.082   1.277   6.008
 7543SOL    HW123528   3.990   1.294   6.045
 7543SOL    HW223529   4.136   1.361   6.014
 7544SOL     OW23530   6.831   2.196   2.557
 7544SOL    HW123531   6.746   2.159   2.519
 7544SOL    HW223532   6.818   2.293   2.578
 7545SOL     OW23533   0.409   5.164   0.360
 7545SOL    HW123534   0.447   5.254   0.339
 7545SOL    HW223535   0.319   5.155   0.318
 7546SOL     OW23536   3.200   2.140   1.069
 7546SOL    HW123537   3.249   2.209   1.122
 7546SOL    HW223538   3.196   2.055   1.122
 7547SOL     OW23539   4.874   1.853   0.642
 7547SOL    HW123540   4.964   1.878   0.678
 7547SOL    HW223541   4.831   1.787   0.703
 7548SOL     OW23542   4.625   1.792   6.925
 7548SOL    HW123543   4.606   1.740   7.009
 7548SOL    HW223544   4.564   1.760   6.853
 7549SOL     OW23545   3.906   2.973   6.675
 7549SOL    HW123546   3.916   2.972   6.774
 7549SOL    HW223547   3.808   2.976   6.652
 7550SOL     OW23548   2.436   5.018   3.480
 7550SOL    HW123549   2.361   4.976   3.429
 7550SOL    HW223550   2.398   5.075   3.553
 7551SOL     OW23551   5.767   3.588   6.552
 7551SOL    HW123552   5.686   3.575   6.609
 7551SOL    HW223553   5.832   3.515   6.571
 7552SOL     OW23554   1.471   6.010   2.866
 7552SOL    HW123555   1.413   5.945   2.816
 7552SOL    HW223556   1.566   5.979   2.864
 7553SOL     OW23557   4.049   6.568   5.169
 7553SOL    HW123558   4.002   6.528   5.090
 7553SOL    HW223559   4.033   6.510   5.249
 7554SOL     OW23560   4.965   1.233   0.112
 7554SOL    HW123561   5.045   1.256   0.057
 7554SOL    HW223562   4.902   1.310   0.115
 7555SOL     OW23563   2.203   4.748   6.252
 7555SOL    HW123564   2.111   4.743   6.212
 7555SOL    HW223565   2.199   4.801   6.337
 7556SOL     OW23566   2.425   2.760   0.468
 7556SOL    HW123567   2.384   2.689   0.410
 7556SOL    HW223568   2.422   2.731   0.563
 7557SOL     OW23569   5.334   0.980   5.592
 7557SOL    HW123570   5.251   0.925   5.585
 7557SOL    HW223571   5.317   1.056   5.655
 7558SOL     OW23572   1.977   2.369   4.289
 7558SOL    HW123573   1.887   2.326   4.295
 7558SOL    HW223574   1.980   2.450   4.347
 7559SOL     OW23575   4.737   3.582   0.776
 7559SOL    HW123576   4.741   3.531   0.690
 7559SOL    HW223577   4.744   3.517   0.852
 7560SOL     OW23578   5.380   6.317   1.118
 7560SOL    HW123579   5.387   6.302   1.217
 7560SOL    HW223580   5.414   6.236   1.070
 7561SOL     OW23581   0.810   2.793   6.737
 7561SOL    HW123582   0.819   2.892   6.745
 7561SOL    HW223583   0.788   2.769   6.642
 7562SOL     OW23584   0.580   5.656   4.395
 7562SOL    HW123585   0.584   5.588   4.468
 7562SOL    HW223586   0.528   5.620   4.319
 7563SOL     OW23587   3.267   0.379   1.349
 7563SOL    HW123588   3.255   0.284   1.377
 7563SOL    HW223589   3.353   0.414   1.384
 7564SOL     OW23590   3.709   6.918   3.536
 7564SOL    HW123591   3.712   6.846   3.468
 7564SOL    HW223592   3.781   6.903   3.604
 7565SOL     OW23593   5.494   3.077   6.871
 7565SOL    HW123594   5.577   3.055   6.922
 7565SOL    HW223595   5.476   3.175   6.878
 7566SOL     OW23596   6.512   4.804   3.169
 7566SOL    HW123597   6.536   4.896   3.202
 7566SOL    HW223598   6.593   4.761   3.130
 7567SOL     OW23599   1.812   1.854   5.426
 7567SOL    HW123600   1.714   1.834   5.423
 7567SOL    HW223601   1.851   1.820   5.511
 7568SOL     OW23602   5.288   5.494   3.266
 7568SOL    HW123603   5.222   5.557   3.224
 7568SOL    HW223604   5.260   5.474   3.360
 7569SOL     OW23605   3.622   5.059   5.983
 7569SOL    HW123606   3.557   5.111   6.038
 7569SOL    HW223607   3.579   5.031   5.898
 7570SOL     OW23608   5.268   3.694   5.119
 7570SOL    HW123609   5.275   3.610   5.173
 7570SOL    HW223610   5.343   3.755   5.143
 7571SOL     OW23611   4.284   4.704   3.028
 7571SOL    HW123612   4.228   4.726   3.108
 7571SOL    HW223613   4.267   4.771   2.956
 7572SOL     OW23614   4.423   1.161   1.631
 7572SOL    HW123615   4.499   1.135   1.572
 7572SOL    HW223616   4.455   1.169   1.725
 7573SOL     OW23617   0.179   0.451   5.307
 7573SOL    HW123618   0.188   0.389   5.229
 7573SOL    HW223619   0.260   0.442   5.366
 7574SOL     OW23620   5.137   0.698   5.233
 7574SOL    HW123621   5.103   0.685   5.140
 7574SOL    HW223622   5.087   0.638   5.296
 7575SOL     OW23623   5.362   1.153   6.244
 7575SOL    HW123624   5.337   1.065   6.203
 7575SOL    HW223625   5.439   1.192   6.194
 7576SOL     OW23626   5.054   3.115   0.629
 7576SOL    HW123627   5.112   3.063   0.693
 7576SOL    HW223628   5.112   3.172   0.570
 7577SOL     OW23629   0.704   6.766   6.925
 7577SOL    HW123630   0.658   6.677   6.933
 7577SOL    HW223631   0.635   6.838   6.921
 7578SOL     OW23632   3.028   5.558   1.796
 7578SOL    HW123633   3.091   5.620   1.842
 7578SOL    HW223634   3.069   5.468   1.789
 7579SOL     OW23635   0.134   0.811   2.618
 7579SOL    HW123636   0.074   0.767   2.551
 7579SOL    HW223637   0.170   0.742   2.681
 7580SOL     OW23638   0.737   4.062   4.273
 7580SOL    HW123639   0.715   4.076   4.369
 7580SOL    HW223640   0.667   4.004   4.231
 7581SOL     OW23641   0.117   1.856   2.356
 7581SOL    HW123642   0.107   1.935   2.416
 7581SOL    HW223643   0.208   1.816   2.368
 7582SOL     OW23644   3.804   1.333   1.911
 7582SOL    HW123645   3.803   1.236   1.888
 7582SOL    HW223646   3.873   1.380   1.855
 7583SOL     OW23647   5.679   2.866   2.163
 7583SOL    HW123648   5.643   2.911   2.244
 7583SOL    HW223649   5.691   2.933   2.090
 7584SOL     OW23650   3.309   0.507   2.693
 7584SOL    HW123651   3.348   0.538   2.606
 7584SOL    HW223652   3.233   0.567   2.719
 7585SOL     OW23653   1.923   2.805   6.714
 7585SOL    HW123654   1.861   2.835   6.786
 7585SOL    HW223655   1.903   2.710   6.690
 7586SOL     OW23656   2.579   0.467   3.831
 7586SOL    HW123657   2.527   0.464   3.917
 7586SOL    HW223658   2.672   0.434   3.848
 7587SOL     OW23659   2.221   2.029   6.952
 7587SOL    HW123660   2.282   1.955   6.923
 7587SOL    HW223661   2.267   2.117   6.937
 7588SOL     OW23662   1.195   2.790   3.537
 7588SOL    HW123663   1.097   2.774   3.548
 7588SOL    HW223664   1.245   2.746   3.611
 7589SOL     OW23665   0.290   0.436   2.362
 7589SOL    HW123666   0.365   0.397   2.310
 7589SOL    HW223667   0.232   0.491   2.301
 7590SOL     OW23668   3.929   2.677   6.848
 7590SOL    HW123669   3.962   2.699   6.756
 7590SOL    HW223670   3.947   2.754   6.909
 7591SOL     OW23671   6.630   3.841   0.791
 7591SOL    HW123672   6.563   3.914   0.807
 7591SOL    HW223673   6.636   3.782   0.871
 7592SOL     OW23674   6.910   5.586   5.088
 7592SOL    HW123675   6.931   5.672   5.134
 7592SOL    HW223676   6.971   5.514   5.120
 7593SOL     OW23677   6.368   2.880   0.275
 7593SOL    HW123678   6.277   2.888   0.234
 7593SOL    HW223679   6.359   2.850   0.370
 7594SOL     OW23680   1.543   4.408   2.550
 7594SOL    HW123681   1.615   4.403   2.481
 7594SOL    HW223682   1.511   4.502   2.559
 7595SOL     OW23683   6.199   2.703   5.907
 7595SOL    HW123684   6.132   2.715   5.834
 7595SOL    HW223685   6.263   2.781   5.907
 7596SOL     OW23686   3.967   6.345   3.472
 7596SOL    HW123687   3.964   6.445   3.469
 7596SOL    HW223688   4.056   6.313   3.440
 7597SOL     OW23689   2.163   6.744   3.082
 7597SOL    HW123690   2.099   6.708   3.150
 7597SOL    HW223691   2.219   6.669   3.047
 7598SOL     OW23692   6.513   1.012   3.089
 7598SOL    HW123693   6.431   0.961   3.062
 7598SOL    HW223694   6.572   1.024   3.009
 7599SOL     OW23695   5.421   1.866   2.343
 7599SOL    HW123696   5.395   1.855   2.247
 7599SOL    HW223697   5.519   1.881   2.349
 7600SOL     OW23698   1.171   1.640   3.327
 7600SOL    HW123699   1.160   1.661   3.424
 7600SOL    HW223700   1.260   1.595   3.312
 7601SOL     OW23701   2.033   4.377   2.446
 7601SOL    HW123702   2.079   4.463   2.469
 7601SOL    HW223703   1.936   4.384   2.469
 7602SOL     OW23704   2.462   3.453   6.901
 7602SOL    HW123705   2.390   3.392   6.934
 7602SOL    HW223706   2.425   3.544   6.887
 7603SOL     OW23707   1.202   6.038   6.184
 7603SOL    HW123708   1.181   6.135   6.179
 7603SOL    HW223709   1.301   6.025   6.177
 7604SOL     OW23710   1.752   3.344   4.398
 7604SOL    HW123711   1.797   3.398   4.469
 7604SOL    HW223712   1.778   3.380   4.308
 7605SOL     OW23713   1.261   0.878   1.389
 7605SOL    HW123714   1.306   0.895   1.301
 7605SOL    HW223715   1.329   0.881   1.462
 7606SOL     OW23716   5.917   3.914   4.701
 7606SOL    HW123717   5.984   3.849   4.666
 7606SOL    HW223718   5.965   3.988   4.749
 7607SOL     OW23719   3.422   4.918   0.015
 7607SOL    HW123720   3.401   4.961   6.951
 7607SOL    HW223721   3.479   4.980   0.069
 7608SOL     OW23722   3.815   4.131   1.318
 7608SOL    HW123723   3.732   4.182   1.295
 7608SOL    HW223724   3.809   4.098   1.412
 7609SOL     OW23725   1.692   2.638   4.306
 7609SOL    HW123726   1.708   2.658   4.209
 7609SOL    HW223727   1.654   2.545   4.314
 7610SOL     OW23728   4.324   4.560   6.266
 7610SOL    HW123729   4.384   4.637   6.244
 7610SOL    HW223730   4.345   4.483   6.204
 7611SOL     OW23731   6.003   4.178   1.708
 7611SOL    HW123732   6.002   4.255   1.773
 7611SOL    HW223733   5.909   4.149   1.690
 7612SOL     OW23734   4.934   3.260   2.239
 7612SOL    HW123735   4.863   3.260   2.168
 7612SOL    HW223736   4.998   3.334   2.223
 7613SOL     OW23737   0.014   2.741   1.272
 7613SOL    HW123738   0.076   2.807   1.314
 7613SOL    HW223739   0.066   2.662   1.240
 7614SOL     OW23740   5.532   3.467   0.974
 7614SOL    HW123741   5.468   3.391   0.979
 7614SOL    HW223742   5.489   3.549   1.013
 7615SOL     OW23743   3.819   4.743   0.088
 7615SOL    HW123744   3.830   4.671   0.019
 7615SOL    HW223745   3.856   4.829   0.054
 7616SOL     OW23746   6.311   6.305   4.423
 7616SOL    HW123747   6.258   6.385   4.451
 7616SOL    HW223748   6.409   6.323   4.436
 7617SOL     OW23749   4.071   6.518   3.075
 7617SOL    HW123750   4.106   6.473   2.993
 7617SOL    HW223751   4.143   6.518   3.145
 7618SOL     OW23752   0.053   2.291   5.906
 7618SOL    HW123753   0.031   2.201   5.870
 7618SOL    HW223754   0.137   2.326   5.862
 7619SOL     OW23755   6.869   3.368   4.810
 7619SOL    HW123756   6.947   3.430   4.806
 7619SOL    HW223757   6.866   3.312   4.728
 7620SOL     OW23758   4.137   5.752   1.495
 7620SOL    HW123759   4.162   5.804   1.578
 7620SOL    HW223760   4.160   5.806   1.414
 7621SOL     OW23761   6.534   1.176   0.840
 7621SOL    HW123762   6.533   1.205   0.745
 7621SOL    HW223763   6.475   1.096   0.852
 7622SOL     OW23764   4.108   4.937   6.797
 7622SOL    HW123765   4.164   4.877   6.854
 7622SOL    HW223766   4.100   4.899   6.705
 7623SOL     OW23767   5.128   3.311   6.433
 7623SOL    HW123768   5.140   3.231   6.375
 7623SOL    HW223769   5.102   3.282   6.525
 7624SOL     OW23770   0.056   3.853   5.166
 7624SOL    HW123771   0.026   3.758   5.158
 7624SOL    HW223772   0.074   3.890   5.075
 7625SOL     OW23773   5.219   0.670   0.837
 7625SOL    HW123774   5.185   0.749   0.887
 7625SOL    HW223775   5.265   0.701   0.753
 7626SOL     OW23776   6.236   0.165   4.581
 7626SOL    HW123777   6.161   0.100   4.578
 7626SOL    HW223778   6.288   0.153   4.666
 7627SOL     OW23779   5.095   2.913   0.219
 7627SOL    HW123780   5.085   2.843   0.289
 7627SOL    HW223781   5.187   2.952   0.224
 7628SOL     OW23782   3.376   2.527   1.641
 7628SOL    HW123783   3.313   2.455   1.670
 7628SOL    HW223784   3.469   2.505   1.671
 7629SOL     OW23785   0.313   5.018   3.637
 7629SOL    HW123786   0.387   5.001   3.572
 7629SOL    HW223787   0.351   5.041   3.726
 7630SOL     OW23788   0.658   0.254   1.462
 7630SOL    HW123789   0.625   0.161   1.472
 7630SOL    HW223790   0.604   0.301   1.391
 7631SOL     OW23791   0.626   1.660   5.904
 7631SOL    HW123792   0.584   1.609   5.979
 7631SOL    HW223793   0.605   1.757   5.915
 7632SOL     OW23794   4.698   4.286   1.443
 7632SOL    HW123795   4.768   4.332   1.498
 7632SOL    HW223796   4.737   4.256   1.356
 7633SOL     OW23797   5.409   6.941   2.009
 7633SOL    HW123798   5.450   6.857   1.975
 7633SOL    HW223799   5.316   6.923   2.040
 7634SOL     OW23800   1.897   1.532   2.074
 7634SOL    HW123801   1.906   1.437   2.044
 7634SOL    HW223802   1.819   1.542   2.134
 7635SOL     OW23803   3.711   4.886   5.254
 7635SOL    HW123804   3.764   4.870   5.337
 7635SOL    HW223805   3.616   4.860   5.269
 7636SOL     OW23806   1.650   3.152   4.234
 7636SOL    HW123807   1.699   3.214   4.295
 7636SOL    HW223808   1.712   3.118   4.163
 7637SOL     OW23809   3.102   6.292   2.176
 7637SOL    HW123810   3.091   6.208   2.123
 7637SOL    HW223811   3.021   6.350   2.163
 7638SOL     OW23812   2.108   5.941   1.470
 7638SOL    HW123813   2.078   5.937   1.375
 7638SOL    HW223814   2.034   5.909   1.529
 7639SOL     OW23815   0.391   1.947   1.302
 7639SOL    HW123816   0.454   1.901   1.240
 7639SOL    HW223817   0.374   2.040   1.270
 7640SOL     OW23818   3.378   1.673   5.896
 7640SOL    HW123819   3.428   1.589   5.874
 7640SOL    HW223820   3.432   1.753   5.867
 7641SOL     OW23821   1.465   3.923   2.259
 7641SOL    HW123822   1.366   3.921   2.246
 7641SOL    HW223823   1.503   3.834   2.237
 7642SOL     OW23824   3.601   2.069   2.638
 7642SOL    HW123825   3.597   1.972   2.613
 7642SOL    HW223826   3.694   2.103   2.628
 7643SOL     OW23827   4.649   2.273   3.332
 7643SOL    HW123828   4.580   2.273   3.405
 7643SOL    HW223829   4.702   2.188   3.336
 7644SOL     OW23830   4.166   2.583   1.709
 7644SOL    HW123831   4.174   2.675   1.671
 7644SOL    HW223832   4.247   2.562   1.764
 7645SOL     OW23833   5.267   3.467   5.279
 7645SOL    HW123834   5.314   3.487   5.365
 7645SOL    HW223835   5.183   3.418   5.298
 7646SOL     OW23836   2.047   2.843   3.390
 7646SOL    HW123837   2.129   2.787   3.378
 7646SOL    HW223838   1.965   2.786   3.376
 7647SOL     OW23839   0.122   2.635   3.353
 7647SOL    HW123840   0.174   2.704   3.403
 7647SOL    HW223841   0.068   2.581   3.418
 7648SOL     OW23842   2.603   1.846   2.963
 7648SOL    HW123843   2.673   1.914   2.943
 7648SOL    HW223844   2.545   1.833   2.883
 7649SOL     OW23845   0.829   0.774   3.692
 7649SOL    HW123846   0.853   0.792   3.787
 7649SOL    HW223847   0.831   0.860   3.640
 7650SOL     OW23848   5.738   1.373   0.684
 7650SOL    HW123849   5.705   1.467   0.678
 7650SOL    HW223850   5.670   1.317   0.731
 7651SOL     OW23851   1.932   0.519   4.007
 7651SOL    HW123852   2.000   0.446   4.005
 7651SOL    HW223853   1.846   0.486   3.970
 7652SOL     OW23854   6.325   3.088   4.951
 7652SOL    HW123855   6.372   3.086   5.039
 7652SOL    HW223856   6.230   3.059   4.963
 7653SOL     OW23857   0.306   1.992   6.946
 7653SOL    HW123858   0.238   1.966   6.878
 7653SOL    HW223859   0.300   1.930   0.000
 7654SOL     OW23860   4.801   3.028   4.609
 7654SOL    HW123861   4.794   3.017   4.510
 7654SOL    HW223862   4.839   3.118   4.630
 7655SOL     OW23863   4.489   6.510   2.952
 7655SOL    HW123864   4.555   6.533   3.023
 7655SOL    HW223865   4.416   6.453   2.991
 7656SOL     OW23866   3.738   3.693   6.999
 7656SOL    HW123867   3.735   3.791   7.018
 7656SOL    HW223868   3.646   3.660   6.978
 7657SOL     OW23869   1.146   2.153   3.444
 7657SOL    HW123870   1.171   2.092   3.519
 7657SOL    HW223871   1.138   2.247   3.479
 7658SOL     OW23872   3.116   0.461   6.624
 7658SOL    HW123873   3.202   0.411   6.631
 7658SOL    HW223874   3.049   0.405   6.575
 7659SOL     OW23875   5.447   4.934   6.519
 7659SOL    HW123876   5.360   4.953   6.473
 7659SOL    HW223877   5.460   4.835   6.528
 7660SOL     OW23878   0.380   5.783   3.216
 7660SOL    HW123879   0.434   5.740   3.288
 7660SOL    HW223880   0.341   5.712   3.157
 7661SOL     OW23881   5.612   2.098   5.250
 7661SOL    HW123882   5.569   2.103   5.340
 7661SOL    HW223883   5.638   2.190   5.220
 7662SOL     OW23884   1.889   2.912   4.430
 7662SOL    HW123885   1.922   2.821   4.453
 7662SOL    HW223886   1.836   2.949   4.507
 7663SOL     OW23887   6.412   5.375   5.950
 7663SOL    HW123888   6.320   5.357   5.983
 7663SOL    HW223889   6.478   5.361   6.023
 7664SOL     OW23890   4.083   0.695   1.911
 7664SOL    HW123891   4.080   0.602   1.874
 7664SOL    HW223892   4.169   0.709   1.961
 7665SOL     OW23893   5.763   1.096   4.329
 7665SOL    HW123894   5.746   1.002   4.297
 7665SOL    HW223895   5.724   1.160   4.263
 7666SOL     OW23896   0.888   4.952   2.418
 7666SOL    HW123897   0.877   4.980   2.322
 7666SOL    HW223898   0.890   4.853   2.424
 7667SOL     OW23899   4.242   0.360   2.598
 7667SOL    HW123900   4.298   0.424   2.651
 7667SOL    HW223901   4.195   0.410   2.525
 7668SOL     OW23902   3.054   5.064   0.695
 7668SOL    HW123903   3.124   5.007   0.738
 7668SOL    HW223904   2.969   5.012   0.687
 7669SOL     OW23905   4.858   0.857   5.136
 7669SOL    HW123906   4.909   0.914   5.072
 7669SOL    HW223907   4.761   0.882   5.133
 7670SOL     OW23908   0.793   4.574   0.313
 7670SOL    HW123909   0.755   4.525   0.235
 7670SOL    HW223910   0.735   4.559   0.393
 7671SOL     OW23911   3.548   1.378   1.815
 7671SOL    HW123912   3.628   1.363   1.873
 7671SOL    HW223913   3.502   1.291   1.798
 7672SOL     OW23914   0.208   6.295   2.922
 7672SOL    HW123915   0.136   6.330   2.863
 7672SOL    HW223916   0.168   6.261   3.008
 7673SOL     OW23917   1.526   6.513   1.376
 7673SOL    HW123918   1.506   6.519   1.474
 7673SOL    HW223919   1.446   6.479   1.327
 7674SOL     OW23920   4.662   0.886   3.499
 7674SOL    HW123921   4.670   0.880   3.399
 7674SOL    HW223922   4.669   0.795   3.539
 7675SOL     OW23923   6.156   6.832   2.638
 7675SOL    HW123924   6.076   6.840   2.579
 7675SOL    HW223925   6.198   6.922   2.649
 7676SOL     OW23926   2.451   1.714   0.340
 7676SOL    HW123927   2.548   1.739   0.344
 7676SOL    HW223928   2.398   1.792   0.306
 7677SOL     OW23929   0.975   4.457   1.173
 7677SOL    HW123930   0.966   4.360   1.196
 7677SOL    HW223931   1.066   4.489   1.201
 7678SOL     OW23932   2.476   2.741   5.238
 7678SOL    HW123933   2.486   2.841   5.233
 7678SOL    HW223934   2.431   2.708   5.155
 7679SOL     OW23935   3.078   6.643   5.852
 7679SOL    HW123936   3.167   6.644   5.806
 7679SOL    HW223937   3.029   6.727   5.832
 7680SOL     OW23938   1.752   0.807   0.568
 7680SOL    HW123939   1.814   0.877   0.531
 7680SOL    HW223940   1.683   0.784   0.499
 7681SOL     OW23941   2.629   0.597   1.162
 7681SOL    HW123942   2.562   0.532   1.126
 7681SOL    HW223943   2.656   0.568   1.254
 7682SOL     OW23944   3.575   7.024   2.365
 7682SOL    HW123945   3.616   0.049   2.442
 7682SOL    HW223946   3.647   6.994   2.303
 7683SOL     OW23947   6.149   2.237   4.250
 7683SOL    HW123948   6.103   2.310   4.199
 7683SOL    HW223949   6.223   2.200   4.194
 7684SOL     OW23950   3.990   1.829   1.407
 7684SOL    HW123951   3.918   1.759   1.410
 7684SOL    HW223952   3.968   1.902   1.471
 7685SOL     OW23953   3.024   1.475   5.977
 7685SOL    HW123954   3.064   1.563   6.002
 7685SOL    HW223955   2.924   1.482   5.977
 7686SOL     OW23956   0.269   6.158   3.465
 7686SOL    HW123957   0.176   6.192   3.457
 7686SOL    HW223958   0.267   6.063   3.497
 7687SOL     OW23959   6.096   5.478   4.295
 7687SOL    HW123960   6.018   5.495   4.235
 7687SOL    HW223961   6.161   5.554   4.289
 7688SOL     OW23962   0.807   5.984   5.311
 7688SOL    HW123963   0.842   6.056   5.370
 7688SOL    HW223964   0.864   5.977   5.229
 7689SOL     OW23965   5.728   6.346   2.508
 7689SOL    HW123966   5.798   6.369   2.576
 7689SOL    HW223967   5.765   6.361   2.416
 7690SOL     OW23968   5.308   4.242   0.127
 7690SOL    HW123969   5.258   4.268   0.045
 7690SOL    HW223970   5.326   4.143   0.125
 7691SOL     OW23971   4.845   3.736   3.706
 7691SOL    HW123972   4.929   3.696   3.670
 7691SOL    HW223973   4.810   3.681   3.782
 7692SOL     OW23974   0.867   6.188   2.035
 7692SOL    HW123975   0.819   6.145   2.112
 7692SOL    HW223976   0.803   6.205   1.961
 7693SOL     OW23977   3.212   0.133   1.879
 7693SOL    HW123978   3.243   0.175   1.794
 7693SOL    HW223979   3.253   0.180   1.957
 7694SOL     OW23980   4.977   4.117   4.092
 7694SOL    HW123981   4.958   4.023   4.066
 7694SOL    HW223982   5.001   4.170   4.011
 7695SOL     OW23983   4.362   7.014   1.009
 7695SOL    HW123984   4.290   6.946   0.997
 7695SOL    HW223985   4.331   0.061   1.073
 7696SOL     OW23986   0.296   0.855   5.934
 7696SOL    HW123987   0.363   0.928   5.919
 7696SOL    HW223988   0.237   0.879   6.012
 7697SOL     OW23989   2.402   0.143   3.403
 7697SOL    HW123990   2.493   0.129   3.443
 7697SOL    HW223991   2.359   0.055   3.384
 7698SOL     OW23992   5.482   2.101   3.809
 7698SOL    HW123993   5.530   2.148   3.734
 7698SOL    HW223994   5.512   2.006   3.814
 7699SOL     OW23995   3.450   6.406   5.897
 7699SOL    HW123996   3.543   6.424   5.930
 7699SOL    HW223997   3.443   6.310   5.870
 7700SOL     OW23998   4.917   5.749   3.057
 7700SOL    HW123999   4.938   5.799   2.973
 7700SOL    HW224000   4.872   5.663   3.035
 7701SOL     OW24001   6.436   2.049   0.056
 7701SOL    HW124002   6.371   2.102   0.002
 7701SOL    HW224003   6.505   2.009   7.019
 7702SOL     OW24004   3.819   6.240   4.920
 7702SOL    HW124005   3.835   6.195   5.008
 7702SOL    HW224006   3.728   6.216   4.886
 7703SOL     OW24007   6.224   6.521   6.171
 7703SOL    HW124008   6.127   6.513   6.150
 7703SOL    HW224009   6.247   6.461   6.247
 7704SOL     OW24010   5.704   0.508   4.327
 7704SOL    HW124011   5.734   0.596   4.363
 7704SOL    HW224012   5.756   0.434   4.371
 7705SOL     OW24013   2.657   6.214   0.641
 7705SOL    HW124014   2.609   6.252   0.720
 7705SOL    HW224015   2.616   6.247   0.557
 7706SOL     OW24016   3.230   3.722   5.053
 7706SOL    HW124017   3.254   3.809   5.010
 7706SOL    HW224018   3.270   3.647   5.001
 7707SOL     OW24019   0.217   4.352   6.015
 7707SOL    HW124020   0.221   4.253   6.029
 7707SOL    HW224021   0.310   4.390   6.018
 7708SOL     OW24022   0.570   6.780   5.650
 7708SOL    HW124023   0.500   6.844   5.619
 7708SOL    HW224024   0.653   6.792   5.595
 7709SOL     OW24025   6.670   5.010   2.473
 7709SOL    HW124026   6.741   5.079   2.457
 7709SOL    HW224027   6.656   4.999   2.571
 7710SOL     OW24028   3.571   2.604   0.480
 7710SOL    HW124029   3.602   2.623   0.574
 7710SOL    HW224030   3.471   2.594   0.480
 7711SOL     OW24031   5.578   6.716   5.820
 7711SOL    HW124032   5.632   6.637   5.792
 7711SOL    HW224033   5.481   6.696   5.810
 7712SOL     OW24034   0.184   5.260   1.365
 7712SOL    HW124035   0.246   5.306   1.429
 7712SOL    HW224036   0.112   5.324   1.336
 7713SOL     OW24037   1.616   3.878   0.504
 7713SOL    HW124038   1.639   3.975   0.494
 7713SOL    HW224039   1.608   3.836   0.414
 7714SOL     OW24040   0.317   4.518   5.518
 7714SOL    HW124041   0.280   4.465   5.594
 7714SOL    HW224042   0.242   4.553   5.462
 7715SOL     OW24043   3.066   2.624   0.345
 7715SOL    HW124044   3.011   2.703   0.373
 7715SOL    HW224045   3.005   2.546   0.327
 7716SOL     OW24046   0.160   4.929   1.808
 7716SOL    HW124047   0.200   4.937   1.716
 7716SOL    HW224048   0.063   4.949   1.804
 7717SOL     OW24049   1.684   0.990   5.801
 7717SOL    HW124050   1.617   0.961   5.733
 7717SOL    HW224051   1.675   1.088   5.818
 7718SOL     OW24052   6.752   4.465   3.497
 7718SOL    HW124053   6.822   4.402   3.531
 7718SOL    HW224054   6.771   4.557   3.532
 7719SOL     OW24055   0.248   4.129   5.279
 7719SOL    HW124056   0.314   4.108   5.351
 7719SOL    HW224057   0.204   4.044   5.249
 7720SOL     OW24058   6.630   2.630   6.474
 7720SOL    HW124059   6.719   2.621   6.429
 7720SOL    HW224060   6.606   2.543   6.516
 7721SOL     OW24061   0.601   5.135   2.383
 7721SOL    HW124062   0.528   5.156   2.449
 7721SOL    HW224063   0.587   5.043   2.346
 7722SOL     OW24064   1.269   3.880   3.506
 7722SOL    HW124065   1.359   3.905   3.541
 7722SOL    HW224066   1.201   3.946   3.539
 7723SOL     OW24067   4.635   3.499   6.394
 7723SOL    HW124068   4.716   3.546   6.358
 7723SOL    HW224069   4.618   3.417   6.339
 7724SOL     OW24070   2.646   3.672   0.923
 7724SOL    HW124071   2.708   3.603   0.962
 7724SOL    HW224072   2.587   3.708   0.995
 7725SOL     OW24073   6.170   1.516   2.623
 7725SOL    HW124074   6.145   1.516   2.526
 7725SOL    HW224075   6.257   1.467   2.635
 7726SOL     OW24076   1.865   5.157   5.772
 7726SOL    HW124077   1.910   5.235   5.816
 7726SOL    HW224078   1.935   5.091   5.743
 7727SOL     OW24079   6.446   2.513   2.840
 7727SOL    HW124080   6.377   2.457   2.794
 7727SOL    HW224081   6.535   2.466   2.838
 7728SOL     OW24082   2.223   2.971   5.320
 7728SOL    HW124083   2.173   3.017   5.247
 7728SOL    HW224084   2.318   2.955   5.290
 7729SOL     OW24085   6.255   1.938   1.192
 7729SOL    HW124086   6.242   2.025   1.143
 7729SOL    HW224087   6.208   1.942   1.280
 7730SOL     OW24088   6.583   4.975   6.844
 7730SOL    HW124089   6.677   4.943   6.854
 7730SOL    HW224090   6.579   5.074   6.857
 7731SOL     OW24091   5.851   1.061   0.018
 7731SOL    HW124092   5.770   1.003   0.006
 7731SOL    HW224093   5.925   1.028   6.984
 7732SOL     OW24094   4.576   6.625   0.641
 7732SOL    HW124095   4.675   6.624   0.654
 7732SOL    HW224096   4.531   6.627   0.730
 7733SOL     OW24097   5.588   6.129   2.418
 7733SOL    HW124098   5.659   6.060   2.433
 7733SOL    HW224099   5.626   6.220   2.431
 7734SOL     OW24100   1.438   4.623   4.136
 7734SOL    HW124101   1.493   4.704   4.161
 7734SOL    HW224102   1.387   4.592   4.216
 7735SOL     OW24103   5.155   6.299   6.343
 7735SOL    HW124104   5.249   6.326   6.366
 7735SOL    HW224105   5.138   6.318   6.246
 7736SOL     OW24106   2.470   2.753   6.979
 7736SOL    HW124107   2.527   2.818   0.005
 7736SOL    HW224108   2.524   2.671   6.957
 7737SOL     OW24109   2.682   6.806   2.832
 7737SOL    HW124110   2.675   6.856   2.746
 7737SOL    HW224111   2.724   6.864   2.902
 7738SOL     OW24112   3.117   5.763   0.103
 7738SOL    HW124113   3.146   5.669   0.084
 7738SOL    HW224114   3.020   5.763   0.129
 7739SOL     OW24115   0.083   2.310   1.850
 7739SOL    HW124116   0.029   2.235   1.890
 7739SOL    HW224117   0.109   2.374   1.921
 7740SOL     OW24118   3.026   0.797   3.281
 7740SOL    HW124119   2.954   0.848   3.234
 7740SOL    HW224120   3.075   0.740   3.215
 7741SOL     OW24121   0.131   4.887   5.771
 7741SOL    HW124122   0.200   4.898   5.700
 7741SOL    HW224123   0.100   4.977   5.802
 7742SOL     OW24124   4.284   2.171   3.038
 7742SOL    HW124125   4.257   2.213   2.951
 7742SOL    HW224126   4.202   2.139   3.086
 7743SOL     OW24127   5.343   2.011   0.253
 7743SOL    HW124128   5.263   2.008   0.193
 7743SOL    HW224129   5.322   2.065   0.335
 7744SOL     OW24130   0.730   0.718   4.447
 7744SOL    HW124131   0.713   0.804   4.495
 7744SOL    HW224132   0.798   0.665   4.498
 7745SOL     OW24133   4.040   1.362   6.675
 7745SOL    HW124134   4.116   1.411   6.632
 7745SOL    HW224135   3.955   1.382   6.626
 7746SOL     OW24136   0.989   0.499   0.377
 7746SOL    HW124137   0.960   0.581   0.426
 7746SOL    HW224138   0.975   0.418   0.435
 7747SOL     OW24139   5.899   6.261   1.027
 7747SOL    HW124140   5.942   6.208   0.954
 7747SOL    HW224141   5.847   6.337   0.987
 7748SOL     OW24142   2.891   3.658   4.504
 7748SOL    HW124143   2.906   3.572   4.553
 7748SOL    HW224144   2.809   3.702   4.540
 7749SOL     OW24145   3.348   3.393   5.824
 7749SOL    HW124146   3.288   3.396   5.744
 7749SOL    HW224147   3.424   3.330   5.806
 7750SOL     OW24148   0.039   5.624   0.450
 7750SOL    HW124149   0.097   5.573   0.513
 7750SOL    HW224150   0.095   5.681   0.390
 7751SOL     OW24151   1.508   3.021   2.800
 7751SOL    HW124152   1.434   3.084   2.776
 7751SOL    HW224153   1.595   3.071   2.805
 7752SOL     OW24154   5.741   6.403   5.383
 7752SOL    HW124155   5.841   6.407   5.393
 7752SOL    HW224156   5.717   6.408   5.286
 7753SOL     OW24157   1.910   0.625   4.742
 7753SOL    HW124158   1.926   0.534   4.704
 7753SOL    HW224159   1.869   0.683   4.672
 7754SOL     OW24160   5.031   0.242   1.670
 7754SOL    HW124161   5.049   0.327   1.721
 7754SOL    HW224162   5.100   0.231   1.599
 7755SOL     OW24163   1.467   2.422   5.940
 7755SOL    HW124164   1.516   2.459   6.018
 7755SOL    HW224165   1.371   2.449   5.945
 7756SOL     OW24166   3.386   5.676   1.727
 7756SOL    HW124167   3.435   5.607   1.781
 7756SOL    HW224168   3.305   5.707   1.777
 7757SOL     OW24169   5.575   5.964   5.352
 7757SOL    HW124170   5.636   5.978   5.274
 7757SOL    HW224171   5.486   5.931   5.319
 7758SOL     OW24172   1.449   1.499   6.085
 7758SOL    HW124173   1.442   1.566   6.159
 7758SOL    HW224174   1.357   1.462   6.065
 7759SOL     OW24175   1.076   2.086   5.392
 7759SOL    HW124176   1.072   2.004   5.448
 7759SOL    HW224177   1.130   2.068   5.309
 7760SOL     OW24178   5.748   3.412   2.768
 7760SOL    HW124179   5.713   3.466   2.845
 7760SOL    HW224180   5.672   3.383   2.710
 7761SOL     OW24181   0.914   0.450   5.923
 7761SOL    HW124182   0.890   0.397   5.843
 7761SOL    HW224183   0.851   0.430   5.998
 7762SOL     OW24184   4.470   0.589   3.939
 7762SOL    HW124185   4.450   0.514   3.876
 7762SOL    HW224186   4.501   0.552   4.027
 7763SOL     OW24187   1.239   1.285   6.905
 7763SOL    HW124188   1.240   1.370   6.956
 7763SOL    HW224189   1.205   1.211   6.963
 7764SOL     OW24190   3.397   2.909   3.127
 7764SOL    HW124191   3.338   2.839   3.167
 7764SOL    HW224192   3.467   2.936   3.194
 7765SOL     OW24193   6.424   2.979   4.155
 7765SOL    HW124194   6.442   2.961   4.058
 7765SOL    HW224195   6.348   2.921   4.186
 7766SOL     OW24196   5.841   2.847   6.728
 7766SOL    HW124197   5.854   2.749   6.713
 7766SOL    HW224198   5.916   2.898   6.685
 7767SOL     OW24199   4.526   5.560   2.866
 7767SOL    HW124200   4.598   5.535   2.931
 7767SOL    HW224201   4.505   5.658   2.876
 7768SOL     OW24202   4.232   4.687   2.181
 7768SOL    HW124203   4.157   4.730   2.232
 7768SOL    HW224204   4.301   4.653   2.244
 7769SOL     OW24205   5.059   2.859   3.003
 7769SOL    HW124206   4.989   2.798   3.041
 7769SOL    HW224207   5.090   2.922   3.074
 7770SOL     OW24208   1.808   4.159   2.574
 7770SOL    HW124209   1.877   4.109   2.522
 7770SOL    HW224210   1.725   4.169   2.519
 7771SOL     OW24211   3.383   2.295   5.298
 7771SOL    HW124212   3.301   2.335   5.256
 7771SOL    HW224213   3.418   2.356   5.368
 7772SOL     OW24214   5.108   0.085   2.426
 7772SOL    HW124215   5.077   7.022   2.387
 7772SOL    HW224216   5.063   0.101   2.513
 7773SOL     OW24217   2.650   5.591   4.605
 7773SOL    HW124218   2.707   5.512   4.629
 7773SOL    HW224219   2.555   5.572   4.629
 7774SOL     OW24220   5.521   2.084   5.502
 7774SOL    HW124221   5.432   2.046   5.525
 7774SOL    HW224222   5.593   2.022   5.533
 7775SOL     OW24223   5.187   6.061   1.854
 7775SOL    HW124224   5.123   6.026   1.922
 7775SOL    HW224225   5.279   6.029   1.874
 7776SOL     OW24226   1.483   4.968   6.767
 7776SOL    HW124227   1.577   4.944   6.792
 7776SOL    HW224228   1.464   5.062   6.797
 7777SOL     OW24229   0.451   0.018   4.531
 7777SOL    HW124230   0.531   6.988   4.556
 7777SOL    HW224231   0.473   0.115   4.539
 7778SOL     OW24232   5.302   4.191   1.040
 7778SOL    HW124233   5.303   4.119   0.971
 7778SOL    HW224234   5.286   4.151   1.130
 7779SOL     OW24235   2.504   2.641   1.765
 7779SOL    HW124236   2.490   2.722   1.707
 7779SOL    HW224237   2.594   2.601   1.745
 7780SOL     OW24238   1.002   4.483   5.207
 7780SOL    HW124239   0.921   4.458   5.261
 7780SOL    HW224240   1.084   4.468   5.262
 7781SOL     OW24241   1.141   4.596   0.108
 7781SOL    HW124242   1.182   4.683   0.082
 7781SOL    HW224243   1.181   4.523   0.052
 7782SOL     OW24244   6.692   4.486   4.528
 7782SOL    HW124245   6.638   4.402   4.525
 7782SOL    HW224246   6.759   4.485   4.453
 7783SOL     OW24247   1.162   5.794   5.040
 7783SOL    HW124248   1.155   5.710   5.093
 7783SOL    HW224249   1.156   5.772   4.942
 7784SOL     OW24250   2.842   2.724   1.284
 7784SOL    HW124251   2.908   2.785   1.327
 7784SOL    HW224252   2.864   2.629   1.307
 7785SOL     OW24253   2.062   5.361   3.985
 7785SOL    HW124254   2.077   5.362   3.886
 7785SOL    HW224255   1.982   5.306   4.006
 7786SOL     OW24256   3.014   6.375   0.327
 7786SOL    HW124257   3.038   6.320   0.247
 7786SOL    HW224258   3.016   6.472   0.304
 7787SOL     OW24259   2.364   2.885   6.741
 7787SOL    HW124260   2.401   2.844   6.658
 7787SOL    HW224261   2.357   2.815   6.812
 7788SOL     OW24262   2.450   5.625   1.399
 7788SOL    HW124263   2.480   5.599   1.491
 7788SOL    HW224264   2.483   5.717   1.378
 7789SOL     OW24265   1.966   6.707   6.304
 7789SOL    HW124266   2.056   6.687   6.265
 7789SOL    HW224267   1.914   6.622   6.314
 7790SOL     OW24268   5.979   5.836   3.650
 7790SOL    HW124269   5.914   5.772   3.692
 7790SOL    HW224270   5.991   5.812   3.554
 7791SOL     OW24271   2.294   5.626   3.665
 7791SOL    HW124272   2.217   5.611   3.727
 7791SOL    HW224273   2.343   5.709   3.693
 7792SOL     OW24274   1.963   5.339   4.713
 7792SOL    HW124275   1.977   5.251   4.758
 7792SOL    HW224276   1.873   5.340   4.669
 7793SOL     OW24277   3.650   0.655   0.435
 7793SOL    HW124278   3.609   0.617   0.519
 7793SOL    HW224279   3.579   0.670   0.367
 7794SOL     OW24280   6.176   4.494   2.926
 7794SOL    HW124281   6.185   4.452   2.836
 7794SOL    HW224282   6.080   4.493   2.954
 7795SOL     OW24283   1.999   4.253   5.465
 7795SOL    HW124284   2.056   4.330   5.438
 7795SOL    HW224285   1.986   4.191   5.387
 7796SOL     OW24286   3.967   3.879   3.730
 7796SOL    HW124287   3.931   3.965   3.766
 7796SOL    HW224288   4.036   3.843   3.793
 7797SOL     OW24289   1.318   6.938   3.196
 7797SOL    HW124290   1.274   0.004   3.203
 7797SOL    HW224291   1.305   6.888   3.282
 7798SOL     OW24292   2.440   4.329   5.405
 7798SOL    HW124293   2.412   4.233   5.408
 7798SOL    HW224294   2.527   4.336   5.357
 7799SOL     OW24295   0.989   6.307   2.692
 7799SOL    HW124296   1.035   6.391   2.721
 7799SOL    HW224297   0.924   6.278   2.761
 7800SOL     OW24298   0.943   5.319   1.716
 7800SOL    HW124299   0.910   5.382   1.645
 7800SOL    HW224300   1.028   5.354   1.755
 7801SOL     OW24301   2.442   1.811   1.704
 7801SOL    HW124302   2.490   1.731   1.669
 7801SOL    HW224303   2.502   1.861   1.766
 7802SOL     OW24304   6.061   2.608   1.224
 7802SOL    HW124305   5.996   2.555   1.278
 7802SOL    HW224306   6.025   2.622   1.132
 7803SOL     OW24307   4.829   1.719   6.026
 7803SOL    HW124308   4.737   1.731   6.063
 7803SOL    HW224309   4.878   1.651   6.080
 7804SOL     OW24310   4.881   2.141   3.747
 7804SOL    HW124311   4.854   2.114   3.839
 7804SOL    HW224312   4.857   2.237   3.732
 7805SOL     OW24313   5.680   2.705   1.303
 7805SOL    HW124314   5.640   2.774   1.243
 7805SOL    HW224315   5.620   2.624   1.306
 7806SOL     OW24316   5.664   1.691   0.198
 7806SOL    HW124317   5.631   1.736   0.115
 7806SOL    HW224318   5.759   1.663   0.186
 7807SOL     OW24319   1.764   4.694   5.364
 7807SOL    HW124320   1.825   4.733   5.295
 7807SOL    HW224321   1.749   4.597   5.345
 7808SOL     OW24322   6.154   3.028   3.560
 7808SOL    HW124323   6.091   3.038   3.482
 7808SOL    HW224324   6.115   3.073   3.640
 7809SOL     OW24325   2.876   5.111   3.711
 7809SOL    HW124326   2.806   5.161   3.660
 7809SOL    HW224327   2.909   5.034   3.656
 7810SOL     OW24328   3.611   0.198   4.547
 7810SOL    HW124329   3.519   0.158   4.555
 7810SOL    HW224330   3.621   0.272   4.613
 7811SOL     OW24331   1.875   5.602   2.246
 7811SOL    HW124332   1.862   5.608   2.147
 7811SOL    HW224333   1.874   5.506   2.274
 7812SOL     OW24334   0.420   2.014   4.203
 7812SOL    HW124335   0.485   1.939   4.191
 7812SOL    HW224336   0.328   1.981   4.181
 7813SOL     OW24337   5.152   2.798   6.846
 7813SOL    HW124338   5.061   2.809   6.884
 7813SOL    HW224339   5.162   2.706   6.807
 7814SOL     OW24340   0.327   3.624   3.158
 7814SOL    HW124341   0.299   3.574   3.240
 7814SOL    HW224342   0.360   3.560   3.089
 7815SOL     OW24343   5.306   0.945   6.049
 7815SOL    HW124344   5.208   0.927   6.044
 7815SOL    HW224345   5.356   0.871   6.003
 7816SOL     OW24346   1.928   2.250   6.449
 7816SOL    HW124347   2.023   2.231   6.422
 7816SOL    HW224348   1.913   2.219   6.543
 7817SOL     OW24349   5.493   4.733   3.144
 7817SOL    HW124350   5.430   4.691   3.210
 7817SOL    HW224351   5.514   4.826   3.173
 7818SOL     OW24352   4.309   0.701   2.078
 7818SOL    HW124353   4.337   0.637   2.150
 7818SOL    HW224354   4.346   0.792   2.099
 7819SOL     OW24355   0.353   3.993   1.836
 7819SOL    HW124356   0.280   3.937   1.875
 7819SOL    HW224357   0.424   3.934   1.798
 7820SOL     OW24358   1.379   1.836   6.126
 7820SOL    HW124359   1.398   1.922   6.173
 7820SOL    HW224360   1.380   1.761   6.193
 7821SOL     OW24361   5.709   5.880   0.188
 7821SOL    HW124362   5.641   5.918   0.125
 7821SOL    HW224363   5.787   5.845   0.136
 7822SOL     OW24364   2.485   2.127   6.481
 7822SOL    HW124365   2.406   2.092   6.432
 7822SOL    HW224366   2.540   2.184   6.420
 7823SOL     OW24367   2.683   3.964   5.312
 7823SOL    HW124368   2.590   3.950   5.278
 7823SOL    HW224369   2.705   4.061   5.308
 7824SOL     OW24370   6.073   0.540   4.153
 7824SOL    HW124371   6.154   0.522   4.097
 7824SOL    HW224372   6.102   0.575   4.243
 7825SOL     OW24373   1.722   2.829   1.253
 7825SOL    HW124374   1.628   2.801   1.232
 7825SOL    HW224375   1.745   2.800   1.346
 7826SOL     OW24376   6.402   1.516   0.433
 7826SOL    HW124377   6.318   1.544   0.386
 7826SOL    HW224378   6.412   1.570   0.517
 7827SOL     OW24379   2.835   5.606   1.104
 7827SOL    HW124380   2.931   5.597   1.079
 7827SOL    HW224381   2.782   5.537   1.055
 7828SOL     OW24382   1.493   4.613   6.769
 7828SOL    HW124383   1.443   4.526   6.765
 7828SOL    HW224384   1.495   4.654   6.678
 7829SOL     OW24385   3.003   3.698   1.372
 7829SOL    HW124386   3.001   3.793   1.342
 7829SOL    HW224387   3.034   3.693   1.467
 7830SOL     OW24388   2.593   4.821   5.727
 7830SOL    HW124389   2.683   4.776   5.731
 7830SOL    HW224390   2.521   4.751   5.732
 7831SOL     OW24391   1.875   6.406   1.035
 7831SOL    HW124392   1.808   6.359   1.093
 7831SOL    HW224393   1.886   6.356   0.949
 7832SOL     OW24394   4.438   1.075   3.496
 7832SOL    HW124395   4.480   1.165   3.493
 7832SOL    HW224396   4.504   1.008   3.529
 7833SOL     OW24397   0.982   1.138   6.820
 7833SOL    HW124398   1.082   1.141   6.823
 7833SOL    HW224399   0.948   1.080   6.893
 7834SOL     OW24400   6.475   1.953   3.763
 7834SOL    HW124401   6.544   2.018   3.729
 7834SOL    HW224402   6.436   1.903   3.686
 7835SOL     OW24403   3.414   2.182   5.763
 7835SOL    HW124404   3.379   2.132   5.684
 7835SOL    HW224405   3.340   2.235   5.805
 7836SOL     OW24406   3.268   2.835   4.992
 7836SOL    HW124407   3.275   2.745   4.949
 7836SOL    HW224408   3.242   2.823   5.088
 7837SOL     OW24409   6.545   5.648   0.192
 7837SOL    HW124410   6.540   5.658   0.292
 7837SOL    HW224411   6.470   5.590   0.160
 7838SOL     OW24412   4.220   6.770   0.194
 7838SOL    HW124413   4.250   6.684   0.237
 7838SOL    HW224414   4.121   6.768   0.182
 7839SOL     OW24415   6.122   4.707   4.992
 7839SOL    HW124416   6.034   4.661   5.001
 7839SOL    HW224417   6.195   4.639   4.983
 7840SOL     OW24418   6.555   2.522   3.899
 7840SOL    HW124419   6.509   2.442   3.938
 7840SOL    HW224420   6.540   2.525   3.800
 7841SOL     OW24421   4.163   1.965   6.699
 7841SOL    HW124422   4.128   1.877   6.666
 7841SOL    HW224423   4.153   2.034   6.628
 7842SOL     OW24424   2.553   2.075   2.719
 7842SOL    HW124425   2.594   2.161   2.750
 7842SOL    HW224426   2.502   2.034   2.795
 7843SOL     OW24427   6.520   5.695   3.033
 7843SOL    HW124428   6.458   5.761   3.075
 7843SOL    HW224429   6.538   5.722   2.938
 7844SOL     OW24430   3.708   6.653   2.337
 7844SOL    HW124431   3.667   6.567   2.368
 7844SOL    HW224432   3.696   6.722   2.408
 7845SOL     OW24433   5.285   2.019   3.635
 7845SOL    HW124434   5.370   2.059   3.671
 7845SOL    HW224435   5.235   1.976   3.709
 7846SOL     OW24436   1.019   1.206   2.069
 7846SOL    HW124437   1.021   1.277   2.139
 7846SOL    HW224438   0.952   1.231   1.999
 7847SOL     OW24439   6.763   2.033   3.029
 7847SOL    HW124440   6.665   2.017   3.041
 7847SOL    HW224441   6.791   2.004   2.938
 7848SOL     OW24442   3.840   3.800   0.376
 7848SOL    HW124443   3.816   3.868   0.445
 7848SOL    HW224444   3.922   3.750   0.405
 7849SOL     OW24445   5.643   4.582   4.062
 7849SOL    HW124446   5.666   4.544   4.151
 7849SOL    HW224447   5.546   4.568   4.043
 7850SOL     OW24448   0.470   2.331   4.729
 7850SOL    HW124449   0.400   2.260   4.728
 7850SOL    HW224450   0.554   2.295   4.769
 7851SOL     OW24451   6.776   1.433   1.759
 7851SOL    HW124452   6.786   1.448   1.660
 7851SOL    HW224453   6.798   1.337   1.780
 7852SOL     OW24454   2.659   1.774   6.323
 7852SOL    HW124455   2.690   1.679   6.319
 7852SOL    HW224456   2.735   1.835   6.302
 7853SOL     OW24457   4.607   2.018   1.511
 7853SOL    HW124458   4.648   2.106   1.489
 7853SOL    HW224459   4.676   1.945   1.501
 7854SOL     OW24460   3.886   3.372   0.305
 7854SOL    HW124461   3.799   3.331   0.279
 7854SOL    HW224462   3.900   3.457   0.254
 7855SOL     OW24463   4.445   5.547   3.901
 7855SOL    HW124464   4.376   5.489   3.856
 7855SOL    HW224465   4.489   5.605   3.832
 7856SOL     OW24466   6.534   4.876   5.207
 7856SOL    HW124467   6.446   4.836   5.183
 7856SOL    HW224468   6.536   4.972   5.177
 7857SOL     OW24469   5.679   1.859   5.564
 7857SOL    HW124470   5.752   1.797   5.537
 7857SOL    HW224471   5.602   1.808   5.602
 7858SOL     OW24472   5.811   6.201   4.060
 7858SOL    HW124473   5.848   6.190   3.968
 7858SOL    HW224474   5.714   6.225   4.055
 7859SOL     OW24475   4.560   2.668   6.710
 7859SOL    HW124476   4.485   2.721   6.673
 7859SOL    HW224477   4.629   2.729   6.748
 7860SOL     OW24478   3.294   0.090   2.921
 7860SOL    HW124479   3.198   0.115   2.910
 7860SOL    HW224480   3.300   7.020   2.953
 7861SOL     OW24481   3.518   4.768   1.627
 7861SOL    HW124482   3.531   4.729   1.718
 7861SOL    HW224483   3.594   4.742   1.568
 7862SOL     OW24484   2.025   3.750   1.325
 7862SOL    HW124485   2.061   3.657   1.316
 7862SOL    HW224486   2.101   3.815   1.326
 7863SOL     OW24487   0.390   5.098   3.871
 7863SOL    HW124488   0.374   5.187   3.913
 7863SOL    HW224489   0.359   5.026   3.933
 7864SOL     OW24490   0.396   5.486   5.313
 7864SOL    HW124491   0.466   5.531   5.257
 7864SOL    HW224492   0.346   5.420   5.257
 7865SOL     OW24493   6.075   6.447   3.845
 7865SOL    HW124494   6.069   6.370   3.908
 7865SOL    HW224495   6.043   6.418   3.754
 7866SOL     OW24496   1.563   1.288   6.265
 7866SOL    HW124497   1.634   1.253   6.204
 7866SOL    HW224498   1.475   1.287   6.218
 7867SOL     OW24499   6.307   6.172   3.774
 7867SOL    HW124500   6.296   6.112   3.695
 7867SOL    HW224501   6.289   6.120   3.858
 7868SOL     OW24502   5.090   5.976   1.506
 7868SOL    HW124503   5.136   6.065   1.506
 7868SOL    HW224504   4.998   5.986   1.469
 7869SOL     OW24505   6.148   3.953   0.295
 7869SOL    HW124506   6.185   3.975   0.204
 7869SOL    HW224507   6.069   4.011   0.314
 7870SOL     OW24508   4.008   4.834   3.815
 7870SOL    HW124509   4.099   4.809   3.849
 7870SOL    HW224510   3.998   4.933   3.817
 7871SOL     OW24511   4.986   3.019   2.348
 7871SOL    HW124512   4.940   2.967   2.276
 7871SOL    HW224513   4.982   3.116   2.327
 7872SOL     OW24514   2.399   4.416   3.379
 7872SOL    HW124515   2.309   4.387   3.345
 7872SOL    HW224516   2.453   4.454   3.304
 7873SOL     OW24517   5.719   0.597   6.042
 7873SOL    HW124518   5.764   0.634   5.961
 7873SOL    HW224519   5.747   0.650   6.122
 7874SOL     OW24520   5.145   1.983   0.068
 7874SOL    HW124521   5.133   1.981   6.993
 7874SOL    HW224522   5.103   1.901   0.108
 7875SOL     OW24523   4.828   2.854   6.832
 7875SOL    HW124524   4.849   2.820   6.924
 7875SOL    HW224525   4.808   2.952   6.837
 7876SOL     OW24526   0.909   0.234   5.044
 7876SOL    HW124527   0.895   0.283   5.130
 7876SOL    HW224528   0.906   0.136   5.060
 7877SOL     OW24529   0.683   1.979   2.887
 7877SOL    HW124530   0.679   2.077   2.906
 7877SOL    HW224531   0.646   1.929   2.966
 7878SOL     OW24532   5.842   4.651   4.951
 7878SOL    HW124533   5.856   4.733   4.895
 7878SOL    HW224534   5.763   4.664   5.011
 7879SOL     OW24535   4.346   4.843   3.261
 7879SOL    HW124536   4.320   4.751   3.287
 7879SOL    HW224537   4.429   4.840   3.206
 7880SOL     OW24538   1.481   5.220   0.849
 7880SOL    HW124539   1.482   5.220   0.949
 7880SOL    HW224540   1.445   5.133   0.816
 7881SOL     OW24541   6.515   4.291   4.492
 7881SOL    HW124542   6.430   4.295   4.544
 7881SOL    HW224543   6.518   4.206   4.439
 7882SOL     OW24544   1.031   2.727   1.549
 7882SOL    HW124545   1.013   2.780   1.633
 7882SOL    HW224546   1.071   2.787   1.480
 7883SOL     OW24547   1.035   0.698   0.596
 7883SOL    HW124548   1.072   0.774   0.542
 7883SOL    HW224549   0.938   0.714   0.613
 7884SOL     OW24550   1.968   3.686   4.322
 7884SOL    HW124551   2.040   3.655   4.260
 7884SOL    HW224552   1.962   3.785   4.321
 7885SOL     OW24553   6.779   4.867   1.615
 7885SOL    HW124554   6.861   4.823   1.651
 7885SOL    HW224555   6.719   4.797   1.576
 7886SOL     OW24556   3.132   5.426   6.801
 7886SOL    HW124557   3.075   5.451   6.722
 7886SOL    HW224558   3.219   5.389   6.769
 7887SOL     OW24559   3.442   2.960   5.408
 7887SOL    HW124560   3.467   3.056   5.403
 7887SOL    HW224561   3.418   2.927   5.316
 7888SOL     OW24562   6.440   0.369   4.989
 7888SOL    HW124563   6.343   0.388   4.976
 7888SOL    HW224564   6.452   0.317   5.073
 7889SOL     OW24565   1.885   5.143   0.439
 7889SOL    HW124566   1.852   5.171   0.349
 7889SOL    HW224567   1.808   5.121   0.498
 7890SOL     OW24568   1.166   2.481   3.199
 7890SOL    HW124569   1.123   2.571   3.199
 7890SOL    HW224570   1.256   2.486   3.240
 7891SOL     OW24571   2.111   3.959   3.764
 7891SOL    HW124572   2.139   3.897   3.838
 7891SOL    HW224573   2.163   4.044   3.770
 7892SOL     OW24574   1.945   0.762   4.107
 7892SOL    HW124575   2.037   0.789   4.133
 7892SOL    HW224576   1.949   0.683   4.046
 7893SOL     OW24577   6.621   6.233   2.712
 7893SOL    HW124578   6.542   6.295   2.715
 7893SOL    HW224579   6.705   6.286   2.717
 7894SOL     OW24580   3.948   6.732   0.192
 7894SOL    HW124581   3.961   6.732   0.092
 7894SOL    HW224582   3.886   6.659   0.217
 7895SOL     OW24583   5.580   0.536   4.668
 7895SOL    HW124584   5.609   0.486   4.750
 7895SOL    HW224585   5.642   0.614   4.654
 7896SOL     OW24586   4.752   3.386   1.006
 7896SOL    HW124587   4.663   3.342   1.012
 7896SOL    HW224588   4.790   3.398   1.098
 7897SOL     OW24589   2.743   3.806   0.032
 7897SOL    HW124590   2.744   3.892   7.005
 7897SOL    HW224591   2.700   3.821   0.121
 7898SOL     OW24592   4.125   2.095   2.824
 7898SOL    HW124593   4.035   2.077   2.786
 7898SOL    HW224594   4.141   2.035   2.902
 7899SOL     OW24595   5.827   0.505   1.440
 7899SOL    HW124596   5.869   0.561   1.512
 7899SOL    HW224597   5.860   0.534   1.351
 7900SOL     OW24598   1.606   4.739   2.000
 7900SOL    HW124599   1.582   4.771   2.092
 7900SOL    HW224600   1.695   4.694   2.003
 7901SOL     OW24601   4.849   1.405   6.662
 7901SOL    HW124602   4.928   1.351   6.634
 7901SOL    HW224603   4.841   1.403   6.762
 7902SOL     OW24604   5.963   6.684   1.332
 7902SOL    HW124605   5.942   6.736   1.249
 7902SOL    HW224606   6.030   6.733   1.386
 7903SOL     OW24607   5.684   1.098   1.051
 7903SOL    HW124608   5.611   1.052   1.103
 7903SOL    HW224609   5.646   1.132   0.965
 7904SOL     OW24610   5.359   0.389   3.408
 7904SOL    HW124611   5.261   0.408   3.401
 7904SOL    HW224612   5.386   0.384   3.504
 7905SOL     OW24613   4.671   2.309   0.155
 7905SOL    HW124614   4.705   2.402   0.166
 7905SOL    HW224615   4.747   2.244   0.167
 7906SOL     OW24616   0.465   5.424   0.793
 7906SOL    HW124617   0.459   5.524   0.794
 7906SOL    HW224618   0.401   5.388   0.725
 7907SOL     OW24619   5.350   2.262   3.030
 7907SOL    HW124620   5.258   2.300   3.021
 7907SOL    HW224621   5.344   2.164   3.046
 7908SOL     OW24622   1.001   1.434   5.710
 7908SOL    HW124623   0.980   1.532   5.717
 7908SOL    HW224624   0.925   1.387   5.666
 7909SOL     OW24625   5.774   4.328   5.175
 7909SOL    HW124626   5.681   4.363   5.174
 7909SOL    HW224627   5.822   4.358   5.092
 7910SOL     OW24628   3.031   3.864   5.796
 7910SOL    HW124629   3.018   3.903   5.704
 7910SOL    HW224630   3.061   3.769   5.787
 7911SOL     OW24631   2.070   3.381   6.768
 7911SOL    HW124632   2.154   3.357   6.816
 7911SOL    HW224633   2.011   3.300   6.764
 7912SOL     OW24634   6.865   4.722   0.888
 7912SOL    HW124635   6.883   4.640   0.943
 7912SOL    HW224636   6.818   4.695   0.803
 7913SOL     OW24637   1.506   4.442   0.828
 7913SOL    HW124638   1.541   4.385   0.902
 7913SOL    HW224639   1.559   4.425   0.745
 7914SOL     OW24640   0.231   4.199   0.211
 7914SOL    HW124641   0.210   4.171   0.304
 7914SOL    HW224642   0.159   4.259   0.177
 7915SOL     OW24643   4.871   2.837   1.839
 7915SOL    HW124644   4.883   2.885   1.752
 7915SOL    HW224645   4.844   2.903   1.909
 7916SOL     OW24646   1.007   4.208   5.166
 7916SOL    HW124647   0.990   4.305   5.150
 7916SOL    HW224648   0.945   4.174   5.236
 7917SOL     OW24649   3.826   3.743   4.668
 7917SOL    HW124650   3.909   3.687   4.660
 7917SOL    HW224651   3.780   3.723   4.754
 7918SOL     OW24652   0.352   1.436   5.939
 7918SOL    HW124653   0.329   1.532   5.957
 7918SOL    HW224654   0.279   1.395   5.883
 7919SOL     OW24655   1.749   4.334   2.817
 7919SOL    HW124656   1.674   4.400   2.808
 7919SOL    HW224657   1.761   4.285   2.731
 7920SOL     OW24658   0.331   5.721   0.986
 7920SOL    HW124659   0.257   5.659   0.957
 7920SOL    HW224660   0.394   5.734   0.910
 7921SOL     OW24661   5.474   6.505   0.443
 7921SOL    HW124662   5.377   6.509   0.466
 7921SOL    HW224663   5.490   6.554   0.357
 7922SOL     OW24664   6.841   6.658   0.442
 7922SOL    HW124665   6.815   6.600   0.519
 7922SOL    HW224666   6.940   6.650   0.426
 7923SOL     OW24667   3.306   0.251   2.085
 7923SOL    HW124668   3.271   0.342   2.104
 7923SOL    HW224669   3.299   0.195   2.168
 7924SOL     OW24670   4.262   0.071   2.446
 7924SOL    HW124671   4.221   0.137   2.383
 7924SOL    HW224672   4.320   0.119   2.512
 7925SOL     OW24673   0.591   1.660   6.631
 7925SOL    HW124674   0.560   1.752   6.605
 7925SOL    HW224675   0.555   1.637   6.721
 7926SOL     OW24676   4.845   1.822   5.201
 7926SOL    HW124677   4.927   1.841   5.255
 7926SOL    HW224678   4.870   1.808   5.105
 7927SOL     OW24679   4.237   5.407   2.380
 7927SOL    HW124680   4.160   5.470   2.392
 7927SOL    HW224681   4.320   5.458   2.360
 7928SOL     OW24682   1.513   2.093   4.769
 7928SOL    HW124683   1.470   2.006   4.792
 7928SOL    HW224684   1.445   2.154   4.727
 7929SOL     OW24685   4.371   4.957   6.353
 7929SOL    HW124686   4.337   4.940   6.260
 7929SOL    HW224687   4.459   4.912   6.365
 7930SOL     OW24688   4.496   5.816   4.848
 7930SOL    HW124689   4.527   5.808   4.942
 7930SOL    HW224690   4.522   5.733   4.797
 7931SOL     OW24691   1.704   1.953   6.959
 7931SOL    HW124692   1.794   1.995   6.961
 7931SOL    HW224693   1.693   1.894   0.015
 7932SOL     OW24694   1.504   6.217   6.532
 7932SOL    HW124695   1.462   6.199   6.442
 7932SOL    HW224696   1.508   6.131   6.584
 7933SOL     OW24697   0.195   6.253   6.417
 7933SOL    HW124698   0.160   6.189   6.349
 7933SOL    HW224699   0.156   6.344   6.401
 7934SOL     OW24700   2.502   4.860   0.255
 7934SOL    HW124701   2.573   4.919   0.293
 7934SOL    HW224702   2.489   4.881   0.159
 7935SOL     OW24703   5.790   5.343   0.281
 7935SOL    HW124704   5.792   5.443   0.268
 7935SOL    HW224705   5.712   5.319   0.339
 7936SOL     OW24706   3.946   6.343   2.426
 7936SOL    HW124707   3.968   6.430   2.383
 7936SOL    HW224708   3.855   6.348   2.467
 7937SOL     OW24709   6.644   6.229   3.533
 7937SOL    HW124710   6.613   6.258   3.623
 7937SOL    HW224711   6.643   6.129   3.528
 7938SOL     OW24712   6.481   5.534   4.372
 7938SOL    HW124713   6.466   5.576   4.462
 7938SOL    HW224714   6.479   5.435   4.382
 7939SOL     OW24715   1.729   2.700   5.665
 7939SOL    HW124716   1.812   2.752   5.687
 7939SOL    HW224717   1.659   2.720   5.733
 7940SOL     OW24718   1.613   3.714   2.134
 7940SOL    HW124719   1.613   3.676   2.042
 7940SOL    HW224720   1.705   3.707   2.173
 7941SOL     OW24721   6.023   0.873   0.914
 7941SOL    HW124722   6.049   0.948   0.975
 7941SOL    HW224723   6.088   0.798   0.924
 7942SOL     OW24724   6.387   6.431   2.785
 7942SOL    HW124725   6.437   6.512   2.813
 7942SOL    HW224726   6.308   6.458   2.730
 7943SOL     OW24727   6.284   3.141   0.624
 7943SOL    HW124728   6.383   3.149   0.630
 7943SOL    HW224729   6.253   3.172   0.533
 7944SOL     OW24730   0.366   2.374   1.633
 7944SOL    HW124731   0.308   2.429   1.573
 7944SOL    HW224732   0.341   2.277   1.623
 7945SOL     OW24733   5.887   5.787   1.891
 7945SOL    HW124734   5.901   5.776   1.990
 7945SOL    HW224735   5.939   5.866   1.859
 7946SOL     OW24736   2.563   1.468   5.407
 7946SOL    HW124737   2.478   1.512   5.379
 7946SOL    HW224738   2.575   1.383   5.355
 7947SOL     OW24739   3.713   2.014   6.214
 7947SOL    HW124740   3.812   2.009   6.230
 7947SOL    HW224741   3.671   1.927   6.240
 7948SOL     OW24742   1.083   6.420   1.016
 7948SOL    HW124743   1.141   6.470   0.951
 7948SOL    HW224744   0.988   6.426   0.987
 7949SOL     OW24745   4.402   4.591   4.770
 7949SOL    HW124746   4.372   4.526   4.700
 7949SOL    HW224747   4.378   4.556   4.861
 7950SOL     OW24748   5.802   5.277   4.784
 7950SOL    HW124749   5.781   5.373   4.804
 7950SOL    HW224750   5.750   5.218   4.845
 7951SOL     OW24751   2.184   4.165   1.755
 7951SOL    HW124752   2.189   4.205   1.663
 7951SOL    HW224753   2.234   4.079   1.757
 7952SOL     OW24754   0.402   3.235   6.833
 7952SOL    HW124755   0.459   3.180   6.772
 7952SOL    HW224756   0.325   3.180   6.864
 7953SOL     OW24757   2.185   2.699   4.008
 7953SOL    HW124758   2.166   2.605   3.979
 7953SOL    HW224759   2.174   2.706   4.108
 7954SOL     OW24760   4.494   4.128   5.547
 7954SOL    HW124761   4.450   4.181   5.474
 7954SOL    HW224762   4.555   4.060   5.507
 7955SOL     OW24763   1.272   6.616   6.544
 7955SOL    HW124764   1.321   6.695   6.507
 7955SOL    HW224765   1.245   6.634   6.638
 7956SOL     OW24766   3.909   5.862   2.346
 7956SOL    HW124767   3.863   5.787   2.394
 7956SOL    HW224768   3.852   5.892   2.269
 7957SOL     OW24769   1.125   0.583   1.818
 7957SOL    HW124770   1.035   0.545   1.837
 7957SOL    HW224771   1.153   0.643   1.894
 7958SOL     OW24772   3.630   5.096   5.105
 7958SOL    HW124773   3.696   5.169   5.124
 7958SOL    HW224774   3.648   5.019   5.167
 7959SOL     OW24775   4.443   5.925   1.016
 7959SOL    HW124776   4.410   5.835   0.988
 7959SOL    HW224777   4.389   5.996   0.970
 7960SOL     OW24778   2.771   0.523   7.021
 7960SOL    HW124779   2.813   0.570   6.943
 7960SOL    HW224780   2.803   0.565   0.082
 7961SOL     OW24781   6.919   0.738   1.286
 7961SOL    HW124782   6.820   0.752   1.292
 7961SOL    HW224783   6.966   0.815   1.328
 7962SOL     OW24784   1.173   0.532   0.180
 7962SOL    HW124785   1.092   0.534   0.238
 7962SOL    HW224786   1.217   0.442   0.187
 7963SOL     OW24787   6.618   0.491   3.732
 7963SOL    HW124788   6.624   0.458   3.638
 7963SOL    HW224789   6.678   0.436   3.790
 7964SOL     OW24790   0.121   4.745   3.985
 7964SOL    HW124791   0.067   4.741   4.069
 7964SOL    HW224792   0.090   4.674   3.922
 7965SOL     OW24793   3.431   2.458   6.095
 7965SOL    HW124794   3.412   2.503   6.007
 7965SOL    HW224795   3.529   2.466   6.116
 7966SOL     OW24796   0.610   2.879   5.252
 7966SOL    HW124797   0.708   2.895   5.237
 7966SOL    HW224798   0.598   2.807   5.320
 7967SOL     OW24799   2.853   6.583   3.573
 7967SOL    HW124800   2.838   6.519   3.649
 7967SOL    HW224801   2.804   6.668   3.591
 7968SOL     OW24802   2.110   2.474   3.411
 7968SOL    HW124803   2.022   2.505   3.374
 7968SOL    HW224804   2.177   2.548   3.402
 7969SOL     OW24805   3.951   5.473   0.575
 7969SOL    HW124806   3.944   5.569   0.547
 7969SOL    HW224807   3.984   5.469   0.669
 7970SOL     OW24808   6.884   3.243   2.347
 7970SOL    HW124809   6.806   3.278   2.399
 7970SOL    HW224810   6.946   3.194   2.408
 7971SOL     OW24811   4.406   1.528   1.092
 7971SOL    HW124812   4.390   1.602   1.026
 7971SOL    HW224813   4.333   1.527   1.160
 7972SOL     OW24814   1.856   3.225   0.804
 7972SOL    HW124815   1.885   3.137   0.765
 7972SOL    HW224816   1.858   3.219   0.904
 7973SOL     OW24817   4.620   4.792   3.936
 7973SOL    HW124818   4.687   4.857   3.973
 7973SOL    HW224819   4.550   4.774   4.005
 7974SOL     OW24820   5.866   1.354   5.997
 7974SOL    HW124821   5.833   1.383   5.907
 7974SOL    HW224822   5.837   1.421   6.066
 7975SOL     OW24823   5.895   1.008   2.548
 7975SOL    HW124824   5.956   0.929   2.545
 7975SOL    HW224825   5.863   1.022   2.642
 7976SOL     OW24826   0.490   0.554   6.554
 7976SOL    HW124827   0.521   0.645   6.581
 7976SOL    HW224828   0.530   0.485   6.615
 7977SOL     OW24829   4.769   5.859   1.713
 7977SOL    HW124830   4.756   5.933   1.647
 7977SOL    HW224831   4.810   5.895   1.796
 7978SOL     OW24832   6.219   3.459   6.347
 7978SOL    HW124833   6.147   3.512   6.393
 7978SOL    HW224834   6.184   3.369   6.322
 7979SOL     OW24835   3.727   6.629   5.319
 7979SOL    HW124836   3.812   6.587   5.351
 7979SOL    HW224837   3.697   6.583   5.235
 7980SOL     OW24838   2.407   5.551   6.961
 7980SOL    HW124839   2.413   5.643   7.000
 7980SOL    HW224840   2.354   5.554   6.876
 7981SOL     OW24841   0.774   5.542   2.201
 7981SOL    HW124842   0.746   5.488   2.280
 7981SOL    HW224843   0.735   5.503   2.118
 7982SOL     OW24844   0.335   1.765   0.103
 7982SOL    HW124845   0.344   1.665   0.104
 7982SOL    HW224846   0.248   1.790   0.146
 7983SOL     OW24847   5.711   1.818   2.292
 7983SOL    HW124848   5.703   1.719   2.303
 7983SOL    HW224849   5.806   1.846   2.309
 7984SOL     OW24850   1.644   1.206   0.983
 7984SOL    HW124851   1.613   1.301   0.977
 7984SOL    HW224852   1.744   1.203   0.983
 7985SOL     OW24853   2.116   0.644   3.657
 7985SOL    HW124854   2.034   0.593   3.630
 7985SOL    HW224855   2.193   0.580   3.667
 7986SOL     OW24856   3.351   1.157   6.957
 7986SOL    HW124857   3.281   1.226   6.941
 7986SOL    HW224858   3.346   1.086   6.886
 7987SOL     OW24859   1.661   3.146   6.965
 7987SOL    HW124860   1.637   3.078   6.896
 7987SOL    HW224861   1.607   3.131   0.023
 7988SOL     OW24862   1.252   2.178   4.128
 7988SOL    HW124863   1.352   2.172   4.125
 7988SOL    HW224864   1.225   2.273   4.111
 7989SOL     OW24865   3.534   3.309   5.383
 7989SOL    HW124866   3.571   3.234   5.328
 7989SOL    HW224867   3.608   3.353   5.433
 7990SOL     OW24868   6.981   3.390   3.311
 7990SOL    HW124869   0.015   3.337   3.372
 7990SOL    HW224870   6.885   3.366   3.328
 7991SOL     OW24871   6.311   0.455   4.053
 7991SOL    HW124872   6.383   0.521   4.077
 7991SOL    HW224873   6.334   0.411   3.966
 7992SOL     OW24874   1.172   6.563   1.810
 7992SOL    HW124875   1.109   6.610   1.748
 7992SOL    HW224876   1.126   6.484   1.852
 7993SOL     OW24877   0.360   0.291   6.285
 7993SOL    HW124878   0.326   0.368   6.338
 7993SOL    HW224879   0.306   0.209   6.307
 7994SOL     OW24880   4.565   0.027   2.880
 7994SOL    HW124881   4.513   0.029   2.966
 7994SOL    HW224882   4.527   6.982   2.819
 7995SOL     OW24883   4.504   5.032   3.515
 7995SOL    HW124884   4.600   5.032   3.486
 7995SOL    HW224885   4.450   5.089   3.453
 7996SOL     OW24886   3.333   0.180   4.893
 7996SOL    HW124887   3.402   0.215   4.956
 7996SOL    HW224888   3.252   0.238   4.896
 7997SOL     OW24889   0.591   1.319   1.771
 7997SOL    HW124890   0.556   1.336   1.863
 7997SOL    HW224891   0.587   1.404   1.717
 7998SOL     OW24892   3.502   5.591   1.221
 7998SOL    HW124893   3.454   5.549   1.143
 7998SOL    HW224894   3.594   5.618   1.192
 7999SOL     OW24895   0.647   6.873   6.187
 7999SOL    HW124896   0.651   6.775   6.173
 7999SOL    HW224897   0.718   6.918   6.132
 8000SOL     OW24898   5.492   0.116   0.004
 8000SOL    HW124899   5.421   0.068   6.977
 8000SOL    HW224900   5.460   0.135   0.096
 8001SOL     OW24901   3.401   5.936   0.879
 8001SOL    HW124902   3.464   5.915   0.954
 8001SOL    HW224903   3.345   6.015   0.905
 8002SOL     OW24904   0.622   2.195   5.639
 8002SOL    HW124905   0.566   2.181   5.721
 8002SOL    HW224906   0.689   2.121   5.631
 8003SOL     OW24907   2.851   5.176   2.684
 8003SOL    HW124908   2.820   5.236   2.610
 8003SOL    HW224909   2.936   5.213   2.722
 8004SOL     OW24910   2.053   3.207   3.747
 8004SOL    HW124911   1.992   3.138   3.785
 8004SOL    HW224912   2.094   3.173   3.662
 8005SOL     OW24913   3.481   0.246   2.642
 8005SOL    HW124914   3.440   0.337   2.646
 8005SOL    HW224915   3.497   0.212   2.735
 8006SOL     OW24916   2.279   0.684   6.630
 8006SOL    HW124917   2.201   0.687   6.567
 8006SOL    HW224918   2.296   0.775   6.667
 8007SOL     OW24919   6.881   1.369   4.660
 8007SOL    HW124920   6.901   1.392   4.755
 8007SOL    HW224921   6.908   1.274   4.642
 8008SOL     OW24922   4.726   5.939   5.663
 8008SOL    HW124923   4.797   5.869   5.653
 8008SOL    HW224924   4.770   6.027   5.682
 8009SOL     OW24925   5.832   1.356   3.167
 8009SOL    HW124926   5.805   1.349   3.072
 8009SOL    HW224927   5.761   1.402   3.220
 8010SOL     OW24928   0.261   0.866   6.911
 8010SOL    HW124929   0.186   0.930   6.926
 8010SOL    HW224930   0.343   0.917   6.883
 8011SOL     OW24931   3.391   2.141   0.588
 8011SOL    HW124932   3.375   2.095   0.675
 8011SOL    HW224933   3.385   2.074   0.514
 8012SOL     OW24934   2.031   4.433   1.492
 8012SOL    HW124935   2.040   4.450   1.393
 8012SOL    HW224936   2.081   4.503   1.542
 8013SOL     OW24937   1.134   5.132   3.542
 8013SOL    HW124938   1.057   5.162   3.485
 8013SOL    HW224939   1.193   5.073   3.487
 8014SOL     OW24940   1.024   6.593   5.137
 8014SOL    HW124941   1.013   6.497   5.160
 8014SOL    HW224942   1.049   6.601   5.040
 8015SOL     OW24943   2.582   0.792   0.481
 8015SOL    HW124944   2.650   0.860   0.452
 8015SOL    HW224945   2.559   0.733   0.403
 8016SOL     OW24946   5.300   0.392   5.812
 8016SOL    HW124947   5.378   0.417   5.869
 8016SOL    HW224948   5.332   0.371   5.719
 8017SOL     OW24949   6.238   6.816   0.999
 8017SOL    HW124950   6.183   6.834   0.918
 8017SOL    HW224951   6.325   6.774   0.972
 8018SOL     OW24952   3.187   2.092   5.965
 8018SOL    HW124953   3.149   2.009   5.925
 8018SOL    HW224954   3.283   2.076   5.989
 8019SOL     OW24955   2.442   4.547   6.240
 8019SOL    HW124956   2.406   4.471   6.294
 8019SOL    HW224957   2.404   4.633   6.274
 8020SOL     OW24958   6.092   6.872   0.768
 8020SOL    HW124959   6.105   6.898   0.673
 8020SOL    HW224960   6.020   6.803   0.774
 8021SOL     OW24961   1.554   1.714   1.057
 8021SOL    HW124962   1.565   1.728   1.155
 8021SOL    HW224963   1.632   1.755   1.009
 8022SOL     OW24964   4.891   6.318   2.793
 8022SOL    HW124965   4.829   6.391   2.763
 8022SOL    HW224966   4.937   6.346   2.877
 8023SOL     OW24967   6.279   5.529   3.226
 8023SOL    HW124968   6.278   5.432   3.204
 8023SOL    HW224969   6.194   5.572   3.193
 8024SOL     OW24970   2.793   5.074   6.921
 8024SOL    HW124971   2.857   5.038   6.853
 8024SOL    HW224972   2.829   5.158   6.960
 8025SOL     OW24973   2.532   6.239   6.756
 8025SOL    HW124974   2.565   6.219   6.848
 8025SOL    HW224975   2.610   6.235   6.692
 8026SOL     OW24976   1.114   4.338   6.685
 8026SOL    HW124977   1.210   4.350   6.660
 8026SOL    HW224978   1.059   4.408   6.639
 8027SOL     OW24979   4.482   0.519   5.270
 8027SOL    HW124980   4.475   0.489   5.175
 8027SOL    HW224981   4.451   0.446   5.330
 8028SOL     OW24982   3.265   4.975   4.447
 8028SOL    HW124983   3.223   5.049   4.394
 8028SOL    HW224984   3.239   4.983   4.543
 8029SOL     OW24985   5.077   3.267   1.113
 8029SOL    HW124986   5.001   3.202   1.106
 8029SOL    HW224987   5.116   3.262   1.205
 8030SOL     OW24988   4.105   4.571   0.112
 8030SOL    HW124989   4.088   4.568   0.211
 8030SOL    HW224990   4.142   4.483   0.082
 8031SOL     OW24991   5.263   6.357   2.734
 8031SOL    HW124992   5.283   6.267   2.771
 8031SOL    HW224993   5.174   6.355   2.688
 8032SOL     OW24994   6.123   5.129   6.992
 8032SOL    HW124995   6.101   5.190   0.044
 8032SOL    HW224996   6.189   5.060   7.023
 8033SOL     OW24997   4.649   2.642   5.972
 8033SOL    HW124998   4.738   2.661   6.014
 8033SOL    HW224999   4.584   2.613   6.043
 8034SOL     OW25000   6.118   0.650   4.686
 8034SOL    HW125001   6.046   0.718   4.700
 8034SOL    HW225002   6.080   0.558   4.694
 8035SOL     OW25003   5.072   1.988   4.576
 8035SOL    HW125004   5.000   1.984   4.646
 8035SOL    HW225005   5.131   2.066   4.594
 8036SOL     OW25006   0.993   4.349   2.943
 8036SOL    HW125007   0.907   4.392   2.969
 8036SOL    HW225008   1.061   4.419   2.923
 8037SOL     OW25009   1.617   3.132   1.242
 8037SOL    HW125010   1.687   3.136   1.171
 8037SOL    HW225011   1.661   3.115   1.331
 8038SOL     OW25012   3.508   0.682   3.262
 8038SOL    HW125013   3.514   0.727   3.173
 8038SOL    HW225014   3.572   0.606   3.266
 8039SOL     OW25015   0.914   1.724   4.136
 8039SOL    HW125016   0.818   1.752   4.135
 8039SOL    HW225017   0.931   1.665   4.056
 8040SOL     OW25018   1.972   6.600   0.617
 8040SOL    HW125019   1.939   6.506   0.617
 8040SOL    HW225020   2.009   6.623   0.526
 8041SOL     OW25021   2.737   1.247   1.930
 8041SOL    HW125022   2.692   1.309   1.994
 8041SOL    HW225023   2.833   1.238   1.954
 8042SOL     OW25024   3.089   3.052   3.656
 8042SOL    HW125025   3.056   2.989   3.586
 8042SOL    HW225026   3.072   3.146   3.627
 8043SOL     OW25027   4.378   6.850   2.520
 8043SOL    HW125028   4.399   6.845   2.618
 8043SOL    HW225029   4.327   6.934   2.501
 8044SOL     OW25030   3.792   3.011   0.879
 8044SOL    HW125031   3.786   2.946   0.803
 8044SOL    HW225032   3.831   2.965   0.959
 8045SOL     OW25033   5.610   0.775   1.519
 8045SOL    HW125034   5.534   0.836   1.544
 8045SOL    HW225035   5.611   0.697   1.581
 8046SOL     OW25036   0.266   5.157   0.834
 8046SOL    HW125037   0.297   5.198   0.748
 8046SOL    HW225038   0.281   5.222   0.909
 8047SOL     OW25039   3.338   5.490   4.847
 8047SOL    HW125040   3.427   5.533   4.859
 8047SOL    HW225041   3.330   5.412   4.910
 8048SOL     OW25042   5.034   1.170   5.720
 8048SOL    HW125043   5.123   1.149   5.760
 8048SOL    HW225044   4.964   1.112   5.762
 8049SOL     OW25045   0.687   0.168   7.018
 8049SOL    HW125046   0.745   0.249   7.013
 8049SOL    HW225047   0.597   0.188   6.979
 8050SOL     OW25048   1.817   3.934   2.740
 8050SOL    HW125049   1.909   3.905   2.763
 8050SOL    HW225050   1.819   4.028   2.706
 8051SOL     OW25051   4.602   5.757   2.585
 8051SOL    HW125052   4.613   5.678   2.524
 8051SOL    HW225053   4.616   5.841   2.534
 8052SOL     OW25054   4.538   1.830   1.945
 8052SOL    HW125055   4.461   1.889   1.925
 8052SOL    HW225056   4.580   1.799   1.859
 8053SOL     OW25057   3.126   3.701   3.342
 8053SOL    HW125058   3.163   3.608   3.341
 8053SOL    HW225059   3.198   3.766   3.318
 8054SOL     OW25060   4.521   0.125   4.338
 8054SOL    HW125061   4.561   0.179   4.264
 8054SOL    HW225062   4.491   0.186   4.412
 8055SOL     OW25063   0.517   0.043   5.690
 8055SOL    HW125064   0.439   7.017   5.727
 8055SOL    HW225065   0.489   0.137   5.670
 8056SOL     OW25066   4.048   2.250   3.881
 8056SOL    HW125067   3.963   2.242   3.830
 8056SOL    HW225068   4.029   2.252   3.980
 8057SOL     OW25069   2.977   1.721   3.148
 8057SOL    HW125070   2.979   1.821   3.142
 8057SOL    HW225071   2.888   1.688   3.117
 8058SOL     OW25072   4.673   0.635   2.072
 8058SOL    HW125073   4.627   0.647   2.160
 8058SOL    HW225074   4.614   0.582   2.011
 8059SOL     OW25075   4.293   2.263   4.442
 8059SOL    HW125076   4.332   2.351   4.468
 8059SOL    HW225077   4.251   2.220   4.522
 8060SOL     OW25078   0.350   2.539   3.590
 8060SOL    HW125079   0.317   2.625   3.550
 8060SOL    HW225080   0.320   2.462   3.533
 8061SOL     OW25081   0.201   0.757   2.268
 8061SOL    HW125082   0.160   0.670   2.244
 8061SOL    HW225083   0.130   0.821   2.298
 8062SOL     OW25084   3.525   4.956   4.350
 8062SOL    HW125085   3.433   4.933   4.382
 8062SOL    HW225086   3.534   5.055   4.345
 8063SOL     OW25087   0.702   2.736   0.895
 8063SOL    HW125088   0.723   2.705   0.988
 8063SOL    HW225089   0.716   2.661   0.831
 8064SOL     OW25090   0.124   4.334   2.065
 8064SOL    HW125091   0.101   4.428   2.039
 8064SOL    HW225092   0.193   4.336   2.137
 8065SOL     OW25093   3.181   5.777   4.365
 8065SOL    HW125094   3.269   5.810   4.399
 8065SOL    HW225095   3.161   5.688   4.407
 8066SOL     OW25096   0.586   1.935   5.931
 8066SOL    HW125097   0.557   2.000   6.002
 8066SOL    HW225098   0.514   1.928   5.862
 8067SOL     OW25099   4.543   2.767   1.767
 8067SOL    HW125100   4.562   2.852   1.815
 8067SOL    HW225101   4.627   2.712   1.762
 8068SOL     OW25102   6.854   4.403   0.711
 8068SOL    HW125103   6.917   4.402   0.633
 8068SOL    HW225104   6.907   4.391   0.796
 8069SOL     OW25105   2.153   6.428   1.093
 8069SOL    HW125106   2.170   6.523   1.069
 8069SOL    HW225107   2.057   6.405   1.074
 8070SOL     OW25108   3.036   3.571   0.564
 8070SOL    HW125109   3.051   3.617   0.651
 8070SOL    HW225110   2.986   3.633   0.503
 8071SOL     OW25111   2.975   6.605   4.776
 8071SOL    HW125112   2.947   6.569   4.865
 8071SOL    HW225113   2.992   6.703   4.783
 8072SOL     OW25114   3.691   0.657   0.160
 8072SOL    HW125115   3.762   0.602   0.205
 8072SOL    HW225116   3.714   0.754   0.168
 8073SOL     OW25117   3.989   5.836   5.400
 8073SOL    HW125118   3.987   5.852   5.301
 8073SOL    HW225119   3.993   5.738   5.418
 8074SOL     OW25120   3.967   2.692   0.382
 8074SOL    HW125121   3.905   2.638   0.324
 8074SOL    HW225122   3.920   2.776   0.411
 8075SOL     OW25123   6.545   0.539   0.415
 8075SOL    HW125124   6.614   0.480   0.457
 8075SOL    HW225125   6.559   0.633   0.444
 8076SOL     OW25126   5.332   1.971   5.939
 8076SOL    HW125127   5.301   1.884   5.903
 8076SOL    HW225128   5.258   2.015   5.990
 8077SOL     OW25129   2.207   5.655   1.547
 8077SOL    HW125130   2.287   5.625   1.497
 8077SOL    HW225131   2.235   5.706   1.629
 8078SOL     OW25132   5.914   1.575   0.187
 8078SOL    HW125133   5.905   1.489   0.137
 8078SOL    HW225134   5.985   1.565   0.256
 8079SOL     OW25135   4.612   1.570   3.412
 8079SOL    HW125136   4.547   1.499   3.438
 8079SOL    HW225137   4.623   1.570   3.312
 8080SOL     OW25138   0.144   2.838   0.233
 8080SOL    HW125139   0.181   2.790   0.313
 8080SOL    HW225140   0.106   2.771   0.168
 8081SOL     OW25141   5.432   6.715   4.577
 8081SOL    HW125142   5.407   6.720   4.673
 8081SOL    HW225143   5.396   6.796   4.529
 8082SOL     OW25144   5.108   6.929   1.805
 8082SOL    HW125145   5.139   6.846   1.760
 8082SOL    HW225146   5.177   7.001   1.794
 8083SOL     OW25147   5.084   3.811   2.454
 8083SOL    HW125148   5.144   3.760   2.392
 8083SOL    HW225149   5.024   3.747   2.503
 8084SOL     OW25150   4.882   0.504   0.067
 8084SOL    HW125151   4.845   0.534   7.004
 8084SOL    HW225152   4.963   0.447   0.051
 8085SOL     OW25153   5.648   6.785   2.489
 8085SOL    HW125154   5.624   6.744   2.577
 8085SOL    HW225155   5.598   6.739   2.415
 8086SOL     OW25156   4.181   1.192   3.593
 8086SOL    HW125157   4.124   1.185   3.511
 8086SOL    HW225158   4.270   1.150   3.576
 8087SOL     OW25159   2.895   0.993   0.894
 8087SOL    HW125160   2.867   1.073   0.948
 8087SOL    HW225161   2.850   0.995   0.805
 8088SOL     OW25162   5.608   2.952   1.173
 8088SOL    HW125163   5.525   2.973   1.122
 8088SOL    HW225164   5.610   3.004   1.258
 8089SOL     OW25165   4.972   2.714   0.674
 8089SOL    HW125166   4.996   2.642   0.740
 8089SOL    HW225167   4.892   2.684   0.621
 8090SOL     OW25168   4.527   1.715   6.691
 8090SOL    HW125169   4.616   1.716   6.647
 8090SOL    HW225170   4.486   1.624   6.680
 8091SOL     OW25171   2.516   3.470   6.171
 8091SOL    HW125172   2.417   3.457   6.167
 8091SOL    HW225173   2.538   3.540   6.239
 8092SOL     OW25174   6.898   2.794   5.246
 8092SOL    HW125175   6.899   2.893   5.233
 8092SOL    HW225176   6.911   2.748   5.158
 8093SOL     OW25177   4.609   5.180   2.084
 8093SOL    HW125178   4.544   5.255   2.096
 8093SOL    HW225179   4.584   5.103   2.143
 8094SOL     OW25180   1.299   3.166   5.303
 8094SOL    HW125181   1.211   3.152   5.258
 8094SOL    HW225182   1.357   3.225   5.247
 8095SOL     OW25183   6.347   3.845   4.764
 8095SOL    HW125184   6.317   3.874   4.856
 8095SOL    HW225185   6.446   3.837   4.763
 8096SOL     OW25186   2.762   6.310   3.715
 8096SOL    HW125187   2.759   6.210   3.710
 8096SOL    HW225188   2.676   6.344   3.752
 8097SOL     OW25189   4.589   6.214   3.817
 8097SOL    HW125190   4.618   6.225   3.722
 8097SOL    HW225191   4.642   6.276   3.875
 8098SOL     OW25192   2.060   6.563   3.755
 8098SOL    HW125193   1.987   6.630   3.772
 8098SOL    HW225194   2.056   6.492   3.824
 8099SOL     OW25195   4.392   0.290   3.919
 8099SOL    HW125196   4.361   0.197   3.940
 8099SOL    HW225197   4.452   0.322   3.993
 8100SOL     OW25198   5.971   0.232   0.183
 8100SOL    HW125199   5.891   0.203   0.129
 8100SOL    HW225200   6.054   0.223   0.127
 8101SOL     OW25201   2.345   0.137   3.778
 8101SOL    HW125202   2.283   0.213   3.757
 8101SOL    HW225203   2.324   0.059   3.718
 8102SOL     OW25204   0.502   4.847   4.263
 8102SOL    HW125205   0.458   4.786   4.328
 8102SOL    HW225206   0.439   4.868   4.189
 8103SOL     OW25207   4.577   0.400   1.017
 8103SOL    HW125208   4.653   0.421   1.079
 8103SOL    HW225209   4.606   0.330   0.952
 8104SOL     OW25210   2.732   0.163   6.249
 8104SOL    HW125211   2.810   0.193   6.194
 8104SOL    HW225212   2.671   0.108   6.191
 8105SOL     OW25213   0.825   2.336   3.636
 8105SOL    HW125214   0.751   2.403   3.638
 8105SOL    HW225215   0.824   2.286   3.550
 8106SOL     OW25216   2.144   6.239   2.678
 8106SOL    HW125217   2.231   6.223   2.726
 8106SOL    HW225218   2.157   6.227   2.580
 8107SOL     OW25219   0.450   5.493   4.609
 8107SOL    HW125220   0.362   5.531   4.580
 8107SOL    HW225221   0.491   5.553   4.677
 8108SOL     OW25222   6.668   3.258   5.200
 8108SOL    HW125223   6.631   3.185   5.258
 8108SOL    HW225224   6.594   3.303   5.152
 8109SOL     OW25225   1.774   3.658   4.684
 8109SOL    HW125226   1.689   3.710   4.685
 8109SOL    HW225227   1.851   3.721   4.668
 8110SOL     OW25228   3.076   6.285   0.577
 8110SOL    HW125229   3.052   6.300   0.481
 8110SOL    HW225230   3.169   6.248   0.582
 8111SOL     OW25231   3.974   1.080   4.527
 8111SOL    HW125232   3.925   0.995   4.509
 8111SOL    HW225233   3.912   1.146   4.569
 8112SOL     OW25234   2.187   2.093   4.843
 8112SOL    HW125235   2.167   2.180   4.798
 8112SOL    HW225236   2.134   2.021   4.800
 8113SOL     OW25237   3.623   3.330   1.057
 8113SOL    HW125238   3.553   3.343   0.987
 8113SOL    HW225239   3.711   3.364   1.023
 8114SOL     OW25240   2.332   3.947   1.834
 8114SOL    HW125241   2.383   3.938   1.748
 8114SOL    HW225242   2.248   3.893   1.829
 8115SOL     OW25243   3.496   0.077   0.407
 8115SOL    HW125244   3.528   0.136   0.333
 8115SOL    HW225245   3.535   7.010   0.396
 8116SOL     OW25246   4.715   6.069   5.109
 8116SOL    HW125247   4.656   6.120   5.172
 8116SOL    HW225248   4.761   5.995   5.158
 8117SOL     OW25249   1.716   1.322   4.404
 8117SOL    HW125250   1.779   1.264   4.353
 8117SOL    HW225251   1.757   1.346   4.492
 8118SOL     OW25252   5.939   2.909   6.006
 8118SOL    HW125253   5.984   2.843   6.067
 8118SOL    HW225254   5.994   2.992   6.001
 8119SOL     OW25255   6.412   6.158   5.240
 8119SOL    HW125256   6.393   6.155   5.142
 8119SOL    HW225257   6.396   6.068   5.280
 8120SOL     OW25258   2.892   4.640   0.112
 8120SOL    HW125259   2.840   4.564   0.071
 8120SOL    HW225260   2.886   4.634   0.212
 8121SOL     OW25261   0.566   5.635   1.538
 8121SOL    HW125262   0.634   5.709   1.539
 8121SOL    HW225263   0.525   5.628   1.447
 8122SOL     OW25264   1.760   5.838   2.353
 8122SOL    HW125265   1.844   5.891   2.367
 8122SOL    HW225266   1.784   5.747   2.321
 8123SOL     OW25267   6.664   0.163   7.001
 8123SOL    HW125268   6.637   0.118   6.916
 8123SOL    HW225269   6.708   0.250   6.980
 8124SOL     OW25270   6.811   6.262   0.841
 8124SOL    HW125271   6.744   6.189   0.828
 8124SOL    HW225272   6.899   6.222   0.867
 8125SOL     OW25273   1.049   0.933   3.480
 8125SOL    HW125274   1.089   0.841   3.475
 8125SOL    HW225275   1.120   0.999   3.503
 8126SOL     OW25276   5.683   4.860   2.601
 8126SOL    HW125277   5.780   4.864   2.625
 8126SOL    HW225278   5.628   4.881   2.681
 8127SOL     OW25279   3.350   6.194   0.088
 8127SOL    HW125280   3.259   6.157   0.068
 8127SOL    HW225281   3.349   6.235   0.179
 8128SOL     OW25282   2.755   3.123   1.062
 8128SOL    HW125283   2.712   3.200   1.015
 8128SOL    HW225284   2.847   3.109   1.024
 8129SOL     OW25285   4.413   0.775   5.407
 8129SOL    HW125286   4.413   0.697   5.344
 8129SOL    HW225287   4.360   0.751   5.488
 8130SOL     OW25288   6.890   4.292   0.062
 8130SOL    HW125289   6.880   4.330   6.995
 8130SOL    HW225290   6.919   4.364   0.125
 8131SOL     OW25291   3.873   1.369   0.915
 8131SOL    HW125292   3.812   1.314   0.859
 8131SOL    HW225293   3.955   1.391   0.862
 8132SOL     OW25294   5.431   6.495   6.597
 8132SOL    HW125295   5.408   6.580   6.551
 8132SOL    HW225296   5.508   6.510   6.660
 8133SOL     OW25297   2.851   4.950   1.616
 8133SOL    HW125298   2.796   4.880   1.662
 8133SOL    HW225299   2.878   5.020   1.682
 8134SOL     OW25300   1.183   2.262   5.055
 8134SOL    HW125301   1.276   2.296   5.066
 8134SOL    HW225302   1.127   2.291   5.133
 8135SOL     OW25303   1.724   5.606   1.033
 8135SOL    HW125304   1.635   5.562   1.032
 8135SOL    HW225305   1.751   5.631   0.940
 8136SOL     OW25306   5.267   4.802   2.531
 8136SOL    HW125307   5.285   4.897   2.556
 8136SOL    HW225308   5.178   4.796   2.485
 8137SOL     OW25309   2.963   1.183   4.948
 8137SOL    HW125310   2.871   1.156   4.918
 8137SOL    HW225311   3.015   1.216   4.870
 8138SOL     OW25312   5.562   2.604   0.461
 8138SOL    HW125313   5.621   2.528   0.487
 8138SOL    HW225314   5.509   2.634   0.540
 8139SOL     OW25315   1.894   1.701   4.438
 8139SOL    HW125316   1.965   1.650   4.486
 8139SOL    HW225317   1.931   1.788   4.407
 8140SOL     OW25318   4.554   7.019   0.601
 8140SOL    HW125319   4.489   0.065   0.630
 8140SOL    HW225320   4.504   6.939   0.566
 8141SOL     OW25321   4.306   7.002   4.671
 8141SOL    HW125322   4.352   6.923   4.712
 8141SOL    HW225323   4.219   6.972   4.631
 8142SOL     OW25324   1.820   5.287   0.192
 8142SOL    HW125325   1.862   5.231   0.120
 8142SOL    HW225326   1.830   5.384   0.169
 8143SOL     OW25327   6.278   4.870   0.114
 8143SOL    HW125328   6.213   4.817   0.168
 8143SOL    HW225329   6.356   4.812   0.090
 8144SOL     OW25330   0.512   6.306   6.017
 8144SOL    HW125331   0.421   6.279   6.048
 8144SOL    HW225332   0.573   6.318   6.095
 8145SOL     OW25333   5.730   5.244   0.632
 8145SOL    HW125334   5.781   5.167   0.593
 8145SOL    HW225335   5.688   5.296   0.558
 8146SOL     OW25336   5.423   0.428   5.395
 8146SOL    HW125337   5.484   0.389   5.465
 8146SOL    HW225338   5.450   0.522   5.376
 8147SOL     OW25339   6.270   0.991   1.676
 8147SOL    HW125340   6.278   0.911   1.617
 8147SOL    HW225341   6.344   1.055   1.656
 8148SOL     OW25342   5.553   4.896   0.730
 8148SOL    HW125343   5.650   4.878   0.714
 8148SOL    HW225344   5.512   4.932   0.646
 8149SOL     OW25345   1.867   6.844   3.442
 8149SOL    HW125346   1.878   6.796   3.355
 8149SOL    HW225347   1.812   6.788   3.504
 8150SOL     OW25348   1.855   3.617   0.531
 8150SOL    HW125349   1.791   3.636   0.605
 8150SOL    HW225350   1.919   3.545   0.561
 8151SOL     OW25351   5.880   5.013   3.511
 8151SOL    HW125352   5.973   5.027   3.479
 8151SOL    HW225353   5.873   4.923   3.555
 8152SOL     OW25354   6.291   3.144   3.043
 8152SOL    HW125355   6.320   3.235   3.014
 8152SOL    HW225356   6.350   3.112   3.117
 8153SOL     OW25357   1.043   1.668   3.846
 8153SOL    HW125358   1.119   1.634   3.790
 8153SOL    HW225359   0.988   1.731   3.792
 8154SOL     OW25360   3.653   6.161   2.351
 8154SOL    HW125361   3.731   6.142   2.291
 8154SOL    HW225362   3.653   6.096   2.427
 8155SOL     OW25363   1.553   3.309   2.072
 8155SOL    HW125364   1.511   3.305   2.162
 8155SOL    HW225365   1.650   3.332   2.082
 8156SOL     OW25366   4.610   5.928   0.767
 8156SOL    HW125367   4.564   5.898   0.850
 8156SOL    HW225368   4.543   5.948   0.696
 8157SOL     OW25369   6.695   4.661   5.868
 8157SOL    HW125370   6.786   4.619   5.859
 8157SOL    HW225371   6.693   4.722   5.946
 8158SOL     OW25372   4.922   4.049   0.495
 8158SOL    HW125373   4.842   3.990   0.483
 8158SOL    HW225374   5.003   4.002   0.459
 8159SOL     OW25375   2.344   5.499   3.259
 8159SOL    HW125376   2.421   5.480   3.198
 8159SOL    HW225377   2.258   5.492   3.209
 8160SOL     OW25378   5.108   0.497   3.561
 8160SOL    HW125379   5.147   0.412   3.595
 8160SOL    HW225380   5.033   0.525   3.620
 8161SOL     OW25381   5.989   2.945   6.363
 8161SOL    HW125382   6.033   2.883   6.299
 8161SOL    HW225383   5.895   2.915   6.380
 8162SOL     OW25384   6.469   6.851   6.764
 8162SOL    HW125385   6.383   6.829   6.810
 8162SOL    HW225386   6.546   6.827   6.824
 8163SOL     OW25387   2.829   4.791   5.209
 8163SOL    HW125388   2.919   4.775   5.249
 8163SOL    HW225389   2.816   4.732   5.129
 8164SOL     OW25390   4.892   2.421   0.409
 8164SOL    HW125391   4.914   2.511   0.447
 8164SOL    HW225392   4.975   2.380   0.370
 8165SOL     OW25393   0.017   3.592   5.771
 8165SOL    HW125394   0.059   3.659   5.710
 8165SOL    HW225395   0.083   3.520   5.792
 8166SOL     OW25396   1.132   0.661   3.805
 8166SOL    HW125397   1.131   0.573   3.758
 8166SOL    HW225398   1.144   0.734   3.738
 8167SOL     OW25399   6.897   0.708   3.817
 8167SOL    HW125400   6.929   0.803   3.810
 8167SOL    HW225401   6.805   0.702   3.780
 8168SOL     OW25402   2.656   1.495   1.749
 8168SOL    HW125403   2.582   1.507   1.683
 8168SOL    HW225404   2.655   1.402   1.784
 8169SOL     OW25405   4.835   1.912   0.377
 8169SOL    HW125406   4.843   1.872   0.467
 8169SOL    HW225407   4.740   1.903   0.344
 8170SOL     OW25408   1.386   5.101   1.586
 8170SOL    HW125409   1.326   5.021   1.580
 8170SOL    HW225410   1.459   5.083   1.653
 8171SOL     OW25411   2.023   1.779   6.194
 8171SOL    HW125412   2.012   1.858   6.133
 8171SOL    HW225413   2.041   1.812   6.287
 8172SOL     OW25414   0.108   2.087   2.539
 8172SOL    HW125415   0.176   2.160   2.536
 8172SOL    HW225416   0.022   2.123   2.575
 8173SOL     OW25417   5.372   2.160   1.835
 8173SOL    HW125418   5.468   2.145   1.811
 8173SOL    HW225419   5.314   2.139   1.756
 8174SOL     OW25420   6.606   0.728   2.310
 8174SOL    HW125421   6.695   0.720   2.355
 8174SOL    HW225422   6.580   0.639   2.272
 8175SOL     OW25423   0.227   3.450   5.818
 8175SOL    HW125424   0.239   3.490   5.727
 8175SOL    HW225425   0.307   3.393   5.840
 8176SOL     OW25426   2.636   5.267   1.300
 8176SOL    HW125427   2.681   5.184   1.334
 8176SOL    HW225428   2.539   5.264   1.325
 8177SOL     OW25429   3.733   0.272   3.706
 8177SOL    HW125430   3.771   0.362   3.729
 8177SOL    HW225431   3.701   0.227   3.790
 8178SOL     OW25432   2.993   6.945   0.567
 8178SOL    HW125433   3.048   0.005   0.569
 8178SOL    HW225434   3.037   6.876   0.625
 8179SOL     OW25435   4.684   1.770   4.488
 8179SOL    HW125436   4.647   1.859   4.464
 8179SOL    HW225437   4.773   1.758   4.445
 8180SOL     OW25438   6.279   1.371   5.557
 8180SOL    HW125439   6.185   1.338   5.552
 8180SOL    HW225440   6.281   1.458   5.606
 8181SOL     OW25441   0.939   1.522   0.474
 8181SOL    HW125442   0.869   1.590   0.455
 8181SOL    HW225443   0.940   1.453   0.400
 8182SOL     OW25444   3.067   3.610   5.775
 8182SOL    HW125445   2.986   3.588   5.829
 8182SOL    HW225446   3.115   3.525   5.751
 8183SOL     OW25447   6.446   2.388   4.625
 8183SOL    HW125448   6.355   2.355   4.598
 8183SOL    HW225449   6.498   2.314   4.666
 8184SOL     OW25450   6.507   0.173   0.441
 8184SOL    HW125451   6.445   0.232   0.494
 8184SOL    HW225452   6.490   0.077   0.464
 8185SOL     OW25453   1.727   0.239   6.691
 8185SOL    HW125454   1.693   0.240   6.596
 8185SOL    HW225455   1.815   0.286   6.695
 8186SOL     OW25456   3.523   4.635   5.496
 8186SOL    HW125457   3.567   4.680   5.419
 8186SOL    HW225458   3.426   4.659   5.497
 8187SOL     OW25459   2.627   1.450   5.033
 8187SOL    HW125460   2.594   1.524   4.975
 8187SOL    HW225461   2.599   1.468   5.128
 8188SOL     OW25462   5.176   3.244   3.484
 8188SOL    HW125463   5.190   3.164   3.543
 8188SOL    HW225464   5.078   3.259   3.471
 8189SOL     OW25465   5.206   5.101   2.978
 8189SOL    HW125466   5.271   5.176   2.962
 8189SOL    HW225467   5.116   5.139   3.001
 8190SOL     OW25468   5.038   4.346   4.288
 8190SOL    HW125469   5.108   4.400   4.334
 8190SOL    HW225470   4.973   4.407   4.243
 8191SOL     OW25471   3.604   6.315   1.828
 8191SOL    HW125472   3.692   6.288   1.789
 8191SOL    HW225473   3.589   6.267   1.914
 8192SOL     OW25474   3.101   5.288   0.455
 8192SOL    HW125475   3.064   5.203   0.494
 8192SOL    HW225476   3.127   5.350   0.530
 8193SOL     OW25477   5.843   5.659   5.709
 8193SOL    HW125478   5.787   5.700   5.637
 8193SOL    HW225479   5.837   5.714   5.792
 8194SOL     OW25480   4.944   2.099   1.066
 8194SOL    HW125481   5.042   2.080   1.060
 8194SOL    HW225482   4.931   2.189   1.108
 8195SOL     OW25483   1.198   0.141   3.284
 8195SOL    HW125484   1.101   0.136   3.305
 8195SOL    HW225485   1.246   0.190   3.357
 8196SOL     OW25486   4.431   5.866   6.326
 8196SOL    HW125487   4.395   5.949   6.369
 8196SOL    HW225488   4.373   5.788   6.349
 8197SOL     OW25489   4.255   1.668   0.457
 8197SOL    HW125490   4.252   1.621   0.369
 8197SOL    HW225491   4.306   1.753   0.448
 8198SOL     OW25492   2.947   6.381   2.778
 8198SOL    HW125493   3.017   6.413   2.842
 8198SOL    HW225494   2.858   6.418   2.805
 8199SOL     OW25495   5.780   2.469   6.010
 8199SOL    HW125496   5.792   2.426   6.099
 8199SOL    HW225497   5.822   2.412   5.939
 8200SOL     OW25498   5.667   5.064   1.960
 8200SOL    HW125499   5.708   5.132   1.899
 8200SOL    HW225500   5.738   5.023   2.017
 8201SOL     OW25501   5.524   0.738   3.984
 8201SOL    HW125502   5.574   0.816   3.948
 8201SOL    HW225503   5.588   0.666   4.011
 8202SOL     OW25504   0.141   5.656   3.768
 8202SOL    HW125505   0.232   5.614   3.777
 8202SOL    HW225506   0.109   5.645   3.674
 8203SOL     OW25507   4.029   2.431   6.870
 8203SOL    HW125508   3.988   2.352   6.824
 8203SOL    HW225509   3.964   2.507   6.869
 8204SOL     OW25510   3.351   5.018   6.785
 8204SOL    HW125511   3.279   5.069   6.737
 8204SOL    HW225512   3.351   4.924   6.753
 8205SOL     OW25513   0.649   4.585   0.597
 8205SOL    HW125514   0.732   4.591   0.653
 8205SOL    HW225515   0.587   4.659   0.622
 8206SOL     OW25516   5.008   1.942   6.336
 8206SOL    HW125517   4.920   1.953   6.289
 8206SOL    HW225518   5.034   2.029   6.379
 8207SOL     OW25519   3.044   3.889   3.832
 8207SOL    HW125520   3.048   3.814   3.898
 8207SOL    HW225521   3.004   3.856   3.746
 8208SOL     OW25522   1.486   0.349   1.514
 8208SOL    HW125523   1.548   0.414   1.557
 8208SOL    HW225524   1.523   0.256   1.524
 8209SOL     OW25525   0.645   1.794   4.993
 8209SOL    HW125526   0.556   1.810   4.950
 8209SOL    HW225527   0.636   1.803   5.092
 8210SOL     OW25528   2.093   1.442   1.167
 8210SOL    HW125529   2.118   1.457   1.071
 8210SOL    HW225530   1.995   1.456   1.178
 8211SOL     OW25531   3.699   3.928   1.820
 8211SOL    HW125532   3.622   3.978   1.781
 8211SOL    HW225533   3.784   3.959   1.776
 8212SOL     OW25534   2.230   1.959   1.776
 8212SOL    HW125535   2.187   1.910   1.852
 8212SOL    HW225536   2.312   1.910   1.747
 8213SOL     OW25537   6.703   4.454   2.559
 8213SOL    HW125538   6.788   4.402   2.549
 8213SOL    HW225539   6.648   4.444   2.477
 8214SOL     OW25540   6.027   5.544   4.713
 8214SOL    HW125541   6.039   5.445   4.717
 8214SOL    HW225542   5.939   5.569   4.755
 8215SOL     OW25543   2.638   5.859   6.418
 8215SOL    HW125544   2.584   5.776   6.405
 8215SOL    HW225545   2.724   5.851   6.367
 8216SOL     OW25546   5.343   5.153   3.822
 8216SOL    HW125547   5.387   5.222   3.880
 8216SOL    HW225548   5.380   5.063   3.844
 8217SOL     OW25549   2.119   3.609   0.761
 8217SOL    HW125550   2.092   3.596   0.856
 8217SOL    HW225551   2.102   3.525   0.710
 8218SOL     OW25552   6.813   0.093   5.222
 8218SOL    HW125553   6.769   0.038   5.151
 8218SOL    HW225554   6.908   0.063   5.232
 8219SOL     OW25555   4.241   3.202   0.518
 8219SOL    HW125556   4.152   3.246   0.513
 8219SOL    HW225557   4.313   3.269   0.500
 8220SOL     OW25558   3.060   3.590   3.706
 8220SOL    HW125559   2.973   3.633   3.679
 8220SOL    HW225560   3.069   3.594   3.806
 8221SOL     OW25561   5.758   6.673   3.678
 8221SOL    HW125562   5.720   6.717   3.597
 8221SOL    HW225563   5.717   6.582   3.689
 8222SOL     OW25564   5.542   1.390   1.248
 8222SOL    HW125565   5.578   1.391   1.342
 8222SOL    HW225566   5.537   1.296   1.215
 8223SOL     OW25567   0.799   3.992   5.288
 8223SOL    HW125568   0.799   4.025   5.382
 8223SOL    HW225569   0.886   3.946   5.268
 8224SOL     OW25570   5.393   1.442   2.418
 8224SOL    HW125571   5.455   1.514   2.451
 8224SOL    HW225572   5.439   1.390   2.346
 8225SOL     OW25573   3.290   1.639   1.154
 8225SOL    HW125574   3.331   1.669   1.069
 8225SOL    HW225575   3.231   1.559   1.136
 8226SOL     OW25576   3.779   6.528   0.295
 8226SOL    HW125577   3.756   6.511   0.391
 8226SOL    HW225578   3.716   6.478   0.236
 8227SOL     OW25579   0.092   1.053   2.475
 8227SOL    HW125580   7.017   1.063   2.476
 8227SOL    HW225581   0.120   0.984   2.541
 8228SOL     OW25582   6.505   2.149   5.840
 8228SOL    HW125583   6.532   2.074   5.901
 8228SOL    HW225584   6.587   2.190   5.800
 8229SOL     OW25585   4.810   3.195   0.703
 8229SOL    HW125586   4.897   3.178   0.658
 8229SOL    HW225587   4.827   3.229   0.796
 8230SOL     OW25588   3.490   0.267   5.112
 8230SOL    HW125589   3.581   0.239   5.081
 8230SOL    HW225590   3.499   0.326   5.192
 8231SOL     OW25591   3.281   3.367   0.934
 8231SOL    HW125592   3.252   3.359   1.029
 8231SOL    HW225593   3.203   3.392   0.877
 8232SOL     OW25594   4.234   1.953   1.602
 8232SOL    HW125595   4.184   1.922   1.683
 8232SOL    HW225596   4.259   1.874   1.546
 8233SOL     OW25597   0.421   6.362   5.748
 8233SOL    HW125598   0.402   6.460   5.746
 8233SOL    HW225599   0.452   6.336   5.840
 8234SOL     OW25600   2.757   3.749   6.514
 8234SOL    HW125601   2.769   3.669   6.572
 8234SOL    HW225602   2.728   3.721   6.423
 8235SOL     OW25603   0.747   2.460   0.347
 8235SOL    HW125604   0.702   2.447   0.436
 8235SOL    HW225605   0.815   2.389   0.333
 8236SOL     OW25606   0.954   4.488   0.544
 8236SOL    HW125607   0.890   4.507   0.618
 8236SOL    HW225608   1.035   4.442   0.580
 8237SOL     OW25609   4.976   6.646   5.399
 8237SOL    HW125610   5.021   6.735   5.389
 8237SOL    HW225611   5.010   6.600   5.481
 8238SOL     OW25612   0.545   5.321   6.011
 8238SOL    HW125613   0.522   5.418   6.005
 8238SOL    HW225614   0.517   5.284   6.099
 8239SOL     OW25615   0.147   1.019   5.560
 8239SOL    HW125616   0.178   0.930   5.595
 8239SOL    HW225617   0.177   1.030   5.465
 8240SOL     OW25618   3.512   3.879   2.438
 8240SOL    HW125619   3.546   3.785   2.437
 8240SOL    HW225620   3.418   3.880   2.403
 8241SOL     OW25621   3.745   6.227   5.975
 8241SOL    HW125622   3.711   6.233   5.881
 8241SOL    HW225623   3.718   6.309   6.025
 8242SOL     OW25624   0.533   4.124   6.218
 8242SOL    HW125625   0.520   4.221   6.197
 8242SOL    HW225626   0.444   4.080   6.229
 8243SOL     OW25627   0.322   2.912   0.656
 8243SOL    HW125628   0.346   2.930   0.751
 8243SOL    HW225629   0.231   2.947   0.637
 8244SOL     OW25630   0.377   1.047   4.640
 8244SOL    HW125631   0.360   0.948   4.643
 8244SOL    HW225632   0.419   1.072   4.553
 8245SOL     OW25633   3.876   1.833   1.871
 8245SOL    HW125634   3.863   1.786   1.958
 8245SOL    HW225635   3.796   1.891   1.852
 8246SOL     OW25636   1.403   3.340   5.793
 8246SOL    HW125637   1.423   3.340   5.695
 8246SOL    HW225638   1.305   3.353   5.807
 8247SOL     OW25639   1.554   0.837   2.689
 8247SOL    HW125640   1.483   0.877   2.746
 8247SOL    HW225641   1.552   0.738   2.697
 8248SOL     OW25642   7.004   5.123   4.655
 8248SOL    HW125643   0.038   5.156   4.730
 8248SOL    HW225644   6.908   5.136   4.679
 8249SOL     OW25645   1.929   2.550   6.017
 8249SOL    HW125646   1.862   2.539   6.091
 8249SOL    HW225647   1.910   2.635   5.968
 8250SOL     OW25648   2.988   3.386   1.536
 8250SOL    HW125649   3.064   3.325   1.563
 8250SOL    HW225650   2.951   3.355   1.449
 8251SOL     OW25651   4.877   3.373   4.679
 8251SOL    HW125652   4.800   3.356   4.739
 8251SOL    HW225653   4.889   3.472   4.667
 8252SOL     OW25654   3.514   1.428   5.540
 8252SOL    HW125655   3.549   1.345   5.499
 8252SOL    HW225656   3.545   1.508   5.488
 8253SOL     OW25657   4.754   5.411   5.795
 8253SOL    HW125658   4.656   5.398   5.806
 8253SOL    HW225659   4.774   5.506   5.771
 8254SOL     OW25660   4.600   4.261   5.202
 8254SOL    HW125661   4.651   4.185   5.162
 8254SOL    HW225662   4.635   4.281   5.293
 8255SOL     OW25663   1.712   0.062   5.015
 8255SOL    HW125664   1.780   0.015   4.958
 8255SOL    HW225665   1.747   0.069   5.108
 8256SOL     OW25666   7.004   6.124   1.900
 8256SOL    HW125667   6.906   6.138   1.910
 8256SOL    HW225668   0.016   6.082   1.983
 8257SOL     OW25669   5.366   4.026   2.807
 8257SOL    HW125670   5.438   4.016   2.738
 8257SOL    HW225671   5.399   3.992   2.895
 8258SOL     OW25672   5.382   2.650   1.317
 8258SOL    HW125673   5.372   2.646   1.217
 8258SOL    HW225674   5.309   2.598   1.360
 8259SOL     OW25675   3.803   1.855   4.274
 8259SOL    HW125676   3.869   1.893   4.339
 8259SOL    HW225677   3.712   1.855   4.316
 8260SOL     OW25678   2.308   6.854   0.822
 8260SOL    HW125679   2.215   6.869   0.854
 8260SOL    HW225680   2.309   6.852   0.722
 8261SOL     OW25681   5.701   0.203   1.700
 8261SOL    HW125682   5.710   0.104   1.713
 8261SOL    HW225683   5.671   0.245   1.785
 8262SOL     OW25684   1.037   2.521   6.912
 8262SOL    HW125685   0.993   2.440   6.952
 8262SOL    HW225686   0.974   2.598   6.917
 8263SOL     OW25687   0.550   2.762   6.448
 8263SOL    HW125688   0.614   2.837   6.462
 8263SOL    HW225689   0.492   2.751   6.529
 8264SOL     OW25690   1.972   6.091   1.799
 8264SOL    HW125691   1.918   6.175   1.786
 8264SOL    HW225692   2.067   6.109   1.774
 8265SOL     OW25693   6.427   0.794   1.095
 8265SOL    HW125694   6.393   0.865   1.157
 8265SOL    HW225695   6.418   0.827   1.001
 8266SOL     OW25696   2.478   1.507   4.335
 8266SOL    HW125697   2.385   1.515   4.297
 8266SOL    HW225698   2.476   1.530   4.432
 8267SOL     OW25699   1.999   3.468   1.254
 8267SOL    HW125700   1.900   3.467   1.264
 8267SOL    HW225701   2.027   3.392   1.195
 8268SOL     OW25702   2.065   6.672   5.886
 8268SOL    HW125703   2.002   6.655   5.961
 8268SOL    HW225704   2.023   6.734   5.820
 8269SOL     OW25705   4.493   1.228   2.024
 8269SOL    HW125706   4.489   1.328   2.030
 8269SOL    HW225707   4.530   1.191   2.110
 8270SOL     OW25708   3.207   6.166   5.047
 8270SOL    HW125709   3.131   6.163   4.982
 8270SOL    HW225710   3.171   6.185   5.139
 8271SOL     OW25711   0.332   6.694   3.664
 8271SOL    HW125712   0.294   6.750   3.591
 8271SOL    HW225713   0.354   6.603   3.629
 8272SOL     OW25714   6.549   1.721   2.784
 8272SOL    HW125715   6.465   1.675   2.811
 8272SOL    HW225716   6.562   1.803   2.840
 8273SOL     OW25717   2.442   0.961   1.233
 8273SOL    HW125718   2.486   0.883   1.278
 8273SOL    HW225719   2.343   0.950   1.237
 8274SOL     OW25720   4.511   5.264   4.065
 8274SOL    HW125721   4.557   5.258   3.976
 8274SOL    HW225722   4.416   5.234   4.055
 8275SOL     OW25723   6.009   1.039   4.469
 8275SOL    HW125724   6.065   1.018   4.389
 8275SOL    HW225725   5.929   1.091   4.441
 8276SOL     OW25726   0.613   2.281   4.344
 8276SOL    HW125727   0.575   2.370   4.317
 8276SOL    HW225728   0.704   2.294   4.381
 8277SOL     OW25729   0.690   6.282   6.227
 8277SOL    HW125730   0.754   6.358   6.243
 8277SOL    HW225731   0.632   6.270   6.307
 8278SOL     OW25732   3.183   1.328   6.580
 8278SOL    HW125733   3.212   1.246   6.529
 8278SOL    HW225734   3.198   1.409   6.523
 8279SOL     OW25735   1.124   6.330   4.368
 8279SOL    HW125736   1.079   6.359   4.283
 8279SOL    HW225737   1.216   6.298   4.348
 8280SOL     OW25738   2.705   2.810   0.899
 8280SOL    HW125739   2.724   2.902   0.864
 8280SOL    HW225740   2.672   2.752   0.824
 8281SOL     OW25741   2.709   4.229   1.721
 8281SOL    HW125742   2.800   4.234   1.763
 8281SOL    HW225743   2.663   4.317   1.729
 8282SOL     OW25744   4.973   3.879   0.096
 8282SOL    HW125745   5.045   3.878   0.165
 8282SOL    HW225746   4.884   3.878   0.141
 8283SOL     OW25747   1.421   5.220   5.268
 8283SOL    HW125748   1.425   5.253   5.362
 8283SOL    HW225749   1.503   5.167   5.248
 8284SOL     OW25750   0.986   3.627   1.317
 8284SOL    HW125751   1.078   3.665   1.318
 8284SOL    HW225752   0.955   3.610   1.411
 8285SOL     OW25753   3.262   4.068   4.908
 8285SOL    HW125754   3.203   4.069   4.989
 8285SOL    HW225755   3.210   4.035   4.830
 8286SOL     OW25756   5.597   1.848   5.147
 8286SOL    HW125757   5.606   1.937   5.191
 8286SOL    HW225758   5.535   1.790   5.200
 8287SOL     OW25759   1.357   4.505   4.655
 8287SOL    HW125760   1.457   4.515   4.653
 8287SOL    HW225761   1.323   4.498   4.561
 8288SOL     OW25762   2.750   2.126   2.208
 8288SOL    HW125763   2.678   2.100   2.143
 8288SOL    HW225764   2.804   2.201   2.169
 8289SOL     OW25765   0.703   6.398   6.769
 8289SOL    HW125766   0.775   6.329   6.778
 8289SOL    HW225767   0.700   6.432   6.675
 8290SOL     OW25768   5.239   1.499   0.934
 8290SOL    HW125769   5.185   1.524   0.853
 8290SOL    HW225770   5.181   1.450   0.999
 8291SOL     OW25771   4.249   5.623   5.210
 8291SOL    HW125772   4.250   5.577   5.121
 8291SOL    HW225773   4.275   5.558   5.281
 8292SOL     OW25774   3.207   6.551   6.559
 8292SOL    HW125775   3.142   6.552   6.482
 8292SOL    HW225776   3.168   6.601   6.636
 8293SOL     OW25777   1.960   5.481   0.854
 8293SOL    HW125778   1.923   5.394   0.887
 8293SOL    HW225779   2.047   5.464   0.807
 8294SOL     OW25780   5.725   3.886   5.363
 8294SOL    HW125781   5.769   3.968   5.400
 8294SOL    HW225782   5.758   3.806   5.411
 8295SOL     OW25783   4.873   5.132   1.436
 8295SOL    HW125784   4.829   5.180   1.512
 8295SOL    HW225785   4.929   5.057   1.472
 8296SOL     OW25786   1.730   4.891   6.852
 8296SOL    HW125787   1.703   4.888   6.948
 8296SOL    HW225788   1.773   4.804   6.826
 8297SOL     OW25789   0.262   3.082   2.659
 8297SOL    HW125790   0.330   3.024   2.613
 8297SOL    HW225791   0.197   3.024   2.708
 8298SOL     OW25792   6.223   1.731   0.784
 8298SOL    HW125793   6.314   1.711   0.748
 8298SOL    HW225794   6.159   1.661   0.752
 8299SOL     OW25795   0.661   2.294   2.239
 8299SOL    HW125796   0.578   2.311   2.186
 8299SOL    HW225797   0.649   2.213   2.296
 8300SOL     OW25798   6.994   5.619   3.969
 8300SOL    HW125799   6.913   5.597   3.914
 8300SOL    HW225800   0.047   5.635   3.908
 8301SOL     OW25801   3.777   1.525   0.561
 8301SOL    HW125802   3.736   1.448   0.610
 8301SOL    HW225803   3.873   1.534   0.587
 8302SOL     OW25804   5.902   7.000   6.536
 8302SOL    HW125805   5.971   0.023   6.482
 8302SOL    HW225806   5.945   6.929   6.593
 8303SOL     OW25807   5.703   0.565   4.033
 8303SOL    HW125808   5.744   0.506   3.964
 8303SOL    HW225809   5.724   0.529   4.124
 8304SOL     OW25810   6.031   3.239   1.471
 8304SOL    HW125811   5.975   3.167   1.431
 8304SOL    HW225812   6.060   3.211   1.562
 8305SOL     OW25813   4.399   4.592   3.578
 8305SOL    HW125814   4.376   4.688   3.563
 8305SOL    HW225815   4.317   4.536   3.566
 8306SOL     OW25816   5.648   1.780   4.536
 8306SOL    HW125817   5.728   1.720   4.541
 8306SOL    HW225818   5.629   1.804   4.441
 8307SOL     OW25819   3.386   5.003   1.630
 8307SOL    HW125820   3.291   5.023   1.606
 8307SOL    HW225821   3.403   4.905   1.621
 8308SOL     OW25822   2.408   5.561   1.067
 8308SOL    HW125823   2.444   5.584   1.158
 8308SOL    HW225824   2.312   5.587   1.062
 8309SOL     OW25825   6.808   5.740   3.169
 8309SOL    HW125826   6.760   5.664   3.211
 8309SOL    HW225827   6.807   5.729   3.069
 8310SOL     OW25828   0.736   5.844   1.581
 8310SOL    HW125829   0.820   5.886   1.547
 8310SOL    HW225830   0.753   5.804   1.671
 8311SOL     OW25831   0.418   2.197   5.366
 8311SOL    HW125832   0.461   2.265   5.306
 8311SOL    HW225833   0.488   2.149   5.418
 8312SOL     OW25834   4.679   0.284   6.841
 8312SOL    HW125835   4.610   0.219   6.807
 8312SOL    HW225836   4.646   0.377   6.827
 8313SOL     OW25837   5.307   6.959   6.907
 8313SOL    HW125838   5.317   6.868   6.866
 8313SOL    HW225839   5.218   6.965   6.953
 8314SOL     OW25840   5.286   0.068   0.485
 8314SOL    HW125841   5.294   0.016   0.571
 8314SOL    HW225842   5.198   0.116   0.484
 8315SOL     OW25843   4.219   3.115   1.531
 8315SOL    HW125844   4.199   3.209   1.561
 8315SOL    HW225845   4.291   3.076   1.589
 8316SOL     OW25846   1.610   2.269   2.098
 8316SOL    HW125847   1.659   2.325   2.032
 8316SOL    HW225848   1.644   2.175   2.094
 8317SOL     OW25849   1.355   2.687   2.440
 8317SOL    HW125850   1.419   2.663   2.367
 8317SOL    HW225851   1.323   2.604   2.486
 8318SOL     OW25852   4.229   1.613   5.774
 8318SOL    HW125853   4.316   1.566   5.784
 8318SOL    HW225854   4.182   1.615   5.863
 8319SOL     OW25855   1.412   1.678   0.583
 8319SOL    HW125856   1.346   1.609   0.554
 8319SOL    HW225857   1.498   1.634   0.607
 8320SOL     OW25858   3.210   3.406   2.523
 8320SOL    HW125859   3.166   3.398   2.434
 8320SOL    HW225860   3.290   3.346   2.527
 8321SOL     OW25861   6.694   0.036   6.283
 8321SOL    HW125862   6.641   0.019   6.200
 8321SOL    HW225863   6.695   6.977   6.339
 8322SOL     OW25864   6.093   0.281   0.629
 8322SOL    HW125865   6.042   0.239   0.554
 8322SOL    HW225866   6.183   0.309   0.597
 8323SOL     OW25867   5.537   5.434   1.847
 8323SOL    HW125868   5.555   5.415   1.751
 8323SOL    HW225869   5.448   5.398   1.873
 8324SOL     OW25870   5.742   6.553   1.728
 8324SOL    HW125871   5.713   6.568   1.634
 8324SOL    HW225872   5.750   6.454   1.745
 8325SOL     OW25873   2.332   3.413   5.303
 8325SOL    HW125874   2.269   3.396   5.228
 8325SOL    HW225875   2.357   3.509   5.305
 8326SOL     OW25876   4.817   3.341   6.006
 8326SOL    HW125877   4.806   3.435   6.039
 8326SOL    HW225878   4.790   3.278   6.079
 8327SOL     OW25879   6.933   0.397   5.704
 8327SOL    HW125880   6.883   0.450   5.636
 8327SOL    HW225881   6.981   0.459   5.766
 8328SOL     OW25882   2.298   5.923   6.648
 8328SOL    HW125883   2.264   5.834   6.617
 8328SOL    HW225884   2.285   5.931   6.747
 8329SOL     OW25885   1.029   2.855   5.865
 8329SOL    HW125886   0.931   2.854   5.850
 8329SOL    HW225887   1.077   2.855   5.777
 8330SOL     OW25888   2.839   1.247   6.327
 8330SOL    HW125889   2.917   1.195   6.293
 8330SOL    HW225890   2.837   1.242   6.427
 8331SOL     OW25891   3.400   0.691   1.449
 8331SOL    HW125892   3.486   0.697   1.398
 8331SOL    HW225893   3.337   0.760   1.415
 8332SOL     OW25894   5.476   5.308   2.686
 8332SOL    HW125895   5.549   5.374   2.699
 8332SOL    HW225896   5.389   5.356   2.677
 8333SOL     OW25897   0.061   5.207   6.340
 8333SOL    HW125898   0.088   5.239   6.430
 8333SOL    HW225899   0.139   5.215   6.277
 8334SOL     OW25900   3.892   1.381   4.143
 8334SOL    HW125901   3.825   1.306   4.144
 8334SOL    HW225902   3.891   1.425   4.053
 8335SOL     OW25903   5.406   0.797   0.380
 8335SOL    HW125904   5.465   0.877   0.392
 8335SOL    HW225905   5.334   0.820   0.314
 8336SOL     OW25906   0.370   4.750   3.401
 8336SOL    HW125907   0.375   4.737   3.500
 8336SOL    HW225908   0.275   4.771   3.376
 8337SOL     OW25909   1.754   6.229   3.359
 8337SOL    HW125910   1.690   6.186   3.422
 8337SOL    HW225911   1.808   6.158   3.312
 8338SOL     OW25912   3.720   5.277   1.635
 8338SOL    HW125913   3.622   5.260   1.621
 8338SOL    HW225914   3.767   5.190   1.649
 8339SOL     OW25915   6.692   0.455   1.535
 8339SOL    HW125916   6.595   0.432   1.535
 8339SOL    HW225917   6.739   0.405   1.462
 8340SOL     OW25918   5.294   3.366   1.017
 8340SOL    HW125919   5.212   3.325   1.057
 8340SOL    HW225920   5.275   3.393   0.923
 8341SOL     OW25921   3.040   6.629   0.253
 8341SOL    HW125922   2.966   6.694   0.270
 8341SOL    HW225923   3.119   6.678   0.214
 8342SOL     OW25924   4.596   6.344   0.553
 8342SOL    HW125925   4.685   6.307   0.526
 8342SOL    HW225926   4.604   6.442   0.571
 8343SOL     OW25927   0.870   5.383   4.751
 8343SOL    HW125928   0.903   5.317   4.819
 8343SOL    HW225929   0.947   5.440   4.721
 8344SOL     OW25930   5.138   5.950   4.976
 8344SOL    HW125931   5.165   6.047   4.979
 8344SOL    HW225932   5.053   5.941   4.925
 8345SOL     OW25933   3.887   1.546   2.544
 8345SOL    HW125934   3.807   1.575   2.491
 8345SOL    HW225935   3.958   1.615   2.537
 8346SOL     OW25936   4.031   4.526   0.370
 8346SOL    HW125937   3.997   4.618   0.390
 8346SOL    HW225938   3.961   4.459   0.395
 8347SOL     OW25939   3.921   5.813   3.671
 8347SOL    HW125940   3.889   5.890   3.615
 8347SOL    HW225941   3.844   5.752   3.690
 8348SOL     OW25942   1.871   1.213   1.199
 8348SOL    HW125943   1.933   1.209   1.278
 8348SOL    HW225944   1.905   1.281   1.134
 8349SOL     OW25945   6.290   6.869   1.778
 8349SOL    HW125946   6.205   6.898   1.822
 8349SOL    HW225947   6.319   6.782   1.816
 8350SOL     OW25948   3.262   6.809   6.088
 8350SOL    HW125949   3.252   6.724   6.036
 8350SOL    HW225950   3.269   6.788   6.185
 8351SOL     OW25951   6.054   5.166   4.678
 8351SOL    HW125952   5.983   5.207   4.735
 8351SOL    HW225953   6.019   5.151   4.586
 8352SOL     OW25954   0.229   0.233   3.969
 8352SOL    HW125955   0.297   0.177   3.924
 8352SOL    HW225956   0.210   0.314   3.914
 8353SOL     OW25957   0.096   3.624   1.238
 8353SOL    HW125958   0.169   3.682   1.275
 8353SOL    HW225959   0.134   3.565   1.167
 8354SOL     OW25960   4.345   6.893   5.074
 8354SOL    HW125961   4.432   6.940   5.056
 8354SOL    HW225962   4.269   6.953   5.048
 8355SOL     OW25963   2.718   0.719   6.099
 8355SOL    HW125964   2.724   0.798   6.160
 8355SOL    HW225965   2.659   0.649   6.141
 8356SOL     OW25966   0.636   6.821   1.120
 8356SOL    HW125967   0.592   6.782   1.039
 8356SOL    HW225968   0.623   6.921   1.120
 8357SOL     OW25969   3.581   6.975   5.106
 8357SOL    HW125970   3.661   0.007   5.087
 8357SOL    HW225971   3.568   6.910   5.031
 8358SOL     OW25972   1.496   4.201   4.379
 8358SOL    HW125973   1.572   4.140   4.402
 8358SOL    HW225974   1.520   4.255   4.298
 8359SOL     OW25975   2.643   0.906   5.170
 8359SOL    HW125976   2.621   0.886   5.075
 8359SOL    HW225977   2.706   0.984   5.174
 8360SOL     OW25978   4.272   6.031   0.836
 8360SOL    HW125979   4.301   6.012   0.742
 8360SOL    HW225980   4.204   6.104   0.836
 8361SOL     OW25981   3.036   0.283   2.511
 8361SOL    HW125982   3.059   0.313   2.419
 8361SOL    HW225983   3.110   0.226   2.547
 8362SOL     OW25984   3.918   1.810   1.120
 8362SOL    HW125985   3.969   1.817   1.206
 8362SOL    HW225986   3.962   1.866   1.050
 8363SOL     OW25987   5.747   3.041   6.463
 8363SOL    HW125988   5.777   3.044   6.368
 8363SOL    HW225989   5.663   2.989   6.471
 8364SOL     OW25990   0.967   2.664   3.577
 8364SOL    HW125991   0.929   2.671   3.670
 8364SOL    HW225992   0.893   2.676   3.511
 8365SOL     OW25993   1.706   3.121   2.281
 8365SOL    HW125994   1.617   3.079   2.299
 8365SOL    HW225995   1.732   3.105   2.186
 8366SOL     OW25996   2.027   5.842   1.999
 8366SOL    HW125997   2.117   5.824   2.039
 8366SOL    HW225998   2.034   5.916   1.933
 8367SOL     OW25999   4.579   5.529   4.157
 8367SOL    HW126000   4.526   5.607   4.125
 8367SOL    HW226001   4.552   5.447   4.107
 8368SOL     OW26002   1.797   6.153   6.563
 8368SOL    HW126003   1.706   6.175   6.527
 8368SOL    HW226004   1.855   6.235   6.558
 8369SOL     OW26005   1.060   6.947   6.510
 8369SOL    HW126006   1.153   6.911   6.519
 8369SOL    HW226007   1.006   6.918   6.588
 8370SOL     OW26008   3.384   1.304   6.162
 8370SOL    HW126009   3.437   1.222   6.141
 8370SOL    HW226010   3.288   1.290   6.137
 8371SOL     OW26011   2.204   4.542   0.748
 8371SOL    HW126012   2.285   4.597   0.770
 8371SOL    HW226013   2.123   4.600   0.749
 8372SOL     OW26014   2.045   4.974   1.679
 8372SOL    HW126015   2.028   4.879   1.651
 8372SOL    HW226016   2.143   4.993   1.675
 8373SOL     OW26017   1.927   0.317   4.769
 8373SOL    HW126018   1.860   0.286   4.701
 8373SOL    HW226019   1.879   0.339   4.854
 8374SOL     OW26020   6.923   0.980   5.251
 8374SOL    HW126021   6.919   0.937   5.161
 8374SOL    HW226022   7.016   1.007   5.271
 8375SOL     OW26023   3.073   6.788   5.335
 8375SOL    HW126024   3.072   6.693   5.301
 8375SOL    HW226025   3.167   6.815   5.355
 8376SOL     OW26026   0.983   1.258   4.176
 8376SOL    HW126027   0.939   1.187   4.121
 8376SOL    HW226028   1.036   1.318   4.117
 8377SOL     OW26029   5.202   5.796   0.721
 8377SOL    HW126030   5.179   5.893   0.710
 8377SOL    HW226031   5.297   5.788   0.752
 8378SOL     OW26032   4.642   5.222   2.615
 8378SOL    HW126033   4.635   5.279   2.533
 8378SOL    HW226034   4.590   5.264   2.689
 8379SOL     OW26035   5.648   3.372   1.333
 8379SOL    HW126036   5.614   3.278   1.339
 8379SOL    HW226037   5.715   3.379   1.259
 8380SOL     OW26038   0.404   0.488   2.663
 8380SOL    HW126039   0.493   0.517   2.697
 8380SOL    HW226040   0.392   0.519   2.569
 8381SOL     OW26041   0.094   3.219   5.200
 8381SOL    HW126042   0.103   3.266   5.112
 8381SOL    HW226043   0.082   3.121   5.185
 8382SOL     OW26044   2.739   0.045   2.987
 8382SOL    HW126045   2.742   0.102   3.068
 8382SOL    HW226046   2.705   0.098   2.909
 8383SOL     OW26047   2.599   6.966   6.115
 8383SOL    HW126048   2.572   6.870   6.112
 8383SOL    HW226049   2.620   6.998   6.023
 8384SOL     OW26050   6.314   0.803   1.496
 8384SOL    HW126051   6.239   0.773   1.438
 8384SOL    HW226052   6.331   0.734   1.567
 8385SOL     OW26053   5.545   2.301   1.083
 8385SOL    HW126054   5.580   2.223   1.031
 8385SOL    HW226055   5.573   2.386   1.039
 8386SOL     OW26056   2.373   5.543   1.856
 8386SOL    HW126057   2.311   5.542   1.934
 8386SOL    HW226058   2.368   5.632   1.811
 8387SOL     OW26059   1.283   1.499   1.582
 8387SOL    HW126060   1.262   1.417   1.636
 8387SOL    HW226061   1.308   1.472   1.489
 8388SOL     OW26062   1.779   6.258   0.346
 8388SOL    HW126063   1.704   6.222   0.291
 8388SOL    HW226064   1.809   6.189   0.411
 8389SOL     OW26065   0.266   3.335   2.794
 8389SOL    HW126066   0.174   3.323   2.830
 8389SOL    HW226067   0.282   3.266   2.723
 8390SOL     OW26068   4.663   1.109   0.305
 8390SOL    HW126069   4.702   1.108   0.398
 8390SOL    HW226070   4.695   1.029   0.255
 8391SOL     OW26071   6.283   4.945   0.990
 8391SOL    HW126072   6.264   5.005   0.913
 8391SOL    HW226073   6.216   4.960   1.062
 8392SOL     OW26074   6.552   4.539   5.074
 8392SOL    HW126075   6.566   4.535   5.173
 8392SOL    HW226076   6.639   4.556   5.028
 8393SOL     OW26077   0.509   6.364   2.548
 8393SOL    HW126078   0.529   6.279   2.501
 8393SOL    HW226079   0.570   6.436   2.515
 8394SOL     OW26080   6.434   3.008   2.064
 8394SOL    HW126081   6.368   2.954   2.012
 8394SOL    HW226082   6.468   3.083   2.007
 8395SOL     OW26083   1.803   6.534   5.085
 8395SOL    HW126084   1.829   6.509   5.178
 8395SOL    HW226085   1.710   6.571   5.085
 8396SOL     OW26086   4.805   5.396   2.201
 8396SOL    HW126087   4.758   5.312   2.175
 8396SOL    HW226088   4.830   5.447   2.118
 8397SOL     OW26089   2.052   0.436   2.988
 8397SOL    HW126090   2.034   0.350   2.941
 8397SOL    HW226091   2.097   0.499   2.925
 8398SOL     OW26092   4.062   1.722   6.601
 8398SOL    HW126093   4.012   1.702   6.686
 8398SOL    HW226094   3.997   1.728   6.526
 8399SOL     OW26095   6.010   6.217   6.802
 8399SOL    HW126096   6.036   6.209   6.898
 8399SOL    HW226097   6.088   6.196   6.744
 8400SOL     OW26098   1.856   1.462   4.840
 8400SOL    HW126099   1.780   1.527   4.843
 8400SOL    HW226100   1.849   1.406   4.757
 8401SOL     OW26101   2.563   1.326   6.482
 8401SOL    HW126102   2.539   1.293   6.391
 8401SOL    HW226103   2.535   1.421   6.492
 8402SOL     OW26104   4.284   1.702   5.508
 8402SOL    HW126105   4.261   1.644   5.587
 8402SOL    HW226106   4.312   1.792   5.541
 8403SOL     OW26107   0.959   2.480   4.645
 8403SOL    HW126108   0.916   2.395   4.616
 8403SOL    HW226109   0.993   2.471   4.738
 8404SOL     OW26110   4.571   6.841   5.599
 8404SOL    HW126111   4.548   6.849   5.696
 8404SOL    HW226112   4.503   6.782   5.555
 8405SOL     OW26113   2.086   0.875   5.526
 8405SOL    HW126114   2.044   0.784   5.519
 8405SOL    HW226115   2.169   0.868   5.582
 8406SOL     OW26116   5.010   0.241   0.503
 8406SOL    HW126117   4.967   0.245   0.593
 8406SOL    HW226118   5.010   0.147   0.470
 8407SOL     OW26119   3.500   6.243   3.833
 8407SOL    HW126120   3.449   6.176   3.780
 8407SOL    HW226121   3.525   6.321   3.775
 8408SOL     OW26122   6.219   3.720   2.057
 8408SOL    HW126123   6.166   3.789   2.009
 8408SOL    HW226124   6.169   3.690   2.138
 8409SOL     OW26125   5.572   2.649   3.373
 8409SOL    HW126126   5.671   2.636   3.369
 8409SOL    HW226127   5.532   2.584   3.438
 8410SOL     OW26128   5.054   0.880   2.092
 8410SOL    HW126129   5.151   0.893   2.075
 8410SOL    HW226130   5.012   0.968   2.117
 8411SOL     OW26131   0.379   4.793   0.168
 8411SOL    HW126132   0.444   4.861   0.134
 8411SOL    HW226133   0.399   4.773   0.264
 8412SOL     OW26134   3.103   1.369   1.482
 8412SOL    HW126135   3.121   1.464   1.457
 8412SOL    HW226136   3.077   1.317   1.401
 8413SOL     OW26137   4.372   5.284   0.011
 8413SOL    HW126138   4.443   5.327   6.980
 8413SOL    HW226139   4.295   5.257   6.977
 8414SOL     OW26140   3.449   4.983   3.203
 8414SOL    HW126141   3.369   4.924   3.202
 8414SOL    HW226142   3.496   4.978   3.115
 8415SOL     OW26143   6.964   6.202   4.141
 8415SOL    HW126144   6.925   6.249   4.061
 8415SOL    HW226145   0.035   6.230   4.152
 8416SOL     OW26146   5.552   3.765   2.544
 8416SOL    HW126147   5.562   3.703   2.466
 8416SOL    HW226148   5.458   3.763   2.576
 8417SOL     OW26149   1.629   4.064   5.425
 8417SOL    HW126150   1.640   3.965   5.421
 8417SOL    HW226151   1.672   4.099   5.509
 8418SOL     OW26152   6.023   5.181   0.976
 8418SOL    HW126153   5.950   5.113   0.981
 8418SOL    HW226154   6.074   5.169   0.891
 8419SOL     OW26155   5.594   6.784   1.744
 8419SOL    HW126156   5.653   6.839   1.802
 8419SOL    HW226157   5.623   6.688   1.748
 8420SOL     OW26158   4.185   0.124   0.327
 8420SOL    HW126159   4.273   0.164   0.299
 8420SOL    HW226160   4.187   0.108   0.426
 8421SOL     OW26161   1.739   5.348   6.888
 8421SOL    HW126162   1.784   5.276   6.941
 8421SOL    HW226163   1.796   5.373   6.810
 8422SOL     OW26164   3.849   1.046   1.344
 8422SOL    HW126165   3.933   1.094   1.369
 8422SOL    HW226166   3.810   1.087   1.262
 8423SOL     OW26167   3.170   4.709   5.705
 8423SOL    HW126168   3.086   4.658   5.724
 8423SOL    HW226169   3.245   4.671   5.757
 8424SOL     OW26170   2.616   1.965   2.454
 8424SOL    HW126171   2.716   1.965   2.446
 8424SOL    HW226172   2.589   2.026   2.529
 8425SOL     OW26173   5.084   5.077   5.911
 8425SOL    HW126174   4.997   5.029   5.923
 8425SOL    HW226175   5.067   5.167   5.871
 8426SOL     OW26176   3.557   3.568   3.246
 8426SOL    HW126177   3.549   3.469   3.249
 8426SOL    HW226178   3.490   3.606   3.182
 8427SOL     OW26179   3.747   4.139   4.750
 8427SOL    HW126180   3.695   4.100   4.826
 8427SOL    HW226181   3.701   4.222   4.717
 8428SOL     OW26182   0.852   5.490   1.510
 8428SOL    HW126183   0.768   5.502   1.564
 8428SOL    HW226184   0.844   5.542   1.425
 8429SOL     OW26185   1.393   5.828   3.918
 8429SOL    HW126186   1.379   5.919   3.958
 8429SOL    HW226187   1.306   5.793   3.884
 8430SOL     OW26188   3.878   5.104   3.299
 8430SOL    HW126189   3.855   5.154   3.216
 8430SOL    HW226190   3.814   5.027   3.310
 8431SOL     OW26191   3.028   4.515   0.658
 8431SOL    HW126192   2.950   4.473   0.704
 8431SOL    HW226193   3.087   4.559   0.727
 8432SOL     OW26194   5.678   6.787   6.056
 8432SOL    HW126195   5.685   6.883   6.083
 8432SOL    HW226196   5.638   6.781   5.964
 8433SOL     OW26197   5.175   2.369   0.424
 8433SOL    HW126198   5.204   2.283   0.468
 8433SOL    HW226199   5.237   2.389   0.348
 8434SOL     OW26200   2.853   6.531   5.020
 8434SOL    HW126201   2.772   6.481   4.991
 8434SOL    HW226202   2.827   6.622   5.052
 8435SOL     OW26203   6.185   0.552   1.939
 8435SOL    HW126204   6.225   0.482   1.997
 8435SOL    HW226205   6.159   0.631   1.995
 8436SOL     OW26206   3.658   6.431   3.614
 8436SOL    HW126207   3.637   6.510   3.672
 8436SOL    HW226208   3.708   6.461   3.533
 8437SOL     OW26209   2.441   1.184   4.429
 8437SOL    HW126210   2.457   1.183   4.528
 8437SOL    HW226211   2.512   1.237   4.384
 8438SOL     OW26212   2.415   4.509   2.236
 8438SOL    HW126213   2.444   4.507   2.332
 8438SOL    HW226214   2.464   4.582   2.188
 8439SOL     OW26215   6.878   4.892   2.961
 8439SOL    HW126216   6.850   4.978   3.002
 8439SOL    HW226217   6.876   4.901   2.861
 8440SOL     OW26218   1.487   2.080   3.794
 8440SOL    HW126219   1.415   2.149   3.800
 8440SOL    HW226220   1.447   1.989   3.811
 8441SOL     OW26221   6.518   6.436   0.604
 8441SOL    HW126222   6.419   6.433   0.620
 8441SOL    HW226223   6.546   6.354   0.553
 8442SOL     OW26224   3.226   2.146   4.727
 8442SOL    HW126225   3.269   2.217   4.782
 8442SOL    HW226226   3.136   2.125   4.765
 8443SOL     OW26227   2.296   4.825   3.363
 8443SOL    HW126228   2.201   4.799   3.345
 8443SOL    HW226229   2.344   4.749   3.406
 8444SOL     OW26230   2.958   6.178   4.207
 8444SOL    HW126231   2.860   6.172   4.187
 8444SOL    HW226232   2.997   6.258   4.162
 8445SOL     OW26233   3.808   6.632   1.190
 8445SOL    HW126234   3.825   6.534   1.179
 8445SOL    HW226235   3.789   6.651   1.287
 8446SOL     OW26236   4.644   4.711   6.790
 8446SOL    HW126237   4.683   4.705   6.882
 8446SOL    HW226238   4.548   4.739   6.796
 8447SOL     OW26239   4.388   1.286   2.365
 8447SOL    HW126240   4.359   1.356   2.299
 8447SOL    HW226241   4.341   1.302   2.452
 8448SOL     OW26242   4.270   5.584   4.297
 8448SOL    HW126243   4.283   5.634   4.211
 8448SOL    HW226244   4.310   5.493   4.288
 8449SOL     OW26245   6.904   2.985   3.682
 8449SOL    HW126246   6.991   2.944   3.710
 8449SOL    HW226247   6.878   2.949   3.592
 8450SOL     OW26248   0.250   6.501   1.369
 8450SOL    HW126249   0.240   6.599   1.387
 8450SOL    HW226250   0.193   6.474   1.292
 8451SOL     OW26251   4.282   1.877   0.227
 8451SOL    HW126252   4.194   1.925   0.229
 8451SOL    HW226253   4.357   1.943   0.233
 8452SOL     OW26254   5.791   1.907   2.657
 8452SOL    HW126255   5.883   1.947   2.665
 8452SOL    HW226256   5.725   1.980   2.639
 8453SOL     OW26257   0.496   4.068   6.773
 8453SOL    HW126258   0.411   4.113   6.801
 8453SOL    HW226259   0.567   4.137   6.760
 8454SOL     OW26260   6.793   6.586   1.918
 8454SOL    HW126261   6.778   6.574   2.016
 8454SOL    HW226262   6.725   6.534   1.867
 8455SOL     OW26263   6.179   2.538   2.283
 8455SOL    HW126264   6.089   2.570   2.253
 8455SOL    HW226265   6.228   2.612   2.328
 8456SOL     OW26266   3.814   5.843   2.974
 8456SOL    HW126267   3.850   5.767   2.920
 8456SOL    HW226268   3.826   5.823   3.072
 8457SOL     OW26269   6.496   0.005   4.324
 8457SOL    HW126270   6.509   0.054   4.410
 8457SOL    HW226271   6.400   7.002   4.315
 8458SOL     OW26272   3.497   0.958   6.784
 8458SOL    HW126273   3.435   0.888   6.821
 8458SOL    HW226274   3.576   0.913   6.742
 8459SOL     OW26275   3.082   5.654   2.155
 8459SOL    HW126276   3.080   5.753   2.168
 8459SOL    HW226277   2.990   5.617   2.162
 8460SOL     OW26278   4.064   4.372   5.352
 8460SOL    HW126279   4.130   4.367   5.277
 8460SOL    HW226280   4.021   4.283   5.365
 8461SOL     OW26281   0.360   4.122   4.425
 8461SOL    HW126282   0.330   4.107   4.330
 8461SOL    HW226283   0.385   4.034   4.466
 8462SOL     OW26284   2.829   2.900   6.777
 8462SOL    HW126285   2.878   2.902   6.864
 8462SOL    HW226286   2.730   2.906   6.795
 8463SOL     OW26287   6.606   6.999   1.522
 8463SOL    HW126288   6.612   6.946   1.437
 8463SOL    HW226289   6.512   0.006   1.535
 8464SOL     OW26290   5.541   3.511   4.286
 8464SOL    HW126291   5.604   3.573   4.333
 8464SOL    HW226292   5.525   3.430   4.343
 8465SOL     OW26293   1.060   2.841   0.713
 8465SOL    HW126294   1.089   2.935   0.693
 8465SOL    HW226295   0.960   2.836   0.709
 8466SOL     OW26296   0.295   6.439   3.934
 8466SOL    HW126297   0.272   6.425   3.838
 8466SOL    HW226298   0.212   6.435   3.990
 8467SOL     OW26299   4.456   0.221   0.278
 8467SOL    HW126300   4.513   0.252   0.202
 8467SOL    HW226301   4.510   0.226   0.363
 8468SOL     OW26302   3.863   2.229   6.749
 8468SOL    HW126303   3.797   2.293   6.789
 8468SOL    HW226304   3.814   2.155   6.704
 8469SOL     OW26305   3.672   1.980   6.587
 8469SOL    HW126306   3.631   2.043   6.520
 8469SOL    HW226307   3.643   2.006   6.679
 8470SOL     OW26308   1.450   3.766   6.880
 8470SOL    HW126309   1.544   3.741   6.856
 8470SOL    HW226310   1.397   3.782   6.797
 8471SOL     OW26311   2.855   1.055   3.628
 8471SOL    HW126312   2.919   1.116   3.675
 8471SOL    HW226313   2.871   1.060   3.529
 8472SOL     OW26314   6.747   0.933   4.536
 8472SOL    HW126315   6.743   0.871   4.614
 8472SOL    HW226316   6.717   1.024   4.564
 8473SOL     OW26317   6.684   6.277   6.568
 8473SOL    HW126318   6.619   6.301   6.641
 8473SOL    HW226319   6.638   6.283   6.479
 8474SOL     OW26320   3.392   2.993   1.499
 8474SOL    HW126321   3.399   3.061   1.426
 8474SOL    HW226322   3.439   3.027   1.580
 8475SOL     OW26323   0.296   2.800   3.527
 8475SOL    HW126324   0.275   2.872   3.593
 8475SOL    HW226325   0.334   2.840   3.444
 8476SOL     OW26326   6.601   2.341   1.085
 8476SOL    HW126327   6.525   2.292   1.043
 8476SOL    HW226328   6.588   2.343   1.184
 8477SOL     OW26329   4.780   6.563   1.118
 8477SOL    HW126330   4.702   6.544   1.177
 8477SOL    HW226331   4.750   6.613   1.037
 8478SOL     OW26332   1.228   6.712   5.971
 8478SOL    HW126333   1.261   6.756   5.887
 8478SOL    HW226334   1.137   6.674   5.955
 8479SOL     OW26335   0.517   2.622   1.335
 8479SOL    HW126336   0.582   2.628   1.411
 8479SOL    HW226337   0.528   2.534   1.289
 8480SOL     OW26338   4.775   1.427   0.193
 8480SOL    HW126339   4.742   1.428   0.288
 8480SOL    HW226340   4.844   1.498   0.182
 8481SOL     OW26341   4.208   2.277   3.678
 8481SOL    HW126342   4.245   2.184   3.674
 8481SOL    HW226343   4.143   2.285   3.754
 8482SOL     OW26344   4.314   5.616   1.674
 8482SOL    HW126345   4.383   5.687   1.686
 8482SOL    HW226346   4.239   5.650   1.618
 8483SOL     OW26347   4.209   6.340   2.315
 8483SOL    HW126348   4.128   6.325   2.373
 8483SOL    HW226349   4.257   6.422   2.345
 8484SOL     OW26350   0.896   6.136   3.273
 8484SOL    HW126351   0.951   6.075   3.329
 8484SOL    HW226352   0.852   6.084   3.200
 8485SOL     OW26353   3.722   3.210   0.150
 8485SOL    HW126354   3.625   3.225   0.135
 8485SOL    HW226355   3.738   3.113   0.170
 8486SOL     OW26356   3.901   0.733   3.195
 8486SOL    HW126357   3.849   0.675   3.133
 8486SOL    HW226358   3.915   0.823   3.154
 8487SOL     OW26359   5.292   2.017   5.627
 8487SOL    HW126360   5.224   2.087   5.650
 8487SOL    HW226361   5.264   1.930   5.668
 8488SOL     OW26362   5.941   5.820   6.708
 8488SOL    HW126363   5.895   5.769   6.636
 8488SOL    HW226364   5.874   5.853   6.774
 8489SOL     OW26365   6.290   1.603   1.255
 8489SOL    HW126366   6.276   1.701   1.267
 8489SOL    HW226367   6.329   1.564   1.339
 8490SOL     OW26368   4.356   6.447   3.877
 8490SOL    HW126369   4.316   6.422   3.789
 8490SOL    HW226370   4.449   6.481   3.864
 8491SOL     OW26371   2.217   6.368   0.585
 8491SOL    HW126372   2.293   6.398   0.643
 8491SOL    HW226373   2.215   6.422   0.502
 8492SOL     OW26374   4.684   3.795   6.123
 8492SOL    HW126375   4.584   3.793   6.114
 8492SOL    HW226376   4.718   3.886   6.099
 8493SOL     OW26377   2.709   2.707   6.211
 8493SOL    HW126378   2.625   2.713   6.158
 8493SOL    HW226379   2.719   2.614   6.247
 8494SOL     OW26380   3.190   5.574   1.202
 8494SOL    HW126381   3.142   5.510   1.261
 8494SOL    HW226382   3.256   5.626   1.256
 8495SOL     OW26383   6.541   4.963   2.079
 8495SOL    HW126384   6.611   4.898   2.049
 8495SOL    HW226385   6.463   4.913   2.117
 8496SOL     OW26386   0.746   1.984   2.069
 8496SOL    HW126387   0.696   2.066   2.040
 8496SOL    HW226388   0.835   2.010   2.105
 8497SOL     OW26389   5.909   0.751   3.967
 8497SOL    HW126390   5.855   0.670   3.988
 8497SOL    HW226391   5.918   0.761   3.868
 8498SOL     OW26392   0.426   6.708   2.759
 8498SOL    HW126393   0.342   6.718   2.812
 8498SOL    HW226394   0.480   6.632   2.795
 8499SOL     OW26395   1.837   4.683   6.658
 8499SOL    HW126396   1.823   4.733   6.573
 8499SOL    HW226397   1.917   4.718   6.705
 8500SOL     OW26398   2.159   6.502   5.201
 8500SOL    HW126399   2.134   6.494   5.104
 8500SOL    HW226400   2.198   6.593   5.218
 8501SOL     OW26401   0.551   1.615   6.932
 8501SOL    HW126402   0.636   1.562   6.946
 8501SOL    HW226403   0.574   1.712   6.924
 8502SOL     OW26404   1.709   4.832   1.171
 8502SOL    HW126405   1.689   4.777   1.089
 8502SOL    HW226406   1.624   4.850   1.220
 8503SOL     OW26407   1.772   6.907   4.440
 8503SOL    HW126408   1.832   6.856   4.379
 8503SOL    HW226409   1.828   6.967   4.498
 8504SOL     OW26410   2.425   5.221   2.662
 8504SOL    HW126411   2.387   5.302   2.616
 8504SOL    HW226412   2.490   5.251   2.732
 8505SOL     OW26413   4.892   3.373   3.728
 8505SOL    HW126414   4.844   3.286   3.744
 8505SOL    HW226415   4.898   3.389   3.629
 8506SOL     OW26416   6.723   1.681   6.876
 8506SOL    HW126417   6.756   1.636   6.793
 8506SOL    HW226418   6.626   1.702   6.866
 8507SOL     OW26419   3.381   0.765   5.721
 8507SOL    HW126420   3.363   0.860   5.695
 8507SOL    HW226421   3.464   0.761   5.778
 8508SOL     OW26422   6.381   2.099   5.112
 8508SOL    HW126423   6.375   2.003   5.140
 8508SOL    HW226424   6.295   2.145   5.131
 8509SOL     OW26425   4.438   1.395   3.484
 8509SOL    HW126426   4.413   1.418   3.578
 8509SOL    HW226427   4.357   1.401   3.426
 8510SOL     OW26428   6.040   3.888   3.237
 8510SOL    HW126429   5.975   3.832   3.186
 8510SOL    HW226430   6.047   3.854   3.331
 8511SOL     OW26431   6.833   3.951   1.166
 8511SOL    HW126432   6.831   3.853   1.149
 8511SOL    HW226433   6.755   3.976   1.225
 8512SOL     OW26434   3.262   2.239   1.430
 8512SOL    HW126435   3.353   2.250   1.469
 8512SOL    HW226436   3.265   2.259   1.332
 8513SOL     OW26437   5.003   4.132   1.532
 8513SOL    HW126438   4.998   4.083   1.620
 8513SOL    HW226439   5.041   4.071   1.463
 8514SOL     OW26440   2.549   2.494   3.680
 8514SOL    HW126441   2.537   2.514   3.583
 8514SOL    HW226442   2.504   2.565   3.734
 8515SOL     OW26443   5.554   1.876   0.676
 8515SOL    HW126444   5.636   1.862   0.731
 8515SOL    HW226445   5.492   1.798   0.687
 8516SOL     OW26446   6.539   2.032   1.255
 8516SOL    HW126447   6.574   2.018   1.162
 8516SOL    HW226448   6.439   2.044   1.251
 8517SOL     OW26449   1.795   3.147   6.388
 8517SOL    HW126450   1.826   3.152   6.483
 8517SOL    HW226451   1.695   3.152   6.385
 8518SOL     OW26452   5.193   4.149   0.633
 8518SOL    HW126453   5.226   4.179   0.544
 8518SOL    HW226454   5.098   4.178   0.645
 8519SOL     OW26455   1.272   4.163   1.689
 8519SOL    HW126456   1.326   4.136   1.769
 8519SOL    HW226457   1.312   4.122   1.607
 8520SOL     OW26458   3.438   3.178   0.066
 8520SOL    HW126459   3.376   3.223   0.130
 8520SOL    HW226460   3.409   3.084   0.052
 8521SOL     OW26461   1.750   5.595   5.783
 8521SOL    HW126462   1.726   5.540   5.863
 8521SOL    HW226463   1.766   5.690   5.812
 8522SOL     OW26464   1.103   6.334   1.957
 8522SOL    HW126465   1.026   6.278   1.987
 8522SOL    HW226466   1.163   6.279   1.899
 8523SOL     OW26467   1.716   6.380   7.001
 8523SOL    HW126468   1.684   6.474   7.004
 8523SOL    HW226469   1.655   6.326   6.941
 8524SOL     OW26470   0.319   2.560   5.216
 8524SOL    HW126471   0.251   2.487   5.207
 8524SOL    HW226472   0.286   2.627   5.283
 8525SOL     OW26473   6.395   4.026   2.681
 8525SOL    HW126474   6.439   4.068   2.601
 8525SOL    HW226475   6.301   4.000   2.657
 8526SOL     OW26476   4.151   6.035   6.167
 8526SOL    HW126477   4.150   6.135   6.165
 8526SOL    HW226478   4.241   6.003   6.138
 8527SOL     OW26479   2.862   0.951   6.226
 8527SOL    HW126480   2.924   0.978   6.153
 8527SOL    HW226481   2.915   0.924   6.307
 8528SOL     OW26482   3.809   1.212   6.402
 8528SOL    HW126483   3.761   1.135   6.444
 8528SOL    HW226484   3.751   1.293   6.405
 8529SOL     OW26485   0.696   0.861   0.930
 8529SOL    HW126486   0.788   0.836   0.960
 8529SOL    HW226487   0.694   0.958   0.906
 8530SOL     OW26488   3.500   4.035   5.612
 8530SOL    HW126489   3.476   4.030   5.709
 8530SOL    HW226490   3.598   4.053   5.603
 8531SOL     OW26491   6.387   5.263   2.705
 8531SOL    HW126492   6.345   5.213   2.781
 8531SOL    HW226493   6.351   5.229   2.618
 8532SOL     OW26494   4.217   4.813   4.727
 8532SOL    HW126495   4.264   4.728   4.705
 8532SOL    HW226496   4.139   4.825   4.665
 8533SOL     OW26497   1.212   6.978   6.788
 8533SOL    HW126498   1.168   6.981   6.877
 8533SOL    HW226499   1.271   0.034   6.776
 8534SOL     OW26500   6.715   3.086   3.859
 8534SOL    HW126501   6.798   3.045   3.820
 8534SOL    HW226502   6.671   3.144   3.790
 8535SOL     OW26503   6.234   1.817   4.262
 8535SOL    HW126504   6.263   1.885   4.194
 8535SOL    HW226505   6.314   1.769   4.297
 8536SOL     OW26506   0.113   2.969   4.877
 8536SOL    HW126507   0.121   3.062   4.913
 8536SOL    HW226508   0.196   2.917   4.899
 8537SOL     OW26509   4.978   1.160   2.108
 8537SOL    HW126510   4.896   1.199   2.151
 8537SOL    HW226511   5.058   1.214   2.137
 8538SOL     OW26512   0.460   0.693   7.022
 8538SOL    HW126513   0.370   0.718   6.988
 8538SOL    HW226514   0.504   0.774   0.038
 8539SOL     OW26515   5.212   0.607   2.591
 8539SOL    HW126516   5.219   0.618   2.492
 8539SOL    HW226517   5.198   0.696   2.633
 8540SOL     OW26518   4.436   0.474   6.556
 8540SOL    HW126519   4.363   0.524   6.603
 8540SOL    HW226520   4.520   0.478   6.611
 8541SOL     OW26521   2.788   1.475   4.109
 8541SOL    HW126522   2.871   1.530   4.111
 8541SOL    HW226523   2.792   1.411   4.033
 8542SOL     OW26524   4.083   4.771   6.584
 8542SOL    HW126525   3.989   4.763   6.619
 8542SOL    HW226526   4.084   4.745   6.487
 8543SOL     OW26527   3.325   0.702   0.967
 8543SOL    HW126528   3.231   0.737   0.971
 8543SOL    HW226529   3.332   0.621   1.026
 8544SOL     OW26530   5.184   3.344   4.777
 8544SOL    HW126531   5.126   3.289   4.717
 8544SOL    HW226532   5.132   3.369   4.859
 8545SOL     OW26533   4.720   6.637   4.857
 8545SOL    HW126534   4.780   6.663   4.782
 8545SOL    HW226535   4.759   6.670   4.943
 8546SOL     OW26536   6.859   1.346   3.634
 8546SOL    HW126537   6.760   1.358   3.623
 8546SOL    HW226538   6.898   1.314   3.547
 8547SOL     OW26539   1.438   0.024   6.353
 8547SOL    HW126540   1.377   7.023   6.277
 8547SOL    HW226541   1.529   7.008   6.338
 8548SOL     OW26542   5.830   3.226   5.486
 8548SOL    HW126543   5.789   3.236   5.396
 8548SOL    HW226544   5.766   3.178   5.546
 8549SOL     OW26545   1.243   2.604   4.207
 8549SOL    HW126546   1.307   2.677   4.232
 8549SOL    HW226547   1.186   2.582   4.285
 8550SOL     OW26548   1.769   4.751   0.326
 8550SOL    HW126549   1.853   4.781   0.370
 8550SOL    HW226550   1.790   4.718   0.234
 8551SOL     OW26551   3.270   3.416   6.605
 8551SOL    HW126552   3.292   3.415   6.703
 8551SOL    HW226553   3.185   3.466   6.590
 8552SOL     OW26554   2.302   0.493   4.089
 8552SOL    HW126555   2.238   0.449   4.026
 8552SOL    HW226556   2.378   0.430   4.107
 8553SOL     OW26557   4.225   4.242   6.746
 8553SOL    HW126558   4.244   4.333   6.782
 8553SOL    HW226559   4.134   4.240   6.703
 8554SOL     OW26560   1.108   4.753   0.408
 8554SOL    HW126561   1.101   4.814   0.329
 8554SOL    HW226562   1.076   4.801   0.490
 8555SOL     OW26563   1.559   1.544   3.540
 8555SOL    HW126564   1.590   1.623   3.487
 8555SOL    HW226565   1.548   1.465   3.480
 8556SOL     OW26566   1.543   6.150   5.096
 8556SOL    HW126567   1.492   6.224   5.052
 8556SOL    HW226568   1.483   6.070   5.104
 8557SOL     OW26569   5.725   6.702   3.108
 8557SOL    HW126570   5.762   6.726   3.018
 8557SOL    HW226571   5.686   6.784   3.150
 8558SOL     OW26572   2.960   4.755   3.157
 8558SOL    HW126573   2.930   4.832   3.213
 8558SOL    HW226574   2.888   4.732   3.091
 8559SOL     OW26575   0.940   0.314   2.938
 8559SOL    HW126576   0.922   0.259   3.019
 8559SOL    HW226577   0.863   0.306   2.875
 8560SOL     OW26578   6.756   6.139   1.978
 8560SOL    HW126579   6.741   6.175   2.070
 8560SOL    HW226580   6.680   6.164   1.919
 8561SOL     OW26581   2.865   0.778   2.948
 8561SOL    HW126582   2.950   0.727   2.957
 8561SOL    HW226583   2.789   0.713   2.938
 8562SOL     OW26584   4.002   6.304   5.556
 8562SOL    HW126585   3.952   6.218   5.565
 8562SOL    HW226586   4.101   6.286   5.563
 8563SOL     OW26587   1.848   4.392   6.643
 8563SOL    HW126588   1.923   4.377   6.707
 8563SOL    HW226589   1.830   4.490   6.636
 8564SOL     OW26590   2.877   1.280   5.496
 8564SOL    HW126591   2.803   1.233   5.447
 8564SOL    HW226592   2.920   1.347   5.435
 8565SOL     OW26593   3.761   5.703   1.227
 8565SOL    HW126594   3.810   5.724   1.312
 8565SOL    HW226595   3.820   5.651   1.166
 8566SOL     OW26596   1.936   0.572   1.169
 8566SOL    HW126597   1.914   0.602   1.262
 8566SOL    HW226598   2.029   0.600   1.146
 8567SOL     OW26599   0.250   2.343   2.554
 8567SOL    HW126600   0.307   2.405   2.500
 8567SOL    HW226601   0.304   2.307   2.630
 8568SOL     OW26602   5.243   1.442   6.498
 8568SOL    HW126603   5.315   1.493   6.545
 8568SOL    HW226604   5.188   1.393   6.565
 8569SOL     OW26605   5.056   1.001   6.137
 8569SOL    HW126606   5.103   0.966   6.219
 8569SOL    HW226607   4.958   0.987   6.147
 8570SOL     OW26608   1.584   2.121   5.536
 8570SOL    HW126609   1.588   2.221   5.545
 8570SOL    HW226610   1.620   2.079   5.620
 8571SOL     OW26611   1.391   5.932   5.148
 8571SOL    HW126612   1.461   5.861   5.155
 8571SOL    HW226613   1.305   5.891   5.119
 8572SOL     OW26614   2.747   4.799   6.730
 8572SOL    HW126615   2.723   4.722   6.671
 8572SOL    HW226616   2.688   4.799   6.811
 8573SOL     OW26617   3.221   6.092   6.245
 8573SOL    HW126618   3.149   6.152   6.211
 8573SOL    HW226619   3.186   5.999   6.254
 8574SOL     OW26620   6.649   5.796   5.749
 8574SOL    HW126621   6.671   5.706   5.786
 8574SOL    HW226622   6.691   5.867   5.805
 8575SOL     OW26623   2.367   2.660   4.760
 8575SOL    HW126624   2.450   2.611   4.785
 8575SOL    HW226625   2.306   2.666   4.839
 8576SOL     OW26626   1.707   5.492   6.497
 8576SOL    HW126627   1.646   5.432   6.549
 8576SOL    HW226628   1.654   5.543   6.429
 8577SOL     OW26629   0.085   6.805   4.651
 8577SOL    HW126630   0.089   6.900   4.621
 8577SOL    HW226631   0.133   6.795   4.738
 8578SOL     OW26632   5.315   0.557   4.027
 8578SOL    HW126633   5.364   0.625   3.975
 8578SOL    HW226634   5.316   0.581   4.124
 8579SOL     OW26635   1.857   0.251   2.273
 8579SOL    HW126636   1.931   0.292   2.220
 8579SOL    HW226637   1.777   0.238   2.214
 8580SOL     OW26638   1.937   6.684   2.018
 8580SOL    HW126639   1.894   6.771   2.043
 8580SOL    HW226640   1.918   6.664   1.922
 8581SOL     OW26641   3.357   4.008   1.956
 8581SOL    HW126642   3.266   3.971   1.975
 8581SOL    HW226643   3.397   4.044   2.041
 8582SOL     OW26644   4.482   4.608   3.182
 8582SOL    HW126645   4.493   4.510   3.165
 8582SOL    HW226646   4.405   4.643   3.129
 8583SOL     OW26647   5.352   0.693   4.269
 8583SOL    HW126648   5.357   0.668   4.366
 8583SOL    HW226649   5.430   0.752   4.246
 8584SOL     OW26650   1.353   4.340   5.647
 8584SOL    HW126651   1.343   4.251   5.603
 8584SOL    HW226652   1.450   4.359   5.663
 8585SOL     OW26653   0.355   6.029   6.077
 8585SOL    HW126654   0.447   6.034   6.116
 8585SOL    HW226655   0.322   6.121   6.056
 8586SOL     OW26656   2.719   6.959   2.608
 8586SOL    HW126657   2.773   7.015   2.546
 8586SOL    HW226658   2.691   6.875   2.562
 8587SOL     OW26659   1.210   6.721   4.220
 8587SOL    HW126660   1.132   6.718   4.282
 8587SOL    HW226661   1.179   6.706   4.126
 8588SOL     OW26662   2.812   0.945   0.446
 8588SOL    HW126663   2.872   1.009   0.399
 8588SOL    HW226664   2.860   0.858   0.459
 8589SOL     OW26665   5.054   3.204   5.374
 8589SOL    HW126666   4.998   3.286   5.380
 8589SOL    HW226667   5.015   3.132   5.432
 8590SOL     OW26668   6.788   6.220   4.386
 8590SOL    HW126669   6.848   6.254   4.314
 8590SOL    HW226670   6.835   6.150   4.440
 8591SOL     OW26671   0.703   4.066   0.261
 8591SOL    HW126672   0.647   3.986   0.239
 8591SOL    HW226673   0.797   4.050   0.231
 8592SOL     OW26674   0.080   2.833   6.227
 8592SOL    HW126675   0.062   2.756   6.166
 8592SOL    HW226676   0.059   2.919   6.181
 8593SOL     OW26677   2.485   0.350   1.114
 8593SOL    HW126678   2.550   0.300   1.057
 8593SOL    HW226679   2.393   0.313   1.101
 8594SOL     OW26680   4.255   2.280   5.452
 8594SOL    HW126681   4.200   2.289   5.536
 8594SOL    HW226682   4.321   2.355   5.447
 8595SOL     OW26683   0.608   2.805   3.214
 8595SOL    HW126684   0.677   2.736   3.237
 8595SOL    HW226685   0.644   2.866   3.144
 8596SOL     OW26686   0.621   5.554   3.458
 8596SOL    HW126687   0.548   5.615   3.489
 8596SOL    HW226688   0.596   5.460   3.479
 8597SOL     OW26689   4.220   1.371   1.305
 8597SOL    HW126690   4.136   1.422   1.288
 8597SOL    HW226691   4.227   1.296   1.240
 8598SOL     OW26692   5.908   6.672   0.831
 8598SOL    HW126693   5.868   6.587   0.863
 8598SOL    HW226694   5.899   6.742   0.902
 8599SOL     OW26695   1.158   2.861   4.456
 8599SOL    HW126696   1.204   2.889   4.540
 8599SOL    HW226697   1.225   2.855   4.382
 8600SOL     OW26698   4.583   5.233   5.137
 8600SOL    HW126699   4.637   5.150   5.150
 8600SOL    HW226700   4.598   5.295   5.214
 8601SOL     OW26701   0.782   0.993   5.001
 8601SOL    HW126702   0.853   0.921   5.002
 8601SOL    HW226703   0.776   1.034   5.091
 8602SOL     OW26704   2.750   5.360   2.504
 8602SOL    HW126705   2.716   5.298   2.433
 8602SOL    HW226706   2.679   5.374   2.573
 8603SOL     OW26707   3.807   5.730   0.521
 8603SOL    HW126708   3.732   5.695   0.577
 8603SOL    HW226709   3.796   5.696   0.427
 8604SOL     OW26710   0.102   2.423   4.687
 8604SOL    HW126711   0.076   2.337   4.644
 8604SOL    HW226712   0.148   2.403   4.774
 8605SOL     OW26713   2.799   5.690   4.335
 8605SOL    HW126714   2.840   5.601   4.358
 8605SOL    HW226715   2.841   5.726   4.252
 8606SOL     OW26716   1.363   3.713   6.269
 8606SOL    HW126717   1.439   3.771   6.301
 8606SOL    HW226718   1.379   3.687   6.174
 8607SOL     OW26719   3.739   6.189   0.612
 8607SOL    HW126720   3.645   6.156   0.610
 8607SOL    HW226721   3.802   6.112   0.602
 8608SOL     OW26722   4.161   5.067   2.670
 8608SOL    HW126723   4.061   5.070   2.672
 8608SOL    HW226724   4.196   5.158   2.648
 8609SOL     OW26725   5.093   1.076   3.105
 8609SOL    HW126726   5.055   1.032   3.024
 8609SOL    HW226727   5.153   1.012   3.153
 8610SOL     OW26728   1.976   2.343   2.739
 8610SOL    HW126729   1.996   2.256   2.694
 8610SOL    HW226730   1.877   2.357   2.741
 8611SOL     OW26731   3.085   1.731   4.657
 8611SOL    HW126732   3.018   1.702   4.726
 8611SOL    HW226733   3.043   1.726   4.567
 8612SOL     OW26734   3.599   3.064   1.170
 8612SOL    HW126735   3.508   3.030   1.150
 8612SOL    HW226736   3.617   3.146   1.115
 8613SOL     OW26737   2.206   1.789   1.332
 8613SOL    HW126738   2.173   1.871   1.380
 8613SOL    HW226739   2.304   1.779   1.345
 8614SOL     OW26740   1.020   2.510   2.097
 8614SOL    HW126741   1.016   2.417   2.136
 8614SOL    HW226742   1.088   2.511   2.023
 8615SOL     OW26743   4.720   1.404   5.449
 8615SOL    HW126744   4.635   1.351   5.444
 8615SOL    HW226745   4.780   1.364   5.518
 8616SOL     OW26746   3.134   4.611   1.718
 8616SOL    HW126747   3.186   4.664   1.785
 8616SOL    HW226748   3.051   4.575   1.761
 8617SOL     OW26749   6.645   1.199   6.834
 8617SOL    HW126750   6.659   1.232   6.740
 8617SOL    HW226751   6.727   1.151   6.865
 8618SOL     OW26752   6.035   5.581   0.529
 8618SOL    HW126753   6.047   5.546   0.622
 8618SOL    HW226754   6.013   5.505   0.468
 8619SOL     OW26755   3.800   4.898   1.838
 8619SOL    HW126756   3.861   4.889   1.916
 8619SOL    HW226757   3.718   4.841   1.852
 8620SOL     OW26758   1.518   0.268   4.141
 8620SOL    HW126759   1.449   0.234   4.204
 8620SOL    HW226760   1.483   0.263   4.047
 8621SOL     OW26761   5.515   1.804   3.084
 8621SOL    HW126762   5.558   1.717   3.064
 8621SOL    HW226763   5.507   1.858   3.000
 8622SOL     OW26764   5.264   3.330   0.269
 8622SOL    HW126765   5.213   3.292   0.191
 8622SOL    HW226766   5.352   3.284   0.277
 8623SOL     OW26767   1.057   3.645   4.233
 8623SOL    HW126768   0.966   3.678   4.207
 8623SOL    HW226769   1.068   3.551   4.202
 8624SOL     OW26770   1.117   3.899   4.906
 8624SOL    HW126771   1.061   3.914   4.824
 8624SOL    HW226772   1.166   3.983   4.930
 8625SOL     OW26773   4.646   0.308   5.926
 8625SOL    HW126774   4.740   0.333   5.951
 8625SOL    HW226775   4.647   0.218   5.882
 8626SOL     OW26776   3.984   3.213   5.604
 8626SOL    HW126777   4.007   3.309   5.621
 8626SOL    HW226778   3.898   3.191   5.649
 8627SOL     OW26779   0.631   1.318   3.377
 8627SOL    HW126780   0.545   1.275   3.406
 8627SOL    HW226781   0.614   1.413   3.352
 8628SOL     OW26782   6.544   6.172   0.463
 8628SOL    HW126783   6.595   6.218   0.391
 8628SOL    HW226784   6.490   6.097   0.423
 8629SOL     OW26785   1.233   5.324   5.088
 8629SOL    HW126786   1.299   5.271   5.141
 8629SOL    HW226787   1.256   5.318   4.990
 8630SOL     OW26788   5.145   4.229   3.814
 8630SOL    HW126789   5.231   4.222   3.864
 8630SOL    HW226790   5.158   4.201   3.719
 8631SOL     OW26791   1.310   4.879   6.138
 8631SOL    HW126792   1.275   4.818   6.066
 8631SOL    HW226793   1.233   4.918   6.188
 8632SOL     OW26794   3.739   5.395   4.086
 8632SOL    HW126795   3.782   5.305   4.098
 8632SOL    HW226796   3.804   5.467   4.109
 8633SOL     OW26797   4.922   1.520   5.807
 8633SOL    HW126798   4.823   1.533   5.819
 8633SOL    HW226799   4.952   1.570   5.726
 8634SOL     OW26800   5.393   3.606   0.524
 8634SOL    HW126801   5.474   3.638   0.573
 8634SOL    HW226802   5.416   3.594   0.427
 8635SOL     OW26803   5.584   4.394   6.368
 8635SOL    HW126804   5.600   4.492   6.382
 8635SOL    HW226805   5.670   4.349   6.345
 8636SOL     OW26806   5.026   5.793   1.180
 8636SOL    HW126807   5.075   5.725   1.125
 8636SOL    HW226808   5.036   5.771   1.277
 8637SOL     OW26809   2.156   0.909   0.250
 8637SOL    HW126810   2.144   0.820   0.293
 8637SOL    HW226811   2.093   0.918   0.173
 8638SOL     OW26812   2.413   3.084   6.244
 8638SOL    HW126813   2.409   3.001   6.300
 8638SOL    HW226814   2.371   3.160   6.295
 8639SOL     OW26815   5.330   2.420   1.473
 8639SOL    HW126816   5.425   2.426   1.441
 8639SOL    HW226817   5.324   2.463   1.564
 8640SOL     OW26818   4.721   3.948   0.176
 8640SOL    HW126819   4.666   4.007   0.117
 8640SOL    HW226820   4.668   3.923   0.257
 8641SOL     OW26821   5.135   4.954   4.499
 8641SOL    HW126822   5.212   4.993   4.550
 8641SOL    HW226823   5.164   4.870   4.454
 8642SOL     OW26824   2.460   6.514   3.097
 8642SOL    HW126825   2.457   6.600   3.147
 8642SOL    HW226826   2.412   6.523   3.010
 8643SOL     OW26827   2.807   6.933   6.414
 8643SOL    HW126828   2.904   6.955   6.420
 8643SOL    HW226829   2.755   7.013   6.384
 8644SOL     OW26830   5.277   1.872   5.363
 8644SOL    HW126831   5.273   1.920   5.451
 8644SOL    HW226832   5.221   1.921   5.296
 8645SOL     OW26833   4.559   4.758   1.669
 8645SOL    HW126834   4.572   4.659   1.664
 8645SOL    HW226835   4.583   4.800   1.581
 8646SOL     OW26836   6.657   0.996   1.232
 8646SOL    HW126837   6.558   0.984   1.216
 8646SOL    HW226838   6.684   0.938   1.309
 8647SOL     OW26839   2.835   5.895   5.978
 8647SOL    HW126840   2.754   5.934   6.023
 8647SOL    HW226841   2.806   5.825   5.912
 8648SOL     OW26842   6.098   0.573   3.288
 8648SOL    HW126843   6.080   0.631   3.368
 8648SOL    HW226844   6.080   0.478   3.311
 8649SOL     OW26845   5.186   5.377   6.074
 8649SOL    HW126846   5.239   5.343   5.996
 8649SOL    HW226847   5.088   5.363   6.057
 8650SOL     OW26848   2.564   5.380   4.878
 8650SOL    HW126849   2.592   5.335   4.963
 8650SOL    HW226850   2.608   5.334   4.800
 8651SOL     OW26851   3.225   0.443   0.341
 8651SOL    HW126852   3.178   0.482   0.262
 8651SOL    HW226853   3.268   0.356   0.314
 8652SOL     OW26854   1.796   4.173   4.100
 8652SOL    HW126855   1.880   4.144   4.145
 8652SOL    HW226856   1.758   4.252   4.148
 8653SOL     OW26857   6.121   0.624   6.580
 8653SOL    HW126858   6.084   0.671   6.500
 8653SOL    HW226859   6.069   0.540   6.595
 8654SOL     OW26860   1.058   4.705   1.467
 8654SOL    HW126861   1.073   4.698   1.565
 8654SOL    HW226862   1.019   4.794   1.445
 8655SOL     OW26863   6.275   1.556   3.658
 8655SOL    HW126864   6.208   1.604   3.715
 8655SOL    HW226865   6.228   1.516   3.579
 8656SOL     OW26866   6.402   0.362   0.827
 8656SOL    HW126867   6.404   0.262   0.815
 8656SOL    HW226868   6.388   0.383   0.924
 8657SOL     OW26869   5.093   4.708   0.664
 8657SOL    HW126870   5.035   4.723   0.584
 8657SOL    HW226871   5.183   4.675   0.634
 8658SOL     OW26872   4.948   6.537   0.479
 8658SOL    HW126873   4.910   6.550   0.571
 8658SOL    HW226874   5.046   6.519   0.486
 8659SOL     OW26875   4.731   1.786   2.698
 8659SOL    HW126876   4.694   1.711   2.642
 8659SOL    HW226877   4.659   1.822   2.758
 8660SOL     OW26878   6.249   4.591   1.448
 8660SOL    HW126879   6.325   4.628   1.394
 8660SOL    HW226880   6.220   4.659   1.516
 8661SOL     OW26881   5.715   4.007   1.013
 8661SOL    HW126882   5.709   4.057   0.926
 8661SOL    HW226883   5.811   4.001   1.041
 8662SOL     OW26884   4.398   6.232   1.362
 8662SOL    HW126885   4.358   6.212   1.272
 8662SOL    HW226886   4.400   6.149   1.417
 8663SOL     OW26887   3.666   5.939   1.447
 8663SOL    HW126888   3.747   5.883   1.463
 8663SOL    HW226889   3.587   5.880   1.428
 8664SOL     OW26890   1.573   6.060   1.033
 8664SOL    HW126891   1.588   5.988   0.965
 8664SOL    HW226892   1.657   6.076   1.084
 8665SOL     OW26893   4.991   6.440   4.556
 8665SOL    HW126894   5.085   6.408   4.564
 8665SOL    HW226895   4.928   6.363   4.569
 8666SOL     OW26896   5.348   1.933   4.044
 8666SOL    HW126897   5.379   1.839   4.028
 8666SOL    HW226898   5.414   1.980   4.103
 8667SOL     OW26899   4.512   2.386   2.953
 8667SOL    HW126900   4.425   2.376   2.904
 8667SOL    HW226901   4.493   2.415   3.047
 8668SOL     OW26902   5.401   3.780   3.418
 8668SOL    HW126903   5.394   3.683   3.442
 8668SOL    HW226904   5.489   3.797   3.375
 8669SOL     OW26905   1.559   6.254   6.840
 8669SOL    HW126906   1.524   6.164   6.815
 8669SOL    HW226907   1.493   6.324   6.814
 8670SOL     OW26908   3.950   4.102   5.330
 8670SOL    HW126909   3.972   4.019   5.380
 8670SOL    HW226910   3.944   4.082   5.232
 8671SOL     OW26911   5.150   1.590   3.289
 8671SOL    HW126912   5.182   1.631   3.374
 8671SOL    HW226913   5.162   1.491   3.293
 8672SOL     OW26914   1.845   4.741   4.156
 8672SOL    HW126915   1.942   4.725   4.178
 8672SOL    HW226916   1.838   4.814   4.089
 8673SOL     OW26917   5.910   3.016   0.320
 8673SOL    HW126918   5.918   2.980   0.413
 8673SOL    HW226919   5.979   2.974   0.262
 8674SOL     OW26920   6.265   5.861   3.665
 8674SOL    HW126921   6.286   5.792   3.595
 8674SOL    HW226922   6.168   5.857   3.688
 8675SOL     OW26923   2.802   2.351   4.064
 8675SOL    HW126924   2.900   2.352   4.080
 8675SOL    HW226925   2.754   2.359   4.152
 8676SOL     OW26926   4.154   0.545   2.407
 8676SOL    HW126927   4.168   0.635   2.449
 8676SOL    HW226928   4.240   0.515   2.365
 8677SOL     OW26929   2.049   5.856   5.397
 8677SOL    HW126930   2.008   5.769   5.369
 8677SOL    HW226931   2.147   5.854   5.381
 8678SOL     OW26932   6.364   0.490   1.107
 8678SOL    HW126933   6.431   0.562   1.094
 8678SOL    HW226934   6.396   0.427   1.179
 8679SOL     OW26935   0.166   2.455   3.167
 8679SOL    HW126936   0.087   2.438   3.108
 8679SOL    HW226937   0.147   2.534   3.225
 8680SOL     OW26938   1.225   3.778   1.330
 8680SOL    HW126939   1.289   3.703   1.347
 8680SOL    HW226940   1.276   3.860   1.304
 8681SOL     OW26941   5.468   5.316   0.128
 8681SOL    HW126942   5.551   5.323   0.072
 8681SOL    HW226943   5.414   5.399   0.117
 8682SOL     OW26944   4.990   6.598   2.315
 8682SOL    HW126945   4.914   6.536   2.293
 8682SOL    HW226946   5.072   6.544   2.332
 8683SOL     OW26947   1.049   1.958   3.036
 8683SOL    HW126948   1.140   1.919   3.046
 8683SOL    HW226949   1.001   1.956   3.124
 8684SOL     OW26950   6.882   3.033   5.140
 8684SOL    HW126951   6.822   3.104   5.102
 8684SOL    HW226952   6.907   2.968   5.068
 8685SOL     OW26953   0.258   1.709   5.935
 8685SOL    HW126954   0.179   1.675   5.883
 8685SOL    HW226955   0.307   1.777   5.881
 8686SOL     OW26956   0.342   1.794   2.065
 8686SOL    HW126957   0.363   1.891   2.079
 8686SOL    HW226958   0.422   1.738   2.087
 8687SOL     OW26959   4.717   5.185   1.666
 8687SOL    HW126960   4.642   5.250   1.659
 8687SOL    HW226961   4.722   5.149   1.759
 8688SOL     OW26962   2.450   5.849   0.055
 8688SOL    HW126963   2.360   5.869   0.015
 8688SOL    HW226964   2.459   5.896   0.142
 8689SOL     OW26965   3.922   3.974   1.672
 8689SOL    HW126966   4.000   3.949   1.729
 8689SOL    HW226967   3.907   3.904   1.602
 8690SOL     OW26968   1.541   3.367   3.008
 8690SOL    HW126969   1.503   3.453   3.042
 8690SOL    HW226970   1.491   3.290   3.048
 8691SOL     OW26971   3.140   1.723   6.001
 8691SOL    HW126972   3.092   1.773   5.928
 8691SOL    HW226973   3.233   1.704   5.972
 8692SOL     OW26974   2.462   1.800   4.665
 8692SOL    HW126975   2.533   1.744   4.707
 8692SOL    HW226976   2.488   1.896   4.670
 8693SOL     OW26977   5.834   1.022   0.295
 8693SOL    HW126978   5.870   0.929   0.303
 8693SOL    HW226979   5.833   1.050   0.199
 8694SOL     OW26980   4.695   1.100   5.250
 8694SOL    HW126981   4.653   1.057   5.329
 8694SOL    HW226982   4.634   1.170   5.213
 8695SOL     OW26983   4.199   2.733   5.812
 8695SOL    HW126984   4.296   2.727   5.835
 8695SOL    HW226985   4.185   2.804   5.744
 8696SOL     OW26986   2.065   5.343   6.861
 8696SOL    HW126987   2.106   5.336   6.770
 8696SOL    HW226988   2.100   5.424   6.908
 8697SOL     OW26989   6.768   2.866   6.544
 8697SOL    HW126990   6.749   2.927   6.467
 8697SOL    HW226991   6.724   2.777   6.528
 8698SOL     OW26992   5.358   6.492   5.361
 8698SOL    HW126993   5.444   6.456   5.397
 8698SOL    HW226994   5.306   6.418   5.319
 8699SOL     OW26995   2.079   2.490   5.509
 8699SOL    HW126996   2.028   2.429   5.571
 8699SOL    HW226997   2.127   2.436   5.441
 8700SOL     OW26998   0.754   1.045   4.676
 8700SOL    HW126999   0.743   1.118   4.609
 8700SOL    HW227000   0.728   1.079   4.766
 8701SOL     OW27001   0.532   1.560   0.829
 8701SOL    HW127002   0.632   1.559   0.821
 8701SOL    HW227003   0.507   1.556   0.926
 8702SOL     OW27004   5.522   5.316   1.585
 8702SOL    HW127005   5.449   5.385   1.580
 8702SOL    HW227006   5.482   5.225   1.596
 8703SOL     OW27007   2.524   5.105   6.840
 8703SOL    HW127008   2.549   5.174   6.907
 8703SOL    HW227009   2.605   5.049   6.819
 8704SOL     OW27010   0.477   3.783   2.990
 8704SOL    HW127011   0.435   3.745   3.072
 8704SOL    HW227012   0.470   3.718   2.915
 8705SOL     OW27013   5.318   1.561   6.262
 8705SOL    HW127014   5.308   1.510   6.348
 8705SOL    HW227015   5.268   1.647   6.268
 8706SOL     OW27016   4.961   2.145   6.837
 8706SOL    HW127017   4.909   2.064   6.862
 8706SOL    HW227018   4.967   2.207   6.915
 8707SOL     OW27019   6.841   1.901   6.649
 8707SOL    HW127020   6.902   1.838   6.601
 8707SOL    HW227021   6.767   1.928   6.588
 8708SOL     OW27022   4.430   2.103   2.690
 8708SOL    HW127023   4.431   2.032   2.760
 8708SOL    HW227024   4.477   2.070   2.608
 8709SOL     OW27025   6.968   6.702   0.094
 8709SOL    HW127026   7.012   6.791   0.102
 8709SOL    HW227027   6.898   6.706   0.023
 8710SOL     OW27028   2.000   3.314   4.007
 8710SOL    HW127029   2.002   3.292   3.910
 8710SOL    HW227030   2.054   3.248   4.058
 8711SOL     OW27031   1.579   6.916   3.329
 8711SOL    HW127032   1.661   6.902   3.274
 8711SOL    HW227033   1.525   6.831   3.332
 8712SOL     OW27034   4.209   2.213   4.865
 8712SOL    HW127035   4.222   2.293   4.924
 8712SOL    HW227036   4.112   2.191   4.860
 8713SOL     OW27037   6.691   2.571   4.142
 8713SOL    HW127038   6.639   2.548   4.224
 8713SOL    HW227039   6.638   2.634   4.085
 8714SOL     OW27040   0.915   1.173   6.260
 8714SOL    HW127041   0.916   1.076   6.238
 8714SOL    HW227042   0.932   1.186   6.358
 8715SOL     OW27043   4.958   0.310   0.778
 8715SOL    HW127044   4.994   0.312   0.871
 8715SOL    HW227045   4.879   0.249   0.774
 8716SOL     OW27046   6.788   6.870   1.886
 8716SOL    HW127047   6.793   6.771   1.877
 8716SOL    HW227048   6.703   6.903   1.845
 8717SOL     OW27049   3.844   3.634   4.151
 8717SOL    HW127050   3.760   3.668   4.192
 8717SOL    HW227051   3.899   3.710   4.117
 8718SOL     OW27052   1.100   3.636   5.269
 8718SOL    HW127053   1.183   3.591   5.236
 8718SOL    HW227054   1.048   3.671   5.191
 8719SOL     OW27055   3.597   0.047   6.350
 8719SOL    HW127056   3.534   0.125   6.346
 8719SOL    HW227057   3.688   0.079   6.375
 8720SOL     OW27058   6.836   5.295   5.838
 8720SOL    HW127059   6.805   5.204   5.808
 8720SOL    HW227060   6.872   5.289   5.931
 8721SOL     OW27061   6.821   3.260   2.090
 8721SOL    HW127062   6.724   3.283   2.092
 8721SOL    HW227063   6.850   3.230   2.181
 8722SOL     OW27064   3.870   1.559   0.029
 8722SOL    HW127065   3.891   1.570   0.126
 8722SOL    HW227066   3.918   1.478   7.018
 8723SOL     OW27067   5.475   5.680   0.778
 8723SOL    HW127068   5.530   5.719   0.852
 8723SOL    HW227069   5.449   5.587   0.801
 8724SOL     OW27070   4.829   0.157   5.080
 8724SOL    HW127071   4.831   0.255   5.061
 8724SOL    HW227072   4.838   0.106   4.994
 8725SOL     OW27073   1.978   6.199   5.964
 8725SOL    HW127074   2.016   6.107   5.971
 8725SOL    HW227075   1.931   6.209   5.876
 8726SOL     OW27076   6.995   0.656   2.456
 8726SOL    HW127077   6.972   0.573   2.404
 8726SOL    HW227078   6.919   0.679   2.517
 8727SOL     OW27079   6.833   6.100   2.508
 8727SOL    HW127080   6.867   6.170   2.445
 8727SOL    HW227081   6.734   6.097   2.506
 8728SOL     OW27082   5.861   0.570   2.583
 8728SOL    HW127083   5.802   0.518   2.522
 8728SOL    HW227084   5.864   0.525   2.672
 8729SOL     OW27085   4.580   6.225   4.646
 8729SOL    HW127086   4.487   6.246   4.677
 8729SOL    HW227087   4.632   6.186   4.722
 8730SOL     OW27088   6.858   3.930   2.097
 8730SOL    HW127089   6.906   3.853   2.140
 8730SOL    HW227090   6.761   3.925   2.118
 8731SOL     OW27091   1.996   2.560   2.523
 8731SOL    HW127092   1.914   2.586   2.472
 8731SOL    HW227093   2.077   2.574   2.466
 8732SOL     OW27094   6.416   5.124   1.393
 8732SOL    HW127095   6.407   5.187   1.470
 8732SOL    HW227096   6.405   5.030   1.425
 8733SOL     OW27097   1.194   5.502   1.051
 8733SOL    HW127098   1.268   5.513   1.117
 8733SOL    HW227099   1.127   5.575   1.064
 8734SOL     OW27100   1.562   3.896   1.852
 8734SOL    HW127101   1.500   3.968   1.883
 8734SOL    HW227102   1.511   3.811   1.837
 8735SOL     OW27103   1.376   2.247   0.842
 8735SOL    HW127104   1.440   2.276   0.913
 8735SOL    HW227105   1.418   2.175   0.787
 8736SOL     OW27106   0.349   5.864   6.589
 8736SOL    HW127107   0.343   5.779   6.640
 8736SOL    HW227108   0.422   5.856   6.521
 8737SOL     OW27109   2.187   6.469   6.599
 8737SOL    HW127110   2.205   6.373   6.621
 8737SOL    HW227111   2.267   6.524   6.619
 8738SOL     OW27112   2.342   5.330   4.434
 8738SOL    HW127113   2.431   5.357   4.398
 8738SOL    HW227114   2.339   5.231   4.445
 8739SOL     OW27115   5.427   5.630   6.400
 8739SOL    HW127116   5.360   5.579   6.455
 8739SOL    HW227117   5.423   5.597   6.305
 8740SOL     OW27118   4.833   1.014   4.387
 8740SOL    HW127119   4.750   1.070   4.381
 8740SOL    HW227120   4.854   0.996   4.484
 8741SOL     OW27121   2.615   1.335   2.381
 8741SOL    HW127122   2.602   1.236   2.388
 8741SOL    HW227123   2.571   1.380   2.459
 8742SOL     OW27124   6.059   6.219   1.247
 8742SOL    HW127125   6.011   6.252   1.166
 8742SOL    HW227126   6.091   6.125   1.230
 8743SOL     OW27127   0.940   0.173   2.454
 8743SOL    HW127128   0.876   0.133   2.520
 8743SOL    HW227129   0.897   0.179   2.364
 8744SOL     OW27130   3.606   2.708   6.469
 8744SOL    HW127131   3.599   2.609   6.452
 8744SOL    HW227132   3.544   2.757   6.408
 8745SOL     OW27133   5.873   2.590   6.649
 8745SOL    HW127134   5.927   2.565   6.569
 8745SOL    HW227135   5.824   2.509   6.682
 8746SOL     OW27136   4.869   5.016   4.636
 8746SOL    HW127137   4.946   5.012   4.573
 8746SOL    HW227138   4.878   4.943   4.704
 8747SOL     OW27139   0.649   3.047   3.049
 8747SOL    HW127140   0.642   3.017   2.954
 8747SOL    HW227141   0.561   3.088   3.077
 8748SOL     OW27142   6.895   1.618   4.909
 8748SOL    HW127143   6.901   1.519   4.921
 8748SOL    HW227144   6.987   1.656   4.899
 8749SOL     OW27145   2.603   0.942   5.736
 8749SOL    HW127146   2.648   0.858   5.767
 8749SOL    HW227147   2.535   0.971   5.804
 8750SOL     OW27148   3.627   3.733   5.581
 8750SOL    HW127149   3.674   3.776   5.658
 8750SOL    HW227150   3.529   3.728   5.601
 8751SOL     OW27151   5.588   1.134   2.151
 8751SOL    HW127152   5.683   1.148   2.123
 8751SOL    HW227153   5.546   1.223   2.169
 8752SOL     OW27154   2.791   3.080   0.476
 8752SOL    HW127155   2.854   3.141   0.523
 8752SOL    HW227156   2.747   3.128   0.401
 8753SOL     OW27157   4.060   2.095   5.813
 8753SOL    HW127158   4.158   2.104   5.831
 8753SOL    HW227159   4.038   2.138   5.725
 8754SOL     OW27160   1.649   3.633   6.088
 8754SOL    HW127161   1.625   3.598   5.997
 8754SOL    HW227162   1.675   3.730   6.080
 8755SOL     OW27163   2.033   0.615   0.845
 8755SOL    HW127164   2.124   0.620   0.886
 8755SOL    HW227165   1.979   0.544   0.890
 8756SOL     OW27166   1.084   3.133   3.444
 8756SOL    HW127167   1.063   3.230   3.457
 8756SOL    HW227168   1.183   3.120   3.442
 8757SOL     OW27169   4.066   5.839   6.358
 8757SOL    HW127170   4.072   5.902   6.281
 8757SOL    HW227171   4.015   5.757   6.331
 8758SOL     OW27172   4.959   5.837   2.503
 8758SOL    HW127173   4.895   5.804   2.434
 8758SOL    HW227174   4.943   5.934   2.520
 8759SOL     OW27175   4.489   2.525   0.623
 8759SOL    HW127176   4.413   2.515   0.687
 8759SOL    HW227177   4.538   2.439   0.615
 8760SOL     OW27178   2.101   1.007   5.001
 8760SOL    HW127179   2.135   0.924   5.046
 8760SOL    HW227180   2.029   1.047   5.056
 8761SOL     OW27181   6.093   2.018   1.787
 8761SOL    HW127182   6.019   1.970   1.834
 8761SOL    HW227183   6.180   1.995   1.830
 8762SOL     OW27184   1.783   3.771   2.502
 8762SOL    HW127185   1.802   3.795   2.598
 8762SOL    HW227186   1.826   3.839   2.442
 8763SOL     OW27187   0.235   0.257   5.927
 8763SOL    HW127188   0.165   0.230   5.994
 8763SOL    HW227189   0.200   0.243   5.835
 8764SOL     OW27190   4.816   0.244   4.728
 8764SOL    HW127191   4.730   0.197   4.748
 8764SOL    HW227192   4.799   0.318   4.662
 8765SOL     OW27193   5.460   6.115   3.733
 8765SOL    HW127194   5.433   6.048   3.665
 8765SOL    HW227195   5.435   6.207   3.701
 8766SOL     OW27196   4.578   4.327   3.525
 8766SOL    HW127197   4.579   4.421   3.559
 8766SOL    HW227198   4.562   4.327   3.426
 8767SOL     OW27199   5.229   6.017   2.595
 8767SOL    HW127200   5.130   6.030   2.589
 8767SOL    HW227201   5.263   6.056   2.680
 8768SOL     OW27202   1.242   2.149   0.410
 8768SOL    HW127203   1.320   2.145   0.472
 8768SOL    HW227204   1.274   2.167   0.317
 8769SOL     OW27205   0.310   0.800   4.316
 8769SOL    HW127206   0.228   0.851   4.342
 8769SOL    HW227207   0.358   0.849   4.243
 8770SOL     OW27208   4.749   4.272   2.348
 8770SOL    HW127209   4.762   4.255   2.250
 8770SOL    HW227210   4.740   4.185   2.395
 8771SOL     OW27211   0.743   1.300   6.890
 8771SOL    HW127212   0.842   1.292   6.883
 8771SOL    HW227213   0.707   1.339   6.805
 8772SOL     OW27214   5.131   0.608   6.220
 8772SOL    HW127215   5.088   0.534   6.272
 8772SOL    HW227216   5.136   0.582   6.123
 8773SOL     OW27217   4.564   2.506   3.195
 8773SOL    HW127218   4.601   2.414   3.208
 8773SOL    HW227219   4.569   2.556   3.281
 8774SOL     OW27220   0.920   0.787   6.850
 8774SOL    HW127221   1.018   0.777   6.832
 8774SOL    HW227222   0.897   0.739   6.935
 8775SOL     OW27223   5.698   6.978   5.050
 8775SOL    HW127224   5.601   7.003   5.054
 8775SOL    HW227225   5.724   6.961   4.955
 8776SOL     OW27226   3.656   2.946   6.594
 8776SOL    HW127227   3.644   2.996   6.508
 8776SOL    HW227228   3.641   2.848   6.579
 8777SOL     OW27229   6.988   4.240   1.841
 8777SOL    HW127230   6.973   4.292   1.756
 8777SOL    HW227231   0.051   4.266   1.881
 8778SOL     OW27232   5.945   2.708   4.768
 8778SOL    HW127233   5.964   2.663   4.855
 8778SOL    HW227234   6.001   2.666   4.696
 8779SOL     OW27235   2.566   5.470   2.684
 8779SOL    HW127236   2.594   5.566   2.680
 8779SOL    HW227237   2.615   5.424   2.758
 8780SOL     OW27238   0.952   6.326   2.426
 8780SOL    HW127239   0.977   6.322   2.523
 8780SOL    HW227240   0.873   6.266   2.410
 8781SOL     OW27241   5.123   1.317   3.247
 8781SOL    HW127242   5.114   1.274   3.157
 8781SOL    HW227243   5.094   1.252   3.317
 8782SOL     OW27244   6.394   6.332   1.779
 8782SOL    HW127245   6.323   6.340   1.849
 8782SOL    HW227246   6.352   6.297   1.695
 8783SOL     OW27247   6.337   4.292   3.307
 8783SOL    HW127248   6.286   4.221   3.258
 8783SOL    HW227249   6.433   4.265   3.315
 8784SOL     OW27250   6.041   4.275   6.319
 8784SOL    HW127251   6.108   4.203   6.331
 8784SOL    HW227252   6.081   4.364   6.342
 8785SOL     OW27253   5.902   3.583   0.139
 8785SOL    HW127254   5.930   3.673   0.172
 8785SOL    HW227255   5.830   3.547   0.199
 8786SOL     OW27256   1.913   0.417   6.997
 8786SOL    HW127257   1.884   0.331   6.955
 8786SOL    HW227258   1.833   0.472   7.019
 8787SOL     OW27259   3.237   1.958   1.505
 8787SOL    HW127260   3.253   2.057   1.502
 8787SOL    HW227261   3.215   1.930   1.598
 8788SOL     OW27262   6.617   1.930   6.006
 8788SOL    HW127263   6.586   1.842   6.043
 8788SOL    HW227264   6.710   1.948   6.037
 8789SOL     OW27265   6.134   0.089   4.995
 8789SOL    HW127266   6.230   0.071   4.976
 8789SOL    HW227267   6.102   0.164   4.937
 8790SOL     OW27268   0.443   0.236   6.886
 8790SOL    HW127269   0.411   0.153   6.841
 8790SOL    HW227270   0.365   0.296   6.905
 8791SOL     OW27271   5.211   0.183   4.618
 8791SOL    HW127272   5.234   0.157   4.712
 8791SOL    HW227273   5.119   0.150   4.595
 8792SOL     OW27274   2.519   6.784   3.271
 8792SOL    HW127275   2.465   6.802   3.189
 8792SOL    HW227276   2.612   6.818   3.258
 8793SOL     OW27277   1.491   4.111   3.442
 8793SOL    HW127278   1.434   4.192   3.426
 8793SOL    HW227279   1.566   4.109   3.376
 8794SOL     OW27280   4.651   6.734   2.171
 8794SOL    HW127281   4.564   6.689   2.149
 8794SOL    HW227282   4.641   6.785   2.256
 8795SOL     OW27283   1.442   5.335   5.534
 8795SOL    HW127284   1.519   5.279   5.564
 8795SOL    HW227285   1.446   5.425   5.579
 8796SOL     OW27286   3.734   2.130   4.606
 8796SOL    HW127287   3.637   2.145   4.591
 8796SOL    HW227288   3.749   2.037   4.640
 8797SOL     OW27289   6.669   6.778   6.931
 8797SOL    HW127290   6.647   6.820   7.020
 8797SOL    HW227291   6.674   6.679   6.942
 8798SOL     OW27292   4.992   5.764   5.719
 8798SOL    HW127293   5.083   5.743   5.682
 8798SOL    HW227294   5.001   5.797   5.812
 8799SOL     OW27295   2.913   4.780   3.498
 8799SOL    HW127296   2.988   4.841   3.523
 8799SOL    HW227297   2.949   4.687   3.486
 8800SOL     OW27298   6.299   3.755   5.512
 8800SOL    HW127299   6.218   3.696   5.500
 8800SOL    HW227300   6.329   3.751   5.607
 8801SOL     OW27301   0.262   1.962   5.214
 8801SOL    HW127302   0.332   2.025   5.247
 8801SOL    HW227303   0.198   1.941   5.288
 8802SOL     OW27304   1.828   6.812   0.245
 8802SOL    HW127305   1.786   6.742   0.187
 8802SOL    HW227306   1.792   6.804   0.338
 8803SOL     OW27307   6.460   6.061   6.930
 8803SOL    HW127308   6.528   6.128   6.958
 8803SOL    HW227309   6.430   6.008   7.010
 8804SOL     OW27310   2.615   6.756   1.838
 8804SOL    HW127311   2.635   6.743   1.741
 8804SOL    HW227312   2.564   6.841   1.851
 8805SOL     OW27313   3.028   0.017   4.276
 8805SOL    HW127314   2.939   0.035   4.235
 8805SOL    HW227315   3.022   0.027   4.375
 8806SOL     OW27316   3.023   5.880   2.280
 8806SOL    HW127317   3.052   5.975   2.296
 8806SOL    HW227318   2.931   5.867   2.317
 8807SOL     OW27319   5.090   0.738   6.865
 8807SOL    HW127320   5.084   0.830   6.902
 8807SOL    HW227321   5.180   0.699   6.887
 8808SOL     OW27322   5.761   3.092   6.975
 8808SOL    HW127323   5.796   3.176   7.016
 8808SOL    HW227324   5.820   3.065   6.899
 8809SOL     OW27325   4.985   5.255   3.545
 8809SOL    HW127326   5.005   5.224   3.639
 8809SOL    HW227327   4.974   5.354   3.545
 8810SOL     OW27328   5.383   0.801   5.788
 8810SOL    HW127329   5.456   0.754   5.738
 8810SOL    HW227330   5.331   0.858   5.725
 8811SOL     OW27331   2.951   0.476   3.020
 8811SOL    HW127332   2.959   0.432   2.930
 8811SOL    HW227333   2.854   0.492   3.040
 8812SOL     OW27334   1.908   0.389   0.974
 8812SOL    HW127335   1.891   0.454   1.047
 8812SOL    HW227336   1.911   0.296   1.011
 8813SOL     OW27337   2.570   4.493   1.558
 8813SOL    HW127338   2.660   4.535   1.546
 8813SOL    HW227339   2.560   4.417   1.494
 8814SOL     OW27340   5.504   6.981   1.502
 8814SOL    HW127341   5.514   6.895   1.552
 8814SOL    HW227342   5.478   0.029   1.566
 8815SOL     OW27343   5.701   6.876   0.766
 8815SOL    HW127344   5.750   6.794   0.797
 8815SOL    HW227345   5.639   6.852   0.691
 8816SOL     OW27346   1.088   6.632   0.016
 8816SOL    HW127347   1.079   6.732   0.013
 8816SOL    HW227348   1.005   6.591   7.003
 8817SOL     OW27349   0.809   5.062   4.275
 8817SOL    HW127350   0.759   5.148   4.269
 8817SOL    HW227351   0.864   5.061   4.359
 8818SOL     OW27352   0.183   4.551   4.936
 8818SOL    HW127353   0.276   4.578   4.962
 8818SOL    HW227354   0.118   4.617   4.971
 8819SOL     OW27355   5.637   5.229   5.039
 8819SOL    HW127356   5.708   5.277   5.091
 8819SOL    HW227357   5.624   5.138   5.077
 8820SOL     OW27358   2.369   1.064   5.232
 8820SOL    HW127359   2.392   0.990   5.170
 8820SOL    HW227360   2.366   1.030   5.326
 8821SOL     OW27361   1.852   6.077   0.550
 8821SOL    HW127362   1.866   5.981   0.572
 8821SOL    HW227363   1.862   6.132   0.633
 8822SOL     OW27364   0.179   0.053   4.583
 8822SOL    HW127365   0.179   0.152   4.573
 8822SOL    HW227366   0.273   0.019   4.574
 8823SOL     OW27367   2.288   0.708   1.684
 8823SOL    HW127368   2.315   0.707   1.781
 8823SOL    HW227369   2.352   0.765   1.633
 8824SOL     OW27370   1.115   1.980   0.563
 8824SOL    HW127371   1.034   2.020   0.605
 8824SOL    HW227372   1.156   2.046   0.499
 8825SOL     OW27373   2.415   1.068   1.631
 8825SOL    HW127374   2.329   1.117   1.616
 8825SOL    HW227375   2.446   1.083   1.725
 8826SOL     OW27376   6.538   3.402   0.520
 8826SOL    HW127377   6.549   3.409   0.421
 8826SOL    HW227378   6.537   3.494   0.560
 8827SOL     OW27379   3.977   1.855   2.274
 8827SOL    HW127380   3.963   1.783   2.206
 8827SOL    HW227381   3.899   1.917   2.274
 8828SOL     OW27382   4.901   6.172   5.716
 8828SOL    HW127383   4.914   6.260   5.763
 8828SOL    HW227384   4.987   6.145   5.672
 8829SOL     OW27385   5.520   2.806   0.869
 8829SOL    HW127386   5.614   2.819   0.837
 8829SOL    HW227387   5.488   2.890   0.913
 8830SOL     OW27388   1.026   1.710   2.569
 8830SOL    HW127389   0.950   1.751   2.619
 8830SOL    HW227390   1.073   1.779   2.515
 8831SOL     OW27391   3.951   2.192   4.147
 8831SOL    HW127392   3.884   2.139   4.095
 8831SOL    HW227393   3.924   2.196   4.243
 8832SOL     OW27394   0.194   5.962   3.122
 8832SOL    HW127395   0.103   5.955   3.163
 8832SOL    HW227396   0.255   5.894   3.164
 8833SOL     OW27397   2.464   5.347   5.776
 8833SOL    HW127398   2.416   5.368   5.691
 8833SOL    HW227399   2.471   5.247   5.786
 8834SOL     OW27400   5.461   3.891   4.875
 8834SOL    HW127401   5.398   3.818   4.848
 8834SOL    HW227402   5.471   3.892   4.975
 8835SOL     OW27403   5.055   0.900   5.854
 8835SOL    HW127404   5.023   0.805   5.863
 8835SOL    HW227405   5.041   0.947   5.941
 8836SOL     OW27406   5.460   2.932   0.198
 8836SOL    HW127407   5.560   2.922   0.194
 8836SOL    HW227408   5.418   2.876   0.128
 8837SOL     OW27409   0.035   6.089   2.693
 8837SOL    HW127410   6.980   6.063   2.637
 8837SOL    HW227411   0.020   6.179   2.732
 8838SOL     OW27412   1.855   5.412   3.146
 8838SOL    HW127413   1.800   5.399   3.063
 8838SOL    HW227414   1.825   5.349   3.217
 8839SOL     OW27415   6.047   5.142   2.929
 8839SOL    HW127416   5.994   5.084   2.992
 8839SOL    HW227417   5.989   5.168   2.852
 8840SOL     OW27418   6.883   2.330   2.214
 8840SOL    HW127419   6.789   2.363   2.219
 8840SOL    HW227420   6.939   2.377   2.282
 8841SOL     OW27421   0.859   1.298   5.269
 8841SOL    HW127422   0.772   1.260   5.237
 8841SOL    HW227423   0.848   1.396   5.285
 8842SOL     OW27424   3.412   3.141   2.214
 8842SOL    HW127425   3.478   3.158   2.287
 8842SOL    HW227426   3.387   3.044   2.213
 8843SOL     OW27427   1.705   3.110   5.192
 8843SOL    HW127428   1.787   3.092   5.139
 8843SOL    HW227429   1.718   3.077   5.286
 8844SOL     OW27430   6.797   2.143   6.289
 8844SOL    HW127431   6.767   2.049   6.304
 8844SOL    HW227432   6.825   2.183   6.376
 8845SOL     OW27433   4.130   3.740   0.405
 8845SOL    HW127434   4.185   3.822   0.388
 8845SOL    HW227435   4.097   3.741   0.499
 8846SOL     OW27436   3.538   5.266   3.963
 8846SOL    HW127437   3.602   5.338   3.989
 8846SOL    HW227438   3.577   5.177   3.983
 8847SOL     OW27439   2.538   0.622   3.207
 8847SOL    HW127440   2.440   0.608   3.197
 8847SOL    HW227441   2.573   0.564   3.281
 8848SOL     OW27442   2.806   1.611   1.967
 8848SOL    HW127443   2.771   1.586   1.877
 8848SOL    HW227444   2.810   1.710   1.975
 8849SOL     OW27445   3.010   6.289   3.596
 8849SOL    HW127446   2.916   6.298   3.630
 8849SOL    HW227447   3.073   6.330   3.661
 8850SOL     OW27448   1.065   1.970   0.107
 8850SOL    HW127449   1.120   1.917   0.172
 8850SOL    HW227450   1.086   1.939   0.014
 8851SOL     OW27451   1.109   4.293   3.203
 8851SOL    HW127452   1.085   4.293   3.106
 8851SOL    HW227453   1.041   4.240   3.255
 8852SOL     OW27454   6.570   2.888   4.828
 8852SOL    HW127455   6.655   2.900   4.777
 8852SOL    HW227456   6.547   2.973   4.875
 8853SOL     OW27457   2.887   0.997   1.398
 8853SOL    HW127458   2.820   1.018   1.327
 8853SOL    HW227459   2.936   0.914   1.374
 8854SOL     OW27460   3.245   2.550   5.853
 8854SOL    HW127461   3.205   2.479   5.911
 8854SOL    HW227462   3.177   2.620   5.833
 8855SOL     OW27463   0.289   5.371   1.590
 8855SOL    HW127464   0.198   5.351   1.628
 8855SOL    HW227465   0.353   5.389   1.665
 8856SOL     OW27466   0.210   6.881   6.167
 8856SOL    HW127467   0.174   6.963   6.211
 8856SOL    HW227468   0.299   6.902   6.125
 8857SOL     OW27469   6.649   1.723   3.701
 8857SOL    HW127470   6.704   1.698   3.780
 8857SOL    HW227471   6.584   1.795   3.727
 8858SOL     OW27472   0.827   3.524   5.339
 8858SOL    HW127473   0.894   3.583   5.295
 8858SOL    HW227474   0.869   3.435   5.359
 8859SOL     OW27475   0.394   0.544   4.322
 8859SOL    HW127476   0.482   0.560   4.277
 8859SOL    HW227477   0.346   0.631   4.333
 8860SOL     OW27478   6.713   2.675   2.349
 8860SOL    HW127479   6.661   2.759   2.330
 8860SOL    HW227480   6.794   2.672   2.289
 8861SOL     OW27481   4.304   1.061   6.098
 8861SOL    HW127482   4.331   0.965   6.096
 8861SOL    HW227483   4.205   1.069   6.090
 8862SOL     OW27484   4.973   0.500   3.326
 8862SOL    HW127485   4.983   0.401   3.309
 8862SOL    HW227486   5.037   0.528   3.397
 8863SOL     OW27487   2.275   4.979   3.860
 8863SOL    HW127488   2.367   4.962   3.826
 8863SOL    HW227489   2.216   4.902   3.835
 8864SOL     OW27490   2.695   5.044   6.491
 8864SOL    HW127491   2.738   5.131   6.464
 8864SOL    HW227492   2.759   4.990   6.545
 8865SOL     OW27493   3.077   0.622   5.105
 8865SOL    HW127494   2.980   0.610   5.124
 8865SOL    HW227495   3.091   0.701   5.046
 8866SOL     OW27496   5.017   0.002   2.876
 8866SOL    HW127497   5.062   6.941   2.850
 8866SOL    HW227498   4.943   0.022   2.812
 8867SOL     OW27499   5.858   4.884   2.847
 8867SOL    HW127500   5.897   4.897   2.938
 8867SOL    HW227501   5.782   4.948   2.834
 8868SOL     OW27502   6.929   3.083   1.661
 8868SOL    HW127503   6.992   3.160   1.651
 8868SOL    HW227504   6.974   2.999   1.630
 8869SOL     OW27505   4.067   5.966   5.105
 8869SOL    HW127506   4.024   5.876   5.094
 8869SOL    HW227507   4.166   5.954   5.113
 8870SOL     OW27508   2.709   0.191   0.977
 8870SOL    HW127509   2.665   0.203   0.888
 8870SOL    HW227510   2.761   0.106   0.977
 8871SOL     OW27511   2.039   1.347   3.716
 8871SOL    HW127512   2.085   1.279   3.659
 8871SOL    HW227513   2.001   1.302   3.797
 8872SOL     OW27514   1.568   4.582   4.971
 8872SOL    HW127515   1.484   4.528   4.975
 8872SOL    HW227516   1.631   4.552   5.043
 8873SOL     OW27517   0.522   6.364   2.185
 8873SOL    HW127518   0.485   6.452   2.216
 8873SOL    HW227519   0.469   6.331   2.107
 8874SOL     OW27520   2.082   6.506   2.755
 8874SOL    HW127521   2.094   6.414   2.718
 8874SOL    HW227522   2.036   6.564   2.687
 8875SOL     OW27523   0.369   3.851   5.049
 8875SOL    HW127524   0.344   3.755   5.056
 8875SOL    HW227525   0.456   3.866   5.096
 8876SOL     OW27526   2.147   6.551   5.470
 8876SOL    HW127527   2.064   6.521   5.518
 8876SOL    HW227528   2.149   6.511   5.379
 8877SOL     OW27529   2.834   2.064   4.038
 8877SOL    HW127530   2.787   1.977   4.054
 8877SOL    HW227531   2.811   2.128   4.111
 8878SOL     OW27532   6.171   5.091   0.758
 8878SOL    HW127533   6.175   5.028   0.680
 8878SOL    HW227534   6.195   5.183   0.727
 8879SOL     OW27535   5.090   4.471   2.649
 8879SOL    HW127536   5.011   4.522   2.614
 8879SOL    HW227537   5.075   4.373   2.635
 8880SOL     OW27538   4.579   6.411   4.885
 8880SOL    HW127539   4.521   6.382   4.808
 8880SOL    HW227540   4.630   6.493   4.859
 8881SOL     OW27541   5.096   6.560   3.660
 8881SOL    HW127542   5.050   6.616   3.591
 8881SOL    HW227543   5.048   6.570   3.748
 8882SOL     OW27544   5.155   0.740   1.248
 8882SOL    HW127545   5.246   0.780   1.253
 8882SOL    HW227546   5.156   0.661   1.186
 8883SOL     OW27547   1.925   6.104   6.253
 8883SOL    HW127548   2.008   6.104   6.309
 8883SOL    HW227549   1.942   6.155   6.169
 8884SOL     OW27550   6.457   3.961   5.159
 8884SOL    HW127551   6.490   3.938   5.251
 8884SOL    HW227552   6.392   3.891   5.129
 8885SOL     OW27553   6.005   4.429   1.816
 8885SOL    HW127554   5.918   4.462   1.852
 8885SOL    HW227555   6.032   4.483   1.736
 8886SOL     OW27556   2.919   5.782   4.560
 8886SOL    HW127557   2.925   5.771   4.461
 8886SOL    HW227558   2.859   5.712   4.598
 8887SOL     OW27559   3.809   0.452   0.382
 8887SOL    HW127560   3.780   0.413   0.294
 8887SOL    HW227561   3.745   0.524   0.409
 8888SOL     OW27562   1.991   1.567   5.784
 8888SOL    HW127563   1.996   1.593   5.687
 8888SOL    HW227564   2.067   1.506   5.806
 8889SOL     OW27565   6.434   0.136   0.131
 8889SOL    HW127566   6.517   0.155   0.078
 8889SOL    HW227567   6.448   0.161   0.226
 8890SOL     OW27568   0.132   6.271   5.467
 8890SOL    HW127569   0.129   6.370   5.472
 8890SOL    HW227570   0.048   6.232   5.506
 8891SOL     OW27571   4.298   3.313   6.816
 8891SOL    HW127572   4.248   3.236   6.777
 8891SOL    HW227573   4.242   3.359   6.884
 8892SOL     OW27574   3.538   5.272   2.250
 8892SOL    HW127575   3.633   5.244   2.238
 8892SOL    HW227576   3.508   5.325   2.171
 8893SOL     OW27577   1.115   5.659   4.060
 8893SOL    HW127578   1.022   5.621   4.062
 8893SOL    HW227579   1.123   5.731   4.128
 8894SOL     OW27580   3.493   2.473   6.974
 8894SOL    HW127581   3.560   2.463   6.901
 8894SOL    HW227582   3.428   2.397   6.971
 8895SOL     OW27583   6.506   2.902   2.304
 8895SOL    HW127584   6.506   2.967   2.380
 8895SOL    HW227585   6.468   2.947   2.222
 8896SOL     OW27586   2.348   3.066   5.604
 8896SOL    HW127587   2.393   3.114   5.528
 8896SOL    HW227588   2.279   3.126   5.645
 8897SOL     OW27589   2.301   2.664   3.400
 8897SOL    HW127590   2.387   2.617   3.378
 8897SOL    HW227591   2.310   2.711   3.488
 8898SOL     OW27592   4.929   3.359   2.526
 8898SOL    HW127593   4.890   3.448   2.504
 8898SOL    HW227594   4.907   3.294   2.453
 8899SOL     OW27595   1.306   5.344   1.487
 8899SOL    HW127596   1.267   5.318   1.399
 8899SOL    HW227597   1.339   5.262   1.534
 8900SOL     OW27598   5.725   2.738   2.723
 8900SOL    HW127599   5.722   2.779   2.632
 8900SOL    HW227600   5.819   2.709   2.744
 8901SOL     OW27601   1.529   1.146   5.037
 8901SOL    HW127602   1.600   1.214   5.056
 8901SOL    HW227603   1.538   1.114   4.943
 8902SOL     OW27604   0.747   6.193   0.463
 8902SOL    HW127605   0.786   6.121   0.521
 8902SOL    HW227606   0.776   6.178   0.368
 8903SOL     OW27607   0.681   1.907   4.491
 8903SOL    HW127608   0.713   1.999   4.517
 8903SOL    HW227609   0.695   1.893   4.393
 8904SOL     OW27610   6.464   0.983   4.660
 8904SOL    HW127611   6.525   0.926   4.714
 8904SOL    HW227612   6.511   1.066   4.630
 8905SOL     OW27613   2.084   3.852   3.130
 8905SOL    HW127614   2.049   3.758   3.131
 8905SOL    HW227615   2.037   3.906   3.199
 8906SOL     OW27616   0.458   6.341   0.109
 8906SOL    HW127617   0.500   6.395   0.036
 8906SOL    HW227618   0.359   6.354   0.108
 8907SOL     OW27619   2.937   2.860   5.497
 8907SOL    HW127620   2.972   2.910   5.418
 8907SOL    HW227621   2.852   2.813   5.473
 8908SOL     OW27622   0.862   5.014   7.016
 8908SOL    HW127623   0.908   4.961   6.945
 8908SOL    HW227624   0.763   5.004   7.006
 8909SOL     OW27625   2.260   1.428   5.786
 8909SOL    HW127626   2.322   1.373   5.730
 8909SOL    HW227627   2.294   1.522   5.790
 8910SOL     OW27628   0.579   3.200   5.665
 8910SOL    HW127629   0.517   3.222   5.740
 8910SOL    HW227630   0.558   3.108   5.631
 8911SOL     OW27631   4.710   2.504   4.551
 8911SOL    HW127632   4.671   2.513   4.459
 8911SOL    HW227633   4.758   2.416   4.558
 8912SOL     OW27634   3.516   3.560   6.894
 8912SOL    HW127635   3.424   3.521   6.903
 8912SOL    HW227636   3.576   3.492   6.851
 8913SOL     OW27637   4.496   5.520   6.012
 8913SOL    HW127638   4.476   5.450   5.944
 8913SOL    HW227639   4.562   5.585   5.975
 8914SOL     OW27640   4.271   6.686   4.375
 8914SOL    HW127641   4.308   6.600   4.412
 8914SOL    HW227642   4.336   6.760   4.390
 8915SOL     OW27643   0.859   2.360   3.907
 8915SOL    HW127644   0.785   2.308   3.950
 8915SOL    HW227645   0.846   2.362   3.808
 8916SOL     OW27646   6.727   3.218   1.019
 8916SOL    HW127647   6.682   3.134   0.988
 8916SOL    HW227648   6.679   3.297   0.979
 8917SOL     OW27649   6.553   3.164   0.645
 8917SOL    HW127650   6.611   3.132   0.570
 8917SOL    HW227651   6.530   3.260   0.630
 8918SOL     OW27652   0.037   3.942   1.010
 8918SOL    HW127653   0.007   3.896   0.927
 8918SOL    HW227654   6.982   3.968   1.065
 8919SOL     OW27655   4.305   4.063   0.550
 8919SOL    HW127656   4.248   4.139   0.581
 8919SOL    HW227657   4.280   4.037   0.457
 8920SOL     OW27658   0.084   1.502   6.663
 8920SOL    HW127659   0.112   1.468   6.574
 8920SOL    HW227660   0.165   1.520   6.719
 8921SOL     OW27661   2.096   2.249   1.884
 8921SOL    HW127662   2.028   2.186   1.846
 8921SOL    HW227663   2.171   2.260   1.819
 8922SOL     OW27664   4.402   4.985   1.278
 8922SOL    HW127665   4.331   4.937   1.226
 8922SOL    HW227666   4.437   5.061   1.223
 8923SOL     OW27667   2.394   1.840   6.826
 8923SOL    HW127668   2.469   1.811   6.886
 8923SOL    HW227669   2.427   1.844   6.732
 8924SOL     OW27670   4.302   5.977   5.442
 8924SOL    HW127671   4.208   5.962   5.474
 8924SOL    HW227672   4.313   5.939   5.351
 8925SOL     OW27673   0.963   0.991   3.232
 8925SOL    HW127674   0.874   0.945   3.233
 8925SOL    HW227675   1.011   0.972   3.318
 8926SOL     OW27676   6.922   2.647   6.052
 8926SOL    HW127677   6.863   2.581   6.004
 8926SOL    HW227678   6.905   2.739   6.017
 8927SOL     OW27679   0.080   0.891   4.683
 8927SOL    HW127680   0.025   0.809   4.666
 8927SOL    HW227681   0.100   0.936   4.597
 8928SOL     OW27682   1.443   6.578   6.065
 8928SOL    HW127683   1.352   6.607   6.036
 8928SOL    HW227684   1.494   6.657   6.098
 8929SOL     OW27685   6.006   1.711   4.936
 8929SOL    HW127686   6.089   1.702   4.991
 8929SOL    HW227687   5.939   1.767   4.984
 8930SOL     OW27688   1.885   2.750   4.724
 8930SOL    HW127689   1.804   2.751   4.782
 8930SOL    HW227690   1.920   2.843   4.714
 8931SOL     OW27691   3.041   3.346   0.752
 8931SOL    HW127692   3.058   3.254   0.718
 8931SOL    HW227693   3.023   3.407   0.675
 8932SOL     OW27694   6.333   1.826   1.612
 8932SOL    HW127695   6.289   1.826   1.702
 8932SOL    HW227696   6.387   1.742   1.602
 8933SOL     OW27697   2.448   2.874   6.472
 8933SOL    HW127698   2.546   2.885   6.451
 8933SOL    HW227699   2.420   2.781   6.451
 8934SOL     OW27700   2.866   5.178   4.198
 8934SOL    HW127701   2.864   5.157   4.100
 8934SOL    HW227702   2.773   5.176   4.234
 8935SOL     OW27703   0.466   4.359   0.628
 8935SOL    HW127704   0.532   4.431   0.609
 8935SOL    HW227705   0.449   4.305   0.546
 8936SOL     OW27706   1.228   3.415   2.119
 8936SOL    HW127707   1.288   3.454   2.188
 8936SOL    HW227708   1.138   3.458   2.124
 8937SOL     OW27709   0.597   0.465   5.735
 8937SOL    HW127710   0.678   0.408   5.728
 8937SOL    HW227711   0.516   0.411   5.713
 8938SOL     OW27712   0.284   6.361   0.886
 8938SOL    HW127713   0.303   6.267   0.858
 8938SOL    HW227714   0.217   6.402   0.824
 8939SOL     OW27715   5.275   4.383   4.140
 8939SOL    HW127716   5.177   4.373   4.158
 8939SOL    HW227717   5.326   4.373   4.226
 8940SOL     OW27718   0.644   0.954   2.038
 8940SOL    HW127719   0.649   0.898   1.955
 8940SOL    HW227720   0.574   0.918   2.099
 8941SOL     OW27721   5.841   2.714   5.309
 8941SOL    HW127722   5.795   2.642   5.257
 8941SOL    HW227723   5.785   2.738   5.389
 8942SOL     OW27724   6.177   5.318   5.645
 8942SOL    HW127725   6.122   5.400   5.665
 8942SOL    HW227726   6.239   5.301   5.721
 8943SOL     OW27727   3.699   5.370   6.649
 8943SOL    HW127728   3.777   5.341   6.593
 8943SOL    HW227729   3.655   5.289   6.688
 8944SOL     OW27730   5.409   5.368   5.877
 8944SOL    HW127731   5.387   5.443   5.815
 8944SOL    HW227732   5.452   5.405   5.960
 8945SOL     OW27733   1.002   0.756   2.860
 8945SOL    HW127734   0.904   0.755   2.881
 8945SOL    HW227735   1.044   0.836   2.902
 8946SOL     OW27736   2.832   1.820   5.092
 8946SOL    HW127737   2.798   1.747   5.151
 8946SOL    HW227738   2.832   1.907   5.143
 8947SOL     OW27739   2.171   2.920   6.419
 8947SOL    HW127740   2.267   2.903   6.440
 8947SOL    HW227741   2.136   2.847   6.361
 8948SOL     OW27742   5.907   6.016   4.868
 8948SOL    HW127743   5.960   6.085   4.918
 8948SOL    HW227744   5.962   5.981   4.792
 8949SOL     OW27745   2.897   6.231   0.754
 8949SOL    HW127746   2.966   6.260   0.688
 8949SOL    HW227747   2.807   6.235   0.712
 8950SOL     OW27748   4.830   4.235   6.458
 8950SOL    HW127749   4.750   4.262   6.405
 8950SOL    HW227750   4.854   4.140   6.438
 8951SOL     OW27751   1.352   1.381   5.109
 8951SOL    HW127752   1.331   1.345   5.200
 8951SOL    HW227753   1.392   1.308   5.053
 8952SOL     OW27754   1.423   6.285   2.460
 8952SOL    HW127755   1.493   6.220   2.431
 8952SOL    HW227756   1.416   6.285   2.560
 8953SOL     OW27757   1.489   4.078   6.827
 8953SOL    HW127758   1.496   3.987   6.869
 8953SOL    HW227759   1.477   4.068   6.729
 8954SOL     OW27760   0.732   6.676   4.213
 8954SOL    HW127761   0.721   6.660   4.311
 8954SOL    HW227762   0.715   6.773   4.194
 8955SOL     OW27763   0.140   5.156   2.694
 8955SOL    HW127764   0.185   5.146   2.606
 8955SOL    HW227765   0.099   5.247   2.700
 8956SOL     OW27766   1.945   1.303   6.468
 8956SOL    HW127767   1.868   1.334   6.412
 8956SOL    HW227768   1.924   1.318   6.565
 8957SOL     OW27769   2.608   4.693   1.269
 8957SOL    HW127770   2.542   4.618   1.267
 8957SOL    HW227771   2.572   4.767   1.326
 8958SOL     OW27772   0.309   1.777   4.572
 8958SOL    HW127773   0.354   1.852   4.524
 8958SOL    HW227774   0.376   1.705   4.591
 8959SOL     OW27775   1.663   4.267   2.309
 8959SOL    HW127776   1.676   4.181   2.259
 8959SOL    HW227777   1.597   4.324   2.261
 8960SOL     OW27778   4.647   4.944   2.550
 8960SOL    HW127779   4.548   4.933   2.552
 8960SOL    HW227780   4.672   5.035   2.581
 8961SOL     OW27781   2.594   0.946   4.102
 8961SOL    HW127782   2.528   0.871   4.101
 8961SOL    HW227783   2.620   0.968   4.008
 8962SOL     OW27784   0.008   5.654   2.730
 8962SOL    HW127785   6.986   5.701   2.655
 8962SOL    HW227786   0.068   5.718   2.777
 8963SOL     OW27787   4.037   6.371   4.354
 8963SOL    HW127788   4.010   6.333   4.442
 8963SOL    HW227789   3.984   6.327   4.281
 8964SOL     OW27790   5.212   3.661   3.029
 8964SOL    HW127791   5.211   3.723   3.108
 8964SOL    HW227792   5.305   3.659   2.990
 8965SOL     OW27793   2.731   4.662   0.570
 8965SOL    HW127794   2.786   4.688   0.490
 8965SOL    HW227795   2.641   4.703   0.563
 8966SOL     OW27796   0.047   4.324   0.490
 8966SOL    HW127797   0.073   4.229   0.507
 8966SOL    HW227798   0.110   4.385   0.538
 8967SOL     OW27799   4.221   0.180   1.295
 8967SOL    HW127800   4.210   0.082   1.278
 8967SOL    HW227801   4.315   0.199   1.319
 8968SOL     OW27802   4.455   5.299   2.821
 8968SOL    HW127803   4.369   5.282   2.773
 8968SOL    HW227804   4.462   5.396   2.844
 8969SOL     OW27805   6.652   1.194   4.606
 8969SOL    HW127806   6.568   1.229   4.564
 8969SOL    HW227807   6.681   1.256   4.678
 8970SOL     OW27808   2.662   2.893   0.079
 8970SOL    HW127809   2.725   2.966   0.052
 8970SOL    HW227810   2.656   2.890   0.179
 8971SOL     OW27811   6.064   5.226   1.224
 8971SOL    HW127812   6.038   5.227   1.128
 8971SOL    HW227813   6.085   5.132   1.252
 8972SOL     OW27814   5.216   4.132   6.894
 8972SOL    HW127815   5.262   4.046   6.873
 8972SOL    HW227816   5.120   4.115   6.914
 8973SOL     OW27817   0.583   2.767   2.354
 8973SOL    HW127818   0.509   2.834   2.361
 8973SOL    HW227819   0.645   2.777   2.431
 8974SOL     OW27820   1.320   4.449   4.940
 8974SOL    HW127821   1.292   4.454   4.844
 8974SOL    HW227822   1.248   4.488   4.998
 8975SOL     OW27823   1.590   6.452   5.836
 8975SOL    HW127824   1.579   6.509   5.754
 8975SOL    HW227825   1.523   6.481   5.905
 8976SOL     OW27826   7.004   5.497   5.823
 8976SOL    HW127827   6.923   5.438   5.818
 8976SOL    HW227828   6.995   5.571   5.756
 8977SOL     OW27829   6.398   2.926   6.936
 8977SOL    HW127830   6.423   3.012   6.980
 8977SOL    HW227831   6.313   2.892   6.976
 8978SOL     OW27832   5.548   6.901   3.600
 8978SOL    HW127833   5.499   6.814   3.603
 8978SOL    HW227834   5.540   6.947   3.689
 8979SOL     OW27835   1.098   3.963   4.528
 8979SOL    HW127836   1.081   4.007   4.440
 8979SOL    HW227837   1.197   3.951   4.540
 8980SOL     OW27838   3.776   2.646   5.545
 8980SOL    HW127839   3.754   2.742   5.564
 8980SOL    HW227840   3.797   2.600   5.631
 8981SOL     OW27841   3.865   0.832   6.037
 8981SOL    HW127842   3.916   0.746   6.047
 8981SOL    HW227843   3.767   0.812   6.033
 8982SOL     OW27844   0.634   2.003   1.764
 8982SOL    HW127845   0.664   2.099   1.769
 8982SOL    HW227846   0.708   1.944   1.796
 8983SOL     OW27847   1.016   5.727   6.538
 8983SOL    HW127848   0.972   5.754   6.452
 8983SOL    HW227849   1.049   5.633   6.531
 8984SOL     OW27850   6.453   7.011   3.555
 8984SOL    HW127851   6.368   0.001   3.605
 8984SOL    HW227852   6.434   7.011   3.456
 8985SOL     OW27853   2.649   2.014   0.701
 8985SOL    HW127854   2.735   1.977   0.666
 8985SOL    HW227855   2.649   2.011   0.801
 8986SOL     OW27856   4.429   5.020   1.894
 8986SOL    HW127857   4.470   5.087   1.956
 8986SOL    HW227858   4.502   4.972   1.845
 8987SOL     OW27859   5.380   6.712   0.907
 8987SOL    HW127860   5.392   6.614   0.897
 8987SOL    HW227861   5.440   6.746   0.980
 8988SOL     OW27862   1.105   3.689   6.289
 8988SOL    HW127863   1.086   3.598   6.254
 8988SOL    HW227864   1.200   3.714   6.268
 8989SOL     OW27865   4.940   4.277   1.932
 8989SOL    HW127866   4.971   4.349   1.994
 8989SOL    HW227867   4.885   4.211   1.984
 8990SOL     OW27868   2.062   5.743   2.887
 8990SOL    HW127869   2.110   5.713   2.805
 8990SOL    HW227870   2.057   5.843   2.889
 8991SOL     OW27871   1.807   1.822   6.700
 8991SOL    HW127872   1.750   1.885   6.648
 8991SOL    HW227873   1.770   1.810   6.792
 8992SOL     OW27874   6.426   1.959   0.305
 8992SOL    HW127875   6.422   1.859   0.308
 8992SOL    HW227876   6.426   1.990   0.210
 8993SOL     OW27877   4.392   2.365   2.108
 8993SOL    HW127878   4.317   2.351   2.174
 8993SOL    HW227879   4.479   2.347   2.153
 8994SOL     OW27880   1.375   4.997   4.570
 8994SOL    HW127881   1.321   4.970   4.650
 8994SOL    HW227882   1.465   4.955   4.575
 8995SOL     OW27883   0.801   2.347   6.999
 8995SOL    HW127884   0.843   2.318   0.061
 8995SOL    HW227885   0.712   2.390   7.017
 8996SOL     OW27886   6.536   4.911   1.246
 8996SOL    HW127887   6.591   4.898   1.163
 8996SOL    HW227888   6.511   5.007   1.255
 8997SOL     OW27889   4.514   1.191   6.191
 8997SOL    HW127890   4.590   1.145   6.146
 8997SOL    HW227891   4.429   1.144   6.167
 8998SOL     OW27892   6.838   3.820   5.008
 8998SOL    HW127893   6.793   3.784   5.090
 8998SOL    HW227894   6.843   3.748   4.939
 8999SOL     OW27895   4.864   6.196   7.012
 8999SOL    HW127896   4.931   6.171   6.942
 8999SOL    HW227897   4.861   6.295   7.021
 9000SOL     OW27898   2.327   4.149   0.702
 9000SOL    HW127899   2.258   4.192   0.760
 9000SOL    HW227900   2.369   4.073   0.752
 9001SOL     OW27901   1.208   5.241   2.600
 9001SOL    HW127902   1.157   5.279   2.677
 9001SOL    HW227903   1.305   5.262   2.610
 9002SOL     OW27904   0.304   5.313   5.107
 9002SOL    HW127905   0.346   5.223   5.108
 9002SOL    HW227906   0.326   5.360   5.021
 9003SOL     OW27907   5.233   2.882   1.069
 9003SOL    HW127908   5.134   2.872   1.077
 9003SOL    HW227909   5.275   2.792   1.055
 9004SOL     OW27910   4.282   6.502   1.404
 9004SOL    HW127911   4.335   6.418   1.402
 9004SOL    HW227912   4.333   6.575   1.358
 9005SOL     OW27913   5.207   2.335   4.379
 9005SOL    HW127914   5.218   2.297   4.471
 9005SOL    HW227915   5.198   2.434   4.385
 9006SOL     OW27916   2.871   6.626   0.772
 9006SOL    HW127917   2.815   6.600   0.851
 9006SOL    HW227918   2.946   6.684   0.802
 9007SOL     OW27919   3.775   0.996   4.275
 9007SOL    HW127920   3.855   0.987   4.216
 9007SOL    HW227921   3.703   0.933   4.244
 9008SOL     OW27922   1.078   5.921   3.037
 9008SOL    HW127923   0.979   5.914   3.048
 9008SOL    HW227924   1.123   5.860   3.103
 9009SOL     OW27925   2.965   0.710   0.504
 9009SOL    HW127926   2.963   0.625   0.557
 9009SOL    HW227927   3.058   0.728   0.474
 9010SOL     OW27928   1.571   6.604   3.976
 9010SOL    HW127929   1.514   6.622   3.896
 9010SOL    HW227930   1.567   6.506   3.998
 9011SOL     OW27931   4.671   2.410   1.738
 9011SOL    HW127932   4.698   2.479   1.805
 9011SOL    HW227933   4.634   2.330   1.785
 9012SOL     OW27934   2.927   3.970   1.456
 9012SOL    HW127935   2.925   4.068   1.437
 9012SOL    HW227936   2.834   3.938   1.473
 9013SOL     OW27937   6.871   6.309   5.534
 9013SOL    HW127938   6.875   6.358   5.621
 9013SOL    HW227939   6.780   6.321   5.493
 9014SOL     OW27940   6.864   2.056   0.430
 9014SOL    HW127941   6.801   2.082   0.357
 9014SOL    HW227942   6.829   2.090   0.517
 9015SOL     OW27943   5.273   1.823   1.312
 9015SOL    HW127944   5.313   1.910   1.285
 9015SOL    HW227945   5.323   1.748   1.269
 9016SOL     OW27946   0.573   6.918   6.465
 9016SOL    HW127947   0.597   6.916   6.368
 9016SOL    HW227948   0.656   6.917   6.520
 9017SOL     OW27949   4.338   2.019   2.367
 9017SOL    HW127950   4.417   2.026   2.428
 9017SOL    HW227951   4.294   2.108   2.359
 9018SOL     OW27952   4.031   1.790   6.884
 9018SOL    HW127953   4.097   1.865   6.870
 9018SOL    HW227954   4.065   1.730   6.956
 9019SOL     OW27955   1.135   0.140   2.208
 9019SOL    HW127956   1.146   0.235   2.179
 9019SOL    HW227957   1.039   0.120   2.225
 9020SOL     OW27958   0.872   3.895   1.514
 9020SOL    HW127959   0.902   3.987   1.540
 9020SOL    HW227960   0.943   3.829   1.537
 9021SOL     OW27961   6.638   0.231   4.233
 9021SOL    HW127962   6.596   0.142   4.252
 9021SOL    HW227963   6.579   0.304   4.270
 9022SOL     OW27964   3.062   2.035   0.089
 9022SOL    HW127965   3.075   2.123   0.135
 9022SOL    HW227966   2.973   1.998   0.113
 9023SOL     OW27967   3.010   3.164   2.548
 9023SOL    HW127968   3.028   3.259   2.573
 9023SOL    HW227969   3.061   3.103   2.610
 9024SOL     OW27970   0.448   4.853   4.973
 9024SOL    HW127971   0.536   4.828   5.013
 9024SOL    HW227972   0.448   4.833   4.875
 9025SOL     OW27973   0.596   5.216   7.011
 9025SOL    HW127974   0.658   5.288   0.017
 9025SOL    HW227975   0.588   5.147   0.058
 9026SOL     OW27976   4.528   3.222   1.576
 9026SOL    HW127977   4.619   3.237   1.538
 9026SOL    HW227978   4.496   3.130   1.551
 9027SOL     OW27979   0.899   2.338   4.369
 9027SOL    HW127980   0.895   2.429   4.329
 9027SOL    HW227981   0.993   2.306   4.371
 9028SOL     OW27982   2.642   3.547   5.607
 9028SOL    HW127983   2.607   3.453   5.616
 9028SOL    HW227984   2.661   3.566   5.510
 9029SOL     OW27985   3.345   5.968   4.926
 9029SOL    HW127986   3.287   6.040   4.963
 9029SOL    HW227987   3.288   5.893   4.892
 9030SOL     OW27988   1.892   1.893   3.348
 9030SOL    HW127989   1.973   1.850   3.389
 9030SOL    HW227990   1.919   1.940   3.264
 9031SOL     OW27991   4.261   5.945   4.716
 9031SOL    HW127992   4.270   5.945   4.617
 9031SOL    HW227993   4.329   5.882   4.755
 9032SOL     OW27994   4.323   3.541   0.267
 9032SOL    HW127995   4.243   3.590   0.301
 9032SOL    HW227996   4.402   3.602   0.267
 9033SOL     OW27997   0.837   3.688   3.756
 9033SOL    HW127998   0.758   3.671   3.815
 9033SOL    HW227999   0.912   3.629   3.783
 9034SOL     OW28000   2.925   0.280   5.815
 9034SOL    HW128001   2.940   0.247   5.908
 9034SOL    HW228002   2.827   0.275   5.794
 9035SOL     OW28003   1.421   5.051   5.846
 9035SOL    HW128004   1.463   5.000   5.771
 9035SOL    HW228005   1.333   5.009   5.869
 9036SOL     OW28006   1.888   1.278   5.711
 9036SOL    HW128007   1.800   1.284   5.758
 9036SOL    HW228008   1.917   1.370   5.684
 9037SOL     OW28009   1.554   3.765   5.206
 9037SOL    HW128010   1.600   3.778   5.293
 9037SOL    HW228011   1.524   3.853   5.171
 9038SOL     OW28012   4.260   6.750   5.867
 9038SOL    HW128013   4.208   6.724   5.786
 9038SOL    HW228014   4.315   6.673   5.898
 9039SOL     OW28015   3.025   4.987   4.976
 9039SOL    HW128016   2.984   5.024   5.060
 9039SOL    HW228017   2.972   4.909   4.944
 9040SOL     OW28018   3.290   1.719   2.912
 9040SOL    HW128019   3.217   1.784   2.893
 9040SOL    HW228020   3.251   1.627   2.923
 9041SOL     OW28021   1.262   2.561   1.578
 9041SOL    HW128022   1.178   2.613   1.561
 9041SOL    HW228023   1.238   2.474   1.621
 9042SOL     OW28024   2.789   0.422   4.054
 9042SOL    HW128025   2.709   0.380   4.097
 9042SOL    HW228026   2.872   0.379   4.088
 9043SOL     OW28027   1.197   1.075   0.034
 9043SOL    HW128028   1.113   1.038   0.074
 9043SOL    HW228029   1.267   1.082   0.104
 9044SOL     OW28030   6.206   1.127   0.786
 9044SOL    HW128031   6.112   1.136   0.817
 9044SOL    HW228032   6.239   1.216   0.752
 9045SOL     OW28033   2.249   1.598   2.912
 9045SOL    HW128034   2.268   1.501   2.926
 9045SOL    HW228035   2.273   1.649   2.995
 9046SOL     OW28036   3.616   3.651   3.559
 9046SOL    HW128037   3.632   3.738   3.605
 9046SOL    HW228038   3.610   3.666   3.460
 9047SOL     OW28039   1.132   2.943   5.635
 9047SOL    HW128040   1.203   2.923   5.568
 9047SOL    HW228041   1.089   3.031   5.612
 9048SOL     OW28042   5.551   2.798   6.490
 9048SOL    HW128043   5.461   2.761   6.468
 9048SOL    HW228044   5.563   2.798   6.590
 9049SOL     OW28045   3.668   6.990   6.088
 9049SOL    HW128046   3.655   0.004   6.179
 9049SOL    HW228047   3.751   6.934   6.087
 9050SOL     OW28048   0.215   3.322   0.196
 9050SOL    HW128049   0.251   3.229   0.191
 9050SOL    HW228050   0.127   3.322   0.245
 9051SOL     OW28051   4.377   6.414   0.952
 9051SOL    HW128052   4.388   6.512   0.935
 9051SOL    HW228053   4.462   6.366   0.928
 9052SOL     OW28054   2.169   2.353   3.774
 9052SOL    HW128055   2.181   2.289   3.699
 9052SOL    HW228056   2.232   2.330   3.849
 9053SOL     OW28057   2.084   1.501   3.262
 9053SOL    HW128058   2.038   1.517   3.350
 9053SOL    HW228059   2.113   1.589   3.223
 9054SOL     OW28060   2.433   5.913   2.696
 9054SOL    HW128061   2.420   5.818   2.724
 9054SOL    HW228062   2.382   5.974   2.757
 9055SOL     OW28063   5.706   2.900   4.145
 9055SOL    HW128064   5.662   2.811   4.154
 9055SOL    HW228065   5.760   2.919   4.228
 9056SOL     OW28066   0.342   1.101   2.217
 9056SOL    HW128067   0.312   1.012   2.181
 9056SOL    HW228068   0.263   1.149   2.255
 9057SOL     OW28069   5.697   5.054   5.684
 9057SOL    HW128070   5.742   5.113   5.618
 9057SOL    HW228071   5.749   4.968   5.693
 9058SOL     OW28072   2.805   2.013   2.843
 9058SOL    HW128073   2.751   1.997   2.760
 9058SOL    HW228074   2.810   2.111   2.860
 9059SOL     OW28075   1.344   2.174   4.555
 9059SOL    HW128076   1.292   2.191   4.471
 9059SOL    HW228077   1.323   2.245   4.622
 9060SOL     OW28078   6.240   2.735   3.410
 9060SOL    HW128079   6.265   2.654   3.463
 9060SOL    HW228080   6.209   2.807   3.472
 9061SOL     OW28081   2.638   5.681   2.096
 9061SOL    HW128082   2.557   5.694   2.153
 9061SOL    HW228083   2.611   5.681   1.999
 9062SOL     OW28084   1.724   5.995   1.908
 9062SOL    HW128085   1.728   6.035   1.999
 9062SOL    HW228086   1.811   6.010   1.861
 9063SOL     OW28087   1.769   7.014   3.123
 9063SOL    HW128088   1.717   6.999   3.040
 9063SOL    HW228089   1.864   6.985   3.109
 9064SOL     OW28090   6.620   2.238   5.014
 9064SOL    HW128091   6.588   2.332   5.028
 9064SOL    HW228092   6.547   2.174   5.036
 9065SOL     OW28093   3.179   0.069   5.846
 9065SOL    HW128094   3.270   0.064   5.887
 9065SOL    HW228095   3.178   0.139   5.775
 9066SOL     OW28096   5.036   6.150   0.413
 9066SOL    HW128097   5.117   6.200   0.381
 9066SOL    HW228098   5.021   6.070   0.355
 9067SOL     OW28099   6.521   0.681   4.180
 9067SOL    HW128100   6.465   0.741   4.123
 9067SOL    HW228101   6.587   0.736   4.232
 9068SOL     OW28102   2.351   6.397   4.818
 9068SOL    HW128103   2.380   6.418   4.724
 9068SOL    HW228104   2.288   6.467   4.850
 9069SOL     OW28105   1.935   3.159   1.864
 9069SOL    HW128106   1.861   3.100   1.833
 9069SOL    HW228107   2.004   3.167   1.793
 9070SOL     OW28108   1.484   4.017   5.041
 9070SOL    HW128109   1.579   4.016   5.010
 9070SOL    HW228110   1.426   4.061   4.972
 9071SOL     OW28111   5.262   0.458   1.623
 9071SOL    HW128112   5.304   0.479   1.535
 9071SOL    HW228113   5.328   0.410   1.681
 9072SOL     OW28114   0.476   1.333   2.019
 9072SOL    HW128115   0.398   1.393   2.037
 9072SOL    HW228116   0.486   1.267   2.094
 9073SOL     OW28117   3.151   6.773   2.635
 9073SOL    HW128118   3.097   6.845   2.678
 9073SOL    HW228119   3.090   6.704   2.596
 9074SOL     OW28120   1.963   1.527   1.733
 9074SOL    HW128121   1.883   1.579   1.760
 9074SOL    HW228122   2.006   1.571   1.654
 9075SOL     OW28123   0.861   1.222   2.413
 9075SOL    HW128124   0.875   1.311   2.458
 9075SOL    HW228125   0.785   1.229   2.348
 9076SOL     OW28126   6.159   2.323   5.578
 9076SOL    HW128127   6.185   2.419   5.573
 9076SOL    HW228128   6.144   2.296   5.673
 9077SOL     OW28129   4.843   0.314   0.261
 9077SOL    HW128130   4.927   0.287   0.308
 9077SOL    HW228131   4.866   0.370   0.182
 9078SOL     OW28132   4.442   3.845   6.030
 9078SOL    HW128133   4.483   3.861   5.940
 9078SOL    HW228134   4.414   3.749   6.038
 9079SOL     OW28135   2.869   0.372   4.407
 9079SOL    HW128136   2.830   0.464   4.398
 9079SOL    HW228137   2.946   0.362   4.343
 9080SOL     OW28138   4.676   2.534   6.952
 9080SOL    HW128139   4.633   2.590   7.023
 9080SOL    HW228140   4.617   2.530   6.872
 9081SOL     OW28141   3.593   6.402   2.436
 9081SOL    HW128142   3.497   6.413   2.464
 9081SOL    HW228143   3.601   6.321   2.378
 9082SOL     OW28144   2.079   0.379   5.709
 9082SOL    HW128145   2.045   0.396   5.802
 9082SOL    HW228146   2.060   0.459   5.652
 9083SOL     OW28147   3.013   6.249   6.221
 9083SOL    HW128148   3.000   6.328   6.161
 9083SOL    HW228149   2.923   6.210   6.244
 9084SOL     OW28150   3.158   3.872   4.347
 9084SOL    HW128151   3.185   3.935   4.420
 9084SOL    HW228152   3.238   3.819   4.319
 9085SOL     OW28153   2.704   6.274   1.462
 9085SOL    HW128154   2.685   6.199   1.524
 9085SOL    HW228155   2.620   6.326   1.444
 9086SOL     OW28156   1.122   4.322   0.317
 9086SOL    HW128157   1.067   4.271   0.383
 9086SOL    HW228158   1.196   4.264   0.283
 9087SOL     OW28159   4.471   2.479   1.542
 9087SOL    HW128160   4.407   2.402   1.535
 9087SOL    HW228161   4.530   2.465   1.622
 9088SOL     OW28162   6.837   6.487   1.023
 9088SOL    HW128163   6.830   6.397   0.979
 9088SOL    HW228164   6.746   6.526   1.035
 9089SOL     OW28165   4.932   5.881   5.267
 9089SOL    HW128166   4.936   5.786   5.237
 9089SOL    HW228167   4.843   5.899   5.309
 9090SOL     OW28168   0.034   1.222   4.064
 9090SOL    HW128169   6.978   1.250   4.116
 9090SOL    HW228170   0.013   1.221   3.966
 9091SOL     OW28171   3.118   4.626   6.966
 9091SOL    HW128172   3.199   4.624   0.001
 9091SOL    HW228173   3.037   4.601   7.018
 9092SOL     OW28174   6.846   0.817   0.079
 9092SOL    HW128175   6.917   0.820   0.150
 9092SOL    HW228176   6.785   0.895   0.090
 9093SOL     OW28177   1.091   6.074   5.781
 9093SOL    HW128178   1.171   6.119   5.822
 9093SOL    HW228179   1.007   6.113   5.819
 9094SOL     OW28180   6.805   5.126   3.100
 9094SOL    HW128181   6.896   5.166   3.096
 9094SOL    HW228182   6.742   5.180   3.043
 9095SOL     OW28183   4.980   4.462   5.885
 9095SOL    HW128184   4.997   4.544   5.830
 9095SOL    HW228185   4.999   4.380   5.830
 9096SOL     OW28186   5.945   4.973   2.581
 9096SOL    HW128187   5.976   5.068   2.577
 9096SOL    HW228188   5.954   4.939   2.674
 9097SOL     OW28189   1.361   1.894   0.981
 9097SOL    HW128190   1.356   1.892   0.881
 9097SOL    HW228191   1.424   1.823   1.013
 9098SOL     OW28192   3.302   1.908   4.661
 9098SOL    HW128193   3.268   2.000   4.678
 9098SOL    HW228194   3.226   1.843   4.667
 9099SOL     OW28195   3.256   3.020   5.909
 9099SOL    HW128196   3.282   3.054   5.819
 9099SOL    HW228197   3.311   2.939   5.930
 9100SOL     OW28198   0.259   3.108   3.643
 9100SOL    HW128199   0.307   3.071   3.723
 9100SOL    HW228200   0.324   3.157   3.585
 9101SOL     OW28201   2.600   2.408   2.126
 9101SOL    HW128202   2.570   2.487   2.071
 9101SOL    HW228203   2.692   2.381   2.098
 9102SOL     OW28204   3.242   6.396   1.835
 9102SOL    HW128205   3.320   6.415   1.894
 9102SOL    HW228206   3.233   6.469   1.767
 9103SOL     OW28207   6.039   2.999   6.624
 9103SOL    HW128208   6.133   2.963   6.624
 9103SOL    HW228209   6.008   3.010   6.529
 9104SOL     OW28210   0.353   5.850   2.050
 9104SOL    HW128211   0.448   5.881   2.052
 9104SOL    HW228212   0.328   5.826   1.957
 9105SOL     OW28213   0.348   1.352   6.202
 9105SOL    HW128214   0.373   1.402   6.119
 9105SOL    HW228215   0.389   1.261   6.200
 9106SOL     OW28216   5.905   4.070   1.406
 9106SOL    HW128217   5.987   4.012   1.401
 9106SOL    HW228218   5.931   4.165   1.388
 9107SOL     OW28219   2.825   0.324   6.765
 9107SOL    HW128220   2.778   0.378   6.696
 9107SOL    HW228221   2.761   0.259   6.806
 9108SOL     OW28222   5.253   4.681   5.079
 9108SOL    HW128223   5.320   4.735   5.129
 9108SOL    HW228224   5.245   4.590   5.121
 9109SOL     OW28225   6.620   3.570   3.148
 9109SOL    HW128226   6.616   3.473   3.126
 9109SOL    HW228227   6.715   3.599   3.155
 9110SOL     OW28228   2.095   4.738   4.306
 9110SOL    HW128229   2.067   4.691   4.389
 9110SOL    HW228230   2.084   4.837   4.319
 9111SOL     OW28231   5.115   2.680   0.395
 9111SOL    HW128232   5.176   2.601   0.390
 9111SOL    HW228233   5.077   2.687   0.487
 9112SOL     OW28234   1.742   5.925   2.806
 9112SOL    HW128235   1.840   5.939   2.791
 9112SOL    HW228236   1.699   5.899   2.720
 9113SOL     OW28237   5.046   2.573   2.533
 9113SOL    HW128238   5.074   2.661   2.495
 9113SOL    HW228239   4.993   2.588   2.617
 9114SOL     OW28240   0.129   5.679   3.448
 9114SOL    HW128241   0.189   5.607   3.415
 9114SOL    HW228242   0.039   5.641   3.469
 9115SOL     OW28243   6.434   5.633   4.996
 9115SOL    HW128244   6.419   5.559   4.931
 9115SOL    HW228245   6.347   5.662   5.035
 9116SOL     OW28246   0.463   0.126   2.902
 9116SOL    HW128247   0.445   0.181   2.983
 9116SOL    HW228248   0.506   0.039   2.929
 9117SOL     OW28249   3.389   2.768   5.927
 9117SOL    HW128250   3.333   2.693   5.890
 9117SOL    HW228251   3.458   2.793   5.860
 9118SOL     OW28252   6.740   3.839   6.883
 9118SOL    HW128253   6.731   3.938   6.870
 9118SOL    HW228254   6.659   3.804   6.931
 9119SOL     OW28255   3.530   0.960   2.149
 9119SOL    HW128256   3.458   1.016   2.191
 9119SOL    HW228257   3.588   0.921   2.220
 9120SOL     OW28258   6.987   2.043   5.832
 9120SOL    HW128259   0.018   1.968   5.796
 9120SOL    HW228260   6.940   2.013   5.915
 9121SOL     OW28261   3.399   6.350   4.977
 9121SOL    HW128262   3.320   6.308   5.021
 9121SOL    HW228263   3.460   6.279   4.942
 9122SOL     OW28264   2.353   4.318   1.955
 9122SOL    HW128265   2.288   4.277   1.890
 9122SOL    HW228266   2.417   4.377   1.906
 9123SOL     OW28267   1.783   0.736   4.535
 9123SOL    HW128268   1.704   0.677   4.518
 9123SOL    HW228269   1.803   0.788   4.452
 9124SOL     OW28270   3.874   5.372   0.202
 9124SOL    HW128271   3.801   5.375   0.271
 9124SOL    HW228272   3.956   5.330   0.243
 9125SOL     OW28273   4.254   4.776   0.904
 9125SOL    HW128274   4.321   4.838   0.863
 9125SOL    HW228275   4.244   4.797   1.001
 9126SOL     OW28276   5.721   4.110   1.626
 9126SOL    HW128277   5.763   4.063   1.548
 9126SOL    HW228278   5.637   4.063   1.652
 9127SOL     OW28279   6.492   1.699   6.132
 9127SOL    HW128280   6.492   1.599   6.133
 9127SOL    HW228281   6.402   1.733   6.159
 9128SOL     OW28282   6.285   2.473   5.206
 9128SOL    HW128283   6.226   2.400   5.171
 9128SOL    HW228284   6.238   2.522   5.279
 9129SOL     OW28285   6.684   2.155   0.208
 9129SOL    HW128286   6.594   2.117   0.185
 9129SOL    HW228287   6.699   2.239   0.156
 9130SOL     OW28288   1.606   4.368   6.509
 9130SOL    HW128289   1.693   4.347   6.554
 9130SOL    HW228290   1.624   4.427   6.429
 9131SOL     OW28291   5.489   3.212   6.197
 9131SOL    HW128292   5.494   3.233   6.295
 9131SOL    HW228293   5.563   3.149   6.172
 9132SOL     OW28294   1.060   5.233   4.313
 9132SOL    HW128295   0.987   5.213   4.379
 9132SOL    HW228296   1.022   5.282   4.235
 9133SOL     OW28297   3.652   6.988   1.141
 9133SOL    HW128298   3.615   6.901   1.110
 9133SOL    HW228299   3.751   6.989   1.128
 9134SOL     OW28300   3.758   5.533   0.998
 9134SOL    HW128301   3.723   5.456   1.052
 9134SOL    HW228302   3.855   5.518   0.979
 9135SOL     OW28303   0.550   0.337   1.737
 9135SOL    HW128304   0.457   0.372   1.733
 9135SOL    HW228305   0.593   0.346   1.647
 9136SOL     OW28306   4.768   6.352   5.980
 9136SOL    HW128307   4.757   6.341   5.881
 9136SOL    HW228308   4.680   6.337   6.025
 9137SOL     OW28309   3.931   0.113   6.915
 9137SOL    HW128310   4.027   0.130   6.938
 9137SOL    HW228311   3.907   0.165   6.833
 9138SOL     OW28312   0.658   4.422   6.574
 9138SOL    HW128313   0.708   4.394   6.492
 9138SOL    HW228314   0.643   4.521   6.572
 9139SOL     OW28315   1.346   1.384   2.458
 9139SOL    HW128316   1.347   1.285   2.469
 9139SOL    HW228317   1.252   1.416   2.448
 9140SOL     OW28318   0.966   4.042   1.875
 9140SOL    HW128319   1.025   4.035   1.956
 9140SOL    HW228320   0.871   4.026   1.902
 9141SOL     OW28321   6.140   6.463   1.341
 9141SOL    HW128322   6.064   6.526   1.325
 9141SOL    HW228323   6.111   6.370   1.317
 9142SOL     OW28324   0.752   4.013   1.124
 9142SOL    HW128325   0.660   4.034   1.155
 9142SOL    HW228326   0.765   3.914   1.119
 9143SOL     OW28327   6.838   3.506   0.727
 9143SOL    HW128328   6.855   3.574   0.656
 9143SOL    HW228329   6.778   3.544   0.797
 9144SOL     OW28330   3.333   5.239   4.967
 9144SOL    HW128331   3.364   5.145   4.955
 9144SOL    HW228332   3.241   5.249   4.930
 9145SOL     OW28333   0.464   6.239   6.410
 9145SOL    HW128334   0.365   6.239   6.399
 9145SOL    HW228335   0.488   6.200   6.499
 9146SOL     OW28336   5.164   3.516   2.785
 9146SOL    HW128337   5.138   3.432   2.832
 9146SOL    HW228338   5.171   3.590   2.851
 9147SOL     OW28339   6.877   0.857   5.488
 9147SOL    HW128340   6.864   0.908   5.573
 9147SOL    HW228341   6.907   0.919   5.416
 9148SOL     OW28342   5.402   6.635   2.398
 9148SOL    HW128343   5.390   6.651   2.496
 9148SOL    HW228344   5.362   6.547   2.374
 9149SOL     OW28345   5.524   3.663   1.951
 9149SOL    HW128346   5.429   3.674   1.980
 9149SOL    HW228347   5.576   3.618   2.024
 9150SOL     OW28348   3.509   4.345   0.351
 9150SOL    HW128349   3.423   4.384   0.319
 9150SOL    HW228350   3.528   4.261   0.299
 9151SOL     OW28351   2.429   4.393   3.675
 9151SOL    HW128352   2.382   4.305   3.687
 9151SOL    HW228353   2.438   4.413   3.577
 9152SOL     OW28354   1.996   3.799   4.624
 9152SOL    HW128355   1.956   3.860   4.556
 9152SOL    HW228356   2.022   3.713   4.581
 9153SOL     OW28357   0.055   2.834   6.820
 9153SOL    HW128358   0.021   2.870   6.734
 9153SOL    HW228359   0.105   2.905   6.869
 9154SOL     OW28360   4.615   4.362   4.354
 9154SOL    HW128361   4.533   4.393   4.305
 9154SOL    HW228362   4.602   4.375   4.452
 9155SOL     OW28363   2.443   5.018   2.491
 9155SOL    HW128364   2.434   5.109   2.531
 9155SOL    HW228365   2.538   4.988   2.498
 9156SOL     OW28366   6.812   1.821   1.535
 9156SOL    HW128367   6.829   1.803   1.632
 9156SOL    HW228368   6.716   1.845   1.522
 9157SOL     OW28369   3.297   4.135   6.735
 9157SOL    HW128370   3.257   4.078   6.806
 9157SOL    HW228371   3.285   4.091   6.646
 9158SOL     OW28372   6.761   3.554   3.883
 9158SOL    HW128373   6.792   3.642   3.919
 9158SOL    HW228374   6.814   3.481   3.925
 9159SOL     OW28375   2.157   0.358   3.917
 9159SOL    HW128376   2.198   0.392   3.833
 9159SOL    HW228377   2.115   0.269   3.901
 9160SOL     OW28378   0.245   6.311   6.109
 9160SOL    HW128379   0.183   6.384   6.081
 9160SOL    HW228380   0.193   6.235   6.149
 9161SOL     OW28381   6.220   4.813   3.211
 9161SOL    HW128382   6.213   4.714   3.229
 9161SOL    HW228383   6.314   4.837   3.190
 9162SOL     OW28384   3.573   0.086   2.940
 9162SOL    HW128385   3.474   0.096   2.948
 9162SOL    HW228386   3.615   0.104   3.029
 9163SOL     OW28387   6.800   3.307   2.846
 9163SOL    HW128388   6.750   3.384   2.806
 9163SOL    HW228389   6.740   3.227   2.849
 9164SOL     OW28390   1.807   0.606   6.586
 9164SOL    HW128391   1.717   0.640   6.615
 9164SOL    HW228392   1.795   0.522   6.534
 9165SOL     OW28393   4.583   1.734   6.148
 9165SOL    HW128394   4.557   1.697   6.237
 9165SOL    HW228395   4.502   1.766   6.099
 9166SOL     OW28396   4.746   5.533   1.226
 9166SOL    HW128397   4.754   5.630   1.201
 9166SOL    HW228398   4.698   5.525   1.314
 9167SOL     OW28399   1.535   2.299   6.285
 9167SOL    HW128400   1.523   2.378   6.346
 9167SOL    HW228401   1.616   2.248   6.313
 9168SOL     OW28402   6.944   6.352   6.591
 9168SOL    HW128403   6.855   6.308   6.579
 9168SOL    HW228404   7.003   6.294   6.647
 9169SOL     OW28405   6.595   6.416   6.310
 9169SOL    HW128406   6.675   6.418   6.249
 9169SOL    HW228407   6.530   6.348   6.278
 9170SOL     OW28408   2.033   0.375   6.389
 9170SOL    HW128409   1.990   0.327   6.313
 9170SOL    HW228410   2.035   0.315   6.469
 9171SOL     OW28411   3.202   5.543   0.556
 9171SOL    HW128412   3.190   5.480   0.632
 9171SOL    HW228413   3.113   5.579   0.528
 9172SOL     OW28414   4.233   1.790   4.305
 9172SOL    HW128415   4.265   1.744   4.389
 9172SOL    HW228416   4.287   1.872   4.289
 9173SOL     OW28417   5.715   3.126   4.548
 9173SOL    HW128418   5.695   3.031   4.525
 9173SOL    HW228419   5.801   3.131   4.599
 9174SOL     OW28420   0.752   5.730   0.044
 9174SOL    HW128421   0.851   5.745   0.037
 9174SOL    HW228422   0.718   5.696   6.980
 9175SOL     OW28423   1.468   0.099   0.068
 9175SOL    HW128424   1.557   0.084   0.112
 9175SOL    HW228425   1.480   0.097   6.993
 9176SOL     OW28426   2.470   0.110   1.725
 9176SOL    HW128427   2.556   0.083   1.683
 9176SOL    HW228428   2.488   0.170   1.804
 9177SOL     OW28429   1.358   2.689   3.735
 9177SOL    HW128430   1.407   2.747   3.800
 9177SOL    HW228431   1.376   2.593   3.755
 9178SOL     OW28432   1.991   5.721   6.113
 9178SOL    HW128433   2.035   5.646   6.065
 9178SOL    HW228434   2.058   5.769   6.169
 9179SOL     OW28435   1.716   5.962   4.888
 9179SOL    HW128436   1.725   5.992   4.983
 9179SOL    HW228437   1.684   5.868   4.885
 9180SOL     OW28438   6.327   2.429   3.450
 9180SOL    HW128439   6.232   2.414   3.478
 9180SOL    HW228440   6.365   2.343   3.416
 9181SOL     OW28441   4.797   2.837   3.983
 9181SOL    HW128442   4.770   2.852   4.078
 9181SOL    HW228443   4.840   2.747   3.974
 9182SOL     OW28444   3.048   0.232   3.620
 9182SOL    HW128445   3.062   0.306   3.686
 9182SOL    HW228446   3.135   0.204   3.581
 9183SOL     OW28447   4.948   4.386   6.641
 9183SOL    HW128448   5.046   4.376   6.660
 9183SOL    HW228449   4.924   4.329   6.563
 9184SOL     OW28450   3.615   1.727   0.638
 9184SOL    HW128451   3.680   1.653   0.624
 9184SOL    HW228452   3.641   1.806   0.582
 9185SOL     OW28453   6.881   6.645   5.348
 9185SOL    HW128454   6.808   6.698   5.392
 9185SOL    HW228455   6.843   6.596   5.269
 9186SOL     OW28456   4.881   0.853   5.386
 9186SOL    HW128457   4.981   0.857   5.393
 9186SOL    HW228458   4.854   0.857   5.290
 9187SOL     OW28459   4.638   1.987   6.749
 9187SOL    HW128460   4.655   1.932   6.830
 9187SOL    HW228461   4.650   1.931   6.667
 9188SOL     OW28462   1.421   0.448   2.027
 9188SOL    HW128463   1.388   0.409   1.942
 9188SOL    HW228464   1.344   0.463   2.089
 9189SOL     OW28465   2.652   0.062   3.517
 9189SOL    HW128466   2.715   7.009   3.522
 9189SOL    HW228467   2.697   0.144   3.552
 9190SOL     OW28468   6.856   3.333   5.531
 9190SOL    HW128469   6.878   3.244   5.570
 9190SOL    HW228470   6.812   3.390   5.601
 9191SOL     OW28471   5.403   0.120   6.072
 9191SOL    HW128472   5.390   0.196   6.136
 9191SOL    HW228473   5.319   0.066   6.068
 9192SOL     OW28474   6.424   3.207   5.865
 9192SOL    HW128475   6.369   3.290   5.857
 9192SOL    HW228476   6.491   3.204   5.791
 9193SOL     OW28477   3.559   3.678   3.888
 9193SOL    HW128478   3.620   3.746   3.847
 9193SOL    HW228479   3.468   3.688   3.849
 9194SOL     OW28480   3.855   6.141   2.168
 9194SOL    HW128481   3.879   6.235   2.143
 9194SOL    HW228482   3.847   6.086   2.085
 9195SOL     OW28483   1.823   2.750   3.774
 9195SOL    HW128484   1.764   2.676   3.743
 9195SOL    HW228485   1.917   2.719   3.778
 9196SOL     OW28486   5.453   0.266   3.647
 9196SOL    HW128487   5.537   0.224   3.613
 9196SOL    HW228488   5.477   0.348   3.699
 9197SOL     OW28489   3.748   5.194   0.030
 9197SOL    HW128490   3.678   5.149   0.085
 9197SOL    HW228491   3.801   5.256   0.088
 9198SOL     OW28492   5.634   4.684   6.347
 9198SOL    HW128493   5.717   4.736   6.363
 9198SOL    HW228494   5.586   4.721   6.268
 9199SOL     OW28495   0.261   2.648   6.050
 9199SOL    HW128496   0.242   2.677   5.956
 9199SOL    HW228497   0.318   2.716   6.095
 9200SOL     OW28498   1.875   6.041   6.784
 9200SOL    HW128499   1.858   6.069   6.879
 9200SOL    HW228500   1.831   6.105   6.722
 9201SOL     OW28501   0.218   3.690   0.726
 9201SOL    HW128502   0.177   3.626   0.660
 9201SOL    HW228503   0.294   3.737   0.683
 9202SOL     OW28504   1.631   5.985   3.912
 9202SOL    HW128505   1.709   5.926   3.933
 9202SOL    HW228506   1.547   5.930   3.914
 9203SOL     OW28507   5.196   2.362   6.560
 9203SOL    HW128508   5.285   2.322   6.580
 9203SOL    HW228509   5.171   2.426   6.633
 9204SOL     OW28510   5.100   3.652   3.615
 9204SOL    HW128511   5.197   3.630   3.619
 9204SOL    HW228512   5.066   3.637   3.522
 9205SOL     OW28513   5.027   4.200   2.606
 9205SOL    HW128514   5.107   4.185   2.548
 9205SOL    HW228515   5.047   4.170   2.699
 9206SOL     OW28516   3.054   0.378   4.184
 9206SOL    HW128517   3.132   0.434   4.212
 9206SOL    HW228518   3.086   0.302   4.128
 9207SOL     OW28519   3.525   5.923   6.025
 9207SOL    HW128520   3.604   5.946   6.082
 9207SOL    HW228521   3.506   5.999   5.963
 9208SOL     OW28522   5.957   4.578   2.294
 9208SOL    HW128523   6.053   4.601   2.277
 9208SOL    HW228524   5.951   4.501   2.357
 9209SOL     OW28525   4.117   0.214   2.266
 9209SOL    HW128526   4.044   0.279   2.289
 9209SOL    HW228527   4.158   0.239   2.178
 9210SOL     OW28528   0.751   0.937   1.337
 9210SOL    HW128529   0.771   0.849   1.295
 9210SOL    HW228530   0.653   0.955   1.331
 9211SOL     OW28531   5.267   3.061   6.144
 9211SOL    HW128532   5.346   3.109   6.183
 9211SOL    HW228533   5.222   3.120   6.077
 9212SOL     OW28534   5.029   3.819   5.237
 9212SOL    HW128535   4.991   3.824   5.145
 9212SOL    HW228536   5.115   3.768   5.236
 9213SOL     OW28537   5.308   5.733   4.255
 9213SOL    HW128538   5.401   5.721   4.221
 9213SOL    HW228539   5.295   5.678   4.337
 9214SOL     OW28540   0.133   2.699   5.370
 9214SOL    HW128541   0.049   2.693   5.316
 9214SOL    HW228542   0.120   2.652   5.458
 9215SOL     OW28543   0.972   4.875   2.799
 9215SOL    HW128544   0.874   4.884   2.778
 9215SOL    HW228545   1.026   4.914   2.724
 9216SOL     OW28546   2.802   6.859   4.690
 9216SOL    HW128547   2.785   6.956   4.673
 9216SOL    HW228548   2.791   6.808   4.605
 9217SOL     OW28549   5.532   1.807   6.982
 9217SOL    HW128550   5.495   1.831   6.892
 9217SOL    HW228551   5.530   1.888   0.016
 9218SOL     OW28552   3.931   1.321   6.946
 9218SOL    HW128553   3.975   1.257   7.010
 9218SOL    HW228554   3.985   1.325   6.862
 9219SOL     OW28555   4.358   3.621   5.739
 9219SOL    HW128556   4.327   3.609   5.833
 9219SOL    HW228557   4.458   3.620   5.737
 9220SOL     OW28558   1.995   5.992   2.709
 9220SOL    HW128559   2.044   5.919   2.662
 9220SOL    HW228560   2.049   6.076   2.705
 9221SOL     OW28561   2.576   7.015   5.013
 9221SOL    HW128562   2.639   0.069   5.021
 9221SOL    HW228563   2.629   6.930   5.012
 9222SOL     OW28564   2.537   4.635   5.005
 9222SOL    HW128565   2.631   4.620   5.034
 9222SOL    HW228566   2.531   4.632   4.905
 9223SOL     OW28567   0.874   2.628   3.977
 9223SOL    HW128568   0.852   2.678   3.893
 9223SOL    HW228569   0.888   2.532   3.956
 9224SOL     OW28570   1.547   3.471   3.407
 9224SOL    HW128571   1.454   3.460   3.370
 9224SOL    HW228572   1.562   3.405   3.480
 9225SOL     OW28573   3.949   5.887   6.001
 9225SOL    HW128574   3.874   5.912   6.062
 9225SOL    HW228575   4.034   5.927   6.035
 9226SOL     OW28576   0.724   0.609   1.241
 9226SOL    HW128577   0.800   0.657   1.284
 9226SOL    HW228578   0.651   0.596   1.309
 9227SOL     OW28579   1.680   6.350   1.232
 9227SOL    HW128580   1.630   6.266   1.252
 9227SOL    HW228581   1.635   6.428   1.276
 9228SOL     OW28582   1.956   2.101   6.982
 9228SOL    HW128583   2.056   2.099   6.982
 9228SOL    HW228584   1.924   2.128   0.048
 9229SOL     OW28585   0.324   5.086   6.002
 9229SOL    HW128586   0.239   5.109   5.954
 9229SOL    HW228587   0.402   5.120   5.951
 9230SOL     OW28588   4.888   3.251   2.807
 9230SOL    HW128589   4.859   3.335   2.760
 9230SOL    HW228590   4.907   3.180   2.739
 9231SOL     OW28591   0.471   4.228   5.137
 9231SOL    HW128592   0.510   4.198   5.050
 9231SOL    HW228593   0.376   4.199   5.143
 9232SOL     OW28594   2.709   5.805   0.931
 9232SOL    HW128595   2.663   5.892   0.947
 9232SOL    HW228596   2.764   5.781   1.010
 9233SOL     OW28597   0.517   6.996   0.623
 9233SOL    HW128598   0.431   0.007   0.661
 9233SOL    HW228599   0.498   6.948   0.537
 9234SOL     OW28600   1.549   5.818   0.826
 9234SOL    HW128601   1.617   5.753   0.793
 9234SOL    HW228602   1.532   5.887   0.756
 9235SOL     OW28603   2.283   2.650   2.869
 9235SOL    HW128604   2.289   2.710   2.949
 9235SOL    HW228605   2.190   2.616   2.860
 9236SOL     OW28606   2.646   3.728   6.237
 9236SOL    HW128607   2.591   3.735   6.153
 9236SOL    HW228608   2.717   3.659   6.224
 9237SOL     OW28609   0.850   5.517   2.730
 9237SOL    HW128610   0.902   5.602   2.736
 9237SOL    HW228611   0.767   5.526   2.785
 9238SOL     OW28612   2.681   2.495   5.970
 9238SOL    HW128613   2.756   2.552   5.937
 9238SOL    HW228614   2.594   2.536   5.942
 9239SOL     OW28615   6.788   4.418   6.848
 9239SOL    HW128616   6.783   4.493   6.783
 9239SOL    HW228617   6.729   4.343   6.817
 9240SOL     OW28618   4.817   2.598   1.920
 9240SOL    HW128619   4.831   2.690   1.884
 9240SOL    HW228620   4.759   2.603   2.001
 9241SOL     OW28621   0.654   5.890   1.024
 9241SOL    HW128622   0.705   5.812   1.061
 9241SOL    HW228623   0.691   5.914   0.934
 9242SOL     OW28624   2.228   3.248   1.761
 9242SOL    HW128625   2.209   3.278   1.667
 9242SOL    HW228626   2.290   3.313   1.805
 9243SOL     OW28627   0.390   0.703   1.884
 9243SOL    HW128628   0.393   0.606   1.863
 9243SOL    HW228629   0.481   0.743   1.871
 9244SOL     OW28630   2.703   6.434   6.391
 9244SOL    HW128631   2.668   6.403   6.303
 9244SOL    HW228632   2.773   6.504   6.377
 9245SOL     OW28633   0.631   4.103   3.682
 9245SOL    HW128634   0.646   4.201   3.693
 9245SOL    HW228635   0.548   4.088   3.628
 9246SOL     OW28636   5.564   0.733   3.605
 9246SOL    HW128637   5.538   0.792   3.681
 9246SOL    HW228638   5.591   0.790   3.527
 9247SOL     OW28639   3.612   5.166   2.528
 9247SOL    HW128640   3.587   5.189   2.434
 9247SOL    HW228641   3.588   5.070   2.547
 9248SOL     OW28642   2.953   2.201   4.851
 9248SOL    HW128643   2.888   2.227   4.922
 9248SOL    HW228644   3.044   2.189   4.891
 9249SOL     OW28645   4.882   5.635   1.619
 9249SOL    HW128646   4.929   5.674   1.539
 9249SOL    HW228647   4.830   5.707   1.665
 9250SOL     OW28648   0.037   2.984   4.003
 9250SOL    HW128649   0.116   3.003   4.060
 9250SOL    HW228650   6.981   3.032   4.040
 9251SOL     OW28651   4.199   1.728   2.088
 9251SOL    HW128652   4.166   1.710   1.996
 9251SOL    HW228653   4.215   1.826   2.100
 9252SOL     OW28654   5.815   0.685   4.684
 9252SOL    HW128655   5.846   0.680   4.589
 9252SOL    HW228656   5.781   0.778   4.703
 9253SOL     OW28657   5.145   5.500   5.419
 9253SOL    HW128658   5.114   5.443   5.343
 9253SOL    HW228659   5.230   5.462   5.455
 9254SOL     OW28660   4.725   4.932   2.273
 9254SOL    HW128661   4.643   4.895   2.229
 9254SOL    HW228662   4.703   4.959   2.367
 9255SOL     OW28663   5.436   3.326   6.859
 9255SOL    HW128664   5.531   3.347   6.880
 9255SOL    HW228665   5.382   3.411   6.860
 9256SOL     OW28666   2.199   0.087   1.858
 9256SOL    HW128667   2.282   0.123   1.815
 9256SOL    HW228668   2.119   0.133   1.820
 9257SOL     OW28669   6.294   5.447   3.559
 9257SOL    HW128670   6.343   5.532   3.542
 9257SOL    HW228671   6.212   5.466   3.613
 9258SOL     OW28672   4.147   3.383   1.601
 9258SOL    HW128673   4.113   3.449   1.668
 9258SOL    HW228674   4.235   3.414   1.565
 9259SOL     OW28675   2.203   1.146   0.582
 9259SOL    HW128676   2.253   1.085   0.520
 9259SOL    HW228677   2.215   1.241   0.553
 9260SOL     OW28678   6.543   2.701   5.865
 9260SOL    HW128679   6.490   2.785   5.874
 9260SOL    HW228680   6.551   2.657   5.955
 9261SOL     OW28681   4.439   1.179   6.667
 9261SOL    HW128682   4.456   1.254   6.731
 9261SOL    HW228683   4.410   1.097   6.718
 9262SOL     OW28684   0.837   5.859   4.650
 9262SOL    HW128685   0.776   5.781   4.662
 9262SOL    HW228686   0.798   5.922   4.583
 9263SOL     OW28687   3.288   5.206   2.211
 9263SOL    HW128688   3.246   5.296   2.222
 9263SOL    HW228689   3.384   5.210   2.235
 9264SOL     OW28690   5.094   3.506   0.035
 9264SOL    HW128691   5.130   3.413   0.019
 9264SOL    HW228692   5.169   3.566   0.062
 9265SOL     OW28693   4.328   2.468   0.176
 9265SOL    HW128694   4.242   2.509   0.147
 9265SOL    HW228695   4.379   2.437   0.095
 9266SOL     OW28696   0.332   6.227   1.297
 9266SOL    HW128697   0.301   6.321   1.286
 9266SOL    HW228698   0.432   6.224   1.298
 9267SOL     OW28699   0.959   1.956   4.596
 9267SOL    HW128700   0.966   1.926   4.500
 9267SOL    HW228701   1.038   1.921   4.646
 9268SOL     OW28702   1.243   6.863   2.697
 9268SOL    HW128703   1.159   6.869   2.642
 9268SOL    HW228704   1.224   6.897   2.790
 9269SOL     OW28705   4.305   6.825   6.308
 9269SOL    HW128706   4.211   6.795   6.290
 9269SOL    HW228707   4.363   6.745   6.324
 9270SOL     OW28708   4.019   0.014   5.725
 9270SOL    HW128709   4.047   0.050   5.636
 9270SOL    HW228710   3.920   0.013   5.731
 9271SOL     OW28711   5.934   0.450   0.326
 9271SOL    HW128712   5.976   0.384   0.264
 9271SOL    HW228713   5.837   0.429   0.338
 9272SOL     OW28714   0.935   6.564   6.589
 9272SOL    HW128715   0.915   6.649   6.637
 9272SOL    HW228716   1.030   6.566   6.557
 9273SOL     OW28717   6.388   6.054   3.457
 9273SOL    HW128718   6.325   6.018   3.526
 9273SOL    HW228719   6.478   6.011   3.468
 9274SOL     OW28720   6.761   2.444   0.066
 9274SOL    HW128721   6.785   2.382   7.016
 9274SOL    HW228722   6.710   2.522   0.029
 9275SOL     OW28723   6.709   0.347   0.514
 9275SOL    HW128724   6.645   0.278   0.483
 9275SOL    HW228725   6.802   0.311   0.511
 9276SOL     OW28726   1.847   4.633   0.094
 9276SOL    HW128727   1.808   4.580   0.018
 9276SOL    HW228728   1.938   4.597   0.116
 9277SOL     OW28729   4.209   5.012   2.335
 9277SOL    HW128730   4.164   4.922   2.331
 9277SOL    HW228731   4.303   5.001   2.368
 9278SOL     OW28732   1.884   0.669   5.784
 9278SOL    HW128733   1.921   0.661   5.691
 9278SOL    HW228734   1.952   0.713   5.843
 9279SOL     OW28735   3.823   6.798   1.860
 9279SOL    HW128736   3.738   6.786   1.913
 9279SOL    HW228737   3.901   6.799   1.922
 9280SOL     OW28738   2.486   1.440   2.636
 9280SOL    HW128739   2.478   1.469   2.732
 9280SOL    HW228740   2.395   1.437   2.595
 9281SOL     OW28741   3.300   4.705   6.715
 9281SOL    HW128742   3.319   4.610   6.690
 9281SOL    HW228743   3.202   4.718   6.725
 9282SOL     OW28744   4.670   0.774   3.951
 9282SOL    HW128745   4.606   0.698   3.939
 9282SOL    HW228746   4.624   0.860   3.933
 9283SOL     OW28747   5.263   0.301   5.210
 9283SOL    HW128748   5.303   0.331   5.124
 9283SOL    HW228749   5.300   0.357   5.285
 9284SOL     OW28750   2.698   3.562   5.290
 9284SOL    HW128751   2.725   3.567   5.194
 9284SOL    HW228752   2.737   3.480   5.332
 9285SOL     OW28753   5.115   3.558   1.168
 9285SOL    HW128754   5.119   3.625   1.093
 9285SOL    HW228755   5.105   3.466   1.130
 9286SOL     OW28756   5.407   5.031   0.528
 9286SOL    HW128757   5.364   5.099   0.588
 9286SOL    HW228758   5.339   4.962   0.502
 9287SOL     OW28759   3.612   4.793   6.166
 9287SOL    HW128760   3.620   4.885   6.126
 9287SOL    HW228761   3.667   4.729   6.113
 9288SOL     OW28762   4.433   1.677   2.466
 9288SOL    HW128763   4.338   1.701   2.487
 9288SOL    HW228764   4.472   1.627   2.543
 9289SOL     OW28765   4.781   0.597   0.862
 9289SOL    HW128766   4.856   0.603   0.796
 9289SOL    HW228767   4.698   0.564   0.816
 9290SOL     OW28768   5.888   1.145   3.894
 9290SOL    HW128769   5.848   1.191   3.814
 9290SOL    HW228770   5.973   1.101   3.867
 9291SOL     OW28771   1.328   5.819   5.969
 9291SOL    HW128772   1.361   5.875   5.893
 9291SOL    HW228773   1.253   5.867   6.015
 9292SOL     OW28774   1.994   1.591   6.687
 9292SOL    HW128775   2.039   1.600   6.775
 9292SOL    HW228776   1.926   1.664   6.677
 9293SOL     OW28777   5.842   3.846   6.575
 9293SOL    HW128778   5.803   3.758   6.548
 9293SOL    HW228779   5.768   3.914   6.581
 9294SOL     OW28780   5.100   1.217   6.619
 9294SOL    HW128781   5.067   1.185   6.530
 9294SOL    HW228782   5.042   1.182   6.691
 9295SOL     OW28783   6.053   0.406   5.051
 9295SOL    HW128784   5.965   0.363   5.071
 9295SOL    HW228785   6.041   0.480   4.986
 9296SOL     OW28786   2.037   4.840   0.395
 9296SOL    HW128787   2.035   4.940   0.393
 9296SOL    HW228788   2.119   4.807   0.347
 9297SOL     OW28789   0.555   6.936   3.529
 9297SOL    HW128790   0.486   7.008   3.522
 9297SOL    HW228791   0.581   6.924   3.625
 9298SOL     OW28792   1.457   6.386   6.278
 9298SOL    HW128793   1.364   6.382   6.315
 9298SOL    HW228794   1.462   6.460   6.210
 9299SOL     OW28795   0.964   1.602   4.386
 9299SOL    HW128796   1.051   1.618   4.433
 9299SOL    HW228797   0.953   1.670   4.313
 9300SOL     OW28798   6.720   5.350   5.188
 9300SOL    HW128799   6.733   5.430   5.130
 9300SOL    HW228800   6.773   5.361   5.272
 9301SOL     OW28801   6.497   4.740   4.893
 9301SOL    HW128802   6.527   4.831   4.920
 9301SOL    HW228803   6.508   4.677   4.970
 9302SOL     OW28804   1.903   3.393   4.849
 9302SOL    HW128805   1.898   3.468   4.783
 9302SOL    HW228806   1.987   3.400   4.902
 9303SOL     OW28807   3.000   3.843   0.710
 9303SOL    HW128808   2.972   3.848   0.613
 9303SOL    HW228809   3.071   3.910   0.728
 9304SOL     OW28810   4.218   5.137   0.576
 9304SOL    HW128811   4.164   5.065   0.621
 9304SOL    HW228812   4.251   5.103   0.488
 9305SOL     OW28813   3.866   0.810   0.457
 9305SOL    HW128814   3.934   0.743   0.428
 9305SOL    HW228815   3.774   0.771   0.447
 9306SOL     OW28816   1.215   4.472   5.398
 9306SOL    HW128817   1.244   4.426   5.481
 9306SOL    HW228818   1.295   4.493   5.342
 9307SOL     OW28819   1.324   3.727   0.304
 9307SOL    HW128820   1.319   3.820   0.342
 9307SOL    HW228821   1.418   3.694   0.310
 9308SOL     OW28822   1.246   3.926   2.076
 9308SOL    HW128823   1.216   3.850   2.018
 9308SOL    HW228824   1.166   3.967   2.119
 9309SOL     OW28825   3.705   6.170   5.685
 9309SOL    HW128826   3.769   6.094   5.672
 9309SOL    HW228827   3.690   6.216   5.597
 9310SOL     OW28828   5.728   6.514   5.694
 9310SOL    HW128829   5.694   6.553   5.609
 9310SOL    HW228830   5.824   6.537   5.705
 9311SOL     OW28831   5.466   4.684   1.482
 9311SOL    HW128832   5.566   4.683   1.487
 9311SOL    HW228833   5.437   4.624   1.408
 9312SOL     OW28834   1.653   2.109   0.785
 9312SOL    HW128835   1.719   2.033   0.779
 9312SOL    HW228836   1.583   2.098   0.715
 9313SOL     OW28837   6.977   0.223   1.530
 9313SOL    HW128838   6.955   0.130   1.560
 9313SOL    HW228839   6.987   0.282   1.610
 9314SOL     OW28840   6.975   3.370   0.403
 9314SOL    HW128841   6.897   3.322   0.444
 9314SOL    HW228842   0.022   3.383   0.471
 9315SOL     OW28843   6.150   0.176   5.604
 9315SOL    HW128844   6.133   0.081   5.627
 9315SOL    HW228845   6.206   0.181   5.521
 9316SOL     OW28846   5.521   0.105   5.361
 9316SOL    HW128847   5.485   0.192   5.395
 9316SOL    HW228848   5.618   0.097   5.384
 9317SOL     OW28849   4.035   5.453   2.805
 9317SOL    HW128850   3.945   5.412   2.792
 9317SOL    HW228851   4.082   5.405   2.880
 9318SOL     OW28852   5.006   0.024   0.336
 9318SOL    HW128853   4.977   6.965   0.384
 9318SOL    HW228854   4.961   0.028   0.247
 9319SOL     OW28855   2.666   2.906   1.238
 9319SOL    HW128856   2.741   2.841   1.252
 9319SOL    HW228857   2.692   2.971   1.167
 9320SOL     OW28858   4.232   0.257   5.051
 9320SOL    HW128859   4.154   0.199   5.028
 9320SOL    HW228860   4.207   0.322   5.122
 9321SOL     OW28861   0.906   1.026   5.695
 9321SOL    HW128862   0.836   1.013   5.626
 9321SOL    HW228863   0.871   1.088   5.766
 9322SOL     OW28864   0.058   4.439   6.865
 9322SOL    HW128865   0.105   4.521   6.833
 9322SOL    HW228866   7.007   4.417   6.804
 9323SOL     OW28867   2.288   1.514   5.391
 9323SOL    HW128868   2.254   1.602   5.358
 9323SOL    HW228869   2.269   1.444   5.322
 9324SOL     OW28870   2.145   3.784   2.425
 9324SOL    HW128871   2.122   3.698   2.470
 9324SOL    HW228872   2.122   3.778   2.328
 9325SOL     OW28873   0.255   7.013   0.719
 9325SOL    HW128874   0.227   0.033   0.635
 9325SOL    HW228875   0.188   6.942   0.743
 9326SOL     OW28876   2.985   5.081   6.624
 9326SOL    HW128877   3.034   5.002   6.660
 9326SOL    HW228878   2.988   5.080   6.524
 9327SOL     OW28879   4.434   6.408   2.640
 9327SOL    HW128880   4.530   6.424   2.662
 9327SOL    HW228881   4.415   6.310   2.644
 9328SOL     OW28882   1.958   0.603   5.114
 9328SOL    HW128883   1.869   0.573   5.150
 9328SOL    HW228884   1.961   0.588   5.016
 9329SOL     OW28885   6.791   5.517   0.985
 9329SOL    HW128886   6.842   5.602   0.972
 9329SOL    HW228887   6.848   5.439   0.959
 9330SOL     OW28888   0.373   0.458   6.072
 9330SOL    HW128889   0.396   0.407   6.154
 9330SOL    HW228890   0.341   0.396   6.001
 9331SOL     OW28891   1.995   1.331   6.154
 9331SOL    HW128892   1.966   1.398   6.223
 9331SOL    HW228893   2.084   1.358   6.117
 9332SOL     OW28894   4.327   5.401   0.536
 9332SOL    HW128895   4.290   5.308   0.544
 9332SOL    HW228896   4.342   5.422   0.439
 9333SOL     OW28897   3.920   5.414   6.462
 9333SOL    HW128898   4.006   5.438   6.508
 9333SOL    HW228899   3.891   5.491   6.405
 9334SOL     OW28900   5.011   6.644   4.173
 9334SOL    HW128901   5.067   6.700   4.233
 9334SOL    HW228902   5.039   6.548   4.181
 9335SOL     OW28903   1.735   1.545   7.018
 9335SOL    HW128904   1.643   1.517   6.993
 9335SOL    HW228905   1.731   1.633   0.042
 9336SOL     OW28906   5.469   0.042   4.282
 9336SOL    HW128907   5.429   0.005   4.198
 9336SOL    HW228908   5.503   0.134   4.264
 9337SOL     OW28909   4.939   1.123   6.422
 9337SOL    HW128910   4.841   1.122   6.403
 9337SOL    HW228911   4.987   1.066   6.354
 9338SOL     OW28912   6.539   6.474   1.004
 9338SOL    HW128913   6.580   6.383   0.998
 9338SOL    HW228914   6.462   6.472   1.067
 9339SOL     OW28915   5.765   6.133   0.308
 9339SOL    HW128916   5.764   6.047   0.256
 9339SOL    HW228917   5.813   6.203   0.255
 9340SOL     OW28918   3.979   4.792   2.638
 9340SOL    HW128919   4.000   4.827   2.729
 9340SOL    HW228920   3.886   4.755   2.637
 9341SOL     OW28921   6.465   4.105   1.018
 9341SOL    HW128922   6.476   4.129   0.922
 9341SOL    HW228923   6.503   4.178   1.075
 9342SOL     OW28924   2.299   0.900   4.622
 9342SOL    HW128925   2.263   0.878   4.531
 9342SOL    HW228926   2.396   0.924   4.614
 9343SOL     OW28927   4.925   3.792   2.101
 9343SOL    HW128928   4.996   3.838   2.049
 9343SOL    HW228929   4.880   3.857   2.162
 9344SOL     OW28930   5.320   5.558   0.158
 9344SOL    HW128931   5.222   5.540   0.158
 9344SOL    HW228932   5.351   5.575   0.252
 9345SOL     OW28933   0.033   4.581   1.992
 9345SOL    HW128934   0.127   4.578   1.958
 9345SOL    HW228935   0.026   4.651   2.063
 9346SOL     OW28936   5.173   6.902   2.166
 9346SOL    HW128937   5.110   6.966   2.122
 9346SOL    HW228938   5.126   6.856   2.242
 9347SOL     OW28939   2.935   6.024   0.285
 9347SOL    HW128940   2.868   5.979   0.226
 9347SOL    HW228941   2.960   5.961   0.359
 9348SOL     OW28942   2.798   5.823   2.398
 9348SOL    HW128943   2.830   5.736   2.435
 9348SOL    HW228944   2.698   5.823   2.394
 9349SOL     OW28945   6.680   5.455   2.912
 9349SOL    HW128946   6.608   5.477   2.846
 9349SOL    HW228947   6.639   5.436   3.001
 9350SOL     OW28948   0.189   1.979   4.098
 9350SOL    HW128949   0.151   1.942   4.013
 9350SOL    HW228950   0.118   2.028   4.148
 9351SOL     OW28951   2.640   0.396   6.413
 9351SOL    HW128952   2.686   0.381   6.326
 9351SOL    HW228953   2.581   0.476   6.406
 9352SOL     OW28954   2.836   3.031   5.707
 9352SOL    HW128955   2.857   2.950   5.652
 9352SOL    HW228956   2.865   3.113   5.658
 9353SOL     OW28957   1.918   4.380   1.114
 9353SOL    HW128958   1.855   4.413   1.184
 9353SOL    HW228959   2.011   4.379   1.152
 9354SOL     OW28960   6.710   1.815   0.354
 9354SOL    HW128961   6.776   1.855   0.418
 9354SOL    HW228962   6.743   1.826   0.261
 9355SOL     OW28963   6.510   1.836   4.525
 9355SOL    HW128964   6.548   1.771   4.459
 9355SOL    HW228965   6.566   1.837   4.608
 9356SOL     OW28966   4.192   5.855   1.209
 9356SOL    HW128967   4.278   5.805   1.198
 9356SOL    HW228968   4.129   5.830   1.136
 9357SOL     OW28969   3.470   3.360   6.417
 9357SOL    HW128970   3.411   3.387   6.494
 9357SOL    HW228971   3.560   3.335   6.452
 9358SOL     OW28972   6.980   3.462   2.001
 9358SOL    HW128973   6.949   3.375   2.040
 9358SOL    HW228974   6.902   3.512   1.964
 9359SOL     OW28975   1.184   3.637   5.738
 9359SOL    HW128976   1.259   3.626   5.672
 9359SOL    HW228977   1.139   3.725   5.722
 9360SOL     OW28978   1.266   6.930   6.151
 9360SOL    HW128979   1.226   6.853   6.101
 9360SOL    HW228980   1.193   6.993   6.179
 9361SOL     OW28981   2.296   6.232   3.438
 9361SOL    HW128982   2.395   6.219   3.446
 9361SOL    HW228983   2.270   6.319   3.478
 9362SOL     OW28984   1.116   2.026   1.928
 9362SOL    HW128985   1.146   2.102   1.986
 9362SOL    HW228986   1.195   1.968   1.906
 9363SOL     OW28987   4.148   5.402   1.825
 9363SOL    HW128988   4.212   5.339   1.782
 9363SOL    HW228989   4.089   5.442   1.755
 9364SOL     OW28990   4.463   3.297   5.948
 9364SOL    HW128991   4.500   3.205   5.959
 9364SOL    HW228992   4.477   3.328   5.854
 9365SOL     OW28993   2.674   2.140   5.031
 9365SOL    HW128994   2.715   2.199   5.100
 9365SOL    HW228995   2.579   2.167   5.016
 9366SOL     OW28996   2.906   0.658   6.825
 9366SOL    HW128997   2.862   0.627   6.740
 9366SOL    HW228998   3.002   0.677   6.807
 9367SOL     OW28999   0.095   6.226   3.168
 9367SOL    HW129000   0.141   6.137   3.165
 9367SOL    HW229001   7.021   6.212   3.182
 9368SOL     OW29002   2.433   1.499   3.792
 9368SOL    HW129003   2.336   1.525   3.792
 9368SOL    HW229004   2.454   1.451   3.707
 9369SOL     OW29005   7.003   0.598   5.149
 9369SOL    HW129006   0.071   0.573   5.177
 9369SOL    HW229007   6.946   0.516   5.142
 9370SOL     OW29008   4.676   0.359   2.547
 9370SOL    HW129009   4.604   0.292   2.567
 9370SOL    HW229010   4.717   0.338   2.458
 9371SOL     OW29011   2.284   5.199   0.888
 9371SOL    HW129012   2.359   5.204   0.953
 9371SOL    HW229013   2.197   5.212   0.936
 9372SOL     OW29014   5.156   6.079   3.090
 9372SOL    HW129015   5.100   6.000   3.117
 9372SOL    HW229016   5.222   6.099   3.162
 9373SOL     OW29017   4.112   2.227   2.583
 9373SOL    HW129018   4.025   2.194   2.547
 9373SOL    HW229019   4.141   2.169   2.659
 9374SOL     OW29020   0.529   2.684   0.635
 9374SOL    HW129021   0.492   2.777   0.634
 9374SOL    HW229022   0.629   2.688   0.629
 9375SOL     OW29023   6.145   1.602   3.110
 9375SOL    HW129024   6.048   1.582   3.124
 9375SOL    HW229025   6.163   1.698   3.130
 9376SOL     OW29026   2.861   4.078   1.146
 9376SOL    HW129027   2.860   3.993   1.093
 9376SOL    HW229028   2.952   4.119   1.141
 9377SOL     OW29029   1.834   5.487   3.545
 9377SOL    HW129030   1.799   5.395   3.532
 9377SOL    HW229031   1.896   5.511   3.470
 9378SOL     OW29032   1.001   0.816   5.032
 9378SOL    HW129033   1.035   0.779   5.119
 9378SOL    HW229034   1.031   0.911   5.023
 9379SOL     OW29035   4.651   6.043   4.846
 9379SOL    HW129036   4.596   5.960   4.839
 9379SOL    HW229037   4.663   6.067   4.943
 9380SOL     OW29038   5.454   4.443   4.913
 9380SOL    HW129039   5.498   4.374   4.856
 9380SOL    HW229040   5.448   4.529   4.863
 9381SOL     OW29041   2.978   3.062   5.950
 9381SOL    HW129042   2.938   3.042   5.860
 9381SOL    HW229043   3.074   3.036   5.950
 9382SOL     OW29044   3.448   1.194   3.319
 9382SOL    HW129045   3.360   1.230   3.290
 9382SOL    HW229046   3.445   1.170   3.416
 9383SOL     OW29047   1.992   6.168   4.514
 9383SOL    HW129048   2.089   6.186   4.499
 9383SOL    HW229049   1.980   6.128   4.606
 9384SOL     OW29050   2.977   6.440   1.289
 9384SOL    HW129051   2.920   6.363   1.261
 9384SOL    HW229052   2.947   6.523   1.241
 9385SOL     OW29053   3.956   0.704   2.814
 9385SOL    HW129054   3.893   0.663   2.748
 9385SOL    HW229055   4.043   0.654   2.812
 9386SOL     OW29056   2.602   6.419   4.947
 9386SOL    HW129057   2.649   6.375   4.870
 9386SOL    HW229058   2.504   6.403   4.940
 9387SOL     OW29059   2.669   1.544   0.168
 9387SOL    HW129060   2.630   1.457   0.136
 9387SOL    HW229061   2.762   1.528   0.202
 9388SOL     OW29062   1.872   5.057   2.795
 9388SOL    HW129063   1.945   5.020   2.738
 9388SOL    HW229064   1.785   5.013   2.771
 9389SOL     OW29065   1.336   6.394   4.959
 9389SOL    HW129066   1.417   6.421   4.907
 9389SOL    HW229067   1.256   6.438   4.921
 9390SOL     OW29068   3.755   5.089   4.844
 9390SOL    HW129069   3.693   5.044   4.779
 9390SOL    HW229070   3.829   5.133   4.794
 9391SOL     OW29071   2.339   1.249   4.712
 9391SOL    HW129072   2.359   1.212   4.802
 9391SOL    HW229073   2.241   1.267   4.704
 9392SOL     OW29074   6.930   0.651   4.774
 9392SOL    HW129075   6.853   0.591   4.750
 9392SOL    HW229076   6.923   0.675   4.871
 9393SOL     OW29077   2.498   6.775   5.381
 9393SOL    HW129078   2.565   6.758   5.454
 9393SOL    HW229079   2.494   6.874   5.363
 9394SOL     OW29080   0.262   1.499   2.094
 9394SOL    HW129081   0.272   1.599   2.087
 9394SOL    HW229082   0.166   1.477   2.112
 9395SOL     OW29083   2.701   1.531   0.497
 9395SOL    HW129084   2.760   1.508   0.420
 9395SOL    HW229085   2.740   1.608   0.548
 9396SOL     OW29086   2.031   5.281   3.723
 9396SOL    HW129087   2.004   5.343   3.650
 9396SOL    HW229088   2.006   5.187   3.699
 9397SOL     OW29089   3.605   0.143   6.821
 9397SOL    HW129090   3.648   0.076   6.761
 9397SOL    HW229091   3.513   0.163   6.788
 9398SOL     OW29092   0.255   0.961   5.105
 9398SOL    HW129093   0.293   0.880   5.149
 9398SOL    HW229094   0.323   1.002   5.044
 9399SOL     OW29095   6.903   1.905   6.038
 9399SOL    HW129096   6.914   1.813   6.000
 9399SOL    HW229097   6.940   1.908   6.130
 9400SOL     OW29098   4.012   1.384   2.271
 9400SOL    HW129099   4.064   1.449   2.327
 9400SOL    HW229100   4.076   1.328   2.219
 9401SOL     OW29101   5.468   0.096   3.335
 9401SOL    HW129102   5.552   0.146   3.358
 9401SOL    HW229103   5.402   0.108   3.409
 9402SOL     OW29104   1.350   4.588   3.894
 9402SOL    HW129105   1.250   4.589   3.899
 9402SOL    HW229106   1.388   4.604   3.985
 9403SOL     OW29107   6.319   1.606   2.902
 9403SOL    HW129108   6.253   1.619   2.828
 9403SOL    HW229109   6.273   1.614   2.990
 9404SOL     OW29110   1.471   3.369   6.333
 9404SOL    HW129111   1.540   3.318   6.283
 9404SOL    HW229112   1.499   3.465   6.341
 9405SOL     OW29113   1.494   5.289   2.598
 9405SOL    HW129114   1.526   5.383   2.604
 9405SOL    HW229115   1.530   5.247   2.514
 9406SOL     OW29116   6.776   2.845   5.933
 9406SOL    HW129117   6.767   2.931   5.883
 9406SOL    HW229118   6.735   2.771   5.879
 9407SOL     OW29119   2.565   5.356   3.131
 9407SOL    HW129120   2.501   5.280   3.116
 9407SOL    HW229121   2.632   5.330   3.201
 9408SOL     OW29122   4.706   1.873   6.518
 9408SOL    HW129123   4.717   1.956   6.463
 9408SOL    HW229124   4.771   1.804   6.487
 9409SOL     OW29125   6.125   4.895   6.188
 9409SOL    HW129126   6.219   4.923   6.174
 9409SOL    HW229127   6.087   4.945   6.266
 9410SOL     OW29128   2.896   6.911   2.226
 9410SOL    HW129129   2.809   6.948   2.196
 9410SOL    HW229130   2.969   6.940   2.163
 9411SOL     OW29131   3.242   3.377   2.156
 9411SOL    HW129132   3.146   3.378   2.184
 9411SOL    HW229133   3.278   3.284   2.160
 9412SOL     OW29134   6.895   2.587   1.593
 9412SOL    HW129135   6.931   2.497   1.569
 9412SOL    HW229136   6.955   2.658   1.556
 9413SOL     OW29137   3.475   5.696   4.030
 9413SOL    HW129138   3.519   5.645   3.957
 9413SOL    HW229139   3.433   5.779   3.992
 9414SOL     OW29140   2.874   0.654   3.470
 9414SOL    HW129141   2.804   0.613   3.413
 9414SOL    HW229142   2.933   0.713   3.414
 9415SOL     OW29143   3.050   6.689   2.300
 9415SOL    HW129144   2.993   6.770   2.286
 9415SOL    HW229145   3.031   6.650   2.390
 9416SOL     OW29146   0.439   2.389   0.946
 9416SOL    HW129147   0.473   2.335   0.869
 9416SOL    HW229148   0.397   2.473   0.911
 9417SOL     OW29149   4.124   6.981   5.972
 9417SOL    HW129150   4.079   7.007   5.886
 9417SOL    HW229151   4.190   6.908   5.954
 9418SOL     OW29152   3.827   6.365   1.137
 9418SOL    HW129153   3.820   6.287   1.200
 9418SOL    HW229154   3.923   6.378   1.111
 9419SOL     OW29155   3.831   5.360   5.837
 9419SOL    HW129156   3.782   5.444   5.814
 9419SOL    HW229157   3.913   5.383   5.889
 9420SOL     OW29158   6.557   3.193   5.618
 9420SOL    HW129159   6.548   3.125   5.545
 9420SOL    HW229160   6.498   3.271   5.598
 9421SOL     OW29161   1.971   0.011   4.569
 9421SOL    HW129162   1.963   0.097   4.518
 9421SOL    HW229163   2.066   7.004   4.564
 9422SOL     OW29164   4.769   5.925   3.230
 9422SOL    HW129165   4.793   6.014   3.191
 9422SOL    HW229166   4.804   5.852   3.171
 9423SOL     OW29167   3.846   0.376   4.033
 9423SOL    HW129168   3.771   0.310   4.020
 9423SOL    HW229169   3.840   0.416   4.124
 9424SOL     OW29170   4.872   0.698   4.778
 9424SOL    HW129171   4.885   0.793   4.751
 9424SOL    HW229172   4.868   0.640   4.696
 9425SOL     OW29173   6.103   3.168   6.830
 9425SOL    HW129174   6.185   3.224   6.813
 9425SOL    HW229175   6.094   3.100   6.757
 9426SOL     OW29176   3.384   2.335   0.208
 9426SOL    HW129177   3.374   2.427   0.172
 9426SOL    HW229178   3.293   2.296   0.225
 9427SOL     OW29179   3.239   5.643   3.370
 9427SOL    HW129180   3.315   5.693   3.413
 9427SOL    HW229181   3.198   5.582   3.437
 9428SOL     OW29182   5.859   0.729   1.085
 9428SOL    HW129183   5.764   0.760   1.079
 9428SOL    HW229184   5.918   0.796   1.041
 9429SOL     OW29185   2.084   3.434   2.183
 9429SOL    HW129186   2.136   3.461   2.102
 9429SOL    HW229187   2.146   3.406   2.255
 9430SOL     OW29188   0.749   4.234   2.542
 9430SOL    HW129189   0.682   4.199   2.477
 9430SOL    HW229190   0.705   4.252   2.630
 9431SOL     OW29191   6.433   4.130   1.797
 9431SOL    HW129192   6.492   4.160   1.721
 9431SOL    HW229193   6.359   4.073   1.761
 9432SOL     OW29194   4.211   0.622   3.157
 9432SOL    HW129195   4.122   0.601   3.117
 9432SOL    HW229196   4.199   0.680   3.238
 9433SOL     OW29197   2.688   5.348   2.889
 9433SOL    HW129198   2.738   5.262   2.899
 9433SOL    HW229199   2.623   5.358   2.964
 9434SOL     OW29200   5.421   5.064   3.188
 9434SOL    HW129201   5.511   5.089   3.154
 9434SOL    HW229202   5.351   5.116   3.138
 9435SOL     OW29203   0.908   2.967   4.615
 9435SOL    HW129204   1.006   2.971   4.592
 9435SOL    HW229205   0.867   2.888   4.569
 9436SOL     OW29206   1.273   2.718   1.908
 9436SOL    HW129207   1.270   2.799   1.966
 9436SOL    HW229208   1.267   2.745   1.812
 9437SOL     OW29209   2.643   6.029   3.030
 9437SOL    HW129210   2.576   6.068   3.094
 9437SOL    HW229211   2.734   6.062   3.052
 9438SOL     OW29212   0.023   0.334   1.751
 9438SOL    HW129213   0.062   0.246   1.776
 9438SOL    HW229214   6.988   0.367   1.824
 9439SOL     OW29215   0.607   3.525   1.562
 9439SOL    HW129216   0.572   3.498   1.472
 9439SOL    HW229217   0.706   3.537   1.557
 9440SOL     OW29218   4.149   5.042   3.315
 9440SOL    HW129219   4.057   5.068   3.288
 9440SOL    HW229220   4.165   4.946   3.290
 9441SOL     OW29221   0.731   3.255   4.937
 9441SOL    HW129222   0.803   3.324   4.928
 9441SOL    HW229223   0.770   3.164   4.924
 9442SOL     OW29224   4.868   3.293   0.391
 9442SOL    HW129225   4.883   3.196   0.372
 9442SOL    HW229226   4.789   3.325   0.339
 9443SOL     OW29227   2.128   5.642   1.063
 9443SOL    HW129228   2.083   5.575   1.005
 9443SOL    HW229229   2.099   5.629   1.158
 9444SOL     OW29230   1.401   3.635   6.572
 9444SOL    HW129231   1.489   3.682   6.581
 9444SOL    HW229232   1.363   3.652   6.481
 9445SOL     OW29233   5.804   3.381   3.715
 9445SOL    HW129234   5.708   3.351   3.714
 9445SOL    HW229235   5.838   3.384   3.621
 9446SOL     OW29236   6.212   6.083   4.328
 9446SOL    HW129237   6.151   6.028   4.384
 9446SOL    HW229238   6.234   6.168   4.376
 9447SOL     OW29239   5.874   3.571   4.638
 9447SOL    HW129240   5.862   3.579   4.539
 9447SOL    HW229241   5.800   3.619   4.685
 9448SOL     OW29242   6.926   6.744   6.838
 9448SOL    HW129243   6.843   6.799   6.850
 9448SOL    HW229244   7.005   6.804   6.831
 9449SOL     OW29245   0.033   6.116   0.188
 9449SOL    HW129246   0.047   6.114   0.287
 9449SOL    HW229247   0.015   6.024   0.154
 9450SOL     OW29248   2.921   5.687   5.479
 9450SOL    HW129249   2.848   5.704   5.545
 9450SOL    HW229250   2.933   5.768   5.421
 9451SOL     OW29251   4.286   6.453   5.962
 9451SOL    HW129252   4.215   6.435   5.894
 9451SOL    HW229253   4.255   6.422   6.052
 9452SOL     OW29254   1.777   3.866   0.147
 9452SOL    HW129255   1.845   3.857   0.220
 9452SOL    HW229256   1.758   3.776   0.108
 9453SOL     OW29257   1.964   4.587   3.073
 9453SOL    HW129258   1.991   4.518   3.140
 9453SOL    HW229259   1.882   4.634   3.104
 9454SOL     OW29260   3.078   3.143   6.974
 9454SOL    HW129261   3.161   3.090   6.990
 9454SOL    HW229262   3.062   3.153   6.876
 9455SOL     OW29263   3.234   1.752   3.262
 9455SOL    HW129264   3.264   1.796   3.178
 9455SOL    HW229265   3.141   1.718   3.250
 9456SOL     OW29266   1.341   3.512   0.983
 9456SOL    HW129267   1.355   3.490   0.887
 9456SOL    HW229268   1.293   3.437   1.028
 9457SOL     OW29269   2.191   3.819   5.168
 9457SOL    HW129270   2.162   3.795   5.075
 9457SOL    HW229271   2.263   3.888   5.164
 9458SOL     OW29272   1.934   3.059   6.607
 9458SOL    HW129273   1.955   2.961   6.606
 9458SOL    HW229274   1.945   3.095   6.699
 9459SOL     OW29275   5.069   4.468   3.258
 9459SOL    HW129276   5.075   4.375   3.223
 9459SOL    HW229277   5.154   4.517   3.240
 9460SOL     OW29278   0.586   2.454   3.730
 9460SOL    HW129279   0.551   2.413   3.814
 9460SOL    HW229280   0.510   2.475   3.669
 9461SOL     OW29281   5.939   1.326   2.297
 9461SOL    HW129282   6.026   1.282   2.321
 9461SOL    HW229283   5.864   1.280   2.344
 9462SOL     OW29284   2.152   3.688   2.870
 9462SOL    HW129285   2.130   3.743   2.951
 9462SOL    HW229286   2.196   3.747   2.802
 9463SOL     OW29287   0.199   1.087   1.623
 9463SOL    HW129288   0.217   1.075   1.720
 9463SOL    HW229289   0.271   1.042   1.570
 9464SOL     OW29290   6.173   0.259   1.429
 9464SOL    HW129291   6.147   0.305   1.344
 9464SOL    HW229292   6.093   0.249   1.488
 9465SOL     OW29293   1.969   5.334   2.758
 9465SOL    HW129294   2.045   5.272   2.773
 9465SOL    HW229295   1.883   5.289   2.784
 9466SOL     OW29296   4.754   4.834   5.735
 9466SOL    HW129297   4.727   4.738   5.743
 9466SOL    HW229298   4.843   4.840   5.690
 9467SOL     OW29299   1.401   2.905   1.694
 9467SOL    HW129300   1.465   2.838   1.658
 9467SOL    HW229301   1.369   2.964   1.619
 9468SOL     OW29302   5.640   2.701   6.067
 9468SOL    HW129303   5.708   2.629   6.053
 9468SOL    HW229304   5.564   2.688   6.003
 9469SOL     OW29305   6.502   5.904   2.020
 9469SOL    HW129306   6.546   5.830   1.969
 9469SOL    HW229307   6.440   5.866   2.087
 9470SOL     OW29308   4.448   3.906   5.320
 9470SOL    HW129309   4.548   3.914   5.319
 9470SOL    HW229310   4.423   3.809   5.324
 9471SOL     OW29311   6.472   2.157   4.431
 9471SOL    HW129312   6.473   2.058   4.445
 9471SOL    HW229313   6.388   2.196   4.469
 9472SOL     OW29314   5.677   3.575   5.014
 9472SOL    HW129315   5.590   3.541   4.981
 9472SOL    HW229316   5.723   3.625   4.941
 9473SOL     OW29317   2.740   5.669   5.835
 9473SOL    HW129318   2.648   5.632   5.851
 9473SOL    HW229319   2.806   5.594   5.829
 9474SOL     OW29320   0.289   3.069   0.163
 9474SOL    HW129321   0.385   3.058   0.138
 9474SOL    HW229322   0.253   2.983   0.199
 9475SOL     OW29323   3.720   3.305   6.522
 9475SOL    HW129324   3.718   3.294   6.622
 9475SOL    HW229325   3.788   3.374   6.498
 9476SOL     OW29326   2.925   3.837   4.900
 9476SOL    HW129327   2.825   3.841   4.902
 9476SOL    HW229328   2.961   3.856   4.991
 9477SOL     OW29329   0.302   3.667   1.700
 9477SOL    HW129330   0.348   3.585   1.734
 9477SOL    HW229331   0.370   3.733   1.668
 9478SOL     OW29332   5.514   3.275   6.457
 9478SOL    HW129333   5.447   3.214   6.498
 9478SOL    HW229334   5.588   3.293   6.521
 9479SOL     OW29335   4.424   5.976   6.855
 9479SOL    HW129336   4.411   5.887   6.813
 9479SOL    HW229337   4.512   6.014   6.825
 9480SOL     OW29338   4.471   3.969   1.082
 9480SOL    HW129339   4.552   3.919   1.049
 9480SOL    HW229340   4.465   3.958   1.182
 9481SOL     OW29341   5.235   3.640   2.312
 9481SOL    HW129342   5.334   3.647   2.303
 9481SOL    HW229343   5.212   3.577   2.387
 9482SOL     OW29344   6.634   0.651   3.164
 9482SOL    HW129345   6.593   0.567   3.128
 9482SOL    HW229346   6.607   0.662   3.260
 9483SOL     OW29347   1.001   1.604   1.908
 9483SOL    HW129348   1.014   1.605   1.809
 9483SOL    HW229349   1.090   1.595   1.954
 9484SOL     OW29350   3.053   1.243   3.750
 9484SOL    HW129351   3.046   1.341   3.730
 9484SOL    HW229352   3.139   1.208   3.712
 9485SOL     OW29353   0.312   0.445   1.820
 9485SOL    HW129354   0.273   0.366   1.868
 9485SOL    HW229355   0.241   0.489   1.766
 9486SOL     OW29356   3.175   6.247   0.975
 9486SOL    HW129357   3.185   6.243   1.074
 9486SOL    HW229358   3.089   6.293   0.952
 9487SOL     OW29359   3.549   3.288   3.275
 9487SOL    HW129360   3.544   3.228   3.195
 9487SOL    HW229361   3.619   3.254   3.337
 9488SOL     OW29362   1.343   6.444   0.674
 9488SOL    HW129363   1.265   6.495   0.638
 9488SOL    HW229364   1.387   6.394   0.599
 9489SOL     OW29365   4.393   4.304   1.571
 9489SOL    HW129366   4.472   4.295   1.510
 9489SOL    HW229367   4.410   4.255   1.656
 9490SOL     OW29368   0.145   5.532   0.942
 9490SOL    HW129369   0.186   5.453   0.987
 9490SOL    HW229370   0.111   5.505   0.852
 9491SOL     OW29371   6.576   4.664   3.885
 9491SOL    HW129372   6.676   4.662   3.897
 9491SOL    HW229373   6.545   4.759   3.881
 9492SOL     OW29374   3.374   2.890   2.854
 9492SOL    HW129375   3.405   2.795   2.850
 9492SOL    HW229376   3.379   2.922   2.948
 9493SOL     OW29377   3.764   5.069   3.806
 9493SOL    HW129378   3.685   5.043   3.862
 9493SOL    HW229379   3.841   5.089   3.866
 9494SOL     OW29380   4.728   4.836   1.858
 9494SOL    HW129381   4.661   4.800   1.793
 9494SOL    HW229382   4.804   4.772   1.867
 9495SOL     OW29383   6.653   1.777   3.299
 9495SOL    HW129384   6.638   1.678   3.287
 9495SOL    HW229385   6.713   1.792   3.378
 9496SOL     OW29386   6.165   4.946   1.251
 9496SOL    HW129387   6.240   4.925   1.314
 9496SOL    HW229388   6.105   4.866   1.242
 9497SOL     OW29389   5.734   6.235   6.770
 9497SOL    HW129390   5.832   6.244   6.786
 9497SOL    HW229391   5.718   6.187   6.684
 9498SOL     OW29392   5.150   6.764   4.358
 9498SOL    HW129393   5.170   6.687   4.419
 9498SOL    HW229394   5.215   6.838   4.375
 9499SOL     OW29395   1.779   5.127   6.203
 9499SOL    HW129396   1.713   5.085   6.266
 9499SOL    HW229397   1.738   5.135   6.112
 9500SOL     OW29398   5.668   0.644   0.737
 9500SOL    HW129399   5.571   0.663   0.724
 9500SOL    HW229400   5.714   0.726   0.773
 9501SOL     OW29401   2.904   1.414   5.089
 9501SOL    HW129402   2.810   1.434   5.062
 9501SOL    HW229403   2.937   1.334   5.038
 9502SOL     OW29404   6.530   2.442   5.372
 9502SOL    HW129405   6.442   2.449   5.325
 9502SOL    HW229406   6.528   2.499   5.454
 9503SOL     OW29407   0.160   1.519   1.383
 9503SOL    HW129408   0.084   1.573   1.348
 9503SOL    HW229409   0.225   1.580   1.430
 9504SOL     OW29410   6.647   2.314   1.338
 9504SOL    HW129411   6.641   2.410   1.367
 9504SOL    HW229412   6.652   2.256   1.419
 9505SOL     OW29413   5.376   4.906   3.407
 9505SOL    HW129414   5.436   4.947   3.476
 9505SOL    HW229415   5.378   4.961   3.324
 9506SOL     OW29416   0.865   2.516   6.140
 9506SOL    HW129417   0.914   2.431   6.161
 9506SOL    HW229418   0.930   2.590   6.126
 9507SOL     OW29419   1.024   2.262   3.167
 9507SOL    HW129420   1.083   2.184   3.149
 9507SOL    HW229421   1.078   2.346   3.163
 9508SOL     OW29422   6.712   3.532   0.962
 9508SOL    HW129423   6.768   3.564   1.039
 9508SOL    HW229424   6.617   3.559   0.976
 9509SOL     OW29425   0.659   0.804   4.746
 9509SOL    HW129426   0.694   0.895   4.724
 9509SOL    HW229427   0.713   0.764   4.820
 9510SOL     OW29428   1.415   3.506   2.271
 9510SOL    HW129429   1.478   3.517   2.348
 9510SOL    HW229430   1.448   3.559   2.193
 9511SOL     OW29431   0.433   1.054   0.430
 9511SOL    HW129432   0.350   1.098   0.396
 9511SOL    HW229433   0.422   0.954   0.426
 9512SOL     OW29434   5.402   1.766   1.548
 9512SOL    HW129435   5.331   1.778   1.478
 9512SOL    HW229436   5.439   1.674   1.543
 9513SOL     OW29437   1.908   3.214   6.133
 9513SOL    HW129438   1.964   3.148   6.082
 9513SOL    HW229439   1.890   3.180   6.225
 9514SOL     OW29440   1.814   4.870   6.365
 9514SOL    HW129441   1.734   4.892   6.309
 9514SOL    HW229442   1.891   4.847   6.306
 9515SOL     OW29443   1.555   6.245   1.577
 9515SOL    HW129444   1.475   6.296   1.609
 9515SOL    HW229445   1.546   6.226   1.479
 9516SOL     OW29446   5.395   4.250   5.341
 9516SOL    HW129447   5.367   4.300   5.259
 9516SOL    HW229448   5.478   4.290   5.378
 9517SOL     OW29449   1.170   4.719   0.778
 9517SOL    HW129450   1.079   4.699   0.741
 9517SOL    HW229451   1.191   4.654   0.851
 9518SOL     OW29452   1.496   1.554   6.899
 9518SOL    HW129453   1.464   1.618   6.830
 9518SOL    HW229454   1.417   1.518   6.950
 9519SOL     OW29455   3.731   4.119   4.230
 9519SOL    HW129456   3.661   4.136   4.160
 9519SOL    HW229457   3.700   4.154   4.318
 9520SOL     OW29458   0.786   1.293   3.128
 9520SOL    HW129459   0.838   1.378   3.132
 9520SOL    HW229460   0.730   1.284   3.210
 9521SOL     OW29461   5.179   4.992   1.432
 9521SOL    HW129462   5.102   4.929   1.424
 9521SOL    HW229463   5.250   4.966   1.367
 9522SOL     OW29464   4.017   4.889   1.364
 9522SOL    HW129465   3.951   4.828   1.409
 9522SOL    HW229466   3.970   4.944   1.296
 9523SOL     OW29467   2.755   5.176   4.768
 9523SOL    HW129468   2.700   5.107   4.816
 9523SOL    HW229469   2.822   5.129   4.711
 9524SOL     OW29470   3.003   3.270   0.470
 9524SOL    HW129471   3.008   3.366   0.497
 9524SOL    HW229472   2.962   3.263   0.379
 9525SOL     OW29473   2.487   2.347   6.230
 9525SOL    HW129474   2.388   2.346   6.219
 9525SOL    HW229475   2.531   2.354   6.140
 9526SOL     OW29476   6.444   4.637   1.260
 9526SOL    HW129477   6.390   4.594   1.187
 9526SOL    HW229478   6.453   4.735   1.242
 9527SOL     OW29479   0.494   1.590   4.330
 9527SOL    HW129480   0.587   1.555   4.325
 9527SOL    HW229481   0.458   1.577   4.422
 9528SOL     OW29482   6.579   1.584   1.105
 9528SOL    HW129483   6.585   1.574   1.205
 9528SOL    HW229484   6.526   1.666   1.084
 9529SOL     OW29485   6.475   3.520   6.310
 9529SOL    HW129486   6.471   3.613   6.274
 9529SOL    HW229487   6.385   3.493   6.345
 9530SOL     OW29488   1.844   2.928   3.017
 9530SOL    HW129489   1.888   2.973   2.940
 9530SOL    HW229490   1.898   2.941   3.100
 9531SOL     OW29491   5.006   4.785   2.415
 9531SOL    HW129492   4.976   4.812   2.323
 9531SOL    HW229493   4.970   4.849   2.482
 9532SOL     OW29494   0.292   5.818   1.415
 9532SOL    HW129495   0.371   5.861   1.460
 9532SOL    HW229496   0.219   5.885   1.405
 9533SOL     OW29497   0.279   5.779   5.287
 9533SOL    HW129498   0.275   5.680   5.298
 9533SOL    HW229499   0.373   5.807   5.268
 9534SOL     OW29500   6.903   4.289   5.169
 9534SOL    HW129501   6.886   4.204   5.119
 9534SOL    HW229502   6.984   4.277   5.227
 9535SOL     OW29503   2.200   0.670   5.944
 9535SOL    HW129504   2.290   0.626   5.941
 9535SOL    HW229505   2.185   0.710   6.034
 9536SOL     OW29506   2.954   4.205   5.920
 9536SOL    HW129507   2.924   4.179   5.828
 9536SOL    HW229508   3.053   4.195   5.927
 9537SOL     OW29509   2.679   0.060   4.574
 9537SOL    HW129510   2.595   0.019   4.612
 9537SOL    HW229511   2.660   0.098   4.484
 9538SOL     OW29512   5.464   1.128   3.421
 9538SOL    HW129513   5.427   1.112   3.512
 9538SOL    HW229514   5.432   1.217   3.388
 9539SOL     OW29515   3.491   3.353   4.889
 9539SOL    HW129516   3.527   3.290   4.819
 9539SOL    HW229517   3.567   3.391   4.941
 9540SOL     OW29518   6.149   4.294   4.278
 9540SOL    HW129519   6.097   4.340   4.206
 9540SOL    HW229520   6.202   4.219   4.238
 9541SOL     OW29521   3.355   0.519   5.928
 9541SOL    HW129522   3.401   0.451   5.870
 9541SOL    HW229523   3.341   0.603   5.875
 9542SOL     OW29524   4.827   4.028   4.822
 9542SOL    HW129525   4.828   4.120   4.785
 9542SOL    HW229526   4.768   3.970   4.766
 9543SOL     OW29527   3.442   6.984   5.928
 9543SOL    HW129528   3.372   6.922   5.964
 9543SOL    HW229529   3.527   6.971   5.979
 9544SOL     OW29530   7.019   2.332   3.012
 9544SOL    HW129531   0.066   2.279   2.965
 9544SOL    HW229532   6.964   2.271   3.069
 9545SOL     OW29533   5.540   5.681   4.804
 9545SOL    HW129534   5.577   5.770   4.832
 9545SOL    HW229535   5.441   5.681   4.816
 9546SOL     OW29536   3.870   1.652   5.167
 9546SOL    HW129537   3.888   1.668   5.264
 9546SOL    HW229538   3.774   1.631   5.153
 9547SOL     OW29539   2.630   6.191   4.239
 9547SOL    HW129540   2.624   6.124   4.165
 9547SOL    HW229541   2.587   6.154   4.321
 9548SOL     OW29542   6.199   5.271   6.190
 9548SOL    HW129543   6.103   5.281   6.166
 9548SOL    HW229544   6.227   5.346   6.250
 9549SOL     OW29545   2.631   3.342   0.958
 9549SOL    HW129546   2.559   3.293   1.006
 9549SOL    HW229547   2.611   3.346   0.860
 9550SOL     OW29548   0.294   0.880   0.202
 9550SOL    HW129549   0.226   0.863   0.273
 9550SOL    HW229550   0.383   0.896   0.243
 9551SOL     OW29551   5.963   2.073   4.986
 9551SOL    HW129552   5.868   2.103   4.977
 9551SOL    HW229553   5.966   1.984   5.032
 9552SOL     OW29554   1.482   6.763   4.178
 9552SOL    HW129555   1.389   6.733   4.197
 9552SOL    HW229556   1.523   6.703   4.110
 9553SOL     OW29557   6.418   3.094   6.422
 9553SOL    HW129558   6.458   3.170   6.473
 9553SOL    HW229559   6.455   3.093   6.329
 9554SOL     OW29560   2.312   6.886   1.913
 9554SOL    HW129561   2.251   6.809   1.893
 9554SOL    HW229562   2.276   6.968   1.869
 9555SOL     OW29563   1.091   0.540   3.052
 9555SOL    HW129564   1.065   0.454   3.009
 9555SOL    HW229565   1.059   0.616   2.996
 9556SOL     OW29566   1.687   3.332   1.596
 9556SOL    HW129567   1.704   3.242   1.554
 9556SOL    HW229568   1.774   3.373   1.624
 9557SOL     OW29569   0.375   6.015   2.365
 9557SOL    HW129570   0.316   6.071   2.423
 9557SOL    HW229571   0.456   5.986   2.416
 9558SOL     OW29572   6.260   6.164   4.992
 9558SOL    HW129573   6.252   6.136   4.896
 9558SOL    HW229574   6.170   6.162   5.035
 9559SOL     OW29575   0.445   4.408   1.137
 9559SOL    HW129576   0.447   4.351   1.055
 9559SOL    HW229577   0.357   4.456   1.142
 9560SOL     OW29578   1.420   1.555   3.277
 9560SOL    HW129579   1.430   1.584   3.182
 9560SOL    HW229580   1.451   1.461   3.287
 9561SOL     OW29581   1.543   0.495   0.374
 9561SOL    HW129582   1.495   0.450   0.299
 9561SOL    HW229583   1.639   0.466   0.374
 9562SOL     OW29584   2.759   0.219   5.276
 9562SOL    HW129585   2.748   0.209   5.177
 9562SOL    HW229586   2.740   0.314   5.301
 9563SOL     OW29587   6.179   5.936   0.663
 9563SOL    HW129588   6.151   5.907   0.571
 9563SOL    HW229589   6.262   5.887   0.690
 9564SOL     OW29590   2.814   6.927   0.910
 9564SOL    HW129591   2.803   6.989   0.832
 9564SOL    HW229592   2.728   6.924   0.962
 9565SOL     OW29593   3.862   0.300   4.827
 9565SOL    HW129594   3.912   0.219   4.798
 9565SOL    HW229595   3.782   0.313   4.769
 9566SOL     OW29596   1.912   5.145   6.969
 9566SOL    HW129597   1.984   5.213   6.954
 9566SOL    HW229598   1.950   5.053   6.965
 9567SOL     OW29599   5.282   4.815   0.835
 9567SOL    HW129600   5.375   4.817   0.799
 9567SOL    HW229601   5.230   4.742   0.790
 9568SOL     OW29602   4.365   2.080   6.838
 9568SOL    HW129603   4.271   2.065   6.806
 9568SOL    HW229604   4.428   2.058   6.763
 9569SOL     OW29605   0.172   1.330   2.509
 9569SOL    HW129606   0.081   1.344   2.548
 9569SOL    HW229607   0.173   1.243   2.459
 9570SOL     OW29608   0.991   2.979   2.033
 9570SOL    HW129609   0.986   2.907   2.102
 9570SOL    HW229610   1.074   3.033   2.047
 9571SOL     OW29611   4.166   4.424   6.013
 9571SOL    HW129612   4.094   4.487   5.985
 9571SOL    HW229613   4.132   4.365   6.085
 9572SOL     OW29614   2.498   4.875   1.436
 9572SOL    HW129615   2.450   4.939   1.375
 9572SOL    HW229616   2.575   4.921   1.480
 9573SOL     OW29617   0.289   1.837   6.632
 9573SOL    HW129618   0.224   1.887   6.575
 9573SOL    HW229619   0.382   1.861   6.605
 9574SOL     OW29620   3.904   3.173   3.591
 9574SOL    HW129621   3.958   3.184   3.675
 9574SOL    HW229622   3.865   3.261   3.565
 9575SOL     OW29623   0.277   1.409   1.163
 9575SOL    HW129624   0.219   1.432   1.085
 9575SOL    HW229625   0.242   1.455   1.245
 9576SOL     OW29626   2.477   0.294   1.934
 9576SOL    HW129627   2.388   0.339   1.932
 9576SOL    HW229628   2.514   0.296   2.027
 9577SOL     OW29629   1.541   0.816   6.060
 9577SOL    HW129630   1.562   0.824   6.157
 9577SOL    HW229631   1.442   0.813   6.048
 9578SOL     OW29632   0.859   3.921   3.588
 9578SOL    HW129633   0.844   3.861   3.667
 9578SOL    HW229634   0.777   3.976   3.571
 9579SOL     OW29635   1.287   4.767   2.868
 9579SOL    HW129636   1.257   4.839   2.930
 9579SOL    HW229637   1.261   4.678   2.905
 9580SOL     OW29638   4.409   3.047   0.705
 9580SOL    HW129639   4.338   3.085   0.645
 9580SOL    HW229640   4.494   3.039   0.653
 9581SOL     OW29641   0.392   5.519   6.321
 9581SOL    HW129642   0.366   5.439   6.374
 9581SOL    HW229643   0.368   5.504   6.225
 9582SOL     OW29644   4.561   5.319   6.198
 9582SOL    HW129645   4.558   5.410   6.156
 9582SOL    HW229646   4.469   5.294   6.229
 9583SOL     OW29647   3.914   4.622   1.155
 9583SOL    HW129648   3.986   4.555   1.175
 9583SOL    HW229649   3.875   4.656   1.240
 9584SOL     OW29650   6.841   5.852   0.236
 9584SOL    HW129651   6.805   5.790   0.306
 9584SOL    HW229652   6.797   5.833   0.148
 9585SOL     OW29653   6.469   0.432   4.347
 9585SOL    HW129654   6.415   0.466   4.424
 9585SOL    HW229655   6.489   0.507   4.285
 9586SOL     OW29656   5.989   4.641   2.662
 9586SOL    HW129657   5.926   4.682   2.728
 9586SOL    HW229658   5.946   4.561   2.620
 9587SOL     OW29659   6.936   1.202   1.822
 9587SOL    HW129660   6.872   1.153   1.763
 9587SOL    HW229661   7.017   1.229   1.769
 9588SOL     OW29662   0.023   1.640   1.673
 9588SOL    HW129663   0.082   1.560   1.670
 9588SOL    HW229664   6.987   1.642   1.593
 9589SOL     OW29665   2.249   5.185   5.964
 9589SOL    HW129666   2.195   5.194   6.048
 9589SOL    HW229667   2.267   5.276   5.926
 9590SOL     OW29668   6.747   3.378   1.552
 9590SOL    HW129669   6.699   3.411   1.633
 9590SOL    HW229670   6.730   3.280   1.542
 9591SOL     OW29671   3.565   6.317   6.388
 9591SOL    HW129672   3.529   6.227   6.363
 9591SOL    HW229673   3.522   6.387   6.330
 9592SOL     OW29674   3.655   4.134   0.799
 9592SOL    HW129675   3.580   4.191   0.766
 9592SOL    HW229676   3.626   4.084   0.881
 9593SOL     OW29677   0.237   1.282   4.890
 9593SOL    HW129678   0.294   1.227   4.950
 9593SOL    HW229679   0.143   1.248   4.893
 9594SOL     OW29680   1.425   6.229   3.298
 9594SOL    HW129681   1.471   6.188   3.219
 9594SOL    HW229682   1.458   6.322   3.312
 9595SOL     OW29683   1.768   4.194   5.205
 9595SOL    HW129684   1.714   4.153   5.278
 9595SOL    HW229685   1.863   4.163   5.212
 9596SOL     OW29686   0.156   5.488   0.089
 9596SOL    HW129687   0.230   5.435   0.047
 9596SOL    HW229688   0.192   5.577   0.119
 9597SOL     OW29689   0.570   4.691   1.105
 9597SOL    HW129690   0.601   4.700   1.010
 9597SOL    HW229691   0.524   4.603   1.116
 9598SOL     OW29692   1.488   3.257   4.552
 9598SOL    HW129693   1.560   3.251   4.483
 9598SOL    HW229694   1.447   3.348   4.549
 9599SOL     OW29695   3.951   6.842   5.127
 9599SOL    HW129696   3.996   6.753   5.139
 9599SOL    HW229697   3.938   6.885   5.216
 9600SOL     OW29698   2.127   0.096   6.853
 9600SOL    HW129699   2.121   0.003   6.817
 9600SOL    HW229700   2.036   0.125   6.884
 9601SOL     OW29701   6.155   3.908   1.370
 9601SOL    HW129702   6.245   3.886   1.409
 9601SOL    HW229703   6.151   3.873   1.276
 9602SOL     OW29704   6.641   5.463   6.495
 9602SOL    HW129705   6.553   5.461   6.544
 9602SOL    HW229706   6.715   5.474   6.560
 9603SOL     OW29707   3.749   1.847   4.758
 9603SOL    HW129708   3.664   1.860   4.810
 9603SOL    HW229709   3.741   1.766   4.701
 9604SOL     OW29710   4.010   0.526   0.123
 9604SOL    HW129711   4.054   0.484   0.203
 9604SOL    HW229712   3.921   0.483   0.107
 9605SOL     OW29713   0.321   4.906   4.050
 9605SOL    HW129714   0.268   4.832   4.009
 9605SOL    HW229715   0.261   4.964   4.106
 9606SOL     OW29716   2.218   6.379   6.089
 9606SOL    HW129717   2.254   6.377   5.995
 9606SOL    HW229718   2.130   6.427   6.090
 9607SOL     OW29719   1.620   1.500   0.705
 9607SOL    HW129720   1.575   1.442   0.637
 9607SOL    HW229721   1.579   1.482   0.795
 9608SOL     OW29722   6.912   6.330   2.349
 9608SOL    HW129723   6.965   6.413   2.337
 9608SOL    HW229724   6.930   6.267   2.274
 9609SOL     OW29725   2.330   3.830   6.257
 9609SOL    HW129726   2.302   3.740   6.292
 9609SOL    HW229727   2.375   3.818   6.168
 9610SOL     OW29728   1.877   4.959   3.982
 9610SOL    HW129729   1.880   4.946   3.883
 9610SOL    HW229730   1.847   5.052   4.002
 9611SOL     OW29731   0.177   6.861   6.564
 9611SOL    HW129732   0.088   6.844   6.522
 9611SOL    HW229733   0.166   6.874   6.663
 9612SOL     OW29734   0.579   3.813   1.754
 9612SOL    HW129735   0.603   3.740   1.818
 9612SOL    HW229736   0.559   3.774   1.664
 9613SOL     OW29737   4.412   6.075   3.964
 9613SOL    HW129738   4.321   6.115   3.954
 9613SOL    HW229739   4.471   6.106   3.889
 9614SOL     OW29740   3.974   2.301   0.855
 9614SOL    HW129741   4.054   2.344   0.814
 9614SOL    HW229742   3.906   2.371   0.875
 9615SOL     OW29743   0.556   6.620   1.335
 9615SOL    HW129744   0.513   6.557   1.270
 9615SOL    HW229745   0.538   6.714   1.306
 9616SOL     OW29746   4.732   3.778   1.232
 9616SOL    HW129747   4.706   3.790   1.136
 9616SOL    HW229748   4.676   3.838   1.289
 9617SOL     OW29749   1.455   3.386   4.247
 9617SOL    HW129750   1.454   3.434   4.159
 9617SOL    HW229751   1.546   3.347   4.262
 9618SOL     OW29752   3.764   6.968   5.783
 9618SOL    HW129753   3.782   6.992   5.878
 9618SOL    HW229754   3.758   6.868   5.775
 9619SOL     OW29755   0.551   6.763   0.275
 9619SOL    HW129756   0.623   6.710   0.320
 9619SOL    HW229757   0.593   6.835   0.219
 9620SOL     OW29758   4.953   2.781   0.024
 9620SOL    HW129759   5.022   2.713   0.049
 9620SOL    HW229760   4.980   2.870   0.061
 9621SOL     OW29761   1.133   1.055   2.723
 9621SOL    HW129762   1.063   1.004   2.673
 9621SOL    HW229763   1.123   1.038   2.821
 9622SOL     OW29764   5.617   0.905   0.044
 9622SOL    HW129765   5.552   0.899   0.120
 9622SOL    HW229766   5.569   0.938   6.986
 9623SOL     OW29767   4.042   4.896   5.634
 9623SOL    HW129768   4.032   4.996   5.634
 9623SOL    HW229769   4.139   4.873   5.625
 9624SOL     OW29770   6.026   4.493   3.716
 9624SOL    HW129771   5.944   4.477   3.772
 9624SOL    HW229772   6.096   4.538   3.772
 9625SOL     OW29773   4.895   5.458   6.823
 9625SOL    HW129774   4.985   5.420   6.845
 9625SOL    HW229775   4.870   5.526   6.891
 9626SOL     OW29776   2.232   6.515   0.362
 9626SOL    HW129777   2.290   6.534   0.283
 9626SOL    HW229778   2.138   6.539   0.341
 9627SOL     OW29779   6.917   4.136   3.307
 9627SOL    HW129780   6.889   4.182   3.391
 9627SOL    HW229781   6.875   4.046   3.302
 9628SOL     OW29782   6.510   4.763   0.039
 9628SOL    HW129783   6.538   4.794   6.972
 9628SOL    HW229784   6.558   4.679   0.062
 9629SOL     OW29785   0.344   6.988   3.135
 9629SOL    HW129786   0.280   6.955   3.205
 9629SOL    HW229787   0.438   6.970   3.165
 9630SOL     OW29788   5.999   6.217   5.058
 9630SOL    HW129789   6.018   6.165   5.141
 9630SOL    HW229790   5.933   6.289   5.077
 9631SOL     OW29791   5.688   1.198   6.809
 9631SOL    HW129792   5.685   1.134   6.886
 9631SOL    HW229793   5.713   1.149   6.726
 9632SOL     OW29794   2.253   4.997   2.293
 9632SOL    HW129795   2.256   4.942   2.210
 9632SOL    HW229796   2.332   4.974   2.350
 9633SOL     OW29797   5.263   5.118   0.190
 9633SOL    HW129798   5.340   5.182   0.182
 9633SOL    HW229799   5.180   5.162   0.156
 9634SOL     OW29800   0.955   6.430   4.162
 9634SOL    HW129801   0.867   6.383   4.148
 9634SOL    HW229802   0.939   6.529   4.166
 9635SOL     OW29803   2.648   4.457   5.230
 9635SOL    HW129804   2.606   4.543   5.259
 9635SOL    HW229805   2.744   4.474   5.205
 9636SOL     OW29806   4.191   1.530   6.049
 9636SOL    HW129807   4.143   1.588   6.114
 9636SOL    HW229808   4.287   1.523   6.075
 9637SOL     OW29809   2.594   2.245   0.278
 9637SOL    HW129810   2.600   2.305   0.199
 9637SOL    HW229811   2.599   2.149   0.248
 9638SOL     OW29812   0.098   4.100   6.496
 9638SOL    HW129813   0.061   4.071   6.584
 9638SOL    HW229814   0.197   4.088   6.496
 9639SOL     OW29815   4.711   1.911   2.167
 9639SOL    HW129816   4.645   1.880   2.098
 9639SOL    HW229817   4.712   1.846   2.243
 9640SOL     OW29818   3.051   1.236   2.874
 9640SOL    HW129819   3.016   1.227   2.781
 9640SOL    HW229820   3.109   1.157   2.896
 9641SOL     OW29821   5.492   5.770   1.253
 9641SOL    HW129822   5.556   5.717   1.309
 9641SOL    HW229823   5.425   5.815   1.313
 9642SOL     OW29824   2.173   5.724   4.603
 9642SOL    HW129825   2.096   5.776   4.567
 9642SOL    HW229826   2.152   5.626   4.599
 9643SOL     OW29827   5.919   4.873   3.949
 9643SOL    HW129828   5.919   4.973   3.956
 9643SOL    HW229829   6.013   4.839   3.950
 9644SOL     OW29830   0.140   4.898   4.697
 9644SOL    HW129831   0.106   4.980   4.651
 9644SOL    HW229832   0.167   4.921   4.791
 9645SOL     OW29833   3.100   4.943   3.592
 9645SOL    HW129834   3.190   4.960   3.552
 9645SOL    HW229835   3.111   4.905   3.683
 9646SOL     OW29836   2.553   4.713   2.119
 9646SOL    HW129837   2.613   4.653   2.067
 9646SOL    HW229838   2.603   4.751   2.197
 9647SOL     OW29839   0.906   5.172   1.944
 9647SOL    HW129840   0.978   5.209   2.002
 9647SOL    HW229841   0.899   5.226   1.860
 9648SOL     OW29842   3.635   2.358   0.365
 9648SOL    HW129843   3.612   2.434   0.425
 9648SOL    HW229844   3.553   2.327   0.317
 9649SOL     OW29845   2.125   4.672   6.930
 9649SOL    HW129846   2.224   4.663   6.925
 9649SOL    HW229847   2.100   4.768   6.926
 9650SOL     OW29848   4.760   4.511   2.863
 9650SOL    HW129849   4.661   4.520   2.863
 9650SOL    HW229850   4.785   4.417   2.839
 9651SOL     OW29851   6.203   0.999   0.556
 9651SOL    HW129852   6.131   0.934   0.580
 9651SOL    HW229853   6.204   1.074   0.622
 9652SOL     OW29854   2.585   4.511   1.053
 9652SOL    HW129855   2.549   4.571   0.982
 9652SOL    HW229856   2.580   4.416   1.023
 9653SOL     OW29857   4.275   5.159   5.400
 9653SOL    HW129858   4.230   5.166   5.311
 9653SOL    HW229859   4.321   5.070   5.408
 9654SOL     OW29860   3.785   3.405   2.226
 9654SOL    HW129861   3.804   3.347   2.147
 9654SOL    HW229862   3.863   3.402   2.289
 9655SOL     OW29863   6.899   1.394   0.299
 9655SOL    HW129864   6.810   1.425   0.265
 9655SOL    HW229865   6.971   1.430   0.240
 9656SOL     OW29866   4.566   1.866   0.815
 9656SOL    HW129867   4.643   1.893   0.873
 9656SOL    HW229868   4.568   1.917   0.730
 9657SOL     OW29869   6.259   2.615   3.678
 9657SOL    HW129870   6.354   2.591   3.655
 9657SOL    HW229871   6.198   2.544   3.643
 9658SOL     OW29872   5.525   2.181   2.471
 9658SOL    HW129873   5.519   2.255   2.405
 9658SOL    HW229874   5.451   2.117   2.456
 9659SOL     OW29875   6.693   2.716   0.420
 9659SOL    HW129876   6.679   2.788   0.488
 9659SOL    HW229877   6.790   2.698   0.410
 9660SOL     OW29878   0.423   6.616   2.234
 9660SOL    HW129879   0.365   6.696   2.219
 9660SOL    HW229880   0.502   6.642   2.289
 9661SOL     OW29881   3.610   6.322   1.513
 9661SOL    HW129882   3.605   6.223   1.506
 9661SOL    HW229883   3.524   6.358   1.546
 9662SOL     OW29884   4.418   2.877   5.331
 9662SOL    HW129885   4.343   2.810   5.325
 9662SOL    HW229886   4.483   2.862   5.257
 9663SOL     OW29887   6.301   6.703   3.305
 9663SOL    HW129888   6.212   6.683   3.264
 9663SOL    HW229889   6.329   6.625   3.362
 9664SOL     OW29890   5.252   6.341   4.563
 9664SOL    HW129891   5.328   6.330   4.627
 9664SOL    HW229892   5.287   6.375   4.475
 9665SOL     OW29893   5.644   6.499   6.780
 9665SOL    HW129894   5.692   6.411   6.777
 9665SOL    HW229895   5.707   6.570   6.813
 9666SOL     OW29896   6.900   4.083   2.428
 9666SOL    HW129897   6.846   4.000   2.436
 9666SOL    HW229898   6.945   4.085   2.339
 9667SOL     OW29899   4.056   3.613   5.912
 9667SOL    HW129900   3.979   3.674   5.893
 9667SOL    HW229901   4.047   3.574   6.003
 9668SOL     OW29902   6.957   0.822   6.344
 9668SOL    HW129903   6.897   0.829   6.424
 9668SOL    HW229904   6.925   0.748   6.285
 9669SOL     OW29905   1.766   0.244   2.526
 9669SOL    HW129906   1.680   0.196   2.507
 9669SOL    HW229907   1.815   0.259   2.440
 9670SOL     OW29908   6.227   4.431   6.635
 9670SOL    HW129909   6.227   4.506   6.701
 9670SOL    HW229910   6.270   4.350   6.676
 9671SOL     OW29911   6.230   4.568   0.154
 9671SOL    HW129912   6.151   4.626   0.133
 9671SOL    HW229913   6.277   4.543   0.070
 9672SOL     OW29914   1.436   5.481   3.321
 9672SOL    HW129915   1.443   5.575   3.285
 9672SOL    HW229916   1.427   5.484   3.420
 9673SOL     OW29917   5.179   3.696   0.903
 9673SOL    HW129918   5.258   3.706   0.962
 9673SOL    HW229919   5.201   3.637   0.825
 9674SOL     OW29920   2.316   6.875   2.856
 9674SOL    HW129921   2.298   6.883   2.758
 9674SOL    HW229922   2.230   6.861   2.905
 9675SOL     OW29923   5.781   2.811   0.802
 9675SOL    HW129924   5.754   2.905   0.779
 9675SOL    HW229925   5.827   2.770   0.723
 9676SOL     OW29926   1.703   3.803   5.433
 9676SOL    HW129927   1.671   3.746   5.507
 9676SOL    HW229928   1.797   3.777   5.408
 9677SOL     OW29929   0.224   5.754   4.966
 9677SOL    HW129930   0.125   5.768   4.961
 9677SOL    HW229931   0.252   5.746   5.062
 9678SOL     OW29932   3.394   4.088   3.201
 9678SOL    HW129933   3.413   4.125   3.110
 9678SOL    HW229934   3.295   4.071   3.209
 9679SOL     OW29935   2.795   1.202   3.033
 9679SOL    HW129936   2.761   1.227   3.123
 9679SOL    HW229937   2.876   1.256   3.011
 9680SOL     OW29938   4.576   0.985   3.066
 9680SOL    HW129939   4.530   1.069   3.035
 9680SOL    HW229940   4.508   0.914   3.080
 9681SOL     OW29941   3.357   1.696   0.252
 9681SOL    HW129942   3.328   1.651   0.336
 9681SOL    HW229943   3.457   1.701   0.250
 9682SOL     OW29944   5.000   4.652   3.622
 9682SOL    HW129945   5.094   4.679   3.600
 9682SOL    HW229946   5.001   4.578   3.689
 9683SOL     OW29947   2.768   5.321   0.397
 9683SOL    HW129948   2.833   5.361   0.332
 9683SOL    HW229949   2.807   5.324   0.489
 9684SOL     OW29950   0.433   3.293   5.922
 9684SOL    HW129951   0.509   3.291   5.988
 9684SOL    HW229952   0.351   3.254   5.965
 9685SOL     OW29953   3.352   4.968   1.055
 9685SOL    HW129954   3.321   5.062   1.059
 9685SOL    HW229955   3.333   4.922   1.142
 9686SOL     OW29956   6.752   1.896   0.089
 9686SOL    HW129957   6.753   1.906   7.014
 9686SOL    HW229958   6.740   1.986   0.131
 9687SOL     OW29959   1.817   0.889   4.302
 9687SOL    HW129960   1.850   0.980   4.328
 9687SOL    HW229961   1.878   0.848   4.235
 9688SOL     OW29962   0.764   3.111   2.570
 9688SOL    HW129963   0.744   3.073   2.661
 9688SOL    HW229964   0.856   3.083   2.542
 9689SOL     OW29965   1.003   4.839   6.403
 9689SOL    HW129966   1.088   4.816   6.450
 9689SOL    HW229967   0.956   4.755   6.376
 9690SOL     OW29968   5.547   5.081   6.944
 9690SOL    HW129969   5.618   5.146   6.917
 9690SOL    HW229970   5.466   5.093   6.886
 9691SOL     OW29971   2.845   5.325   0.656
 9691SOL    HW129972   2.752   5.296   0.679
 9691SOL    HW229973   2.907   5.303   0.732
 9692SOL     OW29974   3.771   5.338   2.830
 9692SOL    HW129975   3.792   5.269   2.760
 9692SOL    HW229976   3.677   5.370   2.817
 9693SOL     OW29977   6.141   4.962   2.089
 9693SOL    HW129978   6.105   5.024   2.019
 9693SOL    HW229979   6.067   4.903   2.122
 9694SOL     OW29980   2.532   0.734   0.756
 9694SOL    HW129981   2.554   0.791   0.835
 9694SOL    HW229982   2.555   0.782   0.672
 9695SOL     OW29983   6.984   3.232   2.627
 9695SOL    HW129984   6.933   3.276   2.701
 9695SOL    HW229985   0.017   3.300   2.581
 9696SOL     OW29986   5.454   3.749   1.027
 9696SOL    HW129987   5.491   3.842   1.029
 9696SOL    HW229988   5.484   3.699   1.107
 9697SOL     OW29989   0.376   5.373   6.996
 9697SOL    HW129990   0.448   5.305   7.009
 9697SOL    HW229991   0.329   5.355   6.909
 9698SOL     OW29992   4.462   1.450   5.762
 9698SOL    HW129993   4.520   1.437   5.843
 9698SOL    HW229994   4.513   1.502   5.693
 9699SOL     OW29995   6.876   4.959   6.844
 9699SOL    HW129996   6.928   5.044   6.836
 9699SOL    HW229997   6.872   4.913   6.755
 9700SOL     OW29998   4.581   5.503   5.059
 9700SOL    HW129999   4.588   5.537   4.965
 9700SOL    HW230000   4.594   5.404   5.060
 9701SOL     OW30001   4.491   4.950   5.708
 9701SOL    HW130002   4.585   4.921   5.729
 9701SOL    HW230003   4.493   5.027   5.646
 9702SOL     OW30004   4.589   0.581   6.773
 9702SOL    HW130005   4.669   0.629   6.739
 9702SOL    HW230006   4.556   0.625   6.856
 9703SOL     OW30007   4.609   4.313   3.231
 9703SOL    HW130008   4.681   4.372   3.193
 9703SOL    HW230009   4.634   4.217   3.218
 9704SOL     OW30010   3.474   1.068   2.804
 9704SOL    HW130011   3.499   1.113   2.718
 9704SOL    HW230012   3.435   1.136   2.866
 9705SOL     OW30013   5.980   4.843   5.976
 9705SOL    HW130014   6.039   4.863   6.054
 9705SOL    HW230015   5.920   4.766   5.997
 9706SOL     OW30016   1.283   3.509   0.462
 9706SOL    HW130017   1.292   3.593   0.409
 9706SOL    HW230018   1.224   3.445   0.412
 9707SOL     OW30019   6.844   5.122   2.706
 9707SOL    HW130020   6.816   5.210   2.742
 9707SOL    HW230021   6.942   5.123   2.687
 9708SOL     OW30022   1.119   2.017   2.767
 9708SOL    HW130023   1.048   1.990   2.702
 9708SOL    HW230024   1.087   2.004   2.860
 9709SOL     OW30025   5.987   6.100   3.517
 9709SOL    HW130026   5.972   6.017   3.571
 9709SOL    HW230027   5.937   6.176   3.559
 9710SOL     OW30028   6.776   1.130   1.631
 9710SOL    HW130029   6.806   1.168   1.544
 9710SOL    HW230030   6.828   1.047   1.651
 9711SOL     OW30031   2.507   5.584   5.895
 9711SOL    HW130032   2.422   5.637   5.899
 9711SOL    HW230033   2.490   5.496   5.852
 9712SOL     OW30034   5.784   3.740   6.878
 9712SOL    HW130035   5.760   3.646   6.855
 9712SOL    HW230036   5.873   3.762   6.838
 9713SOL     OW30037   0.911   4.406   3.547
 9713SOL    HW130038   0.872   4.363   3.466
 9713SOL    HW230039   1.010   4.394   3.547
 9714SOL     OW30040   3.687   6.613   6.730
 9714SOL    HW130041   3.678   6.688   6.796
 9714SOL    HW230042   3.601   6.562   6.726
 9715SOL     OW30043   5.615   3.675   6.133
 9715SOL    HW130044   5.559   3.603   6.093
 9715SOL    HW230045   5.600   3.761   6.084
 9716SOL     OW30046   3.995   4.011   6.853
 9716SOL    HW130047   3.901   4.003   6.884
 9716SOL    HW230048   3.998   4.003   6.753
 9717SOL     OW30049   5.595   6.696   6.291
 9717SOL    HW130050   5.598   6.783   6.340
 9717SOL    HW230051   5.616   6.712   6.194
 9718SOL     OW30052   4.749   2.667   0.541
 9718SOL    HW130053   4.728   2.741   0.477
 9718SOL    HW230054   4.664   2.632   0.580
 9719SOL     OW30055   6.465   1.722   5.459
 9719SOL    HW130056   6.555   1.711   5.503
 9719SOL    HW230057   6.396   1.676   5.514
 9720SOL     OW30058   0.276   5.250   2.458
 9720SOL    HW130059   0.240   5.328   2.407
 9720SOL    HW230060   0.364   5.275   2.499
 9721SOL     OW30061   6.940   1.805   0.918
 9721SOL    HW130062   0.001   1.767   0.883
 9721SOL    HW230063   6.960   1.877   0.984
 9722SOL     OW30064   6.240   0.940   4.227
 9722SOL    HW130065   6.304   0.935   4.151
 9722SOL    HW230066   6.283   0.904   4.310
 9723SOL     OW30067   2.244   6.869   2.596
 9723SOL    HW130068   2.305   6.790   2.601
 9723SOL    HW230069   2.208   6.878   2.503
 9724SOL     OW30070   1.648   4.508   0.363
 9724SOL    HW130071   1.708   4.588   0.375
 9724SOL    HW230072   1.552   4.538   0.367
 9725SOL     OW30073   3.996   4.899   6.195
 9725SOL    HW130074   3.973   4.962   6.270
 9725SOL    HW230075   3.923   4.901   6.127
 9726SOL     OW30076   5.098   1.091   4.308
 9726SOL    HW130077   5.004   1.055   4.307
 9726SOL    HW230078   5.099   1.178   4.358
 9727SOL     OW30079   1.139   3.813   5.995
 9727SOL    HW130080   1.173   3.866   6.073
 9727SOL    HW230081   1.196   3.731   5.983
 9728SOL     OW30082   0.232   0.784   5.680
 9728SOL    HW130083   0.262   0.795   5.774
 9728SOL    HW230084   0.307   0.748   5.624
 9729SOL     OW30085   0.861   3.787   4.140
 9729SOL    HW130086   0.781   3.832   4.181
 9729SOL    HW230087   0.899   3.845   4.068
 9730SOL     OW30088   1.005   3.480   3.832
 9730SOL    HW130089   1.070   3.513   3.901
 9730SOL    HW230090   0.997   3.380   3.838
 9731SOL     OW30091   4.735   4.427   1.180
 9731SOL    HW130092   4.765   4.491   1.251
 9731SOL    HW230093   4.640   4.401   1.196
 9732SOL     OW30094   6.627   5.959   3.195
 9732SOL    HW130095   6.678   5.910   3.126
 9732SOL    HW230096   6.646   5.920   3.285
 9733SOL     OW30097   5.814   4.863   0.734
 9733SOL    HW130098   5.826   4.892   0.639
 9733SOL    HW230099   5.833   4.939   0.795
 9734SOL     OW30100   6.656   1.776   1.848
 9734SOL    HW130101   6.639   1.835   1.927
 9734SOL    HW230102   6.743   1.729   1.859
 9735SOL     OW30103   2.491   4.519   3.910
 9735SOL    HW130104   2.488   4.489   3.815
 9735SOL    HW230105   2.573   4.574   3.925
 9736SOL     OW30106   6.468   1.370   6.409
 9736SOL    HW130107   6.375   1.347   6.436
 9736SOL    HW230108   6.488   1.465   6.433
 9737SOL     OW30109   5.416   2.488   3.741
 9737SOL    HW130110   5.426   2.498   3.642
 9737SOL    HW230111   5.355   2.412   3.761
 9738SOL     OW30112   1.279   0.178   1.187
 9738SOL    HW130113   1.318   0.245   1.123
 9738SOL    HW230114   1.180   0.172   1.172
 9739SOL     OW30115   5.841   4.889   2.126
 9739SOL    HW130116   5.826   4.841   2.213
 9739SOL    HW230117   5.860   4.823   2.054
 9740SOL     OW30118   6.445   1.353   2.959
 9740SOL    HW130119   6.491   1.330   2.873
 9740SOL    HW230120   6.382   1.429   2.944
 9741SOL     OW30121   3.799   1.146   2.947
 9741SOL    HW130122   3.780   1.138   2.849
 9741SOL    HW230123   3.714   1.130   2.998
 9742SOL     OW30124   4.261   0.054   0.595
 9742SOL    HW130125   4.176   0.077   0.641
 9742SOL    HW230126   4.266   6.979   0.581
 9743SOL     OW30127   0.073   1.909   5.385
 9743SOL    HW130128   0.032   1.995   5.413
 9743SOL    HW230129   0.025   1.833   5.429
 9744SOL     OW30130   1.021   6.896   2.567
 9744SOL    HW130131   1.057   6.913   2.475
 9744SOL    HW230132   0.927   6.930   2.572
 9745SOL     OW30133   5.488   3.259   5.649
 9745SOL    HW130134   5.534   3.173   5.623
 9745SOL    HW230135   5.542   3.305   5.719
 9746SOL     OW30136   6.558   0.490   5.546
 9746SOL    HW130137   6.565   0.565   5.481
 9746SOL    HW230138   6.617   0.415   5.518
 9747SOL     OW30139   2.082   1.164   1.357
 9747SOL    HW130140   2.072   1.096   1.430
 9747SOL    HW230141   2.125   1.122   1.277
 9748SOL     OW30142   0.232   1.480   3.178
 9748SOL    HW130143   0.144   1.516   3.209
 9748SOL    HW230144   0.306   1.532   3.220
 9749SOL     OW30145   2.484   1.202   5.027
 9749SOL    HW130146   2.534   1.288   5.032
 9749SOL    HW230147   2.441   1.182   5.115
 9750SOL     OW30148   5.414   4.507   3.549
 9750SOL    HW130149   5.403   4.419   3.503
 9750SOL    HW230150   5.512   4.528   3.556
 9751SOL     OW30151   1.023   0.787   1.146
 9751SOL    HW130152   1.045   0.734   1.064
 9751SOL    HW230153   1.017   0.884   1.123
 9752SOL     OW30154   4.585   1.734   5.280
 9752SOL    HW130155   4.562   1.650   5.230
 9752SOL    HW230156   4.671   1.771   5.244
 9753SOL     OW30157   5.725   5.878   5.577
 9753SOL    HW130158   5.668   5.916   5.504
 9753SOL    HW230159   5.808   5.932   5.585
 9754SOL     OW30160   0.725   1.275   6.086
 9754SOL    HW130161   0.705   1.369   6.112
 9754SOL    HW230162   0.800   1.240   6.141
 9755SOL     OW30163   3.920   3.029   4.550
 9755SOL    HW130164   3.966   3.065   4.469
 9755SOL    HW230165   3.829   2.995   4.524
 9756SOL     OW30166   6.600   3.666   0.575
 9756SOL    HW130167   6.668   3.726   0.618
 9756SOL    HW230168   6.522   3.653   0.636
 9757SOL     OW30169   5.674   3.643   3.955
 9757SOL    HW130170   5.604   3.702   3.916
 9757SOL    HW230171   5.641   3.604   4.041
 9758SOL     OW30172   2.018   6.443   0.036
 9758SOL    HW130173   1.923   6.461   0.010
 9758SOL    HW230174   2.046   6.354   7.024
 9759SOL     OW30175   1.578   7.022   6.628
 9759SOL    HW130176   1.586   6.929   6.591
 9759SOL    HW230177   1.668   0.029   6.659
 9760SOL     OW30178   4.466   2.399   5.033
 9760SOL    HW130179   4.507   2.458   5.103
 9760SOL    HW230180   4.367   2.417   5.029
 9761SOL     OW30181   5.625   1.540   2.987
 9761SOL    HW130182   5.547   1.499   2.939
 9761SOL    HW230183   5.709   1.520   2.937
 9762SOL     OW30184   3.475   1.284   4.314
 9762SOL    HW130185   3.491   1.379   4.288
 9762SOL    HW230186   3.468   1.278   4.413
 9763SOL     OW30187   5.316   1.835   1.823
 9763SOL    HW130188   5.216   1.839   1.830
 9763SOL    HW230189   5.341   1.813   1.728
 9764SOL     OW30190   0.180   2.603   2.671
 9764SOL    HW130191   0.217   2.653   2.593
 9764SOL    HW230192   0.186   2.504   2.654
 9765SOL     OW30193   6.667   1.502   3.311
 9765SOL    HW130194   6.619   1.504   3.398
 9765SOL    HW230195   6.634   1.426   3.255
 9766SOL     OW30196   2.598   0.128   3.210
 9766SOL    HW130197   2.559   0.052   3.158
 9766SOL    HW230198   2.525   0.179   3.256
 9767SOL     OW30199   4.972   1.136   5.298
 9767SOL    HW130200   4.882   1.093   5.296
 9767SOL    HW230201   5.042   1.068   5.277
 9768SOL     OW30202   5.357   2.012   2.691
 9768SOL    HW130203   5.284   2.078   2.708
 9768SOL    HW230204   5.323   1.941   2.628
 9769SOL     OW30205   3.225   1.118   3.032
 9769SOL    HW130206   3.314   1.162   3.044
 9769SOL    HW230207   3.160   1.153   3.099
 9770SOL     OW30208   5.624   6.967   6.870
 9770SOL    HW130209   5.566   0.003   6.926
 9770SOL    HW230210   5.704   7.018   6.838
 9771SOL     OW30211   2.934   5.565   0.560
 9771SOL    HW130212   2.897   5.476   0.586
 9771SOL    HW230213   2.878   5.605   0.488
 9772SOL     OW30214   1.363   6.233   2.760
 9772SOL    HW130215   1.348   6.281   2.846
 9772SOL    HW230216   1.410   6.146   2.777
 9773SOL     OW30217   5.800   5.670   4.350
 9773SOL    HW130218   5.876   5.725   4.383
 9773SOL    HW230219   5.750   5.632   4.428
 9774SOL     OW30220   0.499   4.900   2.227
 9774SOL    HW130221   0.579   4.841   2.228
 9774SOL    HW230222   0.454   4.893   2.138
 9775SOL     OW30223   2.142   0.741   3.288
 9775SOL    HW130224   2.233   0.730   3.327
 9775SOL    HW230225   2.148   0.742   3.188
 9776SOL     OW30226   1.064   4.680   4.326
 9776SOL    HW130227   1.055   4.754   4.259
 9776SOL    HW230228   1.075   4.593   4.278
 9777SOL     OW30229   5.990   5.173   5.962
 9777SOL    HW130230   6.071   5.150   5.908
 9777SOL    HW230231   5.915   5.112   5.935
 9778SOL     OW30232   0.387   0.854   3.663
 9778SOL    HW130233   0.315   0.846   3.594
 9778SOL    HW230234   0.406   0.764   3.702
 9779SOL     OW30235   1.950   1.468   5.196
 9779SOL    HW130236   2.027   1.527   5.217
 9779SOL    HW230237   1.885   1.471   5.272
 9780SOL     OW30238   2.909   1.971   1.443
 9780SOL    HW130239   2.946   1.883   1.475
 9780SOL    HW230240   2.824   1.991   1.493
 9781SOL     OW30241   1.657   3.987   4.444
 9781SOL    HW130242   1.692   3.912   4.388
 9781SOL    HW230243   1.570   3.960   4.486
 9782SOL     OW30244   6.357   0.987   1.256
 9782SOL    HW130245   6.297   0.943   1.322
 9782SOL    HW230246   6.358   1.086   1.271
 9783SOL     OW30247   4.679   2.002   3.319
 9783SOL    HW130248   4.647   1.991   3.413
 9783SOL    HW230249   4.608   1.972   3.256
 9784SOL     OW30250   4.097   1.507   4.483
 9784SOL    HW130251   4.014   1.530   4.433
 9784SOL    HW230252   4.099   1.408   4.499
 9785SOL     OW30253   1.005   3.441   6.248
 9785SOL    HW130254   1.091   3.399   6.218
 9785SOL    HW230255   0.935   3.427   6.178
 9786SOL     OW30256   2.553   4.099   0.003
 9786SOL    HW130257   2.486   4.131   6.961
 9786SOL    HW230258   2.637   4.072   6.980
 9787SOL     OW30259   4.834   3.727   1.865
 9787SOL    HW130260   4.844   3.756   1.961
 9787SOL    HW230261   4.887   3.789   1.807
 9788SOL     OW30262   0.416   0.355   3.711
 9788SOL    HW130263   0.336   0.308   3.674
 9788SOL    HW230264   0.492   0.290   3.721
 9789SOL     OW30265   1.486   5.476   0.944
 9789SOL    HW130266   1.510   5.395   0.891
 9789SOL    HW230267   1.388   5.494   0.937
 9790SOL     OW30268   5.846   4.461   6.110
 9790SOL    HW130269   5.818   4.383   6.165
 9790SOL    HW230270   5.897   4.526   6.166
 9791SOL     OW30271   0.444   0.573   3.220
 9791SOL    HW130272   0.530   0.532   3.190
 9791SOL    HW230273   0.430   0.553   3.317
 9792SOL     OW30274   5.124   5.395   1.409
 9792SOL    HW130275   5.153   5.448   1.330
 9792SOL    HW230276   5.054   5.329   1.382
 9793SOL     OW30277   4.854   5.734   3.591
 9793SOL    HW130278   4.891   5.672   3.522
 9793SOL    HW230279   4.907   5.819   3.591
 9794SOL     OW30280   6.805   4.135   0.973
 9794SOL    HW130281   6.788   4.082   1.057
 9794SOL    HW230282   6.723   4.134   0.916
 9795SOL     OW30283   2.459   1.878   4.380
 9795SOL    HW130284   2.444   1.864   4.478
 9795SOL    HW230285   2.554   1.906   4.366
 9796SOL     OW30286   4.369   2.269   1.218
 9796SOL    HW130287   4.364   2.349   1.277
 9796SOL    HW230288   4.277   2.242   1.191
 9797SOL     OW30289   2.438   5.153   6.582
 9797SOL    HW130290   2.508   5.110   6.525
 9797SOL    HW230291   2.457   5.133   6.679
 9798SOL     OW30292   2.604   0.450   1.423
 9798SOL    HW130293   2.623   0.424   1.518
 9798SOL    HW230294   2.662   0.395   1.362
 9799SOL     OW30295   3.616   4.148   3.762
 9799SOL    HW130296   3.635   4.192   3.674
 9799SOL    HW230297   3.522   4.167   3.789
 9800SOL     OW30298   3.738   6.546   4.564
 9800SOL    HW130299   3.812   6.525   4.628
 9800SOL    HW230300   3.776   6.568   4.474
 9801SOL     OW30301   4.669   3.410   0.587
 9801SOL    HW130302   4.597   3.389   0.520
 9801SOL    HW230303   4.702   3.325   0.628
 9802SOL     OW30304   1.023   3.039   1.637
 9802SOL    HW130305   1.076   3.093   1.702
 9802SOL    HW230306   0.988   2.957   1.683
 9803SOL     OW30307   0.390   2.485   6.509
 9803SOL    HW130308   0.305   2.461   6.461
 9803SOL    HW230309   0.368   2.545   6.586
 9804SOL     OW30310   0.877   6.875   3.083
 9804SOL    HW130311   0.930   6.848   3.164
 9804SOL    HW230312   0.845   6.793   3.036
 9805SOL     OW30313   0.856   0.442   5.216
 9805SOL    HW130314   0.779   0.485   5.264
 9805SOL    HW230315   0.932   0.507   5.210
 9806SOL     OW30316   1.594   1.103   0.710
 9806SOL    HW130317   1.606   1.083   0.807
 9806SOL    HW230318   1.681   1.134   0.671
 9807SOL     OW30319   2.290   3.118   0.159
 9807SOL    HW130320   2.274   3.057   0.237
 9807SOL    HW230321   2.327   3.066   0.082
 9808SOL     OW30322   4.407   0.385   5.563
 9808SOL    HW130323   4.469   0.402   5.640
 9808SOL    HW230324   4.396   0.287   5.551
 9809SOL     OW30325   0.748   2.146   6.835
 9809SOL    HW130326   0.834   2.095   6.835
 9809SOL    HW230327   0.763   2.236   6.876
 9810SOL     OW30328   2.320   2.806   3.623
 9810SOL    HW130329   2.292   2.885   3.678
 9810SOL    HW230330   2.375   2.744   3.679
 9811SOL     OW30331   5.692   5.118   3.970
 9811SOL    HW130332   5.773   5.066   3.998
 9811SOL    HW230333   5.628   5.123   4.047
 9812SOL     OW30334   3.487   1.924   5.853
 9812SOL    HW130335   3.543   1.897   5.931
 9812SOL    HW230336   3.491   2.024   5.842
 9813SOL     OW30337   5.880   0.768   6.648
 9813SOL    HW130338   5.848   0.706   6.720
 9813SOL    HW230339   5.975   0.792   6.666
 9814SOL     OW30340   0.648   0.497   0.464
 9814SOL    HW130341   0.740   0.461   0.482
 9814SOL    HW230342   0.588   0.477   0.542
 9815SOL     OW30343   5.844   4.153   3.132
 9815SOL    HW130344   5.767   4.127   3.190
 9815SOL    HW230345   5.919   4.088   3.145
 9816SOL     OW30346   6.890   1.473   6.207
 9816SOL    HW130347   6.825   1.400   6.225
 9816SOL    HW230348   6.861   1.557   6.253
 9817SOL     OW30349   2.561   6.210   2.503
 9817SOL    HW130350   2.582   6.308   2.506
 9817SOL    HW230351   2.645   6.158   2.485
 9818SOL     OW30352   1.609   0.694   4.863
 9818SOL    HW130353   1.584   0.673   4.957
 9818SOL    HW230354   1.668   0.775   4.861
 9819SOL     OW30355   5.149   3.079   3.713
 9819SOL    HW130356   5.215   3.010   3.741
 9819SOL    HW230357   5.175   3.168   3.751
 9820SOL     OW30358   4.445   3.343   6.209
 9820SOL    HW130359   4.349   3.324   6.231
 9820SOL    HW230360   4.460   3.329   6.111
 9821SOL     OW30361   5.216   0.508   1.086
 9821SOL    HW130362   5.255   0.568   1.016
 9821SOL    HW230363   5.126   0.476   1.056
 9822SOL     OW30364   2.700   5.946   3.452
 9822SOL    HW130365   2.740   5.966   3.542
 9822SOL    HW230366   2.647   6.025   3.421
 9823SOL     OW30367   2.613   0.413   1.711
 9823SOL    HW130368   2.580   0.348   1.779
 9823SOL    HW230369   2.639   0.499   1.756
 9824SOL     OW30370   1.730   5.666   4.262
 9824SOL    HW130371   1.819   5.711   4.253
 9824SOL    HW230372   1.683   5.668   4.174
 9825SOL     OW30373   5.416   6.508   4.046
 9825SOL    HW130374   5.449   6.590   3.999
 9825SOL    HW230375   5.491   6.444   4.059
 9826SOL     OW30376   3.900   6.154   5.164
 9826SOL    HW130377   3.819   6.124   5.215
 9826SOL    HW230378   3.963   6.077   5.154
 9827SOL     OW30379   1.818   3.397   3.552
 9827SOL    HW130380   1.780   3.362   3.467
 9827SOL    HW230381   1.918   3.389   3.549
 9828SOL     OW30382   3.130   2.596   5.360
 9828SOL    HW130383   3.147   2.521   5.296
 9828SOL    HW230384   3.172   2.576   5.448
 9829SOL     OW30385   4.690   5.911   6.354
 9829SOL    HW130386   4.725   5.819   6.376
 9829SOL    HW230387   4.601   5.902   6.308
 9830SOL     OW30388   5.454   1.497   1.961
 9830SOL    HW130389   5.355   1.498   1.949
 9830SOL    HW230390   5.496   1.564   1.899
 9831SOL     OW30391   1.172   5.014   2.941
 9831SOL    HW130392   1.081   5.022   2.900
 9831SOL    HW230393   1.164   5.009   3.040
 9832SOL     OW30394   5.276   5.517   2.563
 9832SOL    HW130395   5.301   5.612   2.544
 9832SOL    HW230396   5.242   5.474   2.479
 9833SOL     OW30397   3.666   3.875   3.705
 9833SOL    HW130398   3.587   3.935   3.697
 9833SOL    HW230399   3.750   3.928   3.693
 9834SOL     OW30400   2.331   4.799   5.039
 9834SOL    HW130401   2.360   4.855   5.117
 9834SOL    HW230402   2.394   4.722   5.029
 9835SOL     OW30403   3.643   3.274   4.188
 9835SOL    HW130404   3.643   3.308   4.282
 9835SOL    HW230405   3.704   3.195   4.182
 9836SOL     OW30406   0.266   3.893   3.980
 9836SOL    HW130407   0.359   3.909   3.947
 9836SOL    HW230408   0.248   3.795   3.981
 9837SOL     OW30409   4.565   0.828   2.781
 9837SOL    HW130410   4.654   0.871   2.796
 9837SOL    HW230411   4.545   0.768   2.858
 9838SOL     OW30412   1.740   7.009   0.046
 9838SOL    HW130413   1.747   6.950   0.127
 9838SOL    HW230414   1.775   6.960   6.990
 9839SOL     OW30415   4.724   6.544   3.506
 9839SOL    HW130416   4.824   6.549   3.512
 9839SOL    HW230417   4.684   6.581   3.589
 9840SOL     OW30418   5.499   2.138   0.689
 9840SOL    HW130419   5.432   2.129   0.762
 9840SOL    HW230420   5.548   2.051   0.679
 9841SOL     OW30421   1.078   4.441   4.497
 9841SOL    HW130422   1.104   4.382   4.421
 9841SOL    HW230423   1.013   4.510   4.464
 9842SOL     OW30424   3.641   3.507   1.264
 9842SOL    HW130425   3.740   3.520   1.274
 9842SOL    HW230426   3.623   3.447   1.187
 9843SOL     OW30427   6.361   0.099   2.185
 9843SOL    HW130428   6.397   0.066   2.272
 9843SOL    HW230429   6.435   0.104   2.118
 9844SOL     OW30430   5.950   1.321   3.413
 9844SOL    HW130431   6.016   1.396   3.422
 9844SOL    HW230432   5.914   1.320   3.320
 9845SOL     OW30433   1.379   1.836   3.841
 9845SOL    HW130434   1.325   1.816   3.923
 9845SOL    HW230435   1.441   1.760   3.823
 9846SOL     OW30436   3.899   2.274   1.329
 9846SOL    HW130437   3.803   2.249   1.341
 9846SOL    HW230438   3.942   2.285   1.419
 9847SOL     OW30439   3.890   3.187   2.562
 9847SOL    HW130440   3.953   3.206   2.638
 9847SOL    HW230441   3.882   3.088   2.549
 9848SOL     OW30442   4.651   4.580   5.809
 9848SOL    HW130443   4.663   4.600   5.906
 9848SOL    HW230444   4.555   4.558   5.791
 9849SOL     OW30445   0.961   0.186   6.563
 9849SOL    HW130446   0.967   0.259   6.495
 9849SOL    HW230447   1.048   0.136   6.565
 9850SOL     OW30448   6.616   0.750   3.847
 9850SOL    HW130449   6.608   0.672   3.785
 9850SOL    HW230450   6.586   0.723   3.939
 9851SOL     OW30451   1.761   0.195   4.290
 9851SOL    HW130452   1.765   0.289   4.256
 9851SOL    HW230453   1.692   0.143   4.240
 9852SOL     OW30454   2.261   1.717   4.969
 9852SOL    HW130455   2.345   1.667   4.948
 9852SOL    HW230456   2.192   1.697   4.899
 9853SOL     OW30457   6.301   3.414   5.286
 9853SOL    HW130458   6.335   3.347   5.219
 9853SOL    HW230459   6.347   3.399   5.373
 9854SOL     OW30460   0.346   5.922   4.140
 9854SOL    HW130461   0.295   5.922   4.053
 9854SOL    HW230462   0.330   6.009   4.187
 9855SOL     OW30463   2.416   3.182   1.048
 9855SOL    HW130464   2.323   3.201   1.018
 9855SOL    HW230465   2.440   3.087   1.026
 9856SOL     OW30466   4.959   4.430   3.838
 9856SOL    HW130467   5.007   4.343   3.839
 9856SOL    HW230468   4.878   4.425   3.897
 9857SOL     OW30469   4.985   2.502   3.092
 9857SOL    HW130470   4.961   2.525   3.187
 9857SOL    HW230471   5.071   2.546   3.068
 9858SOL     OW30472   0.268   6.798   1.412
 9858SOL    HW130473   0.244   6.887   1.374
 9858SOL    HW230474   0.337   6.809   1.483
 9859SOL     OW30475   6.850   5.352   3.707
 9859SOL    HW130476   6.871   5.407   3.626
 9859SOL    HW230477   6.823   5.412   3.782
 9860SOL     OW30478   2.399   2.188   5.006
 9860SOL    HW130479   2.372   2.274   5.048
 9860SOL    HW230480   2.333   2.164   4.935
 9861SOL     OW30481   2.650   0.460   3.386
 9861SOL    HW130482   2.688   0.374   3.421
 9861SOL    HW230483   2.601   0.507   3.460
 9862SOL     OW30484   2.397   3.714   6.889
 9862SOL    HW130485   2.372   3.773   6.966
 9862SOL    HW230486   2.422   3.771   6.810
 9863SOL     OW30487   3.015   6.031   1.384
 9863SOL    HW130488   3.023   6.070   1.476
 9863SOL    HW230489   3.088   6.067   1.326
 9864SOL     OW30490   3.409   0.822   4.440
 9864SOL    HW130491   3.312   0.840   4.423
 9864SOL    HW230492   3.428   0.724   4.428
 9865SOL     OW30493   1.453   6.423   4.346
 9865SOL    HW130494   1.550   6.405   4.362
 9865SOL    HW230495   1.433   6.518   4.366
 9866SOL     OW30496   6.149   4.581   5.764
 9866SOL    HW130497   6.137   4.531   5.850
 9866SOL    HW230498   6.244   4.575   5.735
 9867SOL     OW30499   6.718   1.678   2.260
 9867SOL    HW130500   6.815   1.683   2.237
 9867SOL    HW230501   6.684   1.586   2.242
 9868SOL     OW30502   0.529   3.350   4.634
 9868SOL    HW130503   0.601   3.298   4.590
 9868SOL    HW230504   0.447   3.293   4.643
 9869SOL     OW30505   0.251   2.196   1.312
 9869SOL    HW130506   0.260   2.291   1.340
 9869SOL    HW230507   0.172   2.154   1.357
 9870SOL     OW30508   4.279   5.743   2.593
 9870SOL    HW130509   4.204   5.716   2.533
 9870SOL    HW230510   4.355   5.680   2.581
 9871SOL     OW30511   6.532   4.224   5.730
 9871SOL    HW130512   6.581   4.266   5.653
 9871SOL    HW230513   6.550   4.277   5.813
 9872SOL     OW30514   3.544   5.220   4.381
 9872SOL    HW130515   3.514   5.267   4.298
 9872SOL    HW230516   3.567   5.287   4.451
 9873SOL     OW30517   2.122   2.781   0.654
 9873SOL    HW130518   2.056   2.747   0.722
 9873SOL    HW230519   2.203   2.724   0.656
 9874SOL     OW30520   0.252   2.916   5.463
 9874SOL    HW130521   0.182   2.986   5.450
 9874SOL    HW230522   0.215   2.827   5.436
 9875SOL     OW30523   6.356   6.194   2.890
 9875SOL    HW130524   6.381   6.287   2.868
 9875SOL    HW230525   6.260   6.191   2.918
 9876SOL     OW30526   5.273   0.328   3.903
 9876SOL    HW130527   5.304   0.421   3.923
 9876SOL    HW230528   5.345   0.263   3.928
 9877SOL     OW30529   7.022   4.650   4.225
 9877SOL    HW130530   0.016   4.715   4.298
 9877SOL    HW230531   6.940   4.597   4.246
 9878SOL     OW30532   2.805   3.493   5.854
 9878SOL    HW130533   2.738   3.534   5.793
 9878SOL    HW230534   2.760   3.428   5.915
 9879SOL     OW30535   6.200   4.676   5.437
 9879SOL    HW130536   6.120   4.730   5.409
 9879SOL    HW230537   6.175   4.579   5.440
 9880SOL     OW30538   2.654   0.827   1.006
 9880SOL    HW130539   2.628   0.745   1.057
 9880SOL    HW230540   2.753   0.840   1.013
 9881SOL     OW30541   6.878   1.804   4.413
 9881SOL    HW130542   6.817   1.827   4.337
 9881SOL    HW230543   6.879   1.705   4.426
 9882SOL     OW30544   3.244   4.059   5.903
 9882SOL    HW130545   3.172   3.994   5.879
 9882SOL    HW230546   3.327   4.009   5.930
 9883SOL     OW30547   0.775   6.451   1.446
 9883SOL    HW130548   0.731   6.536   1.418
 9883SOL    HW230549   0.777   6.445   1.546
 9884SOL     OW30550   4.065   1.784   0.802
 9884SOL    HW130551   4.041   1.815   0.710
 9884SOL    HW230552   4.053   1.859   0.867
 9885SOL     OW30553   0.593   3.479   4.860
 9885SOL    HW130554   0.637   3.402   4.905
 9885SOL    HW230555   0.570   3.454   4.766
 9886SOL     OW30556   0.357   6.236   1.996
 9886SOL    HW130557   0.337   6.314   1.937
 9886SOL    HW230558   0.274   6.182   2.010
 9887SOL     OW30559   3.501   0.170   0.121
 9887SOL    HW130560   3.401   0.179   0.128
 9887SOL    HW230561   3.534   0.232   0.049
 9888SOL     OW30562   5.925   5.486   3.483
 9888SOL    HW130563   5.897   5.480   3.579
 9888SOL    HW230564   5.939   5.394   3.446
 9889SOL     OW30565   0.315   4.617   1.991
 9889SOL    HW130566   0.369   4.701   1.998
 9889SOL    HW230567   0.369   4.540   2.024
 9890SOL     OW30568   0.349   2.938   0.913
 9890SOL    HW130569   0.334   3.034   0.937
 9890SOL    HW230570   0.319   2.880   0.989
 9891SOL     OW30571   6.028   4.726   1.330
 9891SOL    HW130572   5.986   4.774   1.407
 9891SOL    HW230573   6.108   4.675   1.362
 9892SOL     OW30574   1.598   5.379   2.976
 9892SOL    HW130575   1.517   5.343   2.929
 9892SOL    HW230576   1.607   5.476   2.957
 9893SOL     OW30577   6.423   6.804   2.122
 9893SOL    HW130578   6.456   6.743   2.049
 9893SOL    HW230579   6.500   6.859   2.156
 9894SOL     OW30580   2.750   1.518   6.307
 9894SOL    HW130581   2.768   1.420   6.307
 9894SOL    HW230582   2.793   1.560   6.386
 9895SOL     OW30583   6.269   2.602   5.547
 9895SOL    HW130584   6.231   2.645   5.629
 9895SOL    HW230585   6.219   2.634   5.466
 9896SOL     OW30586   4.807   1.895   0.964
 9896SOL    HW130587   4.870   1.971   0.978
 9896SOL    HW230588   4.725   1.908   1.020
 9897SOL     OW30589   4.826   0.960   2.923
 9897SOL    HW130590   4.862   0.867   2.921
 9897SOL    HW230591   4.735   0.960   2.965
 9898SOL     OW30592   6.911   5.083   5.092
 9898SOL    HW130593   6.851   5.037   5.025
 9898SOL    HW230594   6.965   5.153   5.045
 9899SOL     OW30595   6.869   5.244   2.391
 9899SOL    HW130596   6.776   5.279   2.380
 9899SOL    HW230597   6.923   5.310   2.444
 9900SOL     OW30598   1.696   2.386   2.751
 9900SOL    HW130599   1.658   2.468   2.710
 9900SOL    HW230600   1.633   2.350   2.820
 9901SOL     OW30601   1.966   1.160   6.909
 9901SOL    HW130602   1.939   1.208   6.992
 9901SOL    HW230603   2.041   1.097   6.929
 9902SOL     OW30604   3.989   3.574   1.706
 9902SOL    HW130605   4.069   3.606   1.757
 9902SOL    HW230606   3.907   3.616   1.745
 9903SOL     OW30607   4.984   6.866   2.384
 9903SOL    HW130608   4.906   6.910   2.338
 9903SOL    HW230609   4.967   6.767   2.390
 9904SOL     OW30610   0.093   3.998   6.755
 9904SOL    HW130611   0.025   3.947   6.808
 9904SOL    HW230612   0.155   4.045   6.817
 9905SOL     OW30613   1.494   6.470   6.624
 9905SOL    HW130614   1.488   6.376   6.592
 9905SOL    HW230615   1.403   6.511   6.624
 9906SOL     OW30616   2.222   3.579   6.658
 9906SOL    HW130617   2.176   3.503   6.704
 9906SOL    HW230618   2.217   3.661   6.715
 9907SOL     OW30619   1.412   0.471   3.765
 9907SOL    HW130620   1.433   0.561   3.802
 9907SOL    HW230621   1.409   0.476   3.665
 9908SOL     OW30622   0.671   3.548   5.844
 9908SOL    HW130623   0.641   3.493   5.766
 9908SOL    HW230624   0.626   3.638   5.841
 9909SOL     OW30625   3.258   0.133   3.479
 9909SOL    HW130626   3.357   0.128   3.490
 9909SOL    HW230627   3.236   0.146   3.382
 9910SOL     OW30628   1.673   5.514   1.530
 9910SOL    HW130629   1.694   5.606   1.495
 9910SOL    HW230630   1.609   5.522   1.606
 9911SOL     OW30631   4.447   5.825   2.226
 9911SOL    HW130632   4.450   5.725   2.214
 9911SOL    HW230633   4.399   5.846   2.311
 9912SOL     OW30634   4.186   0.932   1.351
 9912SOL    HW130635   4.208   0.855   1.411
 9912SOL    HW230636   4.145   1.006   1.405
 9913SOL     OW30637   6.592   3.818   2.003
 9913SOL    HW130638   6.557   3.890   2.062
 9913SOL    HW230639   6.564   3.729   2.040
 9914SOL     OW30640   0.837   0.759   5.530
 9914SOL    HW130641   0.906   0.701   5.487
 9914SOL    HW230642   0.836   0.741   5.628
 9915SOL     OW30643   5.033   2.963   4.123
 9915SOL    HW130644   4.998   2.917   4.041
 9915SOL    HW230645   5.101   3.031   4.097
 9916SOL     OW30646   1.798   2.203   3.365
 9916SOL    HW130647   1.857   2.125   3.384
 9916SOL    HW230648   1.716   2.197   3.422
 9917SOL     OW30649   3.295   3.510   4.748
 9917SOL    HW130650   3.333   3.446   4.815
 9917SOL    HW230651   3.353   3.592   4.745
 9918SOL     OW30652   0.899   2.092   1.286
 9918SOL    HW130653   0.831   2.150   1.331
 9918SOL    HW230654   0.971   2.068   1.351
 9919SOL     OW30655   2.391   6.029   1.208
 9919SOL    HW130656   2.340   6.107   1.243
 9919SOL    HW230657   2.404   6.039   1.110
 9920SOL     OW30658   3.364   0.414   2.983
 9920SOL    HW130659   3.351   0.422   2.885
 9920SOL    HW230660   3.309   0.483   3.030
 9921SOL     OW30661   4.824   6.148   4.213
 9921SOL    HW130662   4.898   6.215   4.208
 9921SOL    HW230663   4.753   6.181   4.276
 9922SOL     OW30664   4.601   4.534   0.876
 9922SOL    HW130665   4.567   4.608   0.934
 9922SOL    HW230666   4.614   4.569   0.783
 9923SOL     OW30667   6.772   3.509   6.641
 9923SOL    HW130668   6.791   3.446   6.717
 9923SOL    HW230669   6.840   3.582   6.642
 9924SOL     OW30670   5.063   1.873   3.740
 9924SOL    HW130671   4.987   1.815   3.767
 9924SOL    HW230672   5.037   1.927   3.659
 9925SOL     OW30673   1.800   4.378   4.326
 9925SOL    HW130674   1.748   4.414   4.249
 9925SOL    HW230675   1.810   4.449   4.396
 9926SOL     OW30676   3.426   2.565   0.850
 9926SOL    HW130677   3.330   2.563   0.879
 9926SOL    HW230678   3.443   2.649   0.798
 9927SOL     OW30679   0.916   2.139   0.722
 9927SOL    HW130680   0.855   2.126   0.800
 9927SOL    HW230681   0.957   2.230   0.727
 9928SOL     OW30682   5.437   3.600   2.881
 9928SOL    HW130683   5.452   3.683   2.827
 9928SOL    HW230684   5.376   3.538   2.832
 9929SOL     OW30685   3.702   4.246   5.185
 9929SOL    HW130686   3.793   4.260   5.223
 9929SOL    HW230687   3.635   4.239   5.259
 9930SOL     OW30688   0.698   0.337   6.067
 9930SOL    HW130689   0.627   0.404   6.045
 9930SOL    HW230690   0.656   0.252   6.097
 9931SOL     OW30691   6.802   5.471   4.831
 9931SOL    HW130692   6.851   5.538   4.774
 9931SOL    HW230693   6.832   5.481   4.926
 9932SOL     OW30694   1.624   1.526   6.644
 9932SOL    HW130695   1.593   1.617   6.616
 9932SOL    HW230696   1.658   1.529   6.738
 9933SOL     OW30697   1.474   1.193   4.468
 9933SOL    HW130698   1.567   1.222   4.443
 9933SOL    HW230699   1.448   1.114   4.412
 9934SOL     OW30700   6.232   1.827   6.906
 9934SOL    HW130701   6.149   1.785   6.869
 9934SOL    HW230702   6.217   1.856   7.000
 9935SOL     OW30703   2.358   0.985   0.420
 9935SOL    HW130704   2.279   0.968   0.361
 9935SOL    HW230705   2.433   0.924   0.394
 9936SOL     OW30706   6.824   5.266   0.096
 9936SOL    HW130707   6.801   5.180   0.140
 9936SOL    HW230708   6.829   5.339   0.164
 9937SOL     OW30709   1.508   0.834   3.563
 9937SOL    HW130710   1.561   0.773   3.621
 9937SOL    HW230711   1.560   0.919   3.549
 9938SOL     OW30712   5.507   0.206   4.021
 9938SOL    HW130713   5.489   0.262   4.102
 9938SOL    HW230714   5.597   0.228   3.985
 9939SOL     OW30715   2.244   2.700   1.169
 9939SOL    HW130716   2.282   2.739   1.253
 9939SOL    HW230717   2.315   2.695   1.099
 9940SOL     OW30718   0.631   0.598   4.188
 9940SOL    HW130719   0.679   0.642   4.264
 9940SOL    HW230720   0.637   0.656   4.107
 9941SOL     OW30721   3.079   5.670   5.728
 9941SOL    HW130722   3.149   5.698   5.793
 9941SOL    HW230723   3.067   5.740   5.658
 9942SOL     OW30724   4.609   5.553   1.454
 9942SOL    HW130725   4.691   5.602   1.484
 9942SOL    HW230726   4.565   5.509   1.532
 9943SOL     OW30727   1.079   3.946   6.384
 9943SOL    HW130728   1.101   3.865   6.330
 9943SOL    HW230729   1.010   3.923   6.453
 9944SOL     OW30730   7.015   5.691   6.635
 9944SOL    HW130731   0.026   5.779   6.603
 9944SOL    HW230732   6.933   5.707   6.690
 9945SOL     OW30733   5.428   4.261   6.543
 9945SOL    HW130734   5.351   4.213   6.501
 9945SOL    HW230735   5.481   4.306   6.472
 9946SOL     OW30736   6.031   0.299   3.253
 9946SOL    HW130737   5.962   0.329   3.187
 9946SOL    HW230738   5.988   0.247   3.326
 9947SOL     OW30739   2.225   1.439   4.255
 9947SOL    HW130740   2.260   1.346   4.239
 9947SOL    HW230741   2.178   1.472   4.174
 9948SOL     OW30742   6.419   5.739   5.637
 9948SOL    HW130743   6.501   5.768   5.687
 9948SOL    HW230744   6.437   5.744   5.538
 9949SOL     OW30745   6.840   5.020   4.370
 9949SOL    HW130746   6.783   5.097   4.398
 9949SOL    HW230747   6.808   4.937   4.415
 9950SOL     OW30748   6.810   5.961   5.933
 9950SOL    HW130749   6.795   6.049   5.977
 9950SOL    HW230750   6.908   5.939   5.933
 9951SOL     OW30751   1.932   2.088   2.618
 9951SOL    HW130752   1.863   2.139   2.566
 9951SOL    HW230753   1.925   1.991   2.595
 9952SOL     OW30754   1.691   3.807   0.759
 9952SOL    HW130755   1.661   3.833   0.667
 9952SOL    HW230756   1.722   3.712   0.759
 9953SOL     OW30757   5.323   2.894   3.877
 9953SOL    HW130758   5.371   2.975   3.843
 9953SOL    HW230759   5.390   2.827   3.911
 9954SOL     OW30760   1.245   6.985   5.064
 9954SOL    HW130761   1.257   6.913   5.132
 9954SOL    HW230762   1.301   0.040   5.087
 9955SOL     OW30763   4.086   3.683   6.658
 9955SOL    HW130764   4.161   3.636   6.612
 9955SOL    HW230765   4.068   3.770   6.612
 9956SOL     OW30766   0.717   3.371   2.466
 9956SOL    HW130767   0.736   3.280   2.503
 9956SOL    HW230768   0.661   3.422   2.532
 9957SOL     OW30769   5.649   0.280   2.007
 9957SOL    HW130770   5.714   0.321   2.071
 9957SOL    HW230771   5.627   0.187   2.037
 9958SOL     OW30772   3.452   6.128   5.829
 9958SOL    HW130773   3.532   6.109   5.772
 9958SOL    HW230774   3.370   6.092   5.784
 9959SOL     OW30775   4.105   3.687   2.720
 9959SOL    HW130776   4.130   3.680   2.816
 9959SOL    HW230777   4.066   3.778   2.702
 9960SOL     OW30778   0.615   6.246   1.319
 9960SOL    HW130779   0.698   6.190   1.312
 9960SOL    HW230780   0.630   6.318   1.387
 9961SOL     OW30781   2.537   4.521   3.189
 9961SOL    HW130782   2.588   4.590   3.137
 9961SOL    HW230783   2.500   4.453   3.126
 9962SOL     OW30784   3.641   0.497   2.416
 9962SOL    HW130785   3.600   0.537   2.334
 9962SOL    HW230786   3.588   0.418   2.446
 9963SOL     OW30787   2.845   3.113   6.284
 9963SOL    HW130788   2.919   3.168   6.247
 9963SOL    HW230789   2.778   3.094   6.212
 9964SOL     OW30790   4.283   5.004   6.091
 9964SOL    HW130791   4.211   5.061   6.051
 9964SOL    HW230792   4.293   4.920   6.037
 9965SOL     OW30793   3.269   4.861   5.118
 9965SOL    HW130794   3.177   4.872   5.080
 9965SOL    HW230795   3.336   4.894   5.051
 9966SOL     OW30796   2.416   4.706   1.619
 9966SOL    HW130797   2.419   4.783   1.556
 9966SOL    HW230798   2.481   4.636   1.589
 9967SOL     OW30799   6.021   5.244   2.564
 9967SOL    HW130800   6.006   5.312   2.636
 9967SOL    HW230801   6.092   5.277   2.501
 9968SOL     OW30802   4.157   5.629   6.529
 9968SOL    HW130803   4.244   5.674   6.552
 9968SOL    HW230804   4.095   5.696   6.489
 9969SOL     OW30805   1.700   2.685   4.042
 9969SOL    HW130806   1.620   2.729   4.000
 9969SOL    HW230807   1.782   2.710   3.990
 9970SOL     OW30808   6.930   4.739   2.233
 9970SOL    HW130809   6.949   4.836   2.245
 9970SOL    HW230810   6.957   4.690   2.316
 9971SOL     OW30811   2.465   3.936   0.783
 9971SOL    HW130812   2.489   3.904   0.874
 9971SOL    HW230813   2.392   3.879   0.745
 9972SOL     OW30814   3.186   4.591   0.880
 9972SOL    HW130815   3.277   4.564   0.911
 9972SOL    HW230816   3.116   4.544   0.934
 9973SOL     OW30817   3.939   2.112   4.842
 9973SOL    HW130818   3.892   2.088   4.927
 9973SOL    HW230819   3.872   2.141   4.774
 9974SOL     OW30820   6.501   2.846   2.881
 9974SOL    HW130821   6.600   2.854   2.891
 9974SOL    HW230822   6.470   2.761   2.924
 9975SOL     OW30823   0.156   4.637   6.718
 9975SOL    HW130824   0.146   4.623   6.620
 9975SOL    HW230825   0.252   4.628   6.744
 9976SOL     OW30826   0.242   5.030   5.078
 9976SOL    HW130827   0.303   4.966   5.032
 9976SOL    HW230828   0.198   4.985   5.156
 9977SOL     OW30829   6.666   5.540   5.857
 9977SOL    HW130830   6.724   5.470   5.816
 9977SOL    HW230831   6.576   5.501   5.877
 9978SOL     OW30832   6.217   1.706   5.091
 9978SOL    HW130833   6.234   1.767   5.168
 9978SOL    HW230834   6.213   1.611   5.123
 9979SOL     OW30835   6.303   4.384   6.065
 9979SOL    HW130836   6.211   4.402   6.030
 9979SOL    HW230837   6.369   4.387   5.990
 9980SOL     OW30838   1.555   0.814   0.093
 9980SOL    HW130839   1.474   0.755   0.088
 9980SOL    HW230840   1.541   0.894   0.035
 9981SOL     OW30841   3.043   2.003   0.482
 9981SOL    HW130842   3.000   2.038   0.566
 9981SOL    HW230843   3.054   2.077   0.417
 9982SOL     OW30844   0.685   1.715   3.889
 9982SOL    HW130845   0.706   1.622   3.919
 9982SOL    HW230846   0.594   1.717   3.849
 9983SOL     OW30847   0.826   0.877   1.594
 9983SOL    HW130848   0.850   0.783   1.567
 9983SOL    HW230849   0.816   0.934   1.512
 9984SOL     OW30850   0.344   6.920   0.384
 9984SOL    HW130851   0.308   6.966   0.303
 9984SOL    HW230852   0.414   6.854   0.356
 9985SOL     OW30853   3.263   0.104   1.360
 9985SOL    HW130854   3.299   0.039   1.427
 9985SOL    HW230855   3.235   0.055   1.278
 9986SOL     OW30856   5.396   4.686   0.040
 9986SOL    HW130857   5.317   4.745   0.055
 9986SOL    HW230858   5.479   4.742   0.036
 9987SOL     OW30859   6.472   2.134   2.764
 9987SOL    HW130860   6.491   2.076   2.684
 9987SOL    HW230861   6.396   2.195   2.743
 9988SOL     OW30862   0.066   5.254   4.435
 9988SOL    HW130863   0.017   5.206   4.508
 9988SOL    HW230864   0.156   5.281   4.468
 9989SOL     OW30865   5.995   3.766   2.927
 9989SOL    HW130866   5.993   3.698   2.855
 9989SOL    HW230867   6.063   3.740   2.996
 9990SOL     OW30868   2.318   0.406   3.662
 9990SOL    HW130869   2.280   0.408   3.570
 9990SOL    HW230870   2.402   0.352   3.663
 9991SOL     OW30871   1.557   2.882   4.392
 9991SOL    HW130872   1.596   2.790   4.391
 9991SOL    HW230873   1.625   2.947   4.359
 9992SOL     OW30874   4.076   3.756   0.669
 9992SOL    HW130875   4.155   3.772   0.728
 9992SOL    HW230876   4.008   3.701   0.718
 9993SOL     OW30877   3.794   6.471   3.072
 9993SOL    HW130878   3.890   6.499   3.076
 9993SOL    HW230879   3.738   6.546   3.037
 9994SOL     OW30880   0.079   3.876   3.329
 9994SOL    HW130881   0.117   3.866   3.237
 9994SOL    HW230882   0.046   3.970   3.341
 9995SOL     OW30883   3.320   6.917   3.706
 9995SOL    HW130884   3.363   6.944   3.792
 9995SOL    HW230885   3.351   6.977   3.632
 9996SOL     OW30886   2.889   3.213   1.315
 9996SOL    HW130887   2.860   3.206   1.220
 9996SOL    HW230888   2.866   3.129   1.364
 9997SOL     OW30889   5.000   1.196   1.531
 9997SOL    HW130890   5.007   1.188   1.630
 9997SOL    HW230891   4.954   1.115   1.494
 9998SOL     OW30892   5.291   3.811   2.607
 9998SOL    HW130893   5.218   3.845   2.549
 9998SOL    HW230894   5.298   3.868   2.689
 9999SOL     OW30895   6.950   5.604   5.500
 9999SOL    HW130896   7.013   5.665   5.549
 9999SOL    HW230897   6.975   5.601   5.403
10000SOL     OW30898   6.052   2.221   6.544
10000SOL    HW130899   6.137   2.266   6.574
10000SOL    HW230900   6.015   2.270   6.465
10001SOL     OW30901   4.168   0.682   1.507
10001SOL    HW130902   4.077   0.719   1.527
10001SOL    HW230903   4.159   0.591   1.467
10002SOL     OW30904   1.139   1.279   1.672
10002SOL    HW130905   1.046   1.298   1.704
10002SOL    HW230906   1.139   1.195   1.618
10003SOL     OW30907   2.928   2.050   2.401
10003SOL    HW130908   2.972   1.965   2.371
10003SOL    HW230909   2.868   2.084   2.329
10004SOL     OW30910   5.620   3.216   5.014
10004SOL    HW130911   5.664   3.249   4.930
10004SOL    HW230912   5.524   3.244   5.015
10005SOL     OW30913   3.497   5.745   2.721
10005SOL    HW130914   3.581   5.692   2.712
10005SOL    HW230915   3.421   5.695   2.680
10006SOL     OW30916   5.729   1.521   5.781
10006SOL    HW130917   5.806   1.539   5.719
10006SOL    HW230918   5.643   1.547   5.737
10007SOL     OW30919   1.025   2.984   4.249
10007SOL    HW130920   1.066   2.932   4.324
10007SOL    HW230921   1.032   2.931   4.164
10008SOL     OW30922   4.022   1.178   3.108
10008SOL    HW130923   4.015   1.110   3.181
10008SOL    HW230924   3.932   1.194   3.069
10009SOL     OW30925   2.008   4.156   1.503
10009SOL    HW130926   2.017   4.255   1.497
10009SOL    HW230927   1.962   4.122   1.421
10010SOL     OW30928   1.924   5.819   0.570
10010SOL    HW130929   1.868   5.742   0.601
10010SOL    HW230930   2.019   5.805   0.600
10011SOL     OW30931   0.750   3.297   6.642
10011SOL    HW130932   0.696   3.338   6.569
10011SOL    HW230933   0.731   3.346   6.728
10012SOL     OW30934   5.252   6.312   2.097
10012SOL    HW130935   5.307   6.367   2.035
10012SOL    HW230936   5.232   6.367   2.179
10013SOL     OW30937   2.326   1.798   4.147
10013SOL    HW130938   2.381   1.722   4.109
10013SOL    HW230939   2.366   1.827   4.234
10014SOL     OW30940   0.381   1.717   1.469
10014SOL    HW130941   0.387   1.783   1.394
10014SOL    HW230942   0.407   1.762   1.555
10015SOL     OW30943   4.243   4.768   6.965
10015SOL    HW130944   4.318   4.742   6.903
10015SOL    HW230945   4.239   4.703   0.017
10016SOL     OW30946   1.536   0.116   4.809
10016SOL    HW130947   1.495   0.207   4.807
10016SOL    HW230948   1.604   0.110   4.882
10017SOL     OW30949   2.005   1.650   2.782
10017SOL    HW130950   2.022   1.674   2.686
10017SOL    HW230951   2.092   1.626   2.826
10018SOL     OW30952   6.526   4.875   5.772
10018SOL    HW130953   6.455   4.897   5.704
10018SOL    HW230954   6.570   4.788   5.747
10019SOL     OW30955   0.459   2.039   3.167
10019SOL    HW130956   0.371   1.992   3.160
10019SOL    HW230957   0.533   1.975   3.149
10020SOL     OW30958   0.472   0.944   1.270
10020SOL    HW130959   0.431   0.885   1.200
10020SOL    HW230960   0.453   1.039   1.248
10021SOL     OW30961   0.830   1.859   2.350
10021SOL    HW130962   0.920   1.861   2.306
10021SOL    HW230963   0.783   1.774   2.327
10022SOL     OW30964   3.933   6.992   1.082
10022SOL    HW130965   3.970   0.031   1.014
10022SOL    HW230966   3.939   6.898   1.047
10023SOL     OW30967   2.544   5.038   4.919
10023SOL    HW130968   2.491   4.954   4.906
10023SOL    HW230969   2.609   5.024   4.994
10024SOL     OW30970   1.690   6.386   2.014
10024SOL    HW130971   1.725   6.384   1.921
10024SOL    HW230972   1.593   6.408   2.013
10025SOL     OW30973   2.184   2.254   1.608
10025SOL    HW130974   2.252   2.268   1.536
10025SOL    HW230975   2.171   2.156   1.622
10026SOL     OW30976   4.309   6.196   2.807
10026SOL    HW130977   4.292   6.233   2.899
10026SOL    HW230978   4.278   6.101   2.803
10027SOL     OW30979   0.978   3.723   5.068
10027SOL    HW130980   0.880   3.709   5.049
10027SOL    HW230981   1.014   3.792   5.006
10028SOL     OW30982   1.260   1.537   2.051
10028SOL    HW130983   1.186   1.557   2.116
10028SOL    HW230984   1.290   1.442   2.063
10029SOL     OW30985   2.513   1.633   4.019
10029SOL    HW130986   2.560   1.572   4.083
10029SOL    HW230987   2.501   1.586   3.932
10030SOL     OW30988   2.387   0.585   4.601
10030SOL    HW130989   2.329   0.534   4.536
10030SOL    HW230990   2.328   0.635   4.665
10031SOL     OW30991   5.759   4.835   4.185
10031SOL    HW130992   5.669   4.877   4.192
10031SOL    HW230993   5.781   4.819   4.089
10032SOL     OW30994   3.851   0.628   5.231
10032SOL    HW130995   3.900   0.711   5.205
10032SOL    HW230996   3.810   0.586   5.150
10033SOL     OW30997   4.574   2.024   4.406
10033SOL    HW130998   4.585   2.096   4.476
10033SOL    HW230999   4.507   2.054   4.338
10034SOL     OW31000   3.634   0.281   4.274
10034SOL    HW131001   3.629   0.216   4.349
10034SOL    HW231002   3.718   0.335   4.282
10035SOL     OW31003   0.085   4.777   2.519
10035SOL    HW131004   0.165   4.816   2.475
10035SOL    HW231005   0.052   4.838   2.591
10036SOL     OW31006   5.969   0.478   1.184
10036SOL    HW131007   5.930   0.570   1.182
10036SOL    HW231008   6.068   0.484   1.171
10037SOL     OW31009   6.071   1.321   0.612
10037SOL    HW131010   6.064   1.410   0.657
10037SOL    HW231011   6.000   1.314   0.542
10038SOL     OW31012   4.279   1.203   6.433
10038SOL    HW131013   4.264   1.297   6.402
10038SOL    HW231014   4.346   1.202   6.507
10039SOL     OW31015   4.096   0.024   4.982
10039SOL    HW131016   4.048   0.039   4.896
10039SOL    HW231017   4.034   7.003   5.047
10040SOL     OW31018   4.380   5.908   6.048
10040SOL    HW131019   4.376   5.848   5.968
10040SOL    HW231020   4.399   5.853   6.130
10041SOL     OW31021   4.626   5.719   6.831
10041SOL    HW131022   4.652   5.804   6.785
10041SOL    HW231023   4.528   5.701   6.815
10042SOL     OW31024   1.462   1.874   5.108
10042SOL    HW131025   1.511   1.886   5.195
10042SOL    HW231026   1.512   1.922   5.035
10043SOL     OW31027   0.160   2.561   4.353
10043SOL    HW131028   0.094   2.580   4.281
10043SOL    HW231029   0.181   2.463   4.354
10044SOL     OW31030   2.867   1.736   4.826
10044SOL    HW131031   2.871   1.756   4.924
10044SOL    HW231032   2.839   1.818   4.776
10045SOL     OW31033   4.854   0.057   3.340
10045SOL    HW131034   4.894   7.022   3.410
10045SOL    HW231035   4.756   0.067   3.358
10046SOL     OW31036   1.953   3.727   1.597
10046SOL    HW131037   1.966   3.720   1.498
10046SOL    HW231038   2.018   3.666   1.643
10047SOL     OW31039   6.260   3.813   5.036
10047SOL    HW131040   6.176   3.820   5.091
10047SOL    HW231041   6.279   3.718   5.015
10048SOL     OW31042   6.175   1.100   2.686
10048SOL    HW131043   6.144   1.019   2.736
10048SOL    HW231044   6.103   1.130   2.624
10049SOL     OW31045   0.133   6.908   6.816
10049SOL    HW131046   0.121   7.006   6.828
10049SOL    HW231047   0.171   6.869   6.900
10050SOL     OW31048   5.902   3.030   4.321
10050SOL    HW131049   5.909   3.065   4.414
10050SOL    HW231050   5.947   3.094   4.258
10051SOL     OW31051   5.149   2.375   5.189
10051SOL    HW131052   5.173   2.369   5.286
10051SOL    HW231053   5.098   2.460   5.173
10052SOL     OW31054   2.315   2.057   2.969
10052SOL    HW131055   2.369   1.978   2.940
10052SOL    HW231056   2.219   2.031   2.974
10053SOL     OW31057   3.078   5.787   2.638
10053SOL    HW131058   3.164   5.835   2.658
10053SOL    HW231059   3.056   5.798   2.541
10054SOL     OW31060   5.319   5.277   6.294
10054SOL    HW131061   5.335   5.320   6.204
10054SOL    HW231062   5.291   5.182   6.281
10055SOL     OW31063   6.039   2.485   4.602
10055SOL    HW131064   6.088   2.410   4.559
10055SOL    HW231065   5.980   2.448   4.675
10056SOL     OW31066   5.614   4.076   3.304
10056SOL    HW131067   5.658   4.134   3.372
10056SOL    HW231068   5.619   3.981   3.333
10057SOL     OW31069   4.368   1.534   4.936
10057SOL    HW131070   4.315   1.596   4.878
10057SOL    HW231071   4.343   1.549   5.032
10058SOL     OW31072   0.361   3.710   4.333
10058SOL    HW131073   0.277   3.657   4.323
10058SOL    HW231074   0.440   3.650   4.320
10059SOL     OW31075   5.903   0.266   1.534
10059SOL    HW131076   5.881   0.350   1.485
10059SOL    HW231077   5.839   0.253   1.610
10060SOL     OW31078   1.568   2.017   1.507
10060SOL    HW131079   1.606   1.962   1.581
10060SOL    HW231080   1.636   2.026   1.433
10061SOL     OW31081   4.393   1.488   3.728
10061SOL    HW131082   4.472   1.451   3.777
10061SOL    HW231083   4.370   1.578   3.764
10062SOL     OW31084   5.880   0.065   4.328
10062SOL    HW131085   5.866   0.004   4.250
10062SOL    HW231086   5.919   0.151   4.295
10063SOL     OW31087   2.198   0.913   3.641
10063SOL    HW131088   2.156   0.822   3.638
10063SOL    HW231089   2.292   0.908   3.608
10064SOL     OW31090   5.092   6.902   0.043
10064SOL    HW131091   5.008   6.890   0.096
10064SOL    HW231092   5.168   6.856   0.091
10065SOL     OW31093   2.260   0.503   2.338
10065SOL    HW131094   2.196   0.448   2.284
10065SOL    HW231095   2.243   0.600   2.321
10066SOL     OW31096   0.555   2.304   3.971
10066SOL    HW131097   0.598   2.223   4.012
10066SOL    HW231098   0.456   2.299   3.984
10067SOL     OW31099   6.850   4.090   5.002
10067SOL    HW131100   6.865   3.991   4.994
10067SOL    HW231101   6.767   4.115   4.952
10068SOL     OW31102   0.421   3.384   2.993
10068SOL    HW131103   0.510   3.417   2.961
10068SOL    HW231104   0.361   3.369   2.915
10069SOL     OW31105   2.232   4.856   2.572
10069SOL    HW131106   2.152   4.903   2.534
10069SOL    HW231107   2.315   4.890   2.527
10070SOL     OW31108   6.589   6.282   4.959
10070SOL    HW131109   6.640   6.198   4.943
10070SOL    HW231110   6.611   6.318   5.050
10071SOL     OW31111   6.380   5.876   4.741
10071SOL    HW131112   6.428   5.919   4.818
10071SOL    HW231113   6.282   5.869   4.762
10072SOL     OW31114   6.632   6.619   3.792
10072SOL    HW131115   6.594   6.647   3.703
10072SOL    HW231116   6.709   6.677   3.816
10073SOL     OW31117   5.970   4.485   5.335
10073SOL    HW131118   6.032   4.467   5.259
10073SOL    HW231119   5.882   4.439   5.319
10074SOL     OW31120   2.140   0.774   5.231
10074SOL    HW131121   2.119   0.854   5.288
10074SOL    HW231122   2.056   0.740   5.190
10075SOL     OW31123   2.018   2.672   2.775
10075SOL    HW131124   2.060   2.752   2.731
10075SOL    HW231125   1.990   2.606   2.706
10076SOL     OW31126   6.808   0.527   4.321
10076SOL    HW131127   6.852   0.450   4.276
10076SOL    HW231128   6.762   0.495   4.404
10077SOL     OW31129   4.020   2.700   6.055
10077SOL    HW131130   3.940   2.756   6.076
10077SOL    HW231131   4.036   2.699   5.957
10078SOL     OW31132   0.672   6.131   3.483
10078SOL    HW131133   0.599   6.148   3.417
10078SOL    HW231134   0.760   6.157   3.444
10079SOL     OW31135   5.962   3.756   4.044
10079SOL    HW131136   5.921   3.758   3.953
10079SOL    HW231137   5.957   3.663   4.081
10080SOL     OW31138   4.153   0.465   5.561
10080SOL    HW131139   4.247   0.433   5.573
10080SOL    HW231140   4.100   0.444   5.643
10081SOL     OW31141   6.678   0.383   0.864
10081SOL    HW131142   6.587   0.356   0.835
10081SOL    HW231143   6.674   0.420   0.957
10082SOL     OW31144   0.672   5.366   1.959
10082SOL    HW131145   0.743   5.295   1.963
10082SOL    HW231146   0.628   5.363   1.869
10083SOL     OW31147   4.021   1.076   3.366
10083SOL    HW131148   3.978   0.997   3.409
10083SOL    HW231149   3.962   1.156   3.379
10084SOL     OW31150   1.917   1.104   5.493
10084SOL    HW131151   1.908   1.167   5.570
10084SOL    HW231152   1.995   1.043   5.509
10085SOL     OW31153   2.508   5.652   0.836
10085SOL    HW131154   2.460   5.619   0.918
10085SOL    HW231155   2.599   5.684   0.861
10086SOL     OW31156   4.605   6.025   2.457
10086SOL    HW131157   4.630   5.999   2.364
10086SOL    HW231158   4.506   6.030   2.465
10087SOL     OW31159   6.703   6.788   4.152
10087SOL    HW131160   6.656   6.706   4.121
10087SOL    HW231161   6.660   6.822   4.235
10088SOL     OW31162   6.433   0.197   1.769
10088SOL    HW131163   6.469   0.107   1.794
10088SOL    HW231164   6.337   0.203   1.795
10089SOL     OW31165   3.044   1.900   2.835
10089SOL    HW131166   3.077   1.966   2.902
10089SOL    HW231167   2.948   1.919   2.813
10090SOL     OW31168   1.318   4.838   1.615
10090SOL    HW131169   1.317   4.759   1.555
10090SOL    HW231170   1.259   4.821   1.694
10091SOL     OW31171   0.354   4.483   6.479
10091SOL    HW131172   0.368   4.464   6.576
10091SOL    HW231173   0.271   4.437   6.448
10092SOL     OW31174   2.361   2.594   5.593
10092SOL    HW131175   2.428   2.550   5.534
10092SOL    HW231176   2.269   2.567   5.566
10093SOL     OW31177   6.007   3.020   5.049
10093SOL    HW131178   6.026   3.117   5.038
10093SOL    HW231179   6.010   2.975   4.960
10094SOL     OW31180   3.439   5.826   1.380
10094SOL    HW131181   3.466   5.733   1.356
10094SOL    HW231182   3.340   5.830   1.394
10095SOL     OW31183   5.919   2.382   5.284
10095SOL    HW131184   5.830   2.410   5.248
10095SOL    HW231185   5.906   2.324   5.365
10096SOL     OW31186   4.496   5.012   2.896
10096SOL    HW131187   4.508   5.108   2.870
10096SOL    HW231188   4.582   4.964   2.884
10097SOL     OW31189   0.648   1.161   0.058
10097SOL    HW131190   0.627   1.219   0.137
10097SOL    HW231191   0.661   1.218   7.001
10098SOL     OW31192   2.741   0.221   4.997
10098SOL    HW131193   2.831   0.211   4.954
10098SOL    HW231194   2.674   0.250   4.929
10099SOL     OW31195   0.606   5.104   1.100
10099SOL    HW131196   0.692   5.102   1.048
10099SOL    HW231197   0.575   5.199   1.108
10100SOL     OW31198   4.825   6.369   5.027
10100SOL    HW131199   4.794   6.296   5.088
10100SOL    HW231200   4.751   6.394   4.965
10101SOL     OW31201   6.233   3.911   2.336
10101SOL    HW131202   6.327   3.878   2.343
10101SOL    HW231203   6.197   3.890   2.246
10102SOL     OW31204   0.620   1.169   2.211
10102SOL    HW131205   0.532   1.138   2.248
10102SOL    HW231206   0.660   1.097   2.155
10103SOL     OW31207   2.990   0.588   5.747
10103SOL    HW131208   2.966   0.498   5.784
10103SOL    HW231209   3.077   0.581   5.698
10104SOL     OW31210   1.967   1.934   4.759
10104SOL    HW131211   1.883   1.880   4.765
10104SOL    HW231212   2.030   1.890   4.695
10105SOL     OW31213   1.572   0.978   6.609
10105SOL    HW131214   1.654   0.980   6.665
10105SOL    HW231215   1.579   1.046   6.536
10106SOL     OW31216   4.005   6.032   0.327
10106SOL    HW131217   3.978   6.128   0.319
10106SOL    HW231218   3.923   5.974   0.333
10107SOL     OW31219   5.947   1.736   5.540
10107SOL    HW131220   6.020   1.672   5.519
10107SOL    HW231221   5.955   1.765   5.636
10108SOL     OW31222   6.447   0.516   6.956
10108SOL    HW131223   6.494   0.432   6.983
10108SOL    HW231224   6.514   0.591   6.951
10109SOL     OW31225   5.761   0.909   0.774
10109SOL    HW131226   5.796   0.963   0.698
10109SOL    HW231227   5.820   0.920   0.854
10110SOL     OW31228   4.622   4.676   4.626
10110SOL    HW131229   4.599   4.580   4.643
10110SOL    HW231230   4.548   4.735   4.658
10111SOL     OW31231   5.694   3.774   3.635
10111SOL    HW131232   5.688   3.854   3.695
10111SOL    HW231233   5.764   3.712   3.669
10112SOL     OW31234   6.085   3.923   3.546
10112SOL    HW131235   6.146   3.959   3.617
10112SOL    HW231236   6.017   3.993   3.522
10113SOL     OW31237   4.348   6.938   6.556
10113SOL    HW131238   4.314   6.886   6.478
10113SOL    HW231239   4.448   6.942   6.553
10114SOL     OW31240   4.275   2.235   1.538
10114SOL    HW131241   4.180   2.261   1.555
10114SOL    HW231242   4.287   2.138   1.557
10115SOL     OW31243   3.799   0.533   4.969
10115SOL    HW131244   3.779   0.612   4.911
10115SOL    HW231245   3.791   0.450   4.915
10116SOL     OW31246   0.319   6.631   0.260
10116SOL    HW131247   0.400   6.677   0.224
10116SOL    HW231248   0.333   6.532   0.259
10117SOL     OW31249   0.189   6.593   6.201
10117SOL    HW131250   0.106   6.569   6.251
10117SOL    HW231251   0.198   6.692   6.197
10118SOL     OW31252   2.370   4.306   2.674
10118SOL    HW131253   2.406   4.309   2.767
10118SOL    HW231254   2.277   4.269   2.675
10119SOL     OW31255   6.949   5.860   4.887
10119SOL    HW131256   7.015   5.861   4.812
10119SOL    HW231257   6.867   5.810   4.859
10120SOL     OW31258   2.194   3.079   4.076
10120SOL    HW131259   2.183   3.032   3.989
10120SOL    HW231260   2.278   3.049   4.120
10121SOL     OW31261   6.168   3.618   7.020
10121SOL    HW131262   6.068   3.612   0.006
10121SOL    HW231263   6.212   3.560   0.064
10122SOL     OW31264   5.706   3.080   2.328
10122SOL    HW131265   5.780   3.023   2.365
10122SOL    HW231266   5.622   3.061   2.377
10123SOL     OW31267   5.536   5.837   0.545
10123SOL    HW131268   5.513   5.813   0.640
10123SOL    HW231269   5.633   5.860   0.539
10124SOL     OW31270   1.304   4.567   0.468
10124SOL    HW131271   1.254   4.504   0.527
10124SOL    HW231272   1.241   4.634   0.430
10125SOL     OW31273   1.655   1.440   1.933
10125SOL    HW131274   1.629   1.508   2.002
10125SOL    HW231275   1.622   1.350   1.962
10126SOL     OW31276   0.009   0.129   6.868
10126SOL    HW131277   7.013   0.091   6.959
10126SOL    HW231278   6.950   0.125   6.812
10127SOL     OW31279   2.684   4.145   6.659
10127SOL    HW131280   2.659   4.049   6.673
10127SOL    HW231281   2.779   4.159   6.684
10128SOL     OW31282   3.166   0.962   6.816
10128SOL    HW131283   3.174   0.868   6.784
10128SOL    HW231284   3.080   1.001   6.784
10129SOL     OW31285   6.347   1.315   2.655
10129SOL    HW131286   6.283   1.241   2.675
10129SOL    HW231287   6.438   1.276   2.638
10130SOL     OW31288   1.392   2.384   1.186
10130SOL    HW131289   1.405   2.285   1.183
10130SOL    HW231290   1.304   2.405   1.228
10131SOL     OW31291   1.607   6.758   4.600
10131SOL    HW131292   1.683   6.726   4.656
10131SOL    HW231293   1.643   6.803   4.518
10132SOL     OW31294   3.474   0.820   3.710
10132SOL    HW131295   3.404   0.772   3.657
10132SOL    HW231296   3.431   0.895   3.761
10133SOL     OW31297   4.362   6.264   0.579
10133SOL    HW131298   4.303   6.337   0.613
10133SOL    HW231299   4.455   6.299   0.568
10134SOL     OW31300   6.630   6.770   2.642
10134SOL    HW131301   6.562   6.834   2.606
10134SOL    HW231302   6.722   6.803   2.620
10135SOL     OW31303   4.900   3.377   3.434
10135SOL    HW131304   4.867   3.335   3.349
10135SOL    HW231305   4.889   3.476   3.428
10136SOL     OW31306   5.117   1.602   2.724
10136SOL    HW131307   5.179   1.645   2.789
10136SOL    HW231308   5.088   1.513   2.759
10137SOL     OW31309   0.241   3.484   4.082
10137SOL    HW131310   0.161   3.543   4.072
10137SOL    HW231311   0.252   3.459   4.178
10138SOL     OW31312   5.465   3.910   0.439
10138SOL    HW131313   5.390   3.883   0.379
10138SOL    HW231314   5.429   3.945   0.525
10139SOL     OW31315   3.221   3.408   3.266
10139SOL    HW131316   3.144   3.346   3.254
10139SOL    HW231317   3.284   3.370   3.334
10140SOL     OW31318   0.040   6.511   6.960
10140SOL    HW131319   0.011   6.595   7.006
10140SOL    HW231320   0.116   6.531   6.898
10141SOL     OW31321   4.008   0.883   5.790
10141SOL    HW131322   3.979   0.815   5.723
10141SOL    HW231323   3.969   0.862   5.879
10142SOL     OW31324   6.528   0.021   5.587
10142SOL    HW131325   6.455   7.007   5.644
10142SOL    HW231326   6.588   0.078   5.642
10143SOL     OW31327   5.169   1.749   0.524
10143SOL    HW131328   5.125   1.667   0.561
10143SOL    HW231329   5.148   1.828   0.582
10144SOL     OW31330   3.996   0.141   6.129
10144SOL    HW131331   4.018   0.055   6.082
10144SOL    HW231332   4.076   0.201   6.126
10145SOL     OW31333   3.207   5.297   3.285
10145SOL    HW131334   3.188   5.275   3.189
10145SOL    HW231335   3.191   5.394   3.301
10146SOL     OW31336   4.755   4.062   5.126
10146SOL    HW131337   4.776   4.059   5.028
10146SOL    HW231338   4.748   3.969   5.161
10147SOL     OW31339   5.204   4.364   6.319
10147SOL    HW131340   5.194   4.461   6.340
10147SOL    HW231341   5.296   4.346   6.285
10148SOL     OW31342   4.988   4.826   6.507
10148SOL    HW131343   5.059   4.772   6.462
10148SOL    HW231344   4.903   4.773   6.509
10149SOL     OW31345   5.800   3.784   2.038
10149SOL    HW131346   5.880   3.842   2.051
10149SOL    HW231347   5.742   3.821   1.965
10150SOL     OW31348   3.870   3.408   0.985
10150SOL    HW131349   3.896   3.400   1.081
10150SOL    HW231350   3.898   3.498   0.950
10151SOL     OW31351   0.684   5.826   0.287
10151SOL    HW131352   0.691   5.769   0.206
10151SOL    HW231353   0.647   5.916   0.262
10152SOL     OW31354   6.633   6.522   4.035
10152SOL    HW131355   6.555   6.464   4.057
10152SOL    HW231356   6.623   6.559   3.943
10153SOL     OW31357   4.372   6.016   3.106
10153SOL    HW131358   4.410   6.028   3.014
10153SOL    HW231359   4.443   6.035   3.174
10154SOL     OW31360   4.084   6.140   4.792
10154SOL    HW131361   4.003   6.121   4.847
10154SOL    HW231362   4.137   6.056   4.781
10155SOL     OW31363   4.103   2.223   6.567
10155SOL    HW131364   4.017   2.228   6.617
10155SOL    HW231365   4.157   2.306   6.585
10156SOL     OW31366   4.951   0.539   2.409
10156SOL    HW131367   4.961   0.450   2.364
10156SOL    HW231368   5.032   0.594   2.391
10157SOL     OW31369   0.169   2.114   0.189
10157SOL    HW131370   0.147   2.019   0.211
10157SOL    HW231371   0.136   2.174   0.262
10158SOL     OW31372   6.462   5.804   0.722
10158SOL    HW131373   6.487   5.763   0.810
10158SOL    HW231374   6.507   5.893   0.714
10159SOL     OW31375   2.720   2.544   1.055
10159SOL    HW131376   2.724   2.643   1.069
10159SOL    HW231377   2.812   2.506   1.066
10160SOL     OW31378   1.510   2.702   2.199
10160SOL    HW131379   1.489   2.769   2.127
10160SOL    HW231380   1.592   2.651   2.174
10161SOL     OW31381   3.989   3.988   0.809
10161SOL    HW131382   3.985   3.921   0.735
10161SOL    HW231383   4.066   3.966   0.870
10162SOL     OW31384   3.754   4.486   0.662
10162SOL    HW131385   3.804   4.449   0.584
10162SOL    HW231386   3.817   4.503   0.738
10163SOL     OW31387   6.728   3.699   0.330
10163SOL    HW131388   6.671   3.777   0.301
10163SOL    HW231389   6.672   3.634   0.380
10164SOL     OW31390   6.160   3.643   4.390
10164SOL    HW131391   6.132   3.547   4.379
10164SOL    HW231392   6.127   3.677   4.478
10165SOL     OW31393   6.570   1.217   3.799
10165SOL    HW131394   6.649   1.269   3.833
10165SOL    HW231395   6.602   1.141   3.742
10166SOL     OW31396   3.517   1.799   1.692
10166SOL    HW131397   3.421   1.814   1.668
10166SOL    HW231398   3.558   1.736   1.626
10167SOL     OW31399   1.006   4.829   6.869
10167SOL    HW131400   1.030   4.751   6.927
10167SOL    HW231401   1.082   4.895   6.870
10168SOL     OW31402   6.202   2.462   6.416
10168SOL    HW131403   6.254   2.378   6.399
10168SOL    HW231404   6.228   2.531   6.349
10169SOL     OW31405   0.384   3.908   3.436
10169SOL    HW131406   0.384   3.838   3.507
10169SOL    HW231407   0.303   3.965   3.446
10170SOL     OW31408   6.388   5.864   5.942
10170SOL    HW131409   6.350   5.781   5.900
10170SOL    HW231410   6.433   5.840   6.028
10171SOL     OW31411   0.486   2.124   4.980
10171SOL    HW131412   0.573   2.107   5.025
10171SOL    HW231413   0.455   2.041   4.933
10172SOL     OW31414   1.096   5.544   5.169
10172SOL    HW131415   1.136   5.453   5.152
10172SOL    HW231416   1.086   5.558   5.267
10173SOL     OW31417   2.402   2.352   0.430
10173SOL    HW131418   2.399   2.308   0.520
10173SOL    HW231419   2.475   2.312   0.376
10174SOL     OW31420   5.026   5.264   3.156
10174SOL    HW131421   5.080   5.210   3.220
10174SOL    HW231422   4.938   5.288   3.198
10175SOL     OW31423   5.227   2.688   2.854
10175SOL    HW131424   5.254   2.649   2.942
10175SOL    HW231425   5.174   2.771   2.869
10176SOL     OW31426   0.464   3.146   5.105
10176SOL    HW131427   0.408   3.069   5.074
10176SOL    HW231428   0.541   3.159   5.042
10177SOL     OW31429   1.876   0.736   1.425
10177SOL    HW131430   1.887   0.782   1.338
10177SOL    HW231431   1.800   0.778   1.476
10178SOL     OW31432   6.816   0.397   7.003
10178SOL    HW131433   6.764   0.461   0.036
10178SOL    HW231434   6.871   0.449   6.937
10179SOL     OW31435   0.320   2.584   0.056
10179SOL    HW131436   0.301   2.508   0.118
10179SOL    HW231437   0.239   2.602   7.024
10180SOL     OW31438   4.183   0.338   6.132
10180SOL    HW131439   4.281   0.348   6.148
10180SOL    HW231440   4.136   0.423   6.156
10181SOL     OW31441   6.400   3.227   1.501
10181SOL    HW131442   6.492   3.220   1.539
10181SOL    HW231443   6.333   3.206   1.572
10182SOL     OW31444   4.444   0.939   1.285
10182SOL    HW131445   4.348   0.923   1.309
10182SOL    HW231446   4.492   0.851   1.278
10183SOL     OW31447   6.552   2.588   6.123
10183SOL    HW131448   6.605   2.523   6.177
10183SOL    HW231449   6.575   2.681   6.151
10184SOL     OW31450   4.436   1.448   6.154
10184SOL    HW131451   4.395   1.479   6.240
10184SOL    HW231452   4.463   1.352   6.163
10185SOL     OW31453   5.842   5.959   3.227
10185SOL    HW131454   5.922   5.990   3.278
10185SOL    HW231455   5.797   5.885   3.276
10186SOL     OW31456   5.129   4.060   4.335
10186SOL    HW131457   5.077   4.094   4.256
10186SOL    HW231458   5.165   3.969   4.314
10187SOL     OW31459   1.285   3.996   6.542
10187SOL    HW131460   1.336   4.065   6.490
10187SOL    HW231461   1.215   3.956   6.483
10188SOL     OW31462   3.714   4.214   6.756
10188SOL    HW131463   3.660   4.174   6.681
10188SOL    HW231464   3.665   4.293   6.793
10189SOL     OW31465   0.123   1.262   6.835
10189SOL    HW131466   0.134   1.212   6.921
10189SOL    HW231467   0.209   1.306   6.811
10190SOL     OW31468   3.901   3.375   1.251
10190SOL    HW131469   3.982   3.427   1.277
10190SOL    HW231470   3.922   3.277   1.254
10191SOL     OW31471   4.743   5.607   6.399
10191SOL    HW131472   4.655   5.568   6.424
10191SOL    HW231473   4.807   5.596   6.475
10192SOL     OW31474   4.241   1.228   5.570
10192SOL    HW131475   4.217   1.189   5.659
10192SOL    HW231476   4.206   1.322   5.564
10193SOL     OW31477   3.760   2.949   2.048
10193SOL    HW131478   3.816   2.935   2.130
10193SOL    HW231479   3.675   2.899   2.057
10194SOL     OW31480   4.628   0.483   5.712
10194SOL    HW131481   4.718   0.500   5.671
10194SOL    HW231482   4.636   0.411   5.781
10195SOL     OW31483   6.883   6.450   0.659
10195SOL    HW131484   6.839   6.393   0.728
10195SOL    HW231485   6.871   6.409   0.569
10196SOL     OW31486   3.789   2.168   3.709
10196SOL    HW131487   3.690   2.176   3.719
10196SOL    HW231488   3.810   2.141   3.615
10197SOL     OW31489   5.639   2.023   4.667
10197SOL    HW131490   5.691   2.016   4.752
10197SOL    HW231491   5.624   1.931   4.630
10198SOL     OW31492   3.294   6.834   2.244
10198SOL    HW131493   3.263   6.923   2.277
10198SOL    HW231494   3.221   6.767   2.255
10199SOL     OW31495   1.206   2.426   0.682
10199SOL    HW131496   1.272   2.500   0.691
10199SOL    HW231497   1.251   2.339   0.701
10200SOL     OW31498   4.697   3.242   5.380
10200SOL    HW131499   4.603   3.214   5.400
10200SOL    HW231500   4.704   3.341   5.383
10201SOL     OW31501   1.536   5.377   0.178
10201SOL    HW131502   1.456   5.324   0.150
10201SOL    HW231503   1.619   5.327   0.153
10202SOL     OW31504   2.872   4.800   0.334
10202SOL    HW131505   2.883   4.875   0.269
10202SOL    HW231506   2.961   4.756   0.348
10203SOL     OW31507   6.506   3.224   1.900
10203SOL    HW131508   6.543   3.277   1.824
10203SOL    HW231509   6.523   3.271   1.986
10204SOL     OW31510   4.270   5.561   6.147
10204SOL    HW131511   4.253   5.498   6.222
10204SOL    HW231512   4.352   5.533   6.097
10205SOL     OW31513   2.410   1.077   2.529
10205SOL    HW131514   2.327   1.050   2.579
10205SOL    HW231515   2.400   1.051   2.433
10206SOL     OW31516   6.813   0.278   6.450
10206SOL    HW131517   6.887   0.313   6.393
10206SOL    HW231518   6.761   0.210   6.399
10207SOL     OW31519   1.122   1.908   6.875
10207SOL    HW131520   1.091   1.987   6.822
10207SOL    HW231521   1.213   1.880   6.844
10208SOL     OW31522   6.721   5.541   3.901
10208SOL    HW131523   6.648   5.610   3.904
10208SOL    HW231524   6.695   5.463   3.957
10209SOL     OW31525   0.199   0.085   6.382
10209SOL    HW131526   0.172   0.149   6.454
10209SOL    HW231527   0.225   7.022   6.423
10210SOL     OW31528   4.812   6.191   0.532
10210SOL    HW131529   4.900   6.191   0.486
10210SOL    HW231530   4.814   6.128   0.609
10211SOL     OW31531   4.330   6.241   4.786
10211SOL    HW131532   4.367   6.214   4.875
10211SOL    HW231533   4.250   6.184   4.765
10212SOL     OW31534   0.166   0.138   5.391
10212SOL    HW131535   0.101   0.068   5.363
10212SOL    HW231536   0.233   0.153   5.318
10213SOL     OW31537   5.342   3.040   2.185
10213SOL    HW131538   5.250   3.080   2.182
10213SOL    HW231539   5.341   2.950   2.142
10214SOL     OW31540   0.652   1.608   1.692
10214SOL    HW131541   0.565   1.656   1.681
10214SOL    HW231542   0.707   1.653   1.762
10215SOL     OW31543   3.751   2.908   3.895
10215SOL    HW131544   3.727   2.817   3.929
10215SOL    HW231545   3.735   2.911   3.796
10216SOL     OW31546   0.391   1.479   0.621
10216SOL    HW131547   0.375   1.381   0.630
10216SOL    HW231548   0.453   1.509   0.694
10217SOL     OW31549   1.748   2.134   3.756
10217SOL    HW131550   1.651   2.133   3.782
10217SOL    HW231551   1.781   2.228   3.754
10218SOL     OW31552   0.942   0.701   1.390
10218SOL    HW131553   0.983   0.703   1.299
10218SOL    HW231554   1.013   0.687   1.459
10219SOL     OW31555   0.458   2.146   2.769
10219SOL    HW131556   0.546   2.165   2.726
10219SOL    HW231557   0.435   2.049   2.758
10220SOL     OW31558   4.124   1.384   1.850
10220SOL    HW131559   4.132   1.295   1.806
10220SOL    HW231560   4.108   1.455   1.780
10221SOL     OW31561   1.608   3.428   4.952
10221SOL    HW131562   1.701   3.420   4.918
10221SOL    HW231563   1.549   3.462   4.879
10222SOL     OW31564   3.072   3.910   5.509
10222SOL    HW131565   3.159   3.951   5.483
10222SOL    HW231566   3.065   3.818   5.471
10223SOL     OW31567   2.584   5.410   0.216
10223SOL    HW131568   2.648   5.371   0.282
10223SOL    HW231569   2.611   5.384   0.123
10224SOL     OW31570   6.737   2.035   5.454
10224SOL    HW131571   6.777   2.086   5.377
10224SOL    HW231572   6.642   2.066   5.467
10225SOL     OW31573   1.782   5.821   5.927
10225SOL    HW131574   1.868   5.776   5.953
10225SOL    HW231575   1.720   5.823   6.006
10226SOL     OW31576   1.994   0.398   5.966
10226SOL    HW131577   2.065   0.469   5.969
10226SOL    HW231578   2.010   0.331   6.038
10227SOL     OW31579   4.890   4.199   0.160
10227SOL    HW131580   4.840   4.113   0.171
10227SOL    HW231581   4.851   4.268   0.221
10228SOL     OW31582   1.424   5.667   2.129
10228SOL    HW131583   1.410   5.745   2.190
10228SOL    HW231584   1.497   5.688   2.064
10229SOL     OW31585   2.074   1.904   4.387
10229SOL    HW131586   2.141   1.855   4.443
10229SOL    HW231587   2.109   1.917   4.295
10230SOL     OW31588   6.440   6.945   3.281
10230SOL    HW131589   6.540   6.943   3.272
10230SOL    HW231590   6.408   6.857   3.316
10231SOL     OW31591   6.081   5.305   5.395
10231SOL    HW131592   6.103   5.322   5.491
10231SOL    HW231593   6.122   5.218   5.367
10232SOL     OW31594   2.754   1.650   3.837
10232SOL    HW131595   2.805   1.729   3.871
10232SOL    HW231596   2.728   1.591   3.913
10233SOL     OW31597   4.247   4.036   5.920
10233SOL    HW131598   4.308   3.964   5.953
10233SOL    HW231599   4.253   4.042   5.820
10234SOL     OW31600   6.309   1.082   0.087
10234SOL    HW131601   6.307   0.983   0.074
10234SOL    HW231602   6.339   1.103   0.180
10235SOL     OW31603   3.381   2.049   0.844
10235SOL    HW131604   3.352   2.099   0.925
10235SOL    HW231605   3.474   2.016   0.857
10236SOL     OW31606   1.665   0.909   1.479
10236SOL    HW131607   1.582   0.859   1.502
10236SOL    HW231608   1.660   0.941   1.384
10237SOL     OW31609   6.922   4.283   6.521
10237SOL    HW131610   6.985   4.206   6.520
10237SOL    HW231611   6.828   4.250   6.532
10238SOL     OW31612   3.846   3.932   2.312
10238SOL    HW131613   3.815   4.027   2.318
10238SOL    HW231614   3.799   3.887   2.236
10239SOL     OW31615   2.018   3.656   5.600
10239SOL    HW131616   2.109   3.614   5.601
10239SOL    HW231617   1.949   3.587   5.621
10240SOL     OW31618   1.951   4.557   2.805
10240SOL    HW131619   1.896   4.473   2.804
10240SOL    HW231620   1.966   4.586   2.899
10241SOL     OW31621   6.849   6.268   3.187
10241SOL    HW131622   6.804   6.267   3.097
10241SOL    HW231623   6.781   6.290   3.257
10242SOL     OW31624   0.064   1.366   1.591
10242SOL    HW131625   0.075   1.423   1.510
10242SOL    HW231626   0.101   1.275   1.574
10243SOL     OW31627   2.027   4.714   2.233
10243SOL    HW131628   2.126   4.713   2.219
10243SOL    HW231629   1.993   4.808   2.230
10244SOL     OW31630   1.663   4.118   0.394
10244SOL    HW131631   1.761   4.136   0.380
10244SOL    HW231632   1.617   4.202   0.420
10245SOL     OW31633   3.407   4.859   0.573
10245SOL    HW131634   3.361   4.870   0.661
10245SOL    HW231635   3.443   4.948   0.543
10246SOL     OW31636   3.321   3.182   3.404
10246SOL    HW131637   3.334   3.163   3.502
10246SOL    HW231638   3.409   3.179   3.358
10247SOL     OW31639   6.728   4.322   6.077
10247SOL    HW131640   6.816   4.368   6.081
10247SOL    HW231641   6.725   4.249   6.146
10248SOL     OW31642   1.544   0.046   2.948
10248SOL    HW131643   1.528   0.015   3.042
10248SOL    HW231644   1.566   0.144   2.948
10249SOL     OW31645   2.371   6.655   6.670
10249SOL    HW131646   2.455   6.605   6.649
10249SOL    HW231647   2.341   6.634   6.763
10250SOL     OW31648   6.226   2.898   1.925
10250SOL    HW131649   6.138   2.946   1.923
10250SOL    HW231650   6.257   2.881   1.832
10251SOL     OW31651   2.492   1.478   4.602
10251SOL    HW131652   2.565   1.502   4.666
10251SOL    HW231653   2.445   1.396   4.634
10252SOL     OW31654   4.261   5.149   6.516
10252SOL    HW131655   4.295   5.079   6.453
10252SOL    HW231656   4.180   5.115   6.562
10253SOL     OW31657   2.781   6.812   0.426
10253SOL    HW131658   2.776   6.714   0.445
10253SOL    HW231659   2.842   6.856   0.491
10254SOL     OW31660   4.756   0.573   5.278
10254SOL    HW131661   4.657   0.556   5.283
10254SOL    HW231662   4.772   0.655   5.223
10255SOL     OW31663   1.581   6.265   0.786
10255SOL    HW131664   1.534   6.350   0.809
10255SOL    HW231665   1.640   6.238   0.861
10256SOL     OW31666   5.409   1.108   1.552
10256SOL    HW131667   5.362   1.196   1.548
10256SOL    HW231668   5.342   1.035   1.567
10257SOL     OW31669   2.480   5.119   4.581
10257SOL    HW131670   2.534   5.044   4.619
10257SOL    HW231671   2.452   5.180   4.655
10258SOL     OW31672   3.399   1.013   3.893
10258SOL    HW131673   3.416   1.035   3.989
10258SOL    HW231674   3.426   1.091   3.836
10259SOL     OW31675   0.522   4.995   3.436
10259SOL    HW131676   0.474   4.937   3.371
10259SOL    HW231677   0.530   5.088   3.399
10260SOL     OW31678   1.221   1.070   4.091
10260SOL    HW131679   1.228   1.094   4.187
10260SOL    HW231680   1.298   1.013   4.064
10261SOL     OW31681   0.280   5.484   3.333
10261SOL    HW131682   0.267   5.534   3.247
10261SOL    HW231683   0.310   5.391   3.313
10262SOL     OW31684   2.321   6.998   5.092
10262SOL    HW131685   2.417   6.998   5.065
10262SOL    HW231686   2.270   0.038   5.035
10263SOL     OW31687   5.391   0.733   6.945
10263SOL    HW131688   5.442   0.653   6.913
10263SOL    HW231689   5.432   0.816   6.907
10264SOL     OW31690   6.173   0.686   6.932
10264SOL    HW131691   6.084   0.657   6.968
10264SOL    HW231692   6.233   0.713   7.008
10265SOL     OW31693   1.983   2.494   1.832
10265SOL    HW131694   2.061   2.523   1.776
10265SOL    HW231695   2.003   2.405   1.873
10266SOL     OW31696   4.061   3.291   3.798
10266SOL    HW131697   3.999   3.323   3.869
10266SOL    HW231698   4.091   3.368   3.743
10267SOL     OW31699   5.684   2.364   6.703
10267SOL    HW131700   5.757   2.296   6.701
10267SOL    HW231701   5.599   2.321   6.673
10268SOL     OW31702   6.158   5.934   2.306
10268SOL    HW131703   6.184   5.851   2.353
10268SOL    HW231704   6.200   6.013   2.350
10269SOL     OW31705   0.438   3.413   0.018
10269SOL    HW131706   0.502   3.480   7.005
10269SOL    HW231707   0.433   3.335   6.981
10270SOL     OW31708   3.842   4.992   2.792
10270SOL    HW131709   3.784   5.047   2.851
10270SOL    HW231710   3.785   4.939   2.729
10271SOL     OW31711   3.299   2.433   5.574
10271SOL    HW131712   3.281   2.485   5.657
10271SOL    HW231713   3.396   2.441   5.550
10272SOL     OW31714   0.887   1.378   4.664
10272SOL    HW131715   0.913   1.360   4.570
10272SOL    HW231716   0.873   1.476   4.677
10273SOL     OW31717   2.983   5.847   2.885
10273SOL    HW131718   3.043   5.921   2.916
10273SOL    HW231719   3.006   5.822   2.791
10274SOL     OW31720   0.545   5.459   4.877
10274SOL    HW131721   0.631   5.493   4.839
10274SOL    HW231722   0.555   5.362   4.899
10275SOL     OW31723   0.244   6.624   1.684
10275SOL    HW131724   0.192   6.656   1.604
10275SOL    HW231725   0.232   6.690   1.759
10276SOL     OW31726   5.619   5.011   5.332
10276SOL    HW131727   5.550   5.084   5.332
10276SOL    HW231728   5.706   5.048   5.364
10277SOL     OW31729   1.772   5.233   3.480
10277SOL    HW131730   1.699   5.265   3.420
10277SOL    HW231731   1.840   5.185   3.426
10278SOL     OW31732   6.873   1.959   4.763
10278SOL    HW131733   6.956   1.939   4.711
10278SOL    HW231734   6.804   1.889   4.744
10279SOL     OW31735   3.175   5.534   3.606
10279SOL    HW131736   3.250   5.469   3.615
10279SOL    HW231737   3.108   5.517   3.678
10280SOL     OW31738   0.152   3.150   1.092
10280SOL    HW131739   0.227   3.214   1.112
10280SOL    HW231740   0.098   3.185   1.015
10281SOL     OW31741   5.729   1.548   2.370
10281SOL    HW131742   5.791   1.480   2.331
10281SOL    HW231743   5.750   1.561   2.467
10282SOL     OW31744   5.021   4.028   4.570
10282SOL    HW131745   5.050   4.044   4.476
10282SOL    HW231746   5.057   4.100   4.629
10283SOL     OW31747   1.014   3.149   0.332
10283SOL    HW131748   1.082   3.214   0.296
10283SOL    HW231749   1.036   3.057   0.299
10284SOL     OW31750   4.800   3.081   5.181
10284SOL    HW131751   4.773   3.150   5.248
10284SOL    HW231752   4.873   3.024   5.219
10285SOL     OW31753   5.637   0.356   2.446
10285SOL    HW131754   5.594   0.435   2.490
10285SOL    HW231755   5.567   0.302   2.399
10286SOL     OW31756   3.295   2.156   3.808
10286SOL    HW131757   3.252   2.158   3.718
10286SOL    HW231758   3.232   2.194   3.876
10287SOL     OW31759   1.926   0.275   1.480
10287SOL    HW131760   1.980   0.279   1.395
10287SOL    HW231761   1.868   0.356   1.487
10288SOL     OW31762   4.633   6.525   3.257
10288SOL    HW131763   4.655   6.520   3.354
10288SOL    HW231764   4.714   6.501   3.204
10289SOL     OW31765   1.812   6.687   1.040
10289SOL    HW131766   1.806   6.712   0.943
10289SOL    HW231767   1.813   6.588   1.049
10290SOL     OW31768   3.254   3.914   2.328
10290SOL    HW131769   3.156   3.893   2.335
10290SOL    HW231770   3.276   3.939   2.234
10291SOL     OW31771   4.178   1.374   2.984
10291SOL    HW131772   4.121   1.302   3.023
10291SOL    HW231773   4.150   1.462   3.022
10292SOL     OW31774   1.485   0.630   5.111
10292SOL    HW131775   1.397   0.654   5.150
10292SOL    HW231776   1.555   0.695   5.140
10293SOL     OW31777   2.422   4.336   2.973
10293SOL    HW131778   2.344   4.275   2.993
10293SOL    HW231779   2.507   4.284   2.980
10294SOL     OW31780   5.414   2.802   3.193
10294SOL    HW131781   5.478   2.795   3.117
10294SOL    HW231782   5.463   2.796   3.280
10295SOL     OW31783   6.425   4.751   5.995
10295SOL    HW131784   6.479   4.768   5.912
10295SOL    HW231785   6.389   4.838   6.029
10296SOL     OW31786   4.322   1.718   0.880
10296SOL    HW131787   4.388   1.789   0.854
10296SOL    HW231788   4.231   1.745   0.850
10297SOL     OW31789   2.094   6.954   6.548
10297SOL    HW131790   2.173   6.902   6.516
10297SOL    HW231791   2.014   6.894   6.551
10298SOL     OW31792   2.977   4.298   1.445
10298SOL    HW131793   2.916   4.372   1.417
10298SOL    HW231794   3.040   4.276   1.371
10299SOL     OW31795   5.153   4.816   3.106
10299SOL    HW131796   5.157   4.874   3.024
10299SOL    HW231797   5.246   4.788   3.131
10300SOL     OW31798   1.158   3.701   3.681
10300SOL    HW131799   1.077   3.752   3.708
10300SOL    HW231800   1.205   3.749   3.608
10301SOL     OW31801   5.331   2.776   4.763
10301SOL    HW131802   5.388   2.852   4.731
10301SOL    HW231803   5.236   2.807   4.772
10302SOL     OW31804   2.452   6.543   4.219
10302SOL    HW131805   2.409   6.562   4.308
10302SOL    HW231806   2.545   6.510   4.234
10303SOL     OW31807   1.841   6.199   2.524
10303SOL    HW131808   1.886   6.129   2.579
10303SOL    HW231809   1.910   6.262   2.487
10304SOL     OW31810   5.413   0.075   1.778
10304SOL    HW131811   5.431   0.022   1.860
10304SOL    HW231812   5.398   0.171   1.803
10305SOL     OW31813   0.926   4.339   6.322
10305SOL    HW131814   1.012   4.289   6.308
10305SOL    HW231815   0.855   4.276   6.351
10306SOL     OW31816   4.873   6.955   6.146
10306SOL    HW131817   4.858   6.857   6.134
10306SOL    HW231818   4.810   7.006   6.087
10307SOL     OW31819   2.654   2.334   5.736
10307SOL    HW131820   2.646   2.377   5.646
10307SOL    HW231821   2.657   2.405   5.807
10308SOL     OW31822   2.697   4.718   3.348
10308SOL    HW131823   2.722   4.630   3.308
10308SOL    HW231824   2.773   4.752   3.404
10309SOL     OW31825   6.909   2.021   5.041
10309SOL    HW131826   6.854   1.970   5.107
10309SOL    HW231827   6.893   1.985   4.949
10310SOL     OW31828   3.178   3.999   1.551
10310SOL    HW131829   3.203   3.939   1.626
10310SOL    HW231830   3.084   3.978   1.521
10311SOL     OW31831   0.270   6.338   0.524
10311SOL    HW131832   0.359   6.342   0.478
10311SOL    HW231833   0.256   6.422   0.577
10312SOL     OW31834   3.322   6.540   2.531
10312SOL    HW131835   3.251   6.608   2.547
10312SOL    HW231836   3.402   6.561   2.587
10313SOL     OW31837   4.850   6.738   1.505
10313SOL    HW131838   4.778   6.805   1.522
10313SOL    HW231839   4.900   6.764   1.422
10314SOL     OW31840   6.328   0.610   1.690
10314SOL    HW131841   6.284   0.591   1.778
10314SOL    HW231842   6.368   0.526   1.654
10315SOL     OW31843   5.297   6.245   4.894
10315SOL    HW131844   5.199   6.260   4.907
10315SOL    HW231845   5.348   6.309   4.950
10316SOL     OW31846   6.493   2.318   4.207
10316SOL    HW131847   6.508   2.277   4.296
10316SOL    HW231848   6.571   2.298   4.147
10317SOL     OW31849   3.755   5.542   5.150
10317SOL    HW131850   3.750   5.526   5.051
10317SOL    HW231851   3.779   5.457   5.196
10318SOL     OW31852   5.018   6.058   6.166
10318SOL    HW131853   5.012   6.042   6.265
10318SOL    HW231854   4.965   6.139   6.142
10319SOL     OW31855   1.818   2.219   6.067
10319SOL    HW131856   1.736   2.240   6.013
10319SOL    HW231857   1.855   2.304   6.105
10320SOL     OW31858   0.120   0.448   3.208
10320SOL    HW131859   0.044   0.502   3.170
10320SOL    HW231860   0.145   0.486   3.297
10321SOL     OW31861   3.858   0.857   2.554
10321SOL    HW131862   3.950   0.892   2.539
10321SOL    HW231863   3.863   0.766   2.595
10322SOL     OW31864   6.256   6.100   6.059
10322SOL    HW131865   6.203   6.142   5.986
10322SOL    HW231866   6.293   6.013   6.027
10323SOL     OW31867   6.218   3.418   5.719
10323SOL    HW131868   6.129   3.405   5.675
10323SOL    HW231869   6.215   3.499   5.776
10324SOL     OW31870   3.167   2.968   2.687
10324SOL    HW131871   3.198   2.924   2.603
10324SOL    HW231872   3.236   2.956   2.758
10325SOL     OW31873   0.265   3.894   2.750
10325SOL    HW131874   0.336   3.926   2.688
10325SOL    HW231875   0.180   3.943   2.733
10326SOL     OW31876   4.765   3.611   0.420
10326SOL    HW131877   4.751   3.535   0.483
10326SOL    HW231878   4.744   3.581   0.327
10327SOL     OW31879   2.754   2.488   1.708
10327SOL    HW131880   2.808   2.478   1.791
10327SOL    HW231881   2.807   2.454   1.630
10328SOL     OW31882   5.869   1.995   1.299
10328SOL    HW131883   5.885   2.034   1.209
10328SOL    HW231884   5.955   1.963   1.338
10329SOL     OW31885   3.157   0.437   3.796
10329SOL    HW131886   3.196   0.527   3.777
10329SOL    HW231887   3.214   0.390   3.864
10330SOL     OW31888   4.084   6.929   2.549
10330SOL    HW131889   4.147   6.998   2.513
10330SOL    HW231890   4.071   6.945   2.647
10331SOL     OW31891   0.069   1.617   4.577
10331SOL    HW131892   0.074   1.654   4.670
10331SOL    HW231893   0.129   1.669   4.517
10332SOL     OW31894   6.134   1.085   1.066
10332SOL    HW131895   6.178   1.128   1.145
10332SOL    HW231896   6.189   1.101   0.984
10333SOL     OW31897   6.372   4.104   4.758
10333SOL    HW131898   6.341   4.172   4.692
10333SOL    HW231899   6.346   4.013   4.726
10334SOL     OW31900   3.758   6.143   3.663
10334SOL    HW131901   3.753   6.097   3.574
10334SOL    HW231902   3.770   6.241   3.650
10335SOL     OW31903   2.593   4.331   6.498
10335SOL    HW131904   2.564   4.259   6.436
10335SOL    HW231905   2.644   4.291   6.575
10336SOL     OW31906   6.260   0.070   2.709
10336SOL    HW131907   6.179   0.087   2.765
10336SOL    HW231908   6.341   0.069   2.767
10337SOL     OW31909   0.232   6.969   5.761
10337SOL    HW131910   0.278   6.936   5.844
10337SOL    HW231911   0.136   6.985   5.781
10338SOL     OW31912   2.711   6.148   1.926
10338SOL    HW131913   2.788   6.189   1.877
10338SOL    HW231914   2.739   6.059   1.962
10339SOL     OW31915   2.828   5.798   0.144
10339SOL    HW131916   2.761   5.764   0.077
10339SOL    HW231917   2.803   5.765   0.235
10340SOL     OW31918   1.567   5.701   1.243
10340SOL    HW131919   1.609   5.769   1.302
10340SOL    HW231920   1.631   5.676   1.170
10341SOL     OW31921   1.851   3.461   1.778
10341SOL    HW131922   1.872   3.453   1.876
10341SOL    HW231923   1.932   3.495   1.730
10342SOL     OW31924   0.638   6.498   4.900
10342SOL    HW131925   0.621   6.563   4.974
10342SOL    HW231926   0.667   6.410   4.938
10343SOL     OW31927   2.941   5.275   7.020
10343SOL    HW131928   2.997   5.305   6.943
10343SOL    HW231929   2.944   5.345   0.067
10344SOL     OW31930   4.174   4.460   1.716
10344SOL    HW131931   4.236   4.473   1.793
10344SOL    HW231932   4.140   4.549   1.685
10345SOL     OW31933   1.865   1.352   6.736
10345SOL    HW131934   1.911   1.279   6.787
10345SOL    HW231935   1.914   1.438   6.749
10346SOL     OW31936   6.151   6.821   1.500
10346SOL    HW131937   6.195   6.888   1.560
10346SOL    HW231938   6.091   6.763   1.554
10347SOL     OW31939   5.184   2.237   2.238
10347SOL    HW131940   5.175   2.138   2.248
10347SOL    HW231941   5.173   2.262   2.141
10348SOL     OW31942   6.198   1.574   0.271
10348SOL    HW131943   6.244   1.527   0.195
10348SOL    HW231944   6.187   1.671   0.249
10349SOL     OW31945   6.769   1.452   1.472
10349SOL    HW131946   6.803   1.533   1.424
10349SOL    HW231947   6.799   1.370   1.425
10350SOL     OW31948   2.096   6.118   5.498
10350SOL    HW131949   2.126   6.164   5.414
10350SOL    HW231950   2.066   6.025   5.475
10351SOL     OW31951   4.784   5.186   6.241
10351SOL    HW131952   4.795   5.130   6.323
10351SOL    HW231953   4.694   5.231   6.244
10352SOL     OW31954   4.708   2.245   6.686
10352SOL    HW131955   4.662   2.158   6.702
10352SOL    HW231956   4.787   2.253   6.747
10353SOL     OW31957   6.856   2.572   5.536
10353SOL    HW131958   6.873   2.535   5.444
10353SOL    HW231959   6.758   2.577   5.552
10354SOL     OW31960   5.880   2.159   2.430
10354SOL    HW131961   5.801   2.204   2.470
10354SOL    HW231962   5.912   2.211   2.351
10355SOL     OW31963   2.058   0.396   2.168
10355SOL    HW131964   2.114   0.365   2.091
10355SOL    HW231965   2.018   0.485   2.147
10356SOL     OW31966   6.808   3.948   5.929
10356SOL    HW131967   6.723   4.001   5.929
10356SOL    HW231968   6.858   3.966   5.844
10357SOL     OW31969   3.361   2.830   6.616
10357SOL    HW131970   3.264   2.848   6.634
10357SOL    HW231971   3.392   2.885   6.539
10358SOL     OW31972   6.170   3.336   3.767
10358SOL    HW131973   6.105   3.260   3.767
10358SOL    HW231974   6.142   3.404   3.835
10359SOL     OW31975   6.431   1.461   1.852
10359SOL    HW131976   6.521   1.423   1.876
10359SOL    HW231977   6.438   1.508   1.764
10360SOL     OW31978   4.415   5.420   1.215
10360SOL    HW131979   4.420   5.519   1.206
10360SOL    HW231980   4.407   5.395   1.311
10361SOL     OW31981   2.586   1.039   3.052
10361SOL    HW131982   2.664   1.094   3.021
10361SOL    HW231983   2.540   0.999   2.972
10362SOL     OW31984   0.812   5.352   3.800
10362SOL    HW131985   0.770   5.264   3.777
10362SOL    HW231986   0.752   5.426   3.770
10363SOL     OW31987   4.446   2.869   0.917
10363SOL    HW131988   4.407   2.778   0.902
10363SOL    HW231989   4.410   2.933   0.849
10364SOL     OW31990   3.412   3.466   1.982
10364SOL    HW131991   3.476   3.531   2.022
10364SOL    HW231992   3.344   3.440   2.051
10365SOL     OW31993   5.464   4.569   5.673
10365SOL    HW131994   5.523   4.500   5.714
10365SOL    HW231995   5.383   4.525   5.635
10366SOL     OW31996   4.074   6.901   4.029
10366SOL    HW131997   4.114   6.809   4.031
10366SOL    HW231998   3.989   6.898   3.978
10367SOL     OW31999   6.743   1.908   2.402
10367SOL    HW132000   6.727   1.823   2.352
10367SOL    HW232001   6.799   1.969   2.346
10368SOL     OW32002   2.181   1.052   2.694
10368SOL    HW132003   2.139   0.964   2.716
10368SOL    HW232004   2.113   1.125   2.707
10369SOL     OW32005   3.565   1.084   5.664
10369SOL    HW132006   3.645   1.077   5.725
10369SOL    HW232007   3.487   1.116   5.717
10370SOL     OW32008   5.711   1.225   5.455
10370SOL    HW132009   5.726   1.215   5.357
10370SOL    HW232010   5.621   1.265   5.471
10371SOL     OW32011   2.386   5.863   4.497
10371SOL    HW132012   2.339   5.803   4.563
10371SOL    HW232013   2.432   5.807   4.428
10372SOL     OW32014   1.820   1.164   0.604
10372SOL    HW132015   1.863   1.103   0.538
10372SOL    HW232016   1.890   1.205   0.662
10373SOL     OW32017   1.538   6.532   5.416
10373SOL    HW132018   1.612   6.481   5.373
10373SOL    HW232019   1.487   6.471   5.477
10374SOL     OW32020   2.614   1.280   3.325
10374SOL    HW132021   2.565   1.314   3.245
10374SOL    HW232022   2.662   1.355   3.370
10375SOL     OW32023   2.746   1.959   6.572
10375SOL    HW132024   2.776   1.917   6.487
10375SOL    HW232025   2.795   2.044   6.587
10376SOL     OW32026   1.131   5.661   3.546
10376SOL    HW132027   1.147   5.694   3.639
10376SOL    HW232028   1.037   5.628   3.539
10377SOL     OW32029   6.197   0.832   3.882
10377SOL    HW132030   6.160   0.905   3.825
10377SOL    HW232031   6.121   0.777   3.918
10378SOL     OW32032   5.576   6.844   5.304
10378SOL    HW132033   5.643   6.885   5.243
10378SOL    HW232034   5.527   6.916   5.353
10379SOL     OW32035   3.273   6.655   4.240
10379SOL    HW132036   3.307   6.561   4.230
10379SOL    HW232037   3.208   6.658   4.316
10380SOL     OW32038   0.719   2.415   5.041
10380SOL    HW132039   0.760   2.498   5.003
10380SOL    HW232040   0.705   2.348   4.968
10381SOL     OW32041   4.242   4.523   0.706
10381SOL    HW132042   4.229   4.601   0.767
10381SOL    HW232043   4.308   4.548   0.634
10382SOL     OW32044   2.148   4.823   1.351
10382SOL    HW132045   2.216   4.895   1.343
10382SOL    HW232046   2.191   4.734   1.330
10383SOL     OW32047   0.426   3.992   0.819
10383SOL    HW132048   0.423   3.939   0.904
10383SOL    HW232049   0.447   3.930   0.743
10384SOL     OW32050   6.686   0.455   1.139
10384SOL    HW132051   6.706   0.404   1.223
10384SOL    HW232052   6.684   0.553   1.160
10385SOL     OW32053   3.841   6.614   5.903
10385SOL    HW132054   3.773   6.628   5.831
10385SOL    HW232055   3.912   6.551   5.869
10386SOL     OW32056   6.549   1.580   5.214
10386SOL    HW132057   6.509   1.635   5.286
10386SOL    HW232058   6.586   1.640   5.143
10387SOL     OW32059   4.678   1.754   2.376
10387SOL    HW132060   4.580   1.736   2.384
10387SOL    HW232061   4.728   1.679   2.420
10388SOL     OW32062   2.168   5.643   2.256
10388SOL    HW132063   2.090   5.611   2.309
10388SOL    HW232064   2.180   5.585   2.175
10389SOL     OW32065   6.649   6.225   1.128
10389SOL    HW132066   6.735   6.276   1.131
10389SOL    HW232067   6.594   6.247   1.208
10390SOL     OW32068   1.936   2.218   1.304
10390SOL    HW132069   1.919   2.236   1.401
10390SOL    HW232070   2.032   2.190   1.291
10391SOL     OW32071   7.023   6.057   3.773
10391SOL    HW132072   7.023   6.037   3.675
10391SOL    HW232073   0.040   6.146   3.789
10392SOL     OW32074   6.644   4.135   6.271
10392SOL    HW132075   6.651   4.164   6.367
10392SOL    HW232076   6.710   4.062   6.254
10393SOL     OW32077   2.456   2.463   2.499
10393SOL    HW132078   2.362   2.428   2.502
10393SOL    HW232079   2.514   2.399   2.449
10394SOL     OW32080   2.236   5.898   4.839
10394SOL    HW132081   2.231   5.840   4.758
10394SOL    HW232082   2.328   5.894   4.878
10395SOL     OW32083   6.925   1.020   3.580
10395SOL    HW132084   6.829   1.012   3.608
10395SOL    HW232085   6.983   1.027   3.661
10396SOL     OW32086   2.842   0.708   3.932
10396SOL    HW132087   2.843   0.643   3.856
10396SOL    HW232088   2.892   0.669   4.009
10397SOL     OW32089   2.958   1.659   4.380
10397SOL    HW132090   3.012   1.634   4.300
10397SOL    HW232091   2.870   1.695   4.351
10398SOL     OW32092   4.962   2.142   0.466
10398SOL    HW132093   4.920   2.057   0.435
10398SOL    HW232094   4.909   2.220   0.432
10399SOL     OW32095   4.248   1.761   4.830
10399SOL    HW132096   4.312   1.837   4.826
10399SOL    HW232097   4.167   1.787   4.882
10400SOL     OW32098   4.051   5.287   0.410
10400SOL    HW132099   4.000   5.359   0.457
10400SOL    HW232100   4.102   5.233   0.477
10401SOL     OW32101   0.119   0.287   2.502
10401SOL    HW132102   0.183   0.346   2.452
10401SOL    HW232103   0.166   0.244   2.579
10402SOL     OW32104   0.484   2.238   5.863
10402SOL    HW132105   0.401   2.278   5.824
10402SOL    HW232106   0.467   2.212   5.958
10403SOL     OW32107   4.427   1.250   3.032
10403SOL    HW132108   4.337   1.289   3.012
10403SOL    HW232109   4.430   1.219   3.127
10404SOL     OW32110   6.821   6.944   4.679
10404SOL    HW132111   6.827   6.894   4.593
10404SOL    HW232112   6.855   6.887   4.753
10405SOL     OW32113   1.464   5.605   4.610
10405SOL    HW132114   1.393   5.551   4.656
10405SOL    HW232115   1.449   5.602   4.511
10406SOL     OW32116   2.060   3.203   5.420
10406SOL    HW132117   2.060   3.226   5.323
10406SOL    HW232118   2.125   3.129   5.437
10407SOL     OW32119   2.492   0.621   6.453
10407SOL    HW132120   2.500   0.709   6.406
10407SOL    HW232121   2.429   0.629   6.530
10408SOL     OW32122   4.101   6.489   2.015
10408SOL    HW132123   4.130   6.394   2.024
10408SOL    HW232124   4.052   6.518   2.097
10409SOL     OW32125   0.713   4.060   0.555
10409SOL    HW132126   0.698   4.063   0.456
10409SOL    HW232127   0.644   4.117   0.601
10410SOL     OW32128   5.584   2.420   1.333
10410SOL    HW132129   5.566   2.388   1.240
10410SOL    HW232130   5.677   2.394   1.360
10411SOL     OW32131   4.021   5.848   4.631
10411SOL    HW132132   4.108   5.887   4.660
10411SOL    HW232133   3.970   5.819   4.712
10412SOL     OW32134   6.632   0.870   0.657
10412SOL    HW132135   6.602   0.786   0.701
10412SOL    HW232136   6.726   0.891   0.684
10413SOL     OW32137   6.947   1.673   1.371
10413SOL    HW132138   6.899   1.747   1.418
10413SOL    HW232139   7.024   1.712   1.319
10414SOL     OW32140   3.927   6.042   5.571
10414SOL    HW132141   3.933   5.996   5.483
10414SOL    HW232142   3.992   6.001   5.634
10415SOL     OW32143   2.254   4.199   3.819
10415SOL    HW132144   2.185   4.271   3.832
10415SOL    HW232145   2.326   4.210   3.887
10416SOL     OW32146   5.782   0.313   5.116
10416SOL    HW132147   5.796   0.362   5.202
10416SOL    HW232148   5.798   0.215   5.131
10417SOL     OW32149   4.754   5.536   4.359
10417SOL    HW132150   4.806   5.454   4.338
10417SOL    HW232151   4.674   5.541   4.300
10418SOL     OW32152   6.152   3.983   5.812
10418SOL    HW132153   6.195   4.049   5.750
10418SOL    HW232154   6.190   3.995   5.904
10419SOL     OW32155   2.979   0.153   5.418
10419SOL    HW132156   2.899   0.187   5.369
10419SOL    HW232157   3.060   0.161   5.360
10420SOL     OW32158   6.812   3.822   4.004
10420SOL    HW132159   6.855   3.866   4.083
10420SOL    HW232160   6.824   3.879   3.923
10421SOL     OW32161   1.600   3.148   4.809
10421SOL    HW132162   1.542   3.196   4.743
10421SOL    HW232163   1.670   3.210   4.844
10422SOL     OW32164   0.022   3.580   5.204
10422SOL    HW132165   6.961   3.545   5.165
10422SOL    HW232166   0.067   3.507   5.256
10423SOL     OW32167   4.629   4.953   5.238
10423SOL    HW132168   4.531   4.935   5.248
10423SOL    HW232169   4.673   4.947   5.328
10424SOL     OW32170   4.039   3.118   0.319
10424SOL    HW132171   4.125   3.109   0.369
10424SOL    HW232172   4.003   3.211   0.329
10425SOL     OW32173   0.973   5.733   2.788
10425SOL    HW132174   1.047   5.799   2.783
10425SOL    HW232175   0.977   5.684   2.875
10426SOL     OW32176   5.442   4.155   6.164
10426SOL    HW132177   5.500   4.075   6.155
10426SOL    HW232178   5.349   4.133   6.133
10427SOL     OW32179   5.101   0.688   0.348
10427SOL    HW132180   5.169   0.714   0.280
10427SOL    HW232181   5.113   0.592   0.373
10428SOL     OW32182   3.012   1.609   4.072
10428SOL    HW132183   3.095   1.566   4.108
10428SOL    HW232184   3.027   1.636   3.977
10429SOL     OW32185   0.801   3.701   2.900
10429SOL    HW132186   0.900   3.711   2.905
10429SOL    HW232187   0.777   3.604   2.896
10430SOL     OW32188   3.407   6.707   5.041
10430SOL    HW132189   3.386   6.797   5.002
10430SOL    HW232190   3.361   6.636   4.987
10431SOL     OW32191   3.055   0.043   4.580
10431SOL    HW132192   3.018   0.135   4.594
10431SOL    HW232193   3.058   7.018   4.667
10432SOL     OW32194   0.138   1.707   4.837
10432SOL    HW132195   0.134   1.795   4.884
10432SOL    HW232196   0.208   1.649   4.879
10433SOL     OW32197   0.562   6.896   2.587
10433SOL    HW132198   0.529   6.821   2.645
10433SOL    HW232199   0.627   6.952   2.639
10434SOL     OW32200   3.815   6.025   4.486
10434SOL    HW132201   3.848   5.996   4.396
10434SOL    HW232202   3.866   5.977   4.557
10435SOL     OW32203   2.218   2.228   6.077
10435SOL    HW132204   2.172   2.235   6.165
10435SOL    HW232205   2.241   2.133   6.058
10436SOL     OW32206   6.331   3.873   4.378
10436SOL    HW132207   6.235   3.873   4.352
10436SOL    HW232208   6.358   3.781   4.406
10437SOL     OW32209   6.114   5.034   5.320
10437SOL    HW132210   6.035   4.981   5.350
10437SOL    HW232211   6.144   5.001   5.231
10438SOL     OW32212   0.877   6.228   5.867
10438SOL    HW132213   0.793   6.280   5.848
10438SOL    HW232214   0.909   6.250   5.959
10439SOL     OW32215   5.454   1.100   5.081
10439SOL    HW132216   5.436   1.029   5.149
10439SOL    HW232217   5.382   1.098   5.012
10440SOL     OW32218   0.314   0.029   0.084
10440SOL    HW132219   0.339   0.113   0.131
10440SOL    HW232220   0.383   0.007   0.014
10441SOL     OW32221   2.937   1.675   1.507
10441SOL    HW132222   2.862   1.609   1.515
10441SOL    HW232223   3.002   1.644   1.438
10442SOL     OW32224   4.420   6.780   4.802
10442SOL    HW132225   4.416   6.685   4.773
10442SOL    HW232226   4.439   6.784   4.901
10443SOL     OW32227   5.280   2.572   3.082
10443SOL    HW132228   5.307   2.650   3.140
10443SOL    HW232229   5.355   2.506   3.078
10444SOL     OW32230   4.169   5.942   2.067
10444SOL    HW132231   4.263   5.926   2.039
10444SOL    HW232232   4.118   5.857   2.063
10445SOL     OW32233   0.766   3.308   3.167
10445SOL    HW132234   0.774   3.275   3.261
10445SOL    HW232235   0.843   3.274   3.113
10446SOL     OW32236   2.129   3.419   6.256
10446SOL    HW132237   2.085   3.395   6.169
10446SOL    HW232238   2.139   3.338   6.313
10447SOL     OW32239   0.296   0.285   3.086
10447SOL    HW132240   0.270   0.205   3.139
10447SOL    HW232241   0.236   0.361   3.110
10448SOL     OW32242   3.884   0.680   2.112
10448SOL    HW132243   3.863   0.584   2.095
10448SOL    HW232244   3.957   0.710   2.050
10449SOL     OW32245   1.857   5.392   6.287
10449SOL    HW132246   1.831   5.300   6.256
10449SOL    HW232247   1.804   5.415   6.368
10450SOL     OW32248   6.997   1.716   6.953
10450SOL    HW132249   6.902   1.735   6.928
10450SOL    HW232250   7.009   1.617   6.964
10451SOL     OW32251   2.635   6.292   3.169
10451SOL    HW132252   2.583   6.371   3.137
10451SOL    HW232253   2.727   6.295   3.128
10452SOL     OW32254   6.191   3.012   2.833
10452SOL    HW132255   6.137   2.937   2.870
10452SOL    HW232256   6.218   3.074   2.906
10453SOL     OW32257   5.656   6.340   1.446
10453SOL    HW132258   5.695   6.338   1.538
10453SOL    HW232259   5.606   6.255   1.429
10454SOL     OW32260   5.760   2.199   0.347
10454SOL    HW132261   5.742   2.101   0.354
10454SOL    HW232262   5.859   2.216   0.353
10455SOL     OW32263   7.021   6.276   3.457
10455SOL    HW132264   6.989   6.269   3.362
10455SOL    HW232265   6.982   6.358   3.499
10456SOL     OW32266   1.187   5.157   0.674
10456SOL    HW132267   1.259   5.104   0.719
10456SOL    HW232268   1.159   5.232   0.734
10457SOL     OW32269   4.343   3.233   0.152
10457SOL    HW132270   4.270   3.258   0.088
10457SOL    HW232271   4.321   3.144   0.194
10458SOL     OW32272   6.732   0.383   6.133
10458SOL    HW132273   6.791   0.338   6.066
10458SOL    HW232274   6.645   0.335   6.138
10459SOL     OW32275   4.441   5.712   1.238
10459SOL    HW132276   4.514   5.752   1.183
10459SOL    HW232277   4.474   5.696   1.331
10460SOL     OW32278   1.919   4.118   1.773
10460SOL    HW132279   2.016   4.144   1.772
10460SOL    HW232280   1.891   4.092   1.681
10461SOL     OW32281   5.964   4.784   5.353
10461SOL    HW132282   5.874   4.801   5.394
10461SOL    HW232283   5.963   4.695   5.307
10462SOL     OW32284   5.508   2.387   2.853
10462SOL    HW132285   5.446   2.442   2.797
10462SOL    HW232286   5.455   2.329   2.915
10463SOL     OW32287   4.207   2.317   6.099
10463SOL    HW132288   4.109   2.301   6.093
10463SOL    HW232289   4.225   2.405   6.144
10464SOL     OW32290   6.051   6.593   2.376
10464SOL    HW132291   5.983   6.522   2.355
10464SOL    HW232292   6.121   6.556   2.437
10465SOL     OW32293   5.622   5.803   1.013
10465SOL    HW132294   5.620   5.903   1.017
10465SOL    HW232295   5.562   5.766   1.084
10466SOL     OW32296   4.631   4.643   5.239
10466SOL    HW132297   4.723   4.634   5.274
10466SOL    HW232298   4.634   4.681   5.146
10467SOL     OW32299   2.198   1.671   0.172
10467SOL    HW132300   2.255   1.754   0.165
10467SOL    HW232301   2.173   1.657   0.268
10468SOL     OW32302   3.681   4.906   3.369
10468SOL    HW132303   3.596   4.907   3.316
10468SOL    HW232304   3.659   4.901   3.467
10469SOL     OW32305   3.994   4.261   5.823
10469SOL    HW132306   4.039   4.271   5.735
10469SOL    HW232307   4.057   4.220   5.889
10470SOL     OW32308   1.447   1.910   3.357
10470SOL    HW132309   1.496   1.824   3.338
10470SOL    HW232310   1.512   1.986   3.358
10471SOL     OW32311   2.072   0.256   0.473
10471SOL    HW132312   2.094   0.162   0.500
10471SOL    HW232313   2.082   0.265   0.374
10472SOL     OW32314   3.077   5.865   0.502
10472SOL    HW132315   3.097   5.939   0.566
10472SOL    HW232316   3.005   5.806   0.540
10473SOL     OW32317   6.388   6.928   6.150
10473SOL    HW132318   6.385   6.830   6.129
10473SOL    HW232319   6.373   6.942   6.247
10474SOL     OW32320   4.138   1.134   4.221
10474SOL    HW132321   4.075   1.209   4.243
10474SOL    HW232322   4.153   1.079   4.303
10475SOL     OW32323   4.055   6.538   1.555
10475SOL    HW132324   4.141   6.533   1.504
10475SOL    HW232325   4.021   6.632   1.553
10476SOL     OW32326   6.257   6.312   6.338
10476SOL    HW132327   6.321   6.269   6.402
10476SOL    HW232328   6.165   6.276   6.355
10477SOL     OW32329   0.056   1.406   4.387
10477SOL    HW132330   0.079   1.472   4.459
10477SOL    HW232331   6.983   1.417   4.364
10478SOL     OW32332   6.338   0.368   0.555
10478SOL    HW132333   6.400   0.429   0.504
10478SOL    HW232334   6.337   0.395   0.651
10479SOL     OW32335   6.919   1.349   2.576
10479SOL    HW132336   6.879   1.267   2.616
10479SOL    HW232337   6.847   1.416   2.559
10480SOL     OW32338   1.061   0.676   2.259
10480SOL    HW132339   1.054   0.775   2.254
10480SOL    HW232340   1.036   0.645   2.351
10481SOL     OW32341   2.062   6.043   3.872
10481SOL    HW132342   2.069   6.114   3.802
10481SOL    HW232343   2.149   6.035   3.920
10482SOL     OW32344   6.510   4.977   4.256
10482SOL    HW132345   6.595   4.934   4.225
10482SOL    HW232346   6.465   4.916   4.321
10483SOL     OW32347   6.193   5.375   0.380
10483SOL    HW132348   6.201   5.417   0.471
10483SOL    HW232349   6.240   5.287   0.380
10484SOL     OW32350   5.803   1.830   1.602
10484SOL    HW132351   5.746   1.890   1.547
10484SOL    HW232352   5.841   1.881   1.679
10485SOL     OW32353   3.324   3.988   0.772
10485SOL    HW132354   3.359   3.956   0.684
10485SOL    HW232355   3.244   4.045   0.758
10486SOL     OW32356   0.151   0.551   0.814
10486SOL    HW132357   0.187   0.478   0.756
10486SOL    HW232358   0.080   0.514   0.874
10487SOL     OW32359   5.018   0.640   1.473
10487SOL    HW132360   5.063   0.678   1.392
10487SOL    HW232361   4.996   0.714   1.537
10488SOL     OW32362   3.655   0.897   6.312
10488SOL    HW132363   3.596   0.955   6.369
10488SOL    HW232364   3.682   0.948   6.230
10489SOL     OW32365   0.805   6.668   5.314
10489SOL    HW132366   0.766   6.607   5.383
10489SOL    HW232367   0.894   6.633   5.285
10490SOL     OW32368   5.888   1.393   1.146
10490SOL    HW132369   5.849   1.304   1.124
10490SOL    HW232370   5.986   1.393   1.126
10491SOL     OW32371   2.026   2.524   0.078
10491SOL    HW132372   2.030   2.559   0.172
10491SOL    HW232373   2.054   2.596   0.015
10492SOL     OW32374   5.717   4.678   5.960
10492SOL    HW132375   5.746   4.600   6.016
10492SOL    HW232376   5.651   4.733   6.011
10493SOL     OW32377   3.309   0.719   2.219
10493SOL    HW132378   3.366   0.747   2.296
10493SOL    HW232379   3.217   0.757   2.229
10494SOL     OW32380   5.527   3.872   5.960
10494SOL    HW132381   5.446   3.901   5.909
10494SOL    HW232382   5.573   3.799   5.911
10495SOL     OW32383   1.706   6.672   0.041
10495SOL    HW132384   1.762   6.709   6.991
10495SOL    HW232385   1.612   6.705   0.031
10496SOL     OW32386   0.289   3.979   6.288
10496SOL    HW132387   0.333   3.975   6.378
10496SOL    HW232388   0.253   3.889   6.264
10497SOL     OW32389   1.863   6.939   2.080
10497SOL    HW132390   1.781   6.960   2.132
10497SOL    HW232391   1.845   6.952   1.982
10498SOL     OW32392   3.152   5.344   0.737
10498SOL    HW132393   3.136   5.251   0.770
10498SOL    HW232394   3.117   5.409   0.804
10499SOL     OW32395   3.667   6.985   2.723
10499SOL    HW132396   3.639   0.024   2.795
10499SOL    HW232397   3.585   6.944   2.682
10500SOL     OW32398   6.298   1.708   6.492
10500SOL    HW132399   6.230   1.659   6.438
10500SOL    HW232400   6.258   1.793   6.527
10501SOL     OW32401   2.115   5.755   2.601
10501SOL    HW132402   2.057   5.674   2.592
10501SOL    HW232403   2.210   5.726   2.612
10502SOL     OW32404   2.275   0.304   1.388
10502SOL    HW132405   2.277   0.358   1.472
10502SOL    HW232406   2.366   0.305   1.346
10503SOL     OW32407   4.460   2.677   0.364
10503SOL    HW132408   4.369   2.707   0.393
10503SOL    HW232409   4.483   2.591   0.408
10504SOL     OW32410   1.102   1.952   5.766
10504SOL    HW132411   1.110   1.917   5.672
10504SOL    HW232412   1.087   2.051   5.763
10505SOL     OW32413   5.551   5.272   0.420
10505SOL    HW132414   5.504   5.205   0.476
10505SOL    HW232415   5.510   5.275   0.329
10506SOL     OW32416   0.220   4.456   0.697
10506SOL    HW132417   0.316   4.427   0.687
10506SOL    HW232418   0.217   4.553   0.721
10507SOL     OW32419   1.876   0.173   6.907
10507SOL    HW132420   1.797   0.169   6.847
10507SOL    HW232421   1.855   0.128   6.994
10508SOL     OW32422   6.166   6.718   4.885
10508SOL    HW132423   6.139   6.751   4.794
10508SOL    HW232424   6.154   6.619   4.890
10509SOL     OW32425   1.243   5.423   3.975
10509SOL    HW132426   1.208   5.509   4.012
10509SOL    HW232427   1.175   5.385   3.911
10510SOL     OW32428   4.554   6.117   5.956
10510SOL    HW132429   4.485   6.051   5.986
10510SOL    HW232430   4.645   6.077   5.969
10511SOL     OW32431   3.731   0.830   2.321
10511SOL    HW132432   3.776   0.856   2.407
10511SOL    HW232433   3.801   0.808   2.253
10512SOL     OW32434   4.493   0.284   6.142
10512SOL    HW132435   4.500   0.185   6.156
10512SOL    HW232436   4.538   0.309   6.057
10513SOL     OW32437   6.028   2.678   4.407
10513SOL    HW132438   6.038   2.614   4.483
10513SOL    HW232439   5.933   2.709   4.402
10514SOL     OW32440   0.187   4.075   0.473
10514SOL    HW132441   0.166   3.980   0.450
10514SOL    HW232442   0.202   4.083   0.572
10515SOL     OW32443   1.068   3.379   2.951
10515SOL    HW132444   0.988   3.318   2.945
10515SOL    HW232445   1.079   3.427   2.864
10516SOL     OW32446   3.939   1.058   0.354
10516SOL    HW132447   3.905   0.974   0.396
10516SOL    HW232448   3.979   1.117   0.425
10517SOL     OW32449   1.014   2.354   2.557
10517SOL    HW132450   1.023   2.368   2.656
10517SOL    HW232451   1.090   2.399   2.510
10518SOL     OW32452   0.698   5.751   6.647
10518SOL    HW132453   0.634   5.728   6.574
10518SOL    HW232454   0.791   5.754   6.610
10519SOL     OW32455   2.250   3.288   6.947
10519SOL    HW132456   2.169   3.291   7.005
10519SOL    HW232457   2.301   3.204   6.966
10520SOL     OW32458   0.881   2.685   6.439
10520SOL    HW132459   0.888   2.615   6.510
10520SOL    HW232460   0.954   2.752   6.449
10521SOL     OW32461   6.480   6.564   2.527
10521SOL    HW132462   6.535   6.618   2.592
10521SOL    HW232463   6.508   6.586   2.434
10522SOL     OW32464   0.417   0.272   5.619
10522SOL    HW132465   0.437   0.320   5.533
10522SOL    HW232466   0.321   0.244   5.620
10523SOL     OW32467   0.098   4.953   3.787
10523SOL    HW132468   0.121   4.896   3.866
10523SOL    HW232469   0.175   4.952   3.722
10524SOL     OW32470   1.786   0.368   4.995
10524SOL    HW132471   1.709   0.427   4.970
10524SOL    HW232472   1.782   0.347   5.093
10525SOL     OW32473   3.794   6.296   6.797
10525SOL    HW132474   3.752   6.356   6.729
10525SOL    HW232475   3.724   6.254   6.854
10526SOL     OW32476   1.363   6.983   4.017
10526SOL    HW132477   1.413   6.909   4.060
10526SOL    HW232478   1.422   0.005   3.950
10527SOL     OW32479   0.147   1.963   4.965
10527SOL    HW132480   0.055   2.001   4.959
10527SOL    HW232481   0.185   1.981   5.055
10528SOL     OW32482   1.695   3.576   6.344
10528SOL    HW132483   1.793   3.562   6.330
10528SOL    HW232484   1.652   3.596   6.256
10529SOL     OW32485   3.195   5.626   4.023
10529SOL    HW132486   3.245   5.713   4.018
10529SOL    HW232487   3.241   5.558   3.965
10530SOL     OW32488   2.044   0.220   6.618
10530SOL    HW132489   2.082   0.229   6.710
10530SOL    HW232490   2.057   0.127   6.585
10531SOL     OW32491   1.501   2.872   3.922
10531SOL    HW132492   1.527   2.943   3.857
10531SOL    HW232493   1.451   2.913   3.998
10532SOL     OW32494   0.878   5.713   5.485
10532SOL    HW132495   0.779   5.700   5.483
10532SOL    HW232496   0.899   5.807   5.512
10533SOL     OW32497   2.856   1.086   5.238
10533SOL    HW132498   2.887   1.044   5.324
10533SOL    HW232499   2.924   1.153   5.208
10534SOL     OW32500   6.924   5.934   1.597
10534SOL    HW132501   6.981   5.909   1.676
10534SOL    HW232502   6.913   6.033   1.594
10535SOL     OW32503   0.851   1.874   1.139
10535SOL    HW132504   0.876   1.803   1.205
10535SOL    HW232505   0.845   1.962   1.186
10536SOL     OW32506   4.016   0.453   3.067
10536SOL    HW132507   4.010   0.357   3.095
10536SOL    HW232508   3.928   0.498   3.086
10537SOL     OW32509   3.870   5.159   4.118
10537SOL    HW132510   3.894   5.065   4.092
10537SOL    HW232511   3.879   5.169   4.217
10538SOL     OW32512   5.116   1.959   0.728
10538SOL    HW132513   5.109   2.058   0.726
10538SOL    HW232514   5.155   1.930   0.816
10539SOL     OW32515   0.925   4.279   0.057
10539SOL    HW132516   0.892   4.244   6.994
10539SOL    HW232517   1.020   4.308   0.047
10540SOL     OW32518   1.772   2.351   4.947
10540SOL    HW132519   1.677   2.321   4.956
10540SOL    HW232520   1.821   2.288   4.887
10541SOL     OW32521   3.458   4.124   2.182
10541SOL    HW132522   3.528   4.122   2.252
10541SOL    HW232523   3.426   4.218   2.170
10542SOL     OW32524   6.949   0.460   5.413
10542SOL    HW132525   6.996   0.376   5.388
10542SOL    HW232526   7.002   0.539   5.383
10543SOL     OW32527   0.306   0.732   5.212
10543SOL    HW132528   0.278   0.655   5.269
10543SOL    HW232529   0.352   0.697   5.130
10544SOL     OW32530   2.445   6.426   1.859
10544SOL    HW132531   2.530   6.401   1.815
10544SOL    HW232532   2.465   6.471   1.946
10545SOL     OW32533   6.258   1.008   2.119
10545SOL    HW132534   6.214   1.050   2.198
10545SOL    HW232535   6.258   1.073   2.043
10546SOL     OW32536   1.828   0.925   6.728
10546SOL    HW132537   1.902   0.903   6.665
10546SOL    HW232538   1.839   1.019   6.760
10547SOL     OW32539   5.499   2.584   2.449
10547SOL    HW132540   5.447   2.552   2.528
10547SOL    HW232541   5.489   2.518   2.374
10548SOL     OW32542   5.427   4.680   4.684
10548SOL    HW132543   5.453   4.722   4.597
10548SOL    HW232544   5.342   4.629   4.673
10549SOL     OW32545   0.017   6.901   1.994
10549SOL    HW132546   6.957   6.869   1.951
10549SOL    HW232547   0.004   6.994   2.028
10550SOL     OW32548   4.030   5.871   3.947
10550SOL    HW132549   3.976   5.851   3.865
10550SOL    HW232550   4.076   5.788   3.978
10551SOL     OW32551   1.145   2.602   5.646
10551SOL    HW132552   1.231   2.552   5.638
10551SOL    HW232553   1.158   2.696   5.615
10552SOL     OW32554   3.116   1.280   6.851
10552SOL    HW132555   3.136   1.289   6.754
10552SOL    HW232556   3.043   1.213   6.864
10553SOL     OW32557   0.732   4.764   1.732
10553SOL    HW132558   0.639   4.775   1.698
10553SOL    HW232559   0.771   4.679   1.698
10554SOL     OW32560   5.585   4.785   0.404
10554SOL    HW132561   5.606   4.694   0.438
10554SOL    HW232562   5.488   4.805   0.417
10555SOL     OW32563   1.964   2.904   0.374
10555SOL    HW132564   1.907   2.927   0.453
10555SOL    HW232565   1.907   2.867   0.301
10556SOL     OW32566   2.138   1.866   5.726
10556SOL    HW132567   2.151   1.768   5.710
10556SOL    HW232568   2.181   1.918   5.651
10557SOL     OW32569   2.365   2.404   3.212
10557SOL    HW132570   2.275   2.445   3.229
10557SOL    HW232571   2.378   2.393   3.113
10558SOL     OW32572   3.646   1.585   3.592
10558SOL    HW132573   3.620   1.667   3.644
10558SOL    HW232574   3.731   1.548   3.628
10559SOL     OW32575   5.127   0.178   1.002
10559SOL    HW132576   5.183   0.232   1.065
10559SOL    HW232577   5.183   0.147   0.926
10560SOL     OW32578   3.525   6.268   2.915
10560SOL    HW132579   3.573   6.218   2.988
10560SOL    HW232580   3.508   6.206   2.839
10561SOL     OW32581   3.094   4.152   0.703
10561SOL    HW132582   3.154   4.213   0.651
10561SOL    HW232583   2.999   4.166   0.674
10562SOL     OW32584   4.452   5.374   0.292
10562SOL    HW132585   4.433   5.375   0.194
10562SOL    HW232586   4.542   5.414   0.309
10563SOL     OW32587   0.732   1.401   3.631
10563SOL    HW132588   0.821   1.445   3.633
10563SOL    HW232589   0.710   1.373   3.538
10564SOL     OW32590   5.771   6.085   1.894
10564SOL    HW132591   5.728   6.032   1.967
10564SOL    HW232592   5.851   6.036   1.859
10565SOL     OW32593   0.716   0.850   5.975
10565SOL    HW132594   0.772   0.923   6.013
10565SOL    HW232595   0.641   0.828   6.038
10566SOL     OW32596   3.796   2.200   0.112
10566SOL    HW132597   3.720   2.259   0.087
10566SOL    HW232598   3.807   2.199   0.212
10567SOL     OW32599   3.238   1.815   4.361
10567SOL    HW132600   3.205   1.847   4.272
10567SOL    HW232601   3.244   1.716   4.361
10568SOL     OW32602   6.279   2.897   1.661
10568SOL    HW132603   6.367   2.894   1.613
10568SOL    HW232604   6.206   2.875   1.596
10569SOL     OW32605   5.870   1.879   1.866
10569SOL    HW132606   5.797   1.895   1.932
10569SOL    HW232607   5.898   1.783   1.868
10570SOL     OW32608   1.586   5.021   3.349
10570SOL    HW132609   1.607   5.029   3.447
10570SOL    HW232610   1.627   5.098   3.300
10571SOL     OW32611   6.778   4.742   5.535
10571SOL    HW132612   6.807   4.800   5.458
10571SOL    HW232613   6.855   4.684   5.563
10572SOL     OW32614   0.206   4.244   3.232
10572SOL    HW132615   0.111   4.227   3.205
10572SOL    HW232616   0.265   4.175   3.190
10573SOL     OW32617   4.571   0.150   4.696
10573SOL    HW132618   4.475   0.159   4.723
10573SOL    HW232619   4.579   0.092   4.615
10574SOL     OW32620   1.593   1.418   3.924
10574SOL    HW132621   1.584   1.446   4.019
10574SOL    HW232622   1.600   1.499   3.866
10575SOL     OW32623   6.680   1.268   2.794
10575SOL    HW132624   6.633   1.231   2.714
10575SOL    HW232625   6.708   1.194   2.854
10576SOL     OW32626   6.934   6.193   5.264
10576SOL    HW132627   6.947   6.245   5.180
10576SOL    HW232628   6.902   6.255   5.336
10577SOL     OW32629   1.918   3.253   0.170
10577SOL    HW132630   1.861   3.277   0.248
10577SOL    HW232631   1.901   3.158   0.144
10578SOL     OW32632   5.874   1.737   2.963
10578SOL    HW132633   5.935   1.674   2.915
10578SOL    HW232634   5.832   1.800   2.898
10579SOL     OW32635   4.049   2.357   1.564
10579SOL    HW132636   3.984   2.330   1.635
10579SOL    HW232637   4.096   2.441   1.592
10580SOL     OW32638   6.499   0.545   6.486
10580SOL    HW132639   6.435   0.563   6.561
10580SOL    HW232640   6.466   0.467   6.433
10581SOL     OW32641   6.949   6.706   3.466
10581SOL    HW132642   6.990   6.786   3.508
10581SOL    HW232643   7.016   6.660   3.407
10582SOL     OW32644   5.709   5.365   6.526
10582SOL    HW132645   5.613   5.338   6.526
10582SOL    HW232646   5.758   5.318   6.453
10583SOL     OW32647   3.799   1.563   4.632
10583SOL    HW132648   3.804   1.585   4.534
10583SOL    HW232649   3.887   1.529   4.663
10584SOL     OW32650   6.657   6.419   1.441
10584SOL    HW132651   6.650   6.517   1.420
10584SOL    HW232652   6.752   6.390   1.432
10585SOL     OW32653   2.186   2.492   5.941
10585SOL    HW132654   2.181   2.393   5.959
10585SOL    HW232655   2.103   2.536   5.977
10586SOL     OW32656   6.225   4.946   5.053
10586SOL    HW132657   6.192   4.856   5.025
10586SOL    HW232658   6.257   4.997   4.973
10587SOL     OW32659   6.108   4.325   0.234
10587SOL    HW132660   6.079   4.288   0.146
10587SOL    HW232661   6.163   4.408   0.219
10588SOL     OW32662   0.435   2.998   3.829
10588SOL    HW132663   0.402   2.943   3.905
10588SOL    HW232664   0.492   3.073   3.863
10589SOL     OW32665   5.877   1.578   4.191
10589SOL    HW132666   5.858   1.491   4.146
10589SOL    HW232667   5.853   1.571   4.288
10590SOL     OW32668   0.633   0.288   1.992
10590SOL    HW132669   0.621   0.308   1.895
10590SOL    HW232670   0.722   0.322   2.022
10591SOL     OW32671   0.866   1.804   6.679
10591SOL    HW132672   0.825   1.842   6.761
10591SOL    HW232673   0.800   1.746   6.632
10592SOL     OW32674   6.204   3.985   1.725
10592SOL    HW132675   6.169   4.073   1.693
10592SOL    HW232676   6.152   3.910   1.682
10593SOL     OW32677   2.358   5.560   0.380
10593SOL    HW132678   2.415   5.514   0.313
10593SOL    HW232679   2.391   5.538   0.472
10594SOL     OW32680   4.668   0.130   2.363
10594SOL    HW132681   4.680   0.062   2.291
10594SOL    HW232682   4.572   0.159   2.365
10595SOL     OW32683   4.032   6.745   6.291
10595SOL    HW132684   3.974   6.773   6.214
10595SOL    HW232685   4.001   6.792   6.374
10596SOL     OW32686   4.649   0.271   0.079
10596SOL    HW132687   4.678   0.258   7.009
10596SOL    HW232688   4.729   0.265   0.139
10597SOL     OW32689   3.621   0.875   5.160
10597SOL    HW132690   3.702   0.817   5.159
10597SOL    HW232691   3.617   0.926   5.246
10598SOL     OW32692   2.875   2.698   0.632
10598SOL    HW132693   2.777   2.679   0.626
10598SOL    HW232694   2.922   2.621   0.674
10599SOL     OW32695   5.484   2.551   5.858
10599SOL    HW132696   5.542   2.479   5.894
10599SOL    HW232697   5.486   2.549   5.758
10600SOL     OW32698   2.116   2.254   0.568
10600SOL    HW132699   2.215   2.258   0.582
10600SOL    HW232700   2.069   2.289   0.649
10601SOL     OW32701   1.405   4.620   5.257
10601SOL    HW132702   1.392   4.708   5.303
10601SOL    HW232703   1.487   4.623   5.201
10602SOL     OW32704   3.686   1.691   2.433
10602SOL    HW132705   3.647   1.702   2.341
10602SOL    HW232706   3.615   1.711   2.501
10603SOL     OW32707   3.249   6.019   3.224
10603SOL    HW132708   3.248   5.973   3.135
10603SOL    HW232709   3.159   6.058   3.243
10604SOL     OW32710   6.006   5.092   5.630
10604SOL    HW132711   6.063   5.173   5.637
10604SOL    HW232712   6.052   5.015   5.673
10605SOL     OW32713   1.368   5.826   0.317
10605SOL    HW132714   1.374   5.734   0.354
10605SOL    HW232715   1.334   5.888   0.388
10606SOL     OW32716   6.800   0.389   2.656
10606SOL    HW132717   6.887   0.368   2.702
10606SOL    HW232718   6.724   0.366   2.717
10607SOL     OW32719   4.157   4.612   5.759
10607SOL    HW132720   4.105   4.631   5.842
10607SOL    HW232721   4.114   4.659   5.682
10608SOL     OW32722   5.047   2.191   5.579
10608SOL    HW132723   5.082   2.222   5.667
10608SOL    HW232724   4.947   2.194   5.579
10609SOL     OW32725   2.845   6.549   0.496
10609SOL    HW132726   2.856   6.580   0.591
10609SOL    HW232727   2.934   6.523   0.459
10610SOL     OW32728   1.511   2.704   5.805
10610SOL    HW132729   1.477   2.617   5.840
10610SOL    HW232730   1.448   2.777   5.830
10611SOL     OW32731   4.139   3.902   6.313
10611SOL    HW132732   4.232   3.919   6.280
10611SOL    HW232733   4.075   3.916   6.238
10612SOL     OW32734   3.023   0.939   5.470
10612SOL    HW132735   3.092   0.992   5.521
10612SOL    HW232736   3.053   0.844   5.463
10613SOL     OW32737   6.007   6.833   5.066
10613SOL    HW132738   6.055   6.914   5.097
10613SOL    HW232739   6.069   6.775   5.013
10614SOL     OW32740   6.404   2.271   3.887
10614SOL    HW132741   6.427   2.267   3.789
10614SOL    HW232742   6.413   2.179   3.926
10615SOL     OW32743   3.334   6.607   5.750
10615SOL    HW132744   3.321   6.574   5.656
10615SOL    HW232745   3.373   6.535   5.806
10616SOL     OW32746   2.524   6.278   0.878
10616SOL    HW132747   2.517   6.345   0.951
10616SOL    HW232748   2.496   6.188   0.912
10617SOL     OW32749   2.349   2.567   1.435
10617SOL    HW132750   2.379   2.657   1.405
10617SOL    HW232751   2.261   2.576   1.482
10618SOL     OW32752   0.345   3.960   6.566
10618SOL    HW132753   0.291   3.890   6.612
10618SOL    HW232754   0.414   3.996   6.628
10619SOL     OW32755   0.324   4.397   2.317
10619SOL    HW132756   0.347   4.324   2.381
10619SOL    HW232757   0.238   4.438   2.343
10620SOL     OW32758   1.488   5.691   5.129
10620SOL    HW132759   1.510   5.596   5.154
10620SOL    HW232760   1.516   5.707   5.034
10621SOL     OW32761   1.202   6.191   2.270
10621SOL    HW132762   1.254   6.206   2.186
10621SOL    HW232763   1.235   6.252   2.341
10622SOL     OW32764   5.163   1.522   1.322
10622SOL    HW132765   5.215   1.556   1.244
10622SOL    HW232766   5.215   1.451   1.369
10623SOL     OW32767   0.177   4.901   5.317
10623SOL    HW132768   0.090   4.863   5.350
10623SOL    HW232769   0.247   4.829   5.317
10624SOL     OW32770   0.406   2.868   4.557
10624SOL    HW132771   0.492   2.829   4.523
10624SOL    HW232772   0.366   2.805   4.624
10625SOL     OW32773   0.467   4.226   0.074
10625SOL    HW132774   0.394   4.229   0.142
10625SOL    HW232775   0.519   4.142   0.084
10626SOL     OW32776   2.888   3.435   0.961
10626SOL    HW132777   2.936   3.407   0.878
10626SOL    HW232778   2.800   3.388   0.967
10627SOL     OW32779   5.026   6.803   0.487
10627SOL    HW132780   4.961   6.728   0.496
10627SOL    HW232781   5.114   6.768   0.457
10628SOL     OW32782   4.501   5.970   0.090
10628SOL    HW132783   4.473   5.886   0.137
10628SOL    HW232784   4.461   5.971   7.022
10629SOL     OW32785   2.687   5.016   5.137
10629SOL    HW132786   2.740   4.936   5.165
10629SOL    HW232787   2.739   5.099   5.154
10630SOL     OW32788   6.681   1.443   3.948
10630SOL    HW132789   6.745   1.512   3.916
10630SOL    HW232790   6.589   1.483   3.954
10631SOL     OW32791   2.755   4.871   4.608
10631SOL    HW132792   2.796   4.962   4.618
10631SOL    HW232793   2.742   4.851   4.511
10632SOL     OW32794   6.122   1.972   3.888
10632SOL    HW132795   6.148   2.059   3.845
10632SOL    HW232796   6.067   1.990   3.969
10633SOL     OW32797   2.530   3.511   1.350
10633SOL    HW132798   2.515   3.415   1.372
10633SOL    HW232799   2.492   3.569   1.422
10634SOL     OW32800   2.997   5.776   0.854
10634SOL    HW132801   3.049   5.834   0.792
10634SOL    HW232802   2.900   5.800   0.850
10635SOL     OW32803   3.423   1.689   0.901
10635SOL    HW132804   3.490   1.690   0.974
10635SOL    HW232805   3.463   1.728   0.818
10636SOL     OW32806   1.050   1.586   1.641
10636SOL    HW132807   0.976   1.556   1.581
10636SOL    HW232808   1.136   1.546   1.609
10637SOL     OW32809   2.493   4.581   5.568
10637SOL    HW132810   2.544   4.496   5.582
10637SOL    HW232811   2.523   4.624   5.483
10638SOL     OW32812   0.250   5.620   3.072
10638SOL    HW132813   0.164   5.667   3.051
10638SOL    HW232814   0.258   5.538   3.015
10639SOL     OW32815   1.289   3.294   3.130
10639SOL    HW132816   1.223   3.321   3.060
10639SOL    HW232817   1.263   3.332   3.218
10640SOL     OW32818   3.521   0.406   5.380
10640SOL    HW132819   3.600   0.354   5.411
10640SOL    HW232820   3.546   0.503   5.372
10641SOL     OW32821   2.934   1.735   1.151
10641SOL    HW132822   2.986   1.650   1.138
10641SOL    HW232823   2.996   1.809   1.175
10642SOL     OW32824   6.876   3.033   1.963
10642SOL    HW132825   6.801   3.005   1.903
10642SOL    HW232826   6.856   3.123   2.001
10643SOL     OW32827   2.216   5.143   5.236
10643SOL    HW132828   2.295   5.084   5.220
10643SOL    HW232829   2.152   5.097   5.296
10644SOL     OW32830   5.205   2.962   3.239
10644SOL    HW132831   5.299   2.931   3.228
10644SOL    HW232832   5.155   2.899   3.298
10645SOL     OW32833   1.183   1.992   5.162
10645SOL    HW132834   1.278   1.962   5.152
10645SOL    HW232835   1.168   2.075   5.107
10646SOL     OW32836   0.131   0.690   6.733
10646SOL    HW132837   0.138   0.702   6.634
10646SOL    HW232838   0.179   0.764   6.779
10647SOL     OW32839   3.053   5.232   5.824
10647SOL    HW132840   3.093   5.210   5.913
10647SOL    HW232841   2.978   5.169   5.805
10648SOL     OW32842   5.320   4.548   6.125
10648SOL    HW132843   5.415   4.519   6.117
10648SOL    HW232844   5.263   4.493   6.065
10649SOL     OW32845   0.390   4.000   3.159
10649SOL    HW132846   0.336   3.933   3.109
10649SOL    HW232847   0.421   3.960   3.246
10650SOL     OW32848   1.303   6.017   3.429
10650SOL    HW132849   1.332   6.104   3.391
10650SOL    HW232850   1.379   5.974   3.477
10651SOL     OW32851   4.526   6.413   6.184
10651SOL    HW132852   4.607   6.364   6.216
10651SOL    HW232853   4.505   6.488   6.247
10652SOL     OW32854   3.671   6.619   6.276
10652SOL    HW132855   3.592   6.677   6.296
10652SOL    HW232856   3.741   6.633   6.346
10653SOL     OW32857   4.845   4.002   3.821
10653SOL    HW132858   4.822   3.908   3.794
10653SOL    HW232859   4.929   4.030   3.777
10654SOL     OW32860   4.546   1.020   0.630
10654SOL    HW132861   4.504   1.110   0.623
10654SOL    HW232862   4.507   0.959   0.561
10655SOL     OW32863   2.722   5.675   0.380
10655SOL    HW132864   2.689   5.598   0.326
10655SOL    HW232865   2.659   5.693   0.456
10656SOL     OW32866   6.919   2.083   1.756
10656SOL    HW132867   7.001   2.027   1.765
10656SOL    HW232868   6.934   2.156   1.689
10657SOL     OW32869   6.617   0.626   6.079
10657SOL    HW132870   6.689   0.666   6.023
10657SOL    HW232871   6.632   0.527   6.089
10658SOL     OW32872   6.251   4.240   4.992
10658SOL    HW132873   6.263   4.339   4.998
10658SOL    HW232874   6.305   4.205   4.915
10659SOL     OW32875   6.757   5.961   1.154
10659SOL    HW132876   6.737   6.058   1.164
10659SOL    HW232877   6.849   5.941   1.188
10660SOL     OW32878   5.626   3.826   0.242
10660SOL    HW132879   5.725   3.830   0.231
10660SOL    HW232880   5.602   3.844   0.338
10661SOL     OW32881   0.102   6.898   2.443
10661SOL    HW132882   0.137   6.882   2.351
10661SOL    HW232883   0.177   6.929   2.502
10662SOL     OW32884   5.612   0.921   3.305
10662SOL    HW132885   5.558   1.000   3.336
10662SOL    HW232886   5.580   0.892   3.215
10663SOL     OW32887   0.655   0.786   1.801
10663SOL    HW132888   0.687   0.870   1.757
10663SOL    HW232889   0.624   0.721   1.731
10664SOL     OW32890   1.246   4.753   4.663
10664SOL    HW132891   1.225   4.792   4.573
10664SOL    HW232892   1.297   4.667   4.651
10665SOL     OW32893   1.003   1.061   0.970
10665SOL    HW132894   1.084   1.003   0.956
10665SOL    HW232895   1.032   1.153   0.997
10666SOL     OW32896   2.672   4.024   0.554
10666SOL    HW132897   2.729   4.106   0.554
10666SOL    HW232898   2.676   3.980   0.644
10667SOL     OW32899   4.142   3.203   5.342
10667SOL    HW132900   4.121   3.222   5.438
10667SOL    HW232901   4.087   3.263   5.284
10668SOL     OW32902   1.759   1.447   5.445
10668SOL    HW132903   1.735   1.350   5.441
10668SOL    HW232904   1.692   1.496   5.501
10669SOL     OW32905   5.830   6.200   0.561
10669SOL    HW132906   5.847   6.182   0.464
10669SOL    HW232907   5.731   6.199   0.579
10670SOL     OW32908   5.288   4.021   5.163
10670SOL    HW132909   5.379   3.979   5.167
10670SOL    HW232910   5.276   4.081   5.242
10671SOL     OW32911   2.790   2.202   3.091
10671SOL    HW132912   2.746   2.252   3.016
10671SOL    HW232913   2.728   2.199   3.169
10672SOL     OW32914   6.378   2.699   1.019
10672SOL    HW132915   6.365   2.798   1.016
10672SOL    HW232916   6.446   2.676   1.088
10673SOL     OW32917   0.783   1.508   0.038
10673SOL    HW132918   0.854   1.562   7.018
10673SOL    HW232919   0.772   1.421   7.014
10674SOL     OW32920   2.793   4.493   0.782
10674SOL    HW132921   2.739   4.534   0.708
10674SOL    HW232922   2.780   4.546   0.866
10675SOL     OW32923   1.973   6.983   6.247
10675SOL    HW132924   2.069   6.988   6.218
10675SOL    HW232925   1.958   6.898   6.298
10676SOL     OW32926   6.238   6.745   5.473
10676SOL    HW132927   6.309   6.788   5.418
10676SOL    HW232928   6.189   6.678   5.417
10677SOL     OW32929   0.678   0.585   2.225
10677SOL    HW132930   0.740   0.570   2.148
10677SOL    HW232931   0.622   0.666   2.208
10678SOL     OW32932   3.765   5.740   2.567
10678SOL    HW132933   3.817   5.762   2.650
10678SOL    HW232934   3.711   5.819   2.540
10679SOL     OW32935   5.334   4.990   5.992
10679SOL    HW132936   5.241   5.020   5.972
10679SOL    HW232937   5.364   4.925   5.922
10680SOL     OW32938   2.439   1.347   3.552
10680SOL    HW132939   2.397   1.376   3.466
10680SOL    HW232940   2.531   1.312   3.535
10681SOL     OW32941   0.217   3.936   0.078
10681SOL    HW132942   0.250   4.027   0.106
10681SOL    HW232943   0.122   3.942   0.048
10682SOL     OW32944   1.230   1.988   3.633
10682SOL    HW132945   1.243   1.923   3.708
10682SOL    HW232946   1.305   1.979   3.568
10683SOL     OW32947   3.699   1.857   3.658
10683SOL    HW132948   3.657   1.947   3.644
10683SOL    HW232949   3.796   1.861   3.632
10684SOL     OW32950   4.964   4.004   1.095
10684SOL    HW132951   4.892   4.027   1.160
10684SOL    HW232952   4.949   3.911   1.059
10685SOL     OW32953   0.322   5.085   3.045
10685SOL    HW132954   0.263   5.020   2.998
10685SOL    HW232955   0.414   5.046   3.054
10686SOL     OW32956   2.132   4.494   6.175
10686SOL    HW132957   2.177   4.584   6.179
10686SOL    HW232958   2.166   4.437   6.249
10687SOL     OW32959   0.034   5.247   1.907
10687SOL    HW132960   6.999   5.289   1.975
10687SOL    HW232961   0.045   5.150   1.927
10688SOL     OW32962   6.944   4.548   2.844
10688SOL    HW132963   6.910   4.558   2.937
10688SOL    HW232964   0.010   4.592   2.836
10689SOL     OW32965   0.703   6.931   4.163
10689SOL    HW132966   0.748   6.971   4.242
10689SOL    HW232967   0.618   6.982   4.143
10690SOL     OW32968   6.921   5.586   3.541
10690SOL    HW132969   6.873   5.573   3.454
10690SOL    HW232970   6.859   5.632   3.606
10691SOL     OW32971   0.354   0.992   2.740
10691SOL    HW132972   0.343   1.087   2.710
10691SOL    HW232973   0.290   0.934   2.690
10692SOL     OW32974   3.702   4.880   2.572
10692SOL    HW132975   3.607   4.876   2.601
10692SOL    HW232976   3.707   4.915   2.478
10693SOL     OW32977   2.066   0.302   1.210
10693SOL    HW132978   2.051   0.397   1.182
10693SOL    HW232979   2.139   0.298   1.278
10694SOL     OW32980   4.571   6.430   1.281
10694SOL    HW132981   4.649   6.409   1.339
10694SOL    HW232982   4.496   6.366   1.301
10695SOL     OW32983   5.084   2.249   2.990
10695SOL    HW132984   5.039   2.335   3.014
10695SOL    HW232985   5.061   2.225   2.896
10696SOL     OW32986   6.957   4.303   3.100
10696SOL    HW132987   6.954   4.248   3.183
10696SOL    HW232988   6.868   4.344   3.084
10697SOL     OW32989   0.059   6.584   5.097
10697SOL    HW132990   0.142   6.532   5.075
10697SOL    HW232991   0.057   6.602   5.196
10698SOL     OW32992   4.476   6.110   4.246
10698SOL    HW132993   4.382   6.141   4.263
10698SOL    HW232994   4.482   6.071   4.154
10699SOL     OW32995   4.023   2.136   2.176
10699SOL    HW132996   3.925   2.118   2.191
10699SOL    HW232997   4.072   2.049   2.173
10700SOL     OW32998   1.023   0.123   0.961
10700SOL    HW132999   1.048   0.219   0.976
10700SOL    HW233000   1.035   0.072   1.046
10701SOL     OW33001   3.669   6.002   0.258
10701SOL    HW133002   3.584   6.042   0.292
10701SOL    HW233003   3.659   5.902   0.251
10702SOL     OW33004   6.455   2.710   3.167
10702SOL    HW133005   6.369   2.667   3.194
10702SOL    HW233006   6.531   2.663   3.212
10703SOL     OW33007   3.788   2.985   4.156
10703SOL    HW133008   3.801   2.987   4.057
10703SOL    HW233009   3.876   2.997   4.201
10704SOL     OW33010   5.921   5.419   1.562
10704SOL    HW133011   6.000   5.414   1.501
10704SOL    HW233012   5.858   5.344   1.542
10705SOL     OW33013   0.013   4.095   2.202
10705SOL    HW133014   6.960   4.060   2.149
10705SOL    HW233015   0.040   4.184   2.165
10706SOL     OW33016   4.828   6.897   1.830
10706SOL    HW133017   4.802   6.922   1.737
10706SOL    HW233018   4.925   6.916   1.844
10707SOL     OW33019   1.000   6.733   4.427
10707SOL    HW133020   1.045   6.689   4.505
10707SOL    HW233021   0.907   6.697   4.418
10708SOL     OW33022   4.816   0.601   2.680
10708SOL    HW133023   4.886   0.621   2.611
10708SOL    HW233024   4.751   0.534   2.644
10709SOL     OW33025   6.047   0.763   5.047
10709SOL    HW133026   5.988   0.770   4.967
10709SOL    HW233027   6.127   0.822   5.035
10710SOL     OW33028   0.710   6.247   4.187
10710SOL    HW133029   0.632   6.274   4.131
10710SOL    HW233030   0.681   6.239   4.283
10711SOL     OW33031   1.792   6.465   4.180
10711SOL    HW133032   1.830   6.374   4.192
10711SOL    HW233033   1.743   6.470   4.093
10712SOL     OW33034   3.598   0.589   2.147
10712SOL    HW133035   3.531   0.663   2.154
10712SOL    HW233036   3.686   0.627   2.116
10713SOL     OW33037   1.344   3.467   1.871
10713SOL    HW133038   1.305   3.391   1.819
10713SOL    HW233039   1.337   3.447   1.969
10714SOL     OW33040   6.405   2.921   5.514
10714SOL    HW133041   6.326   2.930   5.453
10714SOL    HW233042   6.451   2.834   5.496
10715SOL     OW33043   3.761   0.516   3.056
10715SOL    HW133044   3.725   0.464   3.133
10715SOL    HW233045   3.705   0.499   2.975
10716SOL     OW33046   6.914   2.941   3.355
10716SOL    HW133047   6.823   2.969   3.325
10716SOL    HW233048   6.957   2.888   3.282
10717SOL     OW33049   0.446   2.061   0.442
10717SOL    HW133050   0.371   2.126   0.457
10717SOL    HW233051   0.514   2.102   0.380
10718SOL     OW33052   6.612   4.135   0.484
10718SOL    HW133053   6.527   4.083   0.488
10718SOL    HW233054   6.689   4.075   0.504
10719SOL     OW33055   4.667   6.062   1.119
10719SOL    HW133056   4.653   6.160   1.101
10719SOL    HW233057   4.587   6.011   1.088
10720SOL     OW33058   0.316   3.697   6.010
10720SOL    HW133059   0.400   3.735   6.049
10720SOL    HW233060   0.333   3.670   5.916
10721SOL     OW33061   6.031   2.533   5.000
10721SOL    HW133062   6.017   2.528   5.099
10721SOL    HW233063   6.122   2.499   4.977
10722SOL     OW33064   6.944   2.643   0.422
10722SOL    HW133065   7.021   2.706   0.415
10722SOL    HW233066   6.967   2.557   0.377
10723SOL     OW33067   6.330   4.228   6.787
10723SOL    HW133068   6.383   4.144   6.797
10723SOL    HW233069   6.342   4.285   6.868
10724SOL     OW33070   3.044   0.029   6.334
10724SOL    HW133071   3.036   7.013   6.243
10724SOL    HW233072   3.116   7.007   6.386
10725SOL     OW33073   6.881   5.025   3.888
10725SOL    HW133074   6.968   5.011   3.841
10725SOL    HW233075   6.890   5.100   3.953
10726SOL     OW33076   5.528   6.251   5.213
10726SOL    HW133077   5.516   6.272   5.310
10726SOL    HW233078   5.469   6.174   5.188
10727SOL     OW33079   1.764   4.581   4.493
10727SOL    HW133080   1.685   4.623   4.448
10727SOL    HW233081   1.732   4.529   4.573
10728SOL     OW33082   5.918   6.768   2.527
10728SOL    HW133083   5.962   6.708   2.460
10728SOL    HW233084   5.823   6.783   2.502
10729SOL     OW33085   6.231   1.189   3.107
10729SOL    HW133086   6.311   1.190   3.046
10729SOL    HW233087   6.180   1.274   3.096
10730SOL     OW33088   2.367   6.656   1.104
10730SOL    HW133089   2.374   6.662   1.204
10730SOL    HW233090   2.279   6.694   1.074
10731SOL     OW33091   2.034   5.767   6.825
10731SOL    HW133092   1.959   5.832   6.822
10731SOL    HW233093   2.019   5.696   6.756
10732SOL     OW33094   5.669   6.642   2.743
10732SOL    HW133095   5.756   6.629   2.790
10732SOL    HW233096   5.618   6.556   2.742
10733SOL     OW33097   5.748   2.881   0.146
10733SOL    HW133098   5.757   2.950   0.074
10733SOL    HW233099   5.821   2.893   0.213
10734SOL     OW33100   1.178   0.404   6.314
10734SOL    HW133101   1.207   0.494   6.348
10734SOL    HW233102   1.230   0.333   6.361
10735SOL     OW33103   1.280   4.394   2.214
10735SOL    HW133104   1.286   4.352   2.305
10735SOL    HW233105   1.241   4.328   2.149
10736SOL     OW33106   0.518   1.059   3.757
10736SOL    HW133107   0.458   0.988   3.719
10736SOL    HW233108   0.610   1.023   3.768
10737SOL     OW33109   1.000   2.327   0.391
10737SOL    HW133110   1.093   2.294   0.408
10737SOL    HW233111   0.993   2.424   0.416
10738SOL     OW33112   2.676   7.010   2.086
10738SOL    HW133113   2.723   0.033   2.012
10738SOL    HW233114   2.594   6.965   2.050
10739SOL     OW33115   0.034   0.840   3.178
10739SOL    HW133116   0.132   0.860   3.176
10739SOL    HW233117   7.008   0.922   3.205
10740SOL     OW33118   0.765   5.478   5.848
10740SOL    HW133119   0.754   5.427   5.933
10740SOL    HW233120   0.846   5.537   5.854
10741SOL     OW33121   0.942   1.263   3.384
10741SOL    HW133122   0.993   1.217   3.312
10741SOL    HW233123   0.845   1.240   3.376
10742SOL     OW33124   5.990   0.187   2.254
10742SOL    HW133125   5.948   0.096   2.245
10742SOL    HW233126   5.929   0.255   2.212
10743SOL     OW33127   2.513   2.504   3.409
10743SOL    HW133128   2.609   2.492   3.382
10743SOL    HW233129   2.455   2.446   3.351
10744SOL     OW33130   3.098   1.698   2.470
10744SOL    HW133131   3.117   1.795   2.455
10744SOL    HW233132   3.140   1.644   2.397
10745SOL     OW33133   1.726   4.503   6.906
10745SOL    HW133134   1.630   4.506   6.878
10745SOL    HW233135   1.783   4.480   6.827
10746SOL     OW33136   2.089   5.212   1.074
10746SOL    HW133137   2.022   5.274   1.115
10746SOL    HW233138   2.072   5.119   1.106
10747SOL     OW33139   5.006   1.487   3.746
10747SOL    HW133140   4.998   1.389   3.727
10747SOL    HW233141   4.964   1.540   3.673
10748SOL     OW33142   6.241   6.509   0.611
10748SOL    HW133143   6.247   6.501   0.710
10748SOL    HW233144   6.147   6.531   0.585
10749SOL     OW33145   0.350   5.216   3.291
10749SOL    HW133146   0.351   5.204   3.192
10749SOL    HW233147   0.279   5.157   3.331
10750SOL     OW33148   4.881   4.730   4.759
10750SOL    HW133149   4.970   4.683   4.754
10750SOL    HW233150   4.816   4.684   4.699
10751SOL     OW33151   0.825   3.092   5.244
10751SOL    HW133152   0.743   3.132   5.204
10751SOL    HW233153   0.807   3.067   5.339
10752SOL     OW33154   6.058   3.635   6.476
10752SOL    HW133155   6.044   3.734   6.469
10752SOL    HW233156   6.050   3.606   6.571
10753SOL     OW33157   6.171   0.088   3.437
10753SOL    HW133158   6.171   0.101   3.536
10753SOL    HW233159   6.137   7.021   3.415
10754SOL     OW33160   2.258   2.063   2.699
10754SOL    HW133161   2.206   2.047   2.614
10754SOL    HW233162   2.194   2.082   2.773
10755SOL     OW33163   0.103   1.715   0.726
10755SOL    HW133164   0.160   1.794   0.701
10755SOL    HW233165   0.019   1.717   0.672
10756SOL     OW33166   6.218   3.709   0.347
10756SOL    HW133167   6.185   3.799   0.320
10756SOL    HW233168   6.197   3.693   0.443
10757SOL     OW33169   6.965   3.760   0.211
10757SOL    HW133170   7.022   3.740   0.290
10757SOL    HW233171   6.869   3.738   0.232
10758SOL     OW33172   0.986   5.983   5.098
10758SOL    HW133173   1.048   5.906   5.081
10758SOL    HW233174   1.039   6.068   5.095
10759SOL     OW33175   1.909   3.145   6.857
10759SOL    HW133176   1.817   3.169   6.890
10759SOL    HW233177   1.953   3.084   6.924
10760SOL     OW33178   6.844   6.862   1.092
10760SOL    HW133179   6.865   6.841   1.187
10760SOL    HW233180   6.889   6.796   1.032
10761SOL     OW33181   0.708   2.284   6.118
10761SOL    HW133182   0.699   2.382   6.097
10761SOL    HW233183   0.618   2.240   6.112
10762SOL     OW33184   4.799   1.243   4.881
10762SOL    HW133185   4.847   1.289   4.956
10762SOL    HW233186   4.701   1.256   4.892
10763SOL     OW33187   4.650   6.319   1.051
10763SOL    HW133188   4.605   6.356   1.132
10763SOL    HW233189   4.746   6.347   1.051
10764SOL     OW33190   5.191   1.799   6.209
10764SOL    HW133191   5.125   1.852   6.262
10764SOL    HW233192   5.160   1.794   6.113
10765SOL     OW33193   5.647   2.025   0.944
10765SOL    HW133194   5.629   1.992   1.037
10765SOL    HW233195   5.704   1.958   0.896
10766SOL     OW33196   2.402   3.650   0.155
10766SOL    HW133197   2.404   3.648   0.255
10766SOL    HW233198   2.486   3.608   0.119
10767SOL     OW33199   1.299   0.728   0.800
10767SOL    HW133200   1.308   0.634   0.766
10767SOL    HW233201   1.330   0.792   0.729
10768SOL     OW33202   5.706   5.596   0.326
10768SOL    HW133203   5.721   5.668   0.393
10768SOL    HW233204   5.611   5.565   0.330
10769SOL     OW33205   2.748   5.272   5.121
10769SOL    HW133206   2.731   5.294   5.217
10769SOL    HW233207   2.810   5.340   5.082
10770SOL     OW33208   5.337   0.590   4.546
10770SOL    HW133209   5.271   0.612   4.618
10770SOL    HW233210   5.428   0.581   4.587
10771SOL     OW33211   4.557   0.001   4.955
10771SOL    HW133212   4.640   7.021   5.011
10771SOL    HW233213   4.581   0.024   4.861
10772SOL     OW33214   6.753   6.965   3.612
10772SOL    HW133215   6.743   6.924   3.703
10772SOL    HW233216   6.663   6.973   3.569
10773SOL     OW33217   6.914   5.229   6.866
10773SOL    HW133218   7.012   5.210   6.877
10773SOL    HW233219   6.872   5.243   6.955
10774SOL     OW33220   1.388   2.048   0.111
10774SOL    HW133221   1.419   2.130   0.159
10774SOL    HW233222   1.361   1.979   0.177
10775SOL     OW33223   1.916   4.203   0.321
10775SOL    HW133224   1.947   4.248   0.404
10775SOL    HW233225   1.917   4.268   0.244
10776SOL     OW33226   0.801   6.360   1.039
10776SOL    HW133227   0.837   6.267   1.029
10776SOL    HW233228   0.701   6.356   1.043
10777SOL     OW33229   4.423   0.383   3.497
10777SOL    HW133230   4.522   0.389   3.515
10777SOL    HW233231   4.391   0.291   3.520
10778SOL     OW33232   6.174   6.752   4.371
10778SOL    HW133233   6.191   6.834   4.317
10778SOL    HW233234   6.141   6.679   4.312
10779SOL     OW33235   0.072   4.547   3.106
10779SOL    HW133236   0.133   4.558   3.028
10779SOL    HW233237   0.027   4.458   3.101
10780SOL     OW33238   1.440   6.745   3.002
10780SOL    HW133239   1.409   6.821   3.059
10780SOL    HW233240   1.540   6.748   2.994
10781SOL     OW33241   4.363   1.767   3.827
10781SOL    HW133242   4.266   1.785   3.844
10781SOL    HW233243   4.414   1.853   3.829
10782SOL     OW33244   6.068   2.421   3.601
10782SOL    HW133245   6.014   2.403   3.518
10782SOL    HW233246   6.017   2.484   3.660
10783SOL     OW33247   1.442   3.179   2.429
10783SOL    HW133248   1.506   3.213   2.497
10783SOL    HW233249   1.360   3.236   2.428
10784SOL     OW33250   2.400   6.801   1.610
10784SOL    HW133251   2.340   6.880   1.598
10784SOL    HW233252   2.370   6.750   1.691
10785SOL     OW33253   1.779   4.465   1.356
10785SOL    HW133254   1.794   4.446   1.453
10785SOL    HW233255   1.802   4.561   1.337
10786SOL     OW33256   5.263   3.004   1.308
10786SOL    HW133257   5.234   2.946   1.231
10786SOL    HW233258   5.347   2.967   1.348
10787SOL     OW33259   3.261   1.505   4.878
10787SOL    HW133260   3.295   1.448   4.952
10787SOL    HW233261   3.161   1.508   4.882
10788SOL     OW33262   2.002   4.270   6.940
10788SOL    HW133263   1.915   4.221   6.936
10788SOL    HW233264   2.072   4.209   6.978
10789SOL     OW33265   5.423   1.641   0.705
10789SOL    HW133266   5.368   1.633   0.788
10789SOL    HW233267   5.368   1.617   0.625
10790SOL     OW33268   0.603   0.639   5.112
10790SOL    HW133269   0.524   0.591   5.073
10790SOL    HW233270   0.658   0.678   5.039
10791SOL     OW33271   0.829   1.523   1.463
10791SOL    HW133272   0.815   1.424   1.459
10791SOL    HW233273   0.750   1.566   1.507
10792SOL     OW33274   2.964   2.963   1.716
10792SOL    HW133275   3.040   3.017   1.752
10792SOL    HW233276   2.965   2.872   1.759
10793SOL     OW33277   5.482   2.431   4.324
10793SOL    HW133278   5.518   2.346   4.285
10793SOL    HW233279   5.402   2.411   4.381
10794SOL     OW33280   3.621   3.619   2.437
10794SOL    HW133281   3.707   3.630   2.388
10794SOL    HW233282   3.557   3.567   2.380
10795SOL     OW33283   5.900   4.145   3.465
10795SOL    HW133284   5.963   4.219   3.439
10795SOL    HW233285   5.848   4.172   3.546
10796SOL     OW33286   3.286   6.540   6.869
10796SOL    HW133287   3.307   6.462   6.809
10796SOL    HW233288   3.250   6.506   6.956
10797SOL     OW33289   4.139   2.951   0.903
10797SOL    HW133290   4.118   2.925   0.997
10797SOL    HW233291   4.165   2.869   0.852
10798SOL     OW33292   1.674   0.244   0.644
10798SOL    HW133293   1.622   0.203   0.569
10798SOL    HW233294   1.622   0.237   0.729
10799SOL     OW33295   3.516   1.667   1.365
10799SOL    HW133296   3.480   1.642   1.275
10799SOL    HW233297   3.509   1.589   1.427
10800SOL     OW33298   1.523   6.527   0.224
10800SOL    HW133299   1.455   6.474   0.172
10800SOL    HW233300   1.605   6.539   0.168
10801SOL     OW33301   0.619   0.093   4.795
10801SOL    HW133302   0.619   0.034   4.876
10801SOL    HW233303   0.667   0.048   4.720
10802SOL     OW33304   2.149   3.129   5.104
10802SOL    HW133305   2.234   3.088   5.071
10802SOL    HW233306   2.149   3.227   5.083
10803SOL     OW33307   5.081   4.546   4.892
10803SOL    HW133308   5.121   4.620   4.945
10803SOL    HW233309   5.023   4.490   4.951
10804SOL     OW33310   0.240   4.402   1.518
10804SOL    HW133311   0.287   4.446   1.595
10804SOL    HW233312   0.142   4.399   1.537
10805SOL     OW33313   3.489   6.893   6.520
10805SOL    HW133314   3.531   6.953   6.452
10805SOL    HW233315   3.536   6.904   6.607
10806SOL     OW33316   5.655   4.415   0.052
10806SOL    HW133317   5.579   4.376   0.000
10806SOL    HW233318   5.706   4.479   7.018
10807SOL     OW33319   3.276   6.640   3.930
10807SOL    HW133320   3.327   6.684   4.004
10807SOL    HW233321   3.179   6.661   3.940
10808SOL     OW33322   0.405   3.837   0.567
10808SOL    HW133323   0.503   3.820   0.574
10808SOL    HW233324   0.372   3.805   0.479
10809SOL     OW33325   2.790   0.043   4.125
10809SOL    HW133326   2.848   0.048   4.044
10809SOL    HW233327   2.696   0.067   4.100
10810SOL     OW33328   1.188   0.957   5.736
10810SOL    HW133329   1.100   0.936   5.693
10810SOL    HW233330   1.180   1.041   5.790
10811SOL     OW33331   3.932   5.009   5.064
10811SOL    HW133332   3.881   4.964   5.137
10811SOL    HW233333   3.870   5.025   4.987
10812SOL     OW33334   0.503   3.167   2.206
10812SOL    HW133335   0.541   3.079   2.176
10812SOL    HW233336   0.427   3.192   2.145
10813SOL     OW33337   2.116   6.157   7.004
10813SOL    HW133338   2.151   6.120   0.066
10813SOL    HW233339   2.017   6.145   7.000
10814SOL     OW33340   1.398   0.095   5.434
10814SOL    HW133341   1.400   0.115   5.336
10814SOL    HW233342   1.315   0.133   5.474
10815SOL     OW33343   5.065   5.176   3.793
10815SOL    HW133344   5.020   5.243   3.852
10815SOL    HW233345   5.161   5.167   3.820
10816SOL     OW33346   1.597   1.478   2.432
10816SOL    HW133347   1.507   1.441   2.457
10816SOL    HW233348   1.667   1.407   2.444
10817SOL     OW33349   5.559   6.419   2.730
10817SOL    HW133350   5.594   6.387   2.642
10817SOL    HW233351   5.460   6.403   2.734
10818SOL     OW33352   5.221   3.495   5.720
10818SOL    HW133353   5.246   3.419   5.660
10818SOL    HW233354   5.242   3.582   5.674
10819SOL     OW33355   0.594   4.327   6.821
10819SOL    HW133356   0.513   4.366   6.865
10819SOL    HW233357   0.617   4.380   6.740
10820SOL     OW33358   6.752   7.007   3.988
10820SOL    HW133359   6.708   6.930   4.034
10820SOL    HW233360   6.684   0.051   3.963
10821SOL     OW33361   5.345   6.033   2.353
10821SOL    HW133362   5.440   6.062   2.362
10821SOL    HW233363   5.303   6.025   2.443
10822SOL     OW33364   0.859   1.912   2.661
10822SOL    HW133365   0.805   1.953   2.735
10822SOL    HW233366   0.798   1.858   2.602
10823SOL     OW33367   1.723   5.176   1.104
10823SOL    HW133368   1.744   5.095   1.159
10823SOL    HW233369   1.764   5.167   1.014
10824SOL     OW33370   4.944   6.990   4.007
10824SOL    HW133371   4.989   6.974   3.919
10824SOL    HW233372   4.859   0.017   3.993
10825SOL     OW33373   2.462   0.429   0.581
10825SOL    HW133374   2.365   0.411   0.594
10825SOL    HW233375   2.483   0.523   0.608
10826SOL     OW33376   0.148   3.681   3.520
10826SOL    HW133377   0.120   3.752   3.455
10826SOL    HW233378   0.070   3.653   3.575
10827SOL     OW33379   5.971   3.875   4.323
10827SOL    HW133380   6.028   3.794   4.304
10827SOL    HW233381   5.959   3.927   4.238
10828SOL     OW33382   1.267   5.571   2.643
10828SOL    HW133383   1.271   5.517   2.727
10828SOL    HW233384   1.192   5.538   2.586
10829SOL     OW33385   3.499   3.628   0.642
10829SOL    HW133386   3.433   3.597   0.573
10829SOL    HW233387   3.453   3.636   0.730
10830SOL     OW33388   5.048   2.013   3.463
10830SOL    HW133389   5.100   1.941   3.418
10830SOL    HW233390   5.057   2.098   3.412
10831SOL     OW33391   4.782   6.185   2.026
10831SOL    HW133392   4.735   6.214   1.942
10831SOL    HW233393   4.861   6.243   2.042
10832SOL     OW33394   7.023   2.474   0.932
10832SOL    HW133395   0.055   2.511   0.858
10832SOL    HW233396   6.934   2.520   0.932
10833SOL     OW33397   1.556   0.921   4.305
10833SOL    HW133398   1.546   0.861   4.384
10833SOL    HW233399   1.652   0.928   4.280
10834SOL     OW33400   0.981   2.270   6.216
10834SOL    HW133401   0.881   2.267   6.210
10834SOL    HW233402   1.020   2.194   6.164
10835SOL     OW33403   5.185   1.869   0.972
10835SOL    HW133404   5.108   1.830   1.023
10835SOL    HW233405   5.253   1.903   1.036
10836SOL     OW33406   6.526   1.053   5.332
10836SOL    HW133407   6.433   1.022   5.349
10836SOL    HW233408   6.525   1.151   5.314
10837SOL     OW33409   0.414   4.882   0.439
10837SOL    HW133410   0.453   4.974   0.433
10837SOL    HW233411   0.464   4.830   0.508
10838SOL     OW33412   5.647   6.742   4.199
10838SOL    HW133413   5.722   6.808   4.198
10838SOL    HW233414   5.563   6.785   4.166
10839SOL     OW33415   3.147   3.086   0.711
10839SOL    HW133416   3.225   3.088   0.774
10839SOL    HW233417   3.131   2.992   0.682
10840SOL     OW33418   4.239   6.579   1.794
10840SOL    HW133419   4.185   6.543   1.718
10840SOL    HW233420   4.199   6.547   1.880
10841SOL     OW33421   3.833   5.807   6.763
10841SOL    HW133422   3.793   5.737   6.703
10841SOL    HW233423   3.763   5.874   6.786
10842SOL     OW33424   6.397   3.601   0.761
10842SOL    HW133425   6.305   3.569   0.738
10842SOL    HW233426   6.404   3.616   0.859
10843SOL     OW33427   0.396   2.092   2.197
10843SOL    HW133428   0.302   2.108   2.228
10843SOL    HW233429   0.460   2.113   2.271
10844SOL     OW33430   0.442   6.565   4.200
10844SOL    HW133431   0.535   6.585   4.170
10844SOL    HW233432   0.385   6.646   4.186
10845SOL     OW33433   1.900   0.893   1.194
10845SOL    HW133434   1.890   0.991   1.215
10845SOL    HW233435   1.836   0.868   1.122
10846SOL     OW33436   4.664   2.846   0.347
10846SOL    HW133437   4.582   2.788   0.357
10846SOL    HW233438   4.696   2.842   0.253
10847SOL     OW33439   2.885   2.182   6.614
10847SOL    HW133440   2.878   2.254   6.545
10847SOL    HW233441   2.978   2.182   6.653
10848SOL     OW33442   3.412   2.134   6.512
10848SOL    HW133443   3.420   2.047   6.464
10848SOL    HW233444   3.398   2.207   6.445
10849SOL     OW33445   3.337   4.960   3.440
10849SOL    HW133446   3.406   4.954   3.512
10849SOL    HW233447   3.380   4.996   3.357
10850SOL     OW33448   4.735   6.289   6.318
10850SOL    HW133449   4.706   6.212   6.374
10850SOL    HW233450   4.819   6.265   6.269
10851SOL     OW33451   2.846   2.663   6.606
10851SOL    HW133452   2.821   2.750   6.650
10851SOL    HW233453   2.772   2.633   6.547
10852SOL     OW33454   0.580   0.132   6.187
10852SOL    HW133455   0.607   0.052   6.240
10852SOL    HW233456   0.529   0.195   6.246
10853SOL     OW33457   3.572   1.664   5.399
10853SOL    HW133458   3.496   1.698   5.455
10853SOL    HW233459   3.545   1.664   5.302
10854SOL     OW33460   6.303   0.469   5.655
10854SOL    HW133461   6.300   0.511   5.746
10854SOL    HW233462   6.396   0.478   5.618
10855SOL     OW33463   2.844   6.336   2.424
10855SOL    HW133464   2.823   6.351   2.328
10855SOL    HW233465   2.852   6.238   2.442
10856SOL     OW33466   5.925   0.850   1.773
10856SOL    HW133467   5.947   0.816   1.681
10856SOL    HW233468   5.963   0.942   1.784
10857SOL     OW33469   5.433   3.111   3.736
10857SOL    HW133470   5.475   3.193   3.772
10857SOL    HW233471   5.477   3.085   3.650
10858SOL     OW33472   1.373   2.695   6.716
10858SOL    HW133473   1.358   2.621   6.781
10858SOL    HW233474   1.295   2.702   6.654
10859SOL     OW33475   2.198   4.575   3.907
10859SOL    HW133476   2.289   4.536   3.897
10859SOL    HW233477   2.130   4.501   3.906
10860SOL     OW33478   6.544   1.298   5.705
10860SOL    HW133479   6.529   1.233   5.780
10860SOL    HW233480   6.461   1.302   5.649
10861SOL     OW33481   3.589   2.733   1.853
10861SOL    HW133482   3.608   2.645   1.809
10861SOL    HW233483   3.567   2.718   1.949
10862SOL     OW33484   2.871   1.541   6.787
10862SOL    HW133485   2.946   1.508   6.845
10862SOL    HW233486   2.869   1.641   6.789
10863SOL     OW33487   3.477   0.824   2.449
10863SOL    HW133488   3.574   0.817   2.429
10863SOL    HW233489   3.447   0.918   2.435
10864SOL     OW33490   2.829   4.526   1.323
10864SOL    HW133491   2.756   4.595   1.314
10864SOL    HW233492   2.916   4.572   1.337
10865SOL     OW33493   5.856   2.604   3.416
10865SOL    HW133494   5.930   2.608   3.349
10865SOL    HW233495   5.847   2.693   3.461
10866SOL     OW33496   6.108   3.641   1.179
10866SOL    HW133497   6.148   3.570   1.237
10866SOL    HW233498   6.016   3.662   1.211
10867SOL     OW33499   2.759   3.495   0.371
10867SOL    HW133500   2.796   3.551   0.297
10867SOL    HW233501   2.696   3.550   0.426
10868SOL     OW33502   1.248   1.857   3.190
10868SOL    HW133503   1.318   1.889   3.253
10868SOL    HW233504   1.208   1.772   3.224
10869NA      NA33505   0.690   2.613   6.314
10870NA      NA33506   4.470   4.464   5.223
10871NA      NA33507   2.316   4.294   2.177
10872NA      NA33508   4.914   4.596   3.384
10873NA      NA33509   4.179   2.294   5.222
10874NA      NA33510   3.465   4.412   1.410
10875NA      NA33511   1.016   4.525   0.308
10876NA      NA33512   4.123   4.279   1.566
10877NA      NA33513   4.804   4.570   0.990
10878NA      NA33514   3.288   0.357   5.491
10879NA      NA33515   5.857   5.728   1.001
10880NA      NA33516   1.688   0.742   5.886
10881NA      NA33517   5.006   5.060   2.008
10882NA      NA33518   3.827   3.237   0.838
   7.02428   7.02428   7.02428
